<event>
 4    1  0.6740123E+001  0.2275554E+02  0.7546771E-02  0.1495591E+00
          2   -1    0    0  502    0  0.00000000000E+00  0.00000000000E+00  0.88193321067E+03  0.88193321067E+03  0.00000000000E+00 0. -1.
         -2   -1    0    0    0  501 -0.00000000000E+00 -0.00000000000E+00 -0.16841352983E+01  0.16841352983E+01  0.00000000000E+00 0.  1.
          1    1    1    2  502    0 -0.10236841124E+02 -0.20322933772E+02  0.83551119638E+02  0.86594481037E+02  0.00000000000E+00 0.  1.
         -1    1    1    2    0  501  0.10236841124E+02  0.20322933772E+02  0.79669795573E+03  0.79702286493E+03  0.00000000000E+00 0. -1.
</event>
<event>
 4    1  0.6740123E+001  0.3762291E+02  0.7546771E-02  0.1363008E+00
          2   -1    0    0  502    0  0.00000000000E+00  0.00000000000E+00  0.35308855785E+04  0.35308855785E+04  0.00000000000E+00 0.  1.
         -2   -1    0    0    0  501 -0.00000000000E+00 -0.00000000000E+00 -0.42331149918E+00  0.42331149918E+00  0.00000000000E+00 0. -1.
          1    1    1    2  502    0  0.21243869271E+02 -0.31051269226E+02  0.13588394592E+04  0.13593602021E+04  0.00000000000E+00 0. -1.
         -1    1    1    2    0  501 -0.21243869271E+02  0.31051269226E+02  0.21716228079E+04  0.21719486879E+04  0.00000000000E+00 0.  1.
</event>
<event>
 4    1  0.6740123E+001  0.2245199E+02  0.7546771E-02  0.1499497E+00
          2   -1    0    0  502    0  0.00000000000E+00  0.00000000000E+00  0.19356465741E+03  0.19356465741E+03  0.00000000000E+00 0.  1.
         -2   -1    0    0    0  501 -0.00000000000E+00 -0.00000000000E+00 -0.39471905575E+01  0.39471905575E+01  0.00000000000E+00 0. -1.
          1    1    1    2  502    0 -0.11468762545E+02  0.19301793097E+02  0.37205522436E+02  0.43455064502E+02  0.00000000000E+00 0. -1.
         -1    1    1    2    0  501  0.11468762545E+02 -0.19301793097E+02  0.15241194441E+03  0.15405678346E+03  0.00000000000E+00 0.  1.
</event>
<event>
 4    1  0.6740123E+001  0.2167497E+02  0.7546771E-02  0.1509842E+00
          2   -1    0    0  502    0  0.00000000000E+00  0.00000000000E+00  0.79940685539E+03  0.79940685539E+03  0.00000000000E+00 0. -1.
         -2   -1    0    0    0  501 -0.00000000000E+00 -0.00000000000E+00 -0.58959509401E+00  0.58959509401E+00  0.00000000000E+00 0.  1.
          1    1    1    2  502    0 -0.16301231238E+02  0.14285449008E+02  0.37667711812E+03  0.37730021933E+03  0.00000000000E+00 0.  1.
         -1    1    1    2    0  501  0.16301231238E+02 -0.14285449008E+02  0.42214014217E+03  0.42269623115E+03  0.00000000000E+00 0. -1.
</event>
<event>
 4    1  0.6740123E+001  0.3627191E+02  0.7546771E-02  0.1371835E+00
          2   -1    0    0  502    0  0.00000000000E+00  0.00000000000E+00  0.39763964743E+03  0.39763964743E+03  0.00000000000E+00 0. -1.
         -2   -1    0    0    0  501 -0.00000000000E+00 -0.00000000000E+00 -0.55550710482E+01  0.55550710482E+01  0.00000000000E+00 0.  1.
          1    1    1    2  502    0 -0.36226441679E+02 -0.18156017507E+01  0.67843077748E+02  0.76930713534E+02  0.00000000000E+00 0.  1.
         -1    1    1    2    0  501  0.36226441679E+02  0.18156017507E+01  0.32424149864E+03  0.32626400495E+03  0.00000000000E+00 0. -1.
</event>
<event>
 4    1  0.6740123E+001  0.2507574E+02  0.7546771E-02  0.1467958E+00
          2   -1    0    0  502    0  0.00000000000E+00  0.00000000000E+00  0.72830436635E+03  0.72830436635E+03  0.00000000000E+00 0. -1.
         -2   -1    0    0    0  501 -0.00000000000E+00 -0.00000000000E+00 -0.10316591428E+01  0.10316591428E+01  0.00000000000E+00 0.  1.
          1    1    1    2  502    0  0.25059314233E+02  0.90734012787E+00  0.51092323318E+03  0.51153821236E+03  0.00000000000E+00 0. -1.
         -1    1    1    2    0  501 -0.25059314233E+02 -0.90734012787E+00  0.21634947403E+03  0.21779781314E+03  0.00000000000E+00 0.  1.
</event>
<event>
 4    1  0.6740123E+001  0.2669716E+02  0.7546771E-02  0.1450674E+00
          2   -1    0    0  502    0  0.00000000000E+00  0.00000000000E+00  0.57898652815E+01  0.57898652815E+01  0.00000000000E+00 0.  1.
         -2   -1    0    0    0  501 -0.00000000000E+00 -0.00000000000E+00 -0.14035857362E+03  0.14035857362E+03  0.00000000000E+00 0. -1.
          1    1    1    2  502    0 -0.23455392727E+02  0.12750802597E+02 -0.92907598958E+02  0.96667266222E+02  0.00000000000E+00 0. -1.
         -1    1    1    2    0  501  0.23455392727E+02 -0.12750802597E+02 -0.41661109382E+02  0.49481172680E+02  0.00000000000E+00 0.  1.
</event>
<event>
 4    1  0.6740123E+001  0.2000561E+02  0.7546771E-02  0.1533950E+00
          2   -1    0    0  502    0  0.00000000000E+00  0.00000000000E+00  0.25687543256E+01  0.25687543256E+01  0.00000000000E+00 0. -1.
         -2   -1    0    0    0  501 -0.00000000000E+00 -0.00000000000E+00 -0.49098877010E+03  0.49098877010E+03  0.00000000000E+00 0.  1.
          1    1    1    2  502    0 -0.84649826184E+01  0.18126454720E+02 -0.40311704103E+02  0.45002864121E+02  0.00000000000E+00 0. -1.
         -1    1    1    2    0  501  0.84649826184E+01 -0.18126454720E+02 -0.44810831168E+03  0.44855466031E+03  0.00000000000E+00 0.  1.
</event>
<event>
 4    1  0.6740123E+001  0.2020354E+02  0.7546771E-02  0.1530947E+00
          2   -1    0    0  502    0  0.00000000000E+00  0.00000000000E+00  0.18536592845E+03  0.18536592845E+03  0.00000000000E+00 0.  1.
         -2   -1    0    0    0  501 -0.00000000000E+00 -0.00000000000E+00 -0.27794270350E+01  0.27794270350E+01  0.00000000000E+00 0. -1.
          1    1    1    2  502    0  0.13565590912E+02 -0.14971896102E+02  0.13416980806E+03  0.13568242452E+03  0.00000000000E+00 0.  1.
         -1    1    1    2    0  501 -0.13565590912E+02  0.14971896102E+02  0.48416693357E+02  0.52462930963E+02  0.00000000000E+00 0. -1.
</event>
<event>
 4    1  0.6740123E+001  0.2359123E+02  0.7546771E-02  0.1485204E+00
          2   -1    0    0  502    0  0.00000000000E+00  0.00000000000E+00  0.12460373686E+04  0.12460373686E+04  0.00000000000E+00 0. -1.
         -2   -1    0    0    0  501 -0.00000000000E+00 -0.00000000000E+00 -0.45302394465E+00  0.45302394465E+00  0.00000000000E+00 0.  1.
          1    1    1    2  502    0  0.60758836887E+01  0.22795393991E+02  0.69670157670E+03  0.69710087744E+03  0.00000000000E+00 0. -1.
         -1    1    1    2    0  501 -0.60758836887E+01 -0.22795393991E+02  0.54888276793E+03  0.54938951508E+03  0.00000000000E+00 0.  1.
</event>
<event>
 4    1  0.6740123E+001  0.2245332E+02  0.7546771E-02  0.1499479E+00
          2   -1    0    0  502    0  0.00000000000E+00  0.00000000000E+00  0.17564029829E+04  0.17564029829E+04  0.00000000000E+00 0. -1.
         -2   -1    0    0    0  501 -0.00000000000E+00 -0.00000000000E+00 -0.33224272868E+00  0.33224272868E+00  0.00000000000E+00 0.  1.
          1    1    1    2  502    0  0.82020683460E+01 -0.20901622097E+02  0.12020374527E+04  0.12022471416E+04  0.00000000000E+00 0. -1.
         -1    1    1    2    0  501 -0.82020683460E+01  0.20901622097E+02  0.55403328749E+03  0.55448808407E+03  0.00000000000E+00 0.  1.
</event>
<event>
 4    1  0.6740123E+001  0.2174718E+02  0.7546771E-02  0.1508859E+00
          2   -1    0    0  502    0  0.00000000000E+00  0.00000000000E+00  0.15631163818E+04  0.15631163818E+04  0.00000000000E+00 0.  1.
         -2   -1    0    0    0  501 -0.00000000000E+00 -0.00000000000E+00 -0.30681741944E+00  0.30681741944E+00  0.00000000000E+00 0. -1.
          1    1    1    2  502    0 -0.10716346437E+02 -0.18923524761E+02  0.87346447525E+03  0.87373515975E+03  0.00000000000E+00 0.  1.
         -1    1    1    2    0  501  0.10716346437E+02  0.18923524761E+02  0.68934508917E+03  0.68968803951E+03  0.00000000000E+00 0. -1.
</event>
<event>
 4    1  0.6740123E+001  0.3466219E+02  0.7546771E-02  0.1382954E+00
          2   -1    0    0  502    0  0.00000000000E+00  0.00000000000E+00  0.27470921979E+03  0.27470921979E+03  0.00000000000E+00 0. -1.
         -2   -1    0    0    0  501 -0.00000000000E+00 -0.00000000000E+00 -0.62331773964E+01  0.62331773964E+01  0.00000000000E+00 0.  1.
          1    1    1    2  502    0 -0.33998183366E+02 -0.67521243456E+01  0.21096355594E+03  0.21379216447E+03  0.00000000000E+00 0. -1.
         -1    1    1    2    0  501  0.33998183366E+02  0.67521243456E+01  0.57512486454E+02  0.67150232713E+02  0.00000000000E+00 0.  1.
</event>
<event>
 4    1  0.6740123E+001  0.2040415E+02  0.7546771E-02  0.1527945E+00
          2   -1    0    0  502    0  0.00000000000E+00  0.00000000000E+00  0.16290368632E+02  0.16290368632E+02  0.00000000000E+00 0.  1.
         -2   -1    0    0    0  501 -0.00000000000E+00 -0.00000000000E+00 -0.25573738326E+02  0.25573738326E+02  0.00000000000E+00 0. -1.
          1    1    1    2  502    0 -0.77791947469E+01 -0.18863019727E+02 -0.51806900471E+01  0.21051577933E+02  0.00000000000E+00 0.  1.
         -1    1    1    2    0  501  0.77791947469E+01  0.18863019727E+02 -0.41026796471E+01  0.20812529025E+02  0.00000000000E+00 0. -1.
</event>
<event>
 4    1  0.6740123E+001  0.3785677E+02  0.7546771E-02  0.1361524E+00
          2   -1    0    0  502    0  0.00000000000E+00  0.00000000000E+00  0.84056591389E+01  0.84056591389E+01  0.00000000000E+00 0.  1.
         -2   -1    0    0    0  501 -0.00000000000E+00 -0.00000000000E+00 -0.47003873192E+03  0.47003873192E+03  0.00000000000E+00 0. -1.
          1    1    1    2  502    0 -0.76656002065E+01  0.37072547200E+02 -0.39847171438E+02  0.54963008051E+02  0.00000000000E+00 0.  1.
         -1    1    1    2    0  501  0.76656002065E+01 -0.37072547200E+02 -0.42178590135E+03  0.42348138301E+03  0.00000000000E+00 0. -1.
</event>
<event>
 4    1  0.6740123E+001  0.3885272E+02  0.7546771E-02  0.1355343E+00
          2   -1    0    0  502    0  0.00000000000E+00  0.00000000000E+00  0.47778121497E+03  0.47778121497E+03  0.00000000000E+00 0.  1.
         -2   -1    0    0    0  501 -0.00000000000E+00 -0.00000000000E+00 -0.32291986806E+01  0.32291986806E+01  0.00000000000E+00 0. -1.
          1    1    1    2  502    0  0.26648311702E+02  0.28273680252E+02  0.27261834255E+03  0.27537300922E+03  0.00000000000E+00 0. -1.
         -1    1    1    2    0  501 -0.26648311702E+02 -0.28273680252E+02  0.20193367374E+03  0.20563740443E+03  0.00000000000E+00 0.  1.
</event>
<event>
 4    1  0.6740123E+001  0.3143966E+02  0.7546771E-02  0.1407485E+00
          2   -1    0    0  502    0  0.00000000000E+00  0.00000000000E+00  0.16939670863E+03  0.16939670863E+03  0.00000000000E+00 0.  1.
         -2   -1    0    0    0  501 -0.00000000000E+00 -0.00000000000E+00 -0.61496943677E+01  0.61496943677E+01  0.00000000000E+00 0. -1.
          1    1    1    2  502    0  0.22344651713E+02 -0.22117154406E+02  0.10147482177E+03  0.10623366431E+03  0.00000000000E+00 0. -1.
         -1    1    1    2    0  501 -0.22344651713E+02  0.22117154406E+02  0.61772192483E+02  0.69312738680E+02  0.00000000000E+00 0.  1.
</event>
<event>
 4    1  0.6740123E+001  0.2148497E+02  0.7546771E-02  0.1512452E+00
          2   -1    0    0  502    0  0.00000000000E+00  0.00000000000E+00  0.99367803326E+02  0.99367803326E+02  0.00000000000E+00 0.  1.
         -2   -1    0    0    0  501 -0.00000000000E+00 -0.00000000000E+00 -0.54596892232E+01  0.54596892232E+01  0.00000000000E+00 0. -1.
          1    1    1    2  502    0  0.19264026629E+02  0.95132207299E+01  0.67195812656E+02  0.70547015026E+02  0.00000000000E+00 0. -1.
         -1    1    1    2    0  501 -0.19264026629E+02 -0.95132207299E+01  0.26712301447E+02  0.34280477523E+02  0.00000000000E+00 0.  1.
</event>
<event>
 4    1  0.6740123E+001  0.2000130E+02  0.7546771E-02  0.1534016E+00
          2   -1    0    0  502    0  0.00000000000E+00  0.00000000000E+00  0.47191388694E+02  0.47191388694E+02  0.00000000000E+00 0. -1.
         -2   -1    0    0    0  501 -0.00000000000E+00 -0.00000000000E+00 -0.85583323834E+01  0.85583323834E+01  0.00000000000E+00 0.  1.
          1    1    1    2  502    0  0.50007012371E+01 -0.19366082000E+02  0.22030099466E+02  0.29755292426E+02  0.00000000000E+00 0. -1.
         -1    1    1    2    0  501 -0.50007012371E+01  0.19366082000E+02  0.16602956844E+02  0.25994428651E+02  0.00000000000E+00 0.  1.
</event>
<event>
 4    1  0.6740123E+001  0.2099699E+02  0.7546771E-02  0.1519308E+00
          2   -1    0    0  502    0  0.00000000000E+00  0.00000000000E+00  0.12789910272E+03  0.12789910272E+03  0.00000000000E+00 0.  1.
         -2   -1    0    0    0  501 -0.00000000000E+00 -0.00000000000E+00 -0.35356993884E+01  0.35356993884E+01  0.00000000000E+00 0. -1.
          1    1    1    2  502    0  0.65818308357E+01  0.19938735203E+02  0.72588057015E+02  0.75563878142E+02  0.00000000000E+00 0.  1.
         -1    1    1    2    0  501 -0.65818308357E+01 -0.19938735203E+02  0.51775346316E+02  0.55870923966E+02  0.00000000000E+00 0. -1.
</event>
<event>
 4    1  0.6740123E+001  0.3904894E+02  0.7546771E-02  0.1354151E+00
          2   -1    0    0  502    0  0.00000000000E+00  0.00000000000E+00  0.46854891694E+02  0.46854891694E+02  0.00000000000E+00 0. -1.
         -2   -1    0    0    0  501 -0.00000000000E+00 -0.00000000000E+00 -0.32603833649E+02  0.32603833649E+02  0.00000000000E+00 0.  1.
          1    1    1    2  502    0  0.12727654542E+02 -0.36916479244E+02  0.54157030101E+01  0.39422702457E+02  0.00000000000E+00 0. -1.
         -1    1    1    2    0  501 -0.12727654542E+02  0.36916479244E+02  0.88353550341E+01  0.40036022886E+02  0.00000000000E+00 0.  1.
</event>
<event>
 4    1  0.6740123E+001  0.2033836E+02  0.7546771E-02  0.1528925E+00
          2   -1    0    0  502    0  0.00000000000E+00  0.00000000000E+00  0.18152153115E+01  0.18152153115E+01  0.00000000000E+00 0.  1.
         -2   -1    0    0    0  501 -0.00000000000E+00 -0.00000000000E+00 -0.33788432163E+03  0.33788432163E+03  0.00000000000E+00 0. -1.
          1    1    1    2  502    0 -0.15013623851E+02  0.13720052060E+02 -0.71120095464E+02  0.73971053179E+02  0.00000000000E+00 0.  1.
         -1    1    1    2    0  501  0.15013623851E+02 -0.13720052060E+02 -0.26494901086E+03  0.26572848376E+03  0.00000000000E+00 0. -1.
</event>
<event>
 4    1  0.6740123E+001  0.2298506E+02  0.7546771E-02  0.1492686E+00
          2   -1    0    0  502    0  0.00000000000E+00  0.00000000000E+00  0.19814471100E+03  0.19814471100E+03  0.00000000000E+00 0.  1.
         -2   -1    0    0    0  501 -0.00000000000E+00 -0.00000000000E+00 -0.37619573768E+01  0.37619573768E+01  0.00000000000E+00 0. -1.
          1    1    1    2  502    0  0.15770815391E+02  0.16721074859E+02  0.15167317029E+03  0.15340490067E+03  0.00000000000E+00 0.  1.
         -1    1    1    2    0  501 -0.15770815391E+02 -0.16721074859E+02  0.42709583331E+02  0.48501767708E+02  0.00000000000E+00 0. -1.
</event>
<event>
 4    1  0.6740123E+001  0.3508086E+02  0.7546771E-02  0.1379996E+00
          2   -1    0    0  502    0  0.00000000000E+00  0.00000000000E+00  0.10102098955E+04  0.10102098955E+04  0.00000000000E+00 0.  1.
         -2   -1    0    0    0  501 -0.00000000000E+00 -0.00000000000E+00 -0.13129887275E+01  0.13129887275E+01  0.00000000000E+00 0. -1.
          1    1    1    2  502    0 -0.34976785264E+02 -0.27002177721E+01  0.64031978033E+03  0.64128003849E+03  0.00000000000E+00 0.  1.
         -1    1    1    2    0  501  0.34976785264E+02  0.27002177721E+01  0.36857712644E+03  0.37024284573E+03  0.00000000000E+00 0. -1.
</event>
<event>
 4    1  0.6740123E+001  0.2055194E+02  0.7546771E-02  0.1525759E+00
          2   -1    0    0  502    0  0.00000000000E+00  0.00000000000E+00  0.46341839962E+03  0.46341839962E+03  0.00000000000E+00 0. -1.
         -2   -1    0    0    0  501 -0.00000000000E+00 -0.00000000000E+00 -0.13869737364E+01  0.13869737364E+01  0.00000000000E+00 0.  1.
          1    1    1    2  502    0 -0.18924801753E+02  0.80146297595E+01  0.36709543399E+03  0.36767028717E+03  0.00000000000E+00 0. -1.
         -1    1    1    2    0  501  0.18924801753E+02 -0.80146297595E+01  0.94935991898E+02  0.97135086191E+02  0.00000000000E+00 0.  1.
</event>
<event>
 4    1  0.6740123E+001  0.3377939E+02  0.7546771E-02  0.1389354E+00
          2   -1    0    0  502    0  0.00000000000E+00  0.00000000000E+00  0.33248393101E+02  0.33248393101E+02  0.00000000000E+00 0. -1.
         -2   -1    0    0    0  501 -0.00000000000E+00 -0.00000000000E+00 -0.59294335104E+02  0.59294335104E+02  0.00000000000E+00 0.  1.
          1    1    1    2  502    0  0.33767359921E+02  0.90133719606E+00  0.17007529167E+02  0.37819347603E+02  0.00000000000E+00 0. -1.
         -1    1    1    2    0  501 -0.33767359921E+02 -0.90133719606E+00 -0.43053471170E+02  0.54723380603E+02  0.00000000000E+00 0.  1.
</event>
<event>
 4    1  0.6740123E+001  0.3907090E+02  0.7546771E-02  0.1354018E+00
          2   -1    0    0  502    0  0.00000000000E+00  0.00000000000E+00  0.18076098145E+04  0.18076098145E+04  0.00000000000E+00 0. -1.
         -2   -1    0    0    0  501 -0.00000000000E+00 -0.00000000000E+00 -0.12873011837E+01  0.12873011837E+01  0.00000000000E+00 0.  1.
          1    1    1    2  502    0  0.32865180524E+02  0.21128540925E+02  0.37270964468E+03  0.37475193738E+03  0.00000000000E+00 0. -1.
         -1    1    1    2    0  501 -0.32865180524E+02 -0.21128540925E+02  0.14336128686E+04  0.14341451783E+04  0.00000000000E+00 0.  1.
</event>
<event>
 4    1  0.6740123E+001  0.2097924E+02  0.7546771E-02  0.1519561E+00
          2   -1    0    0  502    0  0.00000000000E+00  0.00000000000E+00  0.65782458339E+01  0.65782458339E+01  0.00000000000E+00 0. -1.
         -2   -1    0    0    0  501 -0.00000000000E+00 -0.00000000000E+00 -0.26822055280E+03  0.26822055280E+03  0.00000000000E+00 0.  1.
          1    1    1    2  502    0  0.32128957012E+01  0.20731761859E+02 -0.11785886725E+02  0.24063162187E+02  0.00000000000E+00 0. -1.
         -1    1    1    2    0  501 -0.32128957012E+01 -0.20731761859E+02 -0.24985642025E+03  0.25073563645E+03  0.00000000000E+00 0.  1.
</event>
<event>
 4    1  0.6740123E+001  0.2722362E+02  0.7546771E-02  0.1445375E+00
          2   -1    0    0  502    0  0.00000000000E+00  0.00000000000E+00  0.61470582663E+03  0.61470582663E+03  0.00000000000E+00 0.  1.
         -2   -1    0    0    0  501 -0.00000000000E+00 -0.00000000000E+00 -0.12698423157E+01  0.12698423157E+01  0.00000000000E+00 0. -1.
          1    1    1    2  502    0  0.15074218354E+02  0.22669219690E+02  0.23747594261E+03  0.23903127180E+03  0.00000000000E+00 0. -1.
         -1    1    1    2    0  501 -0.15074218354E+02 -0.22669219690E+02  0.37596004170E+03  0.37694439714E+03  0.00000000000E+00 0.  1.
</event>
<event>
 4    1  0.6740123E+001  0.7168053E+02  0.7546771E-02  0.1224602E+00
          2   -1    0    0  502    0  0.00000000000E+00  0.00000000000E+00  0.16853991660E+04  0.16853991660E+04  0.00000000000E+00 0.  1.
         -2   -1    0    0    0  501 -0.00000000000E+00 -0.00000000000E+00 -0.32237482625E+01  0.32237482625E+01  0.00000000000E+00 0. -1.
          1    1    1    2  502    0 -0.41087266181E+02 -0.58736144649E+02  0.64428447824E+03  0.64825966019E+03  0.00000000000E+00 0.  1.
         -1    1    1    2    0  501  0.41087266181E+02  0.58736144649E+02  0.10378909395E+04  0.10403632540E+04  0.00000000000E+00 0. -1.
</event>
<event>
 4    1  0.6740123E+001  0.2762367E+02  0.7546771E-02  0.1441442E+00
          2   -1    0    0  502    0  0.00000000000E+00  0.00000000000E+00  0.94934683877E+00  0.94934683877E+00  0.00000000000E+00 0.  1.
         -2   -1    0    0    0  501 -0.00000000000E+00 -0.00000000000E+00 -0.82918614487E+03  0.82918614487E+03  0.00000000000E+00 0. -1.
          1    1    1    2  502    0 -0.11075967626E+02  0.25305924457E+02 -0.48677156193E+03  0.48755473577E+03  0.00000000000E+00 0. -1.
         -1    1    1    2    0  501  0.11075967626E+02 -0.25305924457E+02 -0.34146523611E+03  0.34258075594E+03  0.00000000000E+00 0.  1.
</event>
<event>
 4    1  0.6740123E+001  0.2252851E+02  0.7546771E-02  0.1498505E+00
          2   -1    0    0  502    0  0.00000000000E+00  0.00000000000E+00  0.48408938656E+03  0.48408938656E+03  0.00000000000E+00 0.  1.
         -2   -1    0    0    0  501 -0.00000000000E+00 -0.00000000000E+00 -0.10485921444E+01  0.10485921444E+01  0.00000000000E+00 0. -1.
          1    1    1    2  502    0  0.21983840963E+02  0.49238659237E+01  0.24453899225E+03  0.24557453543E+03  0.00000000000E+00 0. -1.
         -1    1    1    2    0  501 -0.21983840963E+02 -0.49238659237E+01  0.23850180216E+03  0.23956344327E+03  0.00000000000E+00 0.  1.
</event>
<event>
 4    1  0.6740123E+001  0.6142562E+02  0.7546771E-02  0.1255064E+00
          2   -1    0    0  502    0  0.00000000000E+00  0.00000000000E+00  0.67381883758E+02  0.67381883758E+02  0.00000000000E+00 0. -1.
         -2   -1    0    0    0  501 -0.00000000000E+00 -0.00000000000E+00 -0.70150604978E+02  0.70150604978E+02  0.00000000000E+00 0.  1.
          1    1    1    2  502    0 -0.15927471426E+02  0.59324724293E+02  0.29505109229E+02  0.68144396168E+02  0.00000000000E+00 0. -1.
         -1    1    1    2    0  501  0.15927471426E+02 -0.59324724293E+02 -0.32273830449E+02  0.69388092568E+02  0.00000000000E+00 0.  1.
</event>
<event>
 4    1  0.6740123E+001  0.3261804E+02  0.7546771E-02  0.1398130E+00
          2   -1    0    0  502    0  0.00000000000E+00  0.00000000000E+00  0.80377169969E+02  0.80377169969E+02  0.00000000000E+00 0.  1.
         -2   -1    0    0    0  501 -0.00000000000E+00 -0.00000000000E+00 -0.15658620693E+02  0.15658620693E+02  0.00000000000E+00 0. -1.
          1    1    1    2  502    0 -0.28451540657E+02 -0.15951374209E+02  0.13475127218E+02  0.35291862496E+02  0.00000000000E+00 0. -1.
         -1    1    1    2    0  501  0.28451540657E+02  0.15951374209E+02  0.51243422057E+02  0.60743928166E+02  0.00000000000E+00 0.  1.
</event>
<event>
 4    1  0.6740123E+001  0.2774407E+02  0.7546771E-02  0.1440274E+00
          2   -1    0    0  502    0  0.00000000000E+00  0.00000000000E+00  0.10942578741E+04  0.10942578741E+04  0.00000000000E+00 0. -1.
         -2   -1    0    0    0  501 -0.00000000000E+00 -0.00000000000E+00 -0.11222729206E+01  0.11222729206E+01  0.00000000000E+00 0.  1.
          1    1    1    2  502    0 -0.72820905017E+01 -0.26771342842E+02  0.88115652495E+03  0.88159319139E+03  0.00000000000E+00 0. -1.
         -1    1    1    2    0  501  0.72820905017E+01  0.26771342842E+02  0.21197907624E+03  0.21378695564E+03  0.00000000000E+00 0.  1.
</event>
<event>
 4    1  0.6740123E+001  0.2245149E+02  0.7546771E-02  0.1499503E+00
          2   -1    0    0  502    0  0.00000000000E+00  0.00000000000E+00  0.80925934701E+02  0.80925934701E+02  0.00000000000E+00 0. -1.
         -2   -1    0    0    0  501 -0.00000000000E+00 -0.00000000000E+00 -0.10842169483E+02  0.10842169483E+02  0.00000000000E+00 0.  1.
          1    1    1    2  502    0  0.13634524913E+02 -0.17837302205E+02  0.64972374834E+02  0.68742120357E+02  0.00000000000E+00 0. -1.
         -1    1    1    2    0  501 -0.13634524913E+02  0.17837302205E+02  0.51113903839E+01  0.23025983827E+02  0.00000000000E+00 0.  1.
</event>
<event>
 4    1  0.6740123E+001  0.2822680E+02  0.7546771E-02  0.1435659E+00
          2   -1    0    0  502    0  0.00000000000E+00  0.00000000000E+00  0.82464176355E+00  0.82464176355E+00  0.00000000000E+00 0. -1.
         -2   -1    0    0    0  501 -0.00000000000E+00 -0.00000000000E+00 -0.11439009185E+04  0.11439009185E+04  0.00000000000E+00 0.  1.
          1    1    1    2  502    0  0.98953572555E+01 -0.26435471873E+02 -0.34593423018E+03  0.34708391475E+03  0.00000000000E+00 0. -1.
         -1    1    1    2    0  501 -0.98953572555E+01  0.26435471873E+02 -0.79714204652E+03  0.79764164548E+03  0.00000000000E+00 0.  1.
</event>
<event>
 4    1  0.6740123E+001  0.3024202E+02  0.7546771E-02  0.1417505E+00
          2   -1    0    0  502    0  0.00000000000E+00  0.00000000000E+00  0.11601862737E+03  0.11601862737E+03  0.00000000000E+00 0.  1.
         -2   -1    0    0    0  501 -0.00000000000E+00 -0.00000000000E+00 -0.78835447083E+01  0.78835447083E+01  0.00000000000E+00 0. -1.
          1    1    1    2  502    0  0.25040164132E+02  0.16957888556E+02  0.54561857363E+02  0.62382498210E+02  0.00000000000E+00 0.  1.
         -1    1    1    2    0  501 -0.25040164132E+02 -0.16957888556E+02  0.53573225303E+02  0.61519673872E+02  0.00000000000E+00 0. -1.
</event>
<event>
 4    1  0.6740123E+001  0.5282111E+02  0.7546771E-02  0.1286384E+00
          2   -1    0    0  502    0  0.00000000000E+00  0.00000000000E+00  0.19183607344E+04  0.19183607344E+04  0.00000000000E+00 0.  1.
         -2   -1    0    0    0  501 -0.00000000000E+00 -0.00000000000E+00 -0.16309610994E+01  0.16309610994E+01  0.00000000000E+00 0. -1.
          1    1    1    2  502    0  0.50505269971E+02 -0.15468911950E+02  0.12742225543E+04  0.12753168969E+04  0.00000000000E+00 0.  1.
         -1    1    1    2    0  501 -0.50505269971E+02  0.15468911950E+02  0.64250721898E+03  0.64467479862E+03  0.00000000000E+00 0. -1.
</event>
<event>
 4    1  0.6740123E+001  0.2596890E+02  0.7546771E-02  0.1458250E+00
          2   -1    0    0  502    0  0.00000000000E+00  0.00000000000E+00  0.12802110774E+04  0.12802110774E+04  0.00000000000E+00 0.  1.
         -2   -1    0    0    0  501 -0.00000000000E+00 -0.00000000000E+00 -0.54356317269E+00  0.54356317269E+00  0.00000000000E+00 0. -1.
          1    1    1    2  502    0 -0.85998002671E+01 -0.24503614075E+02  0.75237399371E+03  0.75282203081E+03  0.00000000000E+00 0.  1.
         -1    1    1    2    0  501  0.85998002671E+01  0.24503614075E+02  0.52729352053E+03  0.52793260977E+03  0.00000000000E+00 0. -1.
</event>
<event>
 4    1  0.6740123E+001  0.2284532E+02  0.7546771E-02  0.1494450E+00
          2   -1    0    0  502    0  0.00000000000E+00  0.00000000000E+00  0.39243320896E+01  0.39243320896E+01  0.00000000000E+00 0.  1.
         -2   -1    0    0    0  501 -0.00000000000E+00 -0.00000000000E+00 -0.15425883848E+03  0.15425883848E+03  0.00000000000E+00 0. -1.
          1    1    1    2  502    0 -0.22844997045E+02 -0.12230139352E+00 -0.45801163760E+02  0.51182569781E+02  0.00000000000E+00 0.  1.
         -1    1    1    2    0  501  0.22844997045E+02  0.12230139352E+00 -0.10453334263E+03  0.10700060079E+03  0.00000000000E+00 0. -1.
</event>
<event>
 4    1  0.6740123E+001  0.4305623E+02  0.7546771E-02  0.1331451E+00
          2   -1    0    0  502    0  0.00000000000E+00  0.00000000000E+00  0.94416465442E+03  0.94416465442E+03  0.00000000000E+00 0. -1.
         -2   -1    0    0    0  501 -0.00000000000E+00 -0.00000000000E+00 -0.24186113897E+01  0.24186113897E+01  0.00000000000E+00 0.  1.
          1    1    1    2  502    0 -0.38833019470E+02 -0.18596644315E+02  0.67618729574E+03  0.67755671165E+03  0.00000000000E+00 0. -1.
         -1    1    1    2    0  501  0.38833019470E+02  0.18596644315E+02  0.26555874729E+03  0.26902655416E+03  0.00000000000E+00 0.  1.
</event>
<event>
 4    1  0.6740123E+001  0.3392294E+02  0.7546771E-02  0.1388297E+00
          2   -1    0    0  502    0  0.00000000000E+00  0.00000000000E+00  0.19213742121E+04  0.19213742121E+04  0.00000000000E+00 0. -1.
         -2   -1    0    0    0  501 -0.00000000000E+00 -0.00000000000E+00 -0.61457447971E+00  0.61457447971E+00  0.00000000000E+00 0.  1.
          1    1    1    2  502    0  0.74620721395E+01  0.33092038825E+02  0.11137131488E+04  0.11142296636E+04  0.00000000000E+00 0. -1.
         -1    1    1    2    0  501 -0.74620721395E+01 -0.33092038825E+02  0.80704648881E+03  0.80775912292E+03  0.00000000000E+00 0.  1.
</event>
<event>
 4    1  0.6740123E+001  0.2345143E+02  0.7546771E-02  0.1486906E+00
          2   -1    0    0  502    0  0.00000000000E+00  0.00000000000E+00  0.12086305894E+03  0.12086305894E+03  0.00000000000E+00 0. -1.
         -2   -1    0    0    0  501 -0.00000000000E+00 -0.00000000000E+00 -0.80763007143E+01  0.80763007143E+01  0.00000000000E+00 0.  1.
          1    1    1    2  502    0  0.14743120316E+02  0.18237600176E+02  0.98991179006E+02  0.10173113180E+03  0.00000000000E+00 0. -1.
         -1    1    1    2    0  501 -0.14743120316E+02 -0.18237600176E+02  0.13795579221E+02  0.27208227853E+02  0.00000000000E+00 0.  1.
</event>
<event>
 4    1  0.6740123E+001  0.3083705E+02  0.7546771E-02  0.1412459E+00
          2   -1    0    0  502    0  0.00000000000E+00  0.00000000000E+00  0.71471831979E+02  0.71471831979E+02  0.00000000000E+00 0.  1.
         -2   -1    0    0    0  501 -0.00000000000E+00 -0.00000000000E+00 -0.15645401553E+02  0.15645401553E+02  0.00000000000E+00 0. -1.
          1    1    1    2  502    0 -0.29100217107E+02 -0.10202987540E+02  0.11065625841E+02  0.32762351345E+02  0.00000000000E+00 0. -1.
         -1    1    1    2    0  501  0.29100217107E+02  0.10202987540E+02  0.44760804585E+02  0.54354882187E+02  0.00000000000E+00 0.  1.
</event>
<event>
 4    1  0.6740123E+001  0.2265094E+02  0.7546771E-02  0.1496928E+00
          2   -1    0    0  502    0  0.00000000000E+00  0.00000000000E+00  0.60945014311E+03  0.60945014311E+03  0.00000000000E+00 0.  1.
         -2   -1    0    0    0  501 -0.00000000000E+00 -0.00000000000E+00 -0.10220114135E+01  0.10220114135E+01  0.00000000000E+00 0. -1.
          1    1    1    2  502    0  0.15987897683E+02  0.16045312811E+02  0.17605769487E+03  0.17750880783E+03  0.00000000000E+00 0. -1.
         -1    1    1    2    0  501 -0.15987897683E+02 -0.16045312811E+02  0.43237043683E+03  0.43296334669E+03  0.00000000000E+00 0.  1.
</event>
<event>
 4    1  0.6740123E+001  0.3913225E+02  0.7546771E-02  0.1353647E+00
          2   -1    0    0  502    0  0.00000000000E+00  0.00000000000E+00  0.41722982005E+03  0.41722982005E+03  0.00000000000E+00 0.  1.
         -2   -1    0    0    0  501 -0.00000000000E+00 -0.00000000000E+00 -0.36839105583E+01  0.36839105583E+01  0.00000000000E+00 0. -1.
          1    1    1    2  502    0  0.50251872213E+01 -0.38808254220E+02  0.21959388899E+03  0.22305337743E+03  0.00000000000E+00 0.  1.
         -1    1    1    2    0  501 -0.50251872213E+01  0.38808254220E+02  0.19395202051E+03  0.19786035318E+03  0.00000000000E+00 0. -1.
</event>
<event>
 4    1  0.6740123E+001  0.2230022E+02  0.7546771E-02  0.1501477E+00
          2   -1    0    0  502    0  0.00000000000E+00  0.00000000000E+00  0.72624584580E+03  0.72624584580E+03  0.00000000000E+00 0. -1.
         -2   -1    0    0    0  501 -0.00000000000E+00 -0.00000000000E+00 -0.79605053305E+00  0.79605053305E+00  0.00000000000E+00 0.  1.
          1    1    1    2  502    0  0.68624893959E+01  0.21218056902E+02  0.49865012619E+03  0.49914852304E+03  0.00000000000E+00 0. -1.
         -1    1    1    2    0  501 -0.68624893959E+01 -0.21218056902E+02  0.22679966907E+03  0.22789337329E+03  0.00000000000E+00 0.  1.
</event>
<event>
 4    1  0.6740123E+001  0.9542022E+02  0.7546771E-02  0.1171989E+00
          2   -1    0    0  502    0  0.00000000000E+00  0.00000000000E+00  0.19105109427E+03  0.19105109427E+03  0.00000000000E+00 0.  1.
         -2   -1    0    0    0  501 -0.00000000000E+00 -0.00000000000E+00 -0.62173865380E+02  0.62173865380E+02  0.00000000000E+00 0. -1.
          1    1    1    2  502    0  0.15393187128E+02  0.94170422412E+02  0.12561748242E+03  0.15774907466E+03  0.00000000000E+00 0. -1.
         -1    1    1    2    0  501 -0.15393187128E+02 -0.94170422412E+02  0.32597464712E+01  0.95475884988E+02  0.00000000000E+00 0.  1.
</event>
<event>
 4    1  0.6740123E+001  0.2309042E+02  0.7546771E-02  0.1491366E+00
          2   -1    0    0  502    0  0.00000000000E+00  0.00000000000E+00  0.12227345868E+03  0.12227345868E+03  0.00000000000E+00 0.  1.
         -2   -1    0    0    0  501 -0.00000000000E+00 -0.00000000000E+00 -0.51639194941E+01  0.51639194941E+01  0.00000000000E+00 0. -1.
          1    1    1    2  502    0 -0.12861112676E+02 -0.19177049443E+02  0.83688762234E+02  0.86815761062E+02  0.00000000000E+00 0.  1.
         -1    1    1    2    0  501  0.12861112676E+02  0.19177049443E+02  0.33420776948E+02  0.40621617107E+02  0.00000000000E+00 0. -1.
</event>
<event>
 4    1  0.6740123E+001  0.2190431E+02  0.7546771E-02  0.1506735E+00
          2   -1    0    0  502    0  0.00000000000E+00  0.00000000000E+00  0.70589964842E+03  0.70589964842E+03  0.00000000000E+00 0. -1.
         -2   -1    0    0    0  501 -0.00000000000E+00 -0.00000000000E+00 -0.84652807505E+00  0.84652807505E+00  0.00000000000E+00 0.  1.
          1    1    1    2  502    0 -0.10295933755E+02 -0.19333709570E+02  0.50940019682E+03  0.50987092396E+03  0.00000000000E+00 0. -1.
         -1    1    1    2    0  501  0.10295933755E+02  0.19333709570E+02  0.19565292352E+03  0.19687525253E+03  0.00000000000E+00 0.  1.
</event>
<event>
 4    1  0.6740123E+001  0.4024805E+02  0.7546771E-02  0.1347038E+00
          2   -1    0    0  502    0  0.00000000000E+00  0.00000000000E+00  0.71808447506E+03  0.71808447506E+03  0.00000000000E+00 0. -1.
         -2   -1    0    0    0  501 -0.00000000000E+00 -0.00000000000E+00 -0.45783050116E+01  0.45783050116E+01  0.00000000000E+00 0.  1.
          1    1    1    2  502    0 -0.39349410893E+02 -0.84574873095E+01  0.61410364346E+03  0.61542114860E+03  0.00000000000E+00 0. -1.
         -1    1    1    2    0  501  0.39349410893E+02  0.84574873095E+01  0.99402526587E+02  0.10724163147E+03  0.00000000000E+00 0.  1.
</event>
<event>
 4    1  0.6740123E+001  0.2242604E+02  0.7546771E-02  0.1499834E+00
          2   -1    0    0  502    0  0.00000000000E+00  0.00000000000E+00  0.90730321130E+03  0.90730321130E+03  0.00000000000E+00 0. -1.
         -2   -1    0    0    0  501 -0.00000000000E+00 -0.00000000000E+00 -0.65692011706E+00  0.65692011706E+00  0.00000000000E+00 0.  1.
          1    1    1    2  502    0  0.81625314341E+01  0.20887806274E+02  0.63274498191E+03  0.63314227430E+03  0.00000000000E+00 0. -1.
         -1    1    1    2    0  501 -0.81625314341E+01 -0.20887806274E+02  0.27390130927E+03  0.27481785712E+03  0.00000000000E+00 0.  1.
</event>
<event>
 4    1  0.6740123E+001  0.2556007E+02  0.7546771E-02  0.1462634E+00
          2   -1    0    0  502    0  0.00000000000E+00  0.00000000000E+00  0.22373887121E+01  0.22373887121E+01  0.00000000000E+00 0. -1.
         -2   -1    0    0    0  501 -0.00000000000E+00 -0.00000000000E+00 -0.70929009007E+03  0.70929009007E+03  0.00000000000E+00 0.  1.
          1    1    1    2  502    0 -0.25559561255E+02  0.16123751566E+00 -0.80648146274E+02  0.84601658769E+02  0.00000000000E+00 0. -1.
         -1    1    1    2    0  501  0.25559561255E+02 -0.16123751566E+00 -0.62640455508E+03  0.62692582001E+03  0.00000000000E+00 0.  1.
</event>
<event>
 4    1  0.6740123E+001  0.2330586E+02  0.7546771E-02  0.1488693E+00
          2   -1    0    0  502    0  0.00000000000E+00  0.00000000000E+00  0.11213401989E+03  0.11213401989E+03  0.00000000000E+00 0.  1.
         -2   -1    0    0    0  501 -0.00000000000E+00 -0.00000000000E+00 -0.48634353118E+01  0.48634353118E+01  0.00000000000E+00 0. -1.
          1    1    1    2  502    0  0.21989622762E+02  0.77213872461E+01  0.49925518492E+02  0.55097374955E+02  0.00000000000E+00 0. -1.
         -1    1    1    2    0  501 -0.21989622762E+02 -0.77213872461E+01  0.57345066090E+02  0.61900080251E+02  0.00000000000E+00 0.  1.
</event>
<event>
 4    1  0.6740123E+001  0.3280769E+02  0.7546771E-02  0.1396667E+00
          2   -1    0    0  502    0  0.00000000000E+00  0.00000000000E+00  0.94406393542E+02  0.94406393542E+02  0.00000000000E+00 0.  1.
         -2   -1    0    0    0  501 -0.00000000000E+00 -0.00000000000E+00 -0.11539698557E+02  0.11539698557E+02  0.00000000000E+00 0. -1.
          1    1    1    2  502    0 -0.72485498351E+01 -0.31996920859E+02  0.35629587004E+02  0.48433582247E+02  0.00000000000E+00 0. -1.
         -1    1    1    2    0  501  0.72485498351E+01  0.31996920859E+02  0.47237107980E+02  0.57512509852E+02  0.00000000000E+00 0.  1.
</event>
<event>
 4    1  0.6740123E+001  0.3044885E+02  0.7546771E-02  0.1415735E+00
          2   -1    0    0  502    0  0.00000000000E+00  0.00000000000E+00  0.32833463673E+01  0.32833463673E+01  0.00000000000E+00 0. -1.
         -2   -1    0    0    0  501 -0.00000000000E+00 -0.00000000000E+00 -0.70410584199E+03  0.70410584199E+03  0.00000000000E+00 0.  1.
          1    1    1    2  502    0  0.27278612874E+02 -0.13528098659E+02 -0.76677992541E+02  0.82502404291E+02  0.00000000000E+00 0. -1.
         -1    1    1    2    0  501 -0.27278612874E+02  0.13528098659E+02 -0.62414450309E+03  0.62488678407E+03  0.00000000000E+00 0.  1.
</event>
<event>
 4    1  0.6740123E+001  0.3604819E+02  0.7546771E-02  0.1373340E+00
          2   -1    0    0  502    0  0.00000000000E+00  0.00000000000E+00  0.33210649164E+04  0.33210649164E+04  0.00000000000E+00 0.  1.
         -2   -1    0    0    0  501 -0.00000000000E+00 -0.00000000000E+00 -0.39491892524E+00  0.39491892524E+00  0.00000000000E+00 0. -1.
          1    1    1    2  502    0 -0.52278719891E+01 -0.35667095094E+02  0.15009589360E+04  0.15013917543E+04  0.00000000000E+00 0.  1.
         -1    1    1    2    0  501  0.52278719891E+01  0.35667095094E+02  0.18197110615E+04  0.18200680810E+04  0.00000000000E+00 0. -1.
</event>
<event>
 4    1  0.6740123E+001  0.2513886E+02  0.7546771E-02  0.1467256E+00
          2   -1    0    0  502    0  0.00000000000E+00  0.00000000000E+00  0.97059895532E+02  0.97059895532E+02  0.00000000000E+00 0. -1.
         -2   -1    0    0    0  501 -0.00000000000E+00 -0.00000000000E+00 -0.73402896137E+01  0.73402896137E+01  0.00000000000E+00 0.  1.
          1    1    1    2  502    0 -0.14643934936E+02  0.20433243676E+02  0.62404807944E+02  0.67277948334E+02  0.00000000000E+00 0. -1.
         -1    1    1    2    0  501  0.14643934936E+02 -0.20433243676E+02  0.27314797975E+02  0.37122236812E+02  0.00000000000E+00 0.  1.
</event>
<event>
 4    1  0.6740123E+001  0.2342523E+02  0.7546771E-02  0.1487226E+00
          2   -1    0    0  502    0  0.00000000000E+00  0.00000000000E+00  0.25718562770E+04  0.25718562770E+04  0.00000000000E+00 0. -1.
         -2   -1    0    0    0  501 -0.00000000000E+00 -0.00000000000E+00 -0.21574632296E+00  0.21574632296E+00  0.00000000000E+00 0.  1.
          1    1    1    2  502    0 -0.10696919683E+02 -0.20840286377E+02  0.11506818695E+04  0.11509202867E+04  0.00000000000E+00 0.  1.
         -1    1    1    2    0  501  0.10696919683E+02  0.20840286377E+02  0.14209586612E+04  0.14211517366E+04  0.00000000000E+00 0. -1.
</event>
<event>
 4    1  0.6740123E+001  0.2719146E+02  0.7546771E-02  0.1445694E+00
          2   -1    0    0  502    0  0.00000000000E+00  0.00000000000E+00  0.13585864934E+04  0.13585864934E+04  0.00000000000E+00 0.  1.
         -2   -1    0    0    0  501 -0.00000000000E+00 -0.00000000000E+00 -0.55668214243E+00  0.55668214243E+00  0.00000000000E+00 0. -1.
          1    1    1    2  502    0 -0.54996076751E+01 -0.26629495284E+02  0.57735399225E+03  0.57799395158E+03  0.00000000000E+00 0. -1.
         -1    1    1    2    0  501  0.54996076751E+01  0.26629495284E+02  0.78067581900E+03  0.78114922395E+03  0.00000000000E+00 0.  1.
</event>
<event>
 4    1  0.6740123E+001  0.2260491E+02  0.7546771E-02  0.1497520E+00
          2   -1    0    0  502    0  0.00000000000E+00  0.00000000000E+00  0.26134681841E+03  0.26134681841E+03  0.00000000000E+00 0.  1.
         -2   -1    0    0    0  501 -0.00000000000E+00 -0.00000000000E+00 -0.28915701892E+01  0.28915701892E+01  0.00000000000E+00 0. -1.
          1    1    1    2  502    0  0.40940291668E+01  0.22231083547E+02  0.54043588959E+02  0.58580642349E+02  0.00000000000E+00 0.  1.
         -1    1    1    2    0  501 -0.40940291668E+01 -0.22231083547E+02  0.20441165926E+03  0.20565774625E+03  0.00000000000E+00 0. -1.
</event>
<event>
 4    1  0.6740123E+001  0.3706976E+02  0.7546771E-02  0.1366569E+00
          2   -1    0    0  502    0  0.00000000000E+00  0.00000000000E+00  0.88999349697E+01  0.88999349697E+01  0.00000000000E+00 0. -1.
         -2   -1    0    0    0  501 -0.00000000000E+00 -0.00000000000E+00 -0.16022873890E+03  0.16022873890E+03  0.00000000000E+00 0.  1.
          1    1    1    2  502    0  0.16519361329E+02  0.33185508863E+02 -0.59538212657E+02  0.70135341046E+02  0.00000000000E+00 0. -1.
         -1    1    1    2    0  501 -0.16519361329E+02 -0.33185508863E+02 -0.91790591270E+02  0.98993332820E+02  0.00000000000E+00 0.  1.
</event>
<event>
 4    1  0.6740123E+001  0.2615545E+02  0.7546771E-02  0.1456281E+00
          2   -1    0    0  502    0  0.00000000000E+00  0.00000000000E+00  0.31552664612E+01  0.31552664612E+01  0.00000000000E+00 0. -1.
         -2   -1    0    0    0  501 -0.00000000000E+00 -0.00000000000E+00 -0.50529734007E+03  0.50529734007E+03  0.00000000000E+00 0.  1.
          1    1    1    2  502    0 -0.13508083456E+02 -0.22397308288E+02 -0.44316199240E+03  0.44393316979E+03  0.00000000000E+00 0.  1.
         -1    1    1    2    0  501  0.13508083456E+02  0.22397308288E+02 -0.58980081207E+02  0.64519436734E+02  0.00000000000E+00 0. -1.
</event>
<event>
 4    1  0.6740123E+001  0.2605462E+02  0.7546771E-02  0.1457343E+00
          2   -1    0    0  502    0  0.00000000000E+00  0.00000000000E+00  0.61467093423E+03  0.61467093423E+03  0.00000000000E+00 0. -1.
         -2   -1    0    0    0  501 -0.00000000000E+00 -0.00000000000E+00 -0.14884373086E+01  0.14884373086E+01  0.00000000000E+00 0.  1.
          1    1    1    2  502    0 -0.14699634640E+02  0.21511946458E+02  0.15010217468E+03  0.15234666371E+03  0.00000000000E+00 0.  1.
         -1    1    1    2    0  501  0.14699634640E+02 -0.21511946458E+02  0.46308032224E+03  0.46381270783E+03  0.00000000000E+00 0. -1.
</event>
<event>
 4    1  0.6740123E+001  0.2217921E+02  0.7546771E-02  0.1503070E+00
          2   -1    0    0  502    0  0.00000000000E+00  0.00000000000E+00  0.45794738824E+02  0.45794738824E+02  0.00000000000E+00 0.  1.
         -2   -1    0    0    0  501 -0.00000000000E+00 -0.00000000000E+00 -0.10746051020E+02  0.10746051020E+02  0.00000000000E+00 0. -1.
          1    1    1    2  502    0  0.34637235638E+01 -0.21907080301E+02  0.16961517597E+02  0.27921508330E+02  0.00000000000E+00 0.  1.
         -1    1    1    2    0  501 -0.34637235638E+01  0.21907080301E+02  0.18087170207E+02  0.28619281513E+02  0.00000000000E+00 0. -1.
</event>
<event>
 4    1  0.6740123E+001  0.2339825E+02  0.7546771E-02  0.1487557E+00
          2   -1    0    0  502    0  0.00000000000E+00  0.00000000000E+00  0.70949999648E+03  0.70949999648E+03  0.00000000000E+00 0.  1.
         -2   -1    0    0    0  501 -0.00000000000E+00 -0.00000000000E+00 -0.86803665681E+00  0.86803665681E+00  0.00000000000E+00 0. -1.
          1    1    1    2  502    0  0.12419153533E+02 -0.19830346557E+02  0.23595265952E+03  0.23710996511E+03  0.00000000000E+00 0. -1.
         -1    1    1    2    0  501 -0.12419153533E+02  0.19830346557E+02  0.47267930030E+03  0.47325806803E+03  0.00000000000E+00 0.  1.
</event>
<event>
 4    1  0.6740123E+001  0.3302218E+02  0.7546771E-02  0.1395028E+00
          2   -1    0    0  502    0  0.00000000000E+00  0.00000000000E+00  0.86364379768E+02  0.86364379768E+02  0.00000000000E+00 0. -1.
         -2   -1    0    0    0  501 -0.00000000000E+00 -0.00000000000E+00 -0.14620637080E+02  0.14620637080E+02  0.00000000000E+00 0.  1.
          1    1    1    2  502    0 -0.19224476891E+01 -0.32966171080E+02  0.54520245386E+02  0.63741049550E+02  0.00000000000E+00 0. -1.
         -1    1    1    2    0  501  0.19224476891E+01  0.32966171080E+02  0.17223497302E+02  0.37243967298E+02  0.00000000000E+00 0.  1.
</event>
<event>
 4    1  0.6740123E+001  0.2270748E+02  0.7546771E-02  0.1496204E+00
          2   -1    0    0  502    0  0.00000000000E+00  0.00000000000E+00  0.43150229632E+03  0.43150229632E+03  0.00000000000E+00 0. -1.
         -2   -1    0    0    0  501 -0.00000000000E+00 -0.00000000000E+00 -0.41969985545E+01  0.41969985545E+01  0.00000000000E+00 0.  1.
          1    1    1    2  502    0 -0.22449847373E+02 -0.34108447338E+01  0.39789748675E+03  0.39854490271E+03  0.00000000000E+00 0. -1.
         -1    1    1    2    0  501  0.22449847373E+02  0.34108447338E+01  0.29407811016E+02  0.37154392171E+02  0.00000000000E+00 0.  1.
</event>
<event>
 4    1  0.6740123E+001  0.2032644E+02  0.7546771E-02  0.1529103E+00
          2   -1    0    0  502    0  0.00000000000E+00  0.00000000000E+00  0.11680576793E+03  0.11680576793E+03  0.00000000000E+00 0. -1.
         -2   -1    0    0    0  501 -0.00000000000E+00 -0.00000000000E+00 -0.48853215011E+01  0.48853215011E+01  0.00000000000E+00 0.  1.
          1    1    1    2  502    0  0.17950941240E+01 -0.20247014863E+02  0.87923304629E+02  0.90242293137E+02  0.00000000000E+00 0. -1.
         -1    1    1    2    0  501 -0.17950941240E+01  0.20247014863E+02  0.23997141801E+02  0.31448796295E+02  0.00000000000E+00 0.  1.
</event>
<event>
 4    1  0.6740123E+001  0.2518783E+02  0.7546771E-02  0.1466713E+00
          2   -1    0    0  502    0  0.00000000000E+00  0.00000000000E+00  0.41747397585E+03  0.41747397585E+03  0.00000000000E+00 0. -1.
         -2   -1    0    0    0  501 -0.00000000000E+00 -0.00000000000E+00 -0.15393973624E+01  0.15393973624E+01  0.00000000000E+00 0.  1.
          1    1    1    2  502    0 -0.25170892555E+02 -0.92357959456E+00  0.23167815792E+03  0.23304333436E+03  0.00000000000E+00 0.  1.
         -1    1    1    2    0  501  0.25170892555E+02  0.92357959456E+00  0.18425642057E+03  0.18597003886E+03  0.00000000000E+00 0. -1.
</event>
<event>
 4    1  0.6740123E+001  0.2268542E+02  0.7546771E-02  0.1496487E+00
          2   -1    0    0  502    0  0.00000000000E+00  0.00000000000E+00  0.15355423046E+03  0.15355423046E+03  0.00000000000E+00 0.  1.
         -2   -1    0    0    0  501 -0.00000000000E+00 -0.00000000000E+00 -0.35960910392E+01  0.35960910392E+01  0.00000000000E+00 0. -1.
          1    1    1    2  502    0  0.22009296469E+02 -0.54971895213E+01  0.54484398027E+02  0.59018453488E+02  0.00000000000E+00 0.  1.
         -1    1    1    2    0  501 -0.22009296469E+02  0.54971895213E+01  0.95473741392E+02  0.98131868010E+02  0.00000000000E+00 0. -1.
</event>
<event>
 4    1  0.6740123E+001  0.2071169E+02  0.7546771E-02  0.1523421E+00
          2   -1    0    0  502    0  0.00000000000E+00  0.00000000000E+00  0.48621249311E+01  0.48621249311E+01  0.00000000000E+00 0.  1.
         -2   -1    0    0    0  501 -0.00000000000E+00 -0.00000000000E+00 -0.17889195113E+03  0.17889195113E+03  0.00000000000E+00 0. -1.
          1    1    1    2  502    0  0.20667949137E+02  0.13453701900E+01 -0.15242272242E+03  0.15382347172E+03  0.00000000000E+00 0. -1.
         -1    1    1    2    0  501 -0.20667949137E+02 -0.13453701900E+01 -0.21607103780E+02  0.29930604341E+02  0.00000000000E+00 0.  1.
</event>
<event>
 4    1  0.6740123E+001  0.4494292E+02  0.7546771E-02  0.1321725E+00
          2   -1    0    0  502    0  0.00000000000E+00  0.00000000000E+00  0.22613207648E+03  0.22613207648E+03  0.00000000000E+00 0. -1.
         -2   -1    0    0    0  501 -0.00000000000E+00 -0.00000000000E+00 -0.10370893493E+02  0.10370893493E+02  0.00000000000E+00 0.  1.
          1    1    1    2  502    0  0.38590409489E+02 -0.23035763823E+02  0.63837628904E+02  0.78071178956E+02  0.00000000000E+00 0.  1.
         -1    1    1    2    0  501 -0.38590409489E+02  0.23035763823E+02  0.15192355408E+03  0.15843179102E+03  0.00000000000E+00 0. -1.
</event>
<event>
 4    1  0.6740123E+001  0.2483200E+02  0.7546771E-02  0.1470692E+00
          2   -1    0    0  502    0  0.00000000000E+00  0.00000000000E+00  0.60588475298E+03  0.60588475298E+03  0.00000000000E+00 0.  1.
         -2   -1    0    0    0  501 -0.00000000000E+00 -0.00000000000E+00 -0.10231022763E+01  0.10231022763E+01  0.00000000000E+00 0. -1.
          1    1    1    2  502    0 -0.99744298020E+01 -0.22740693489E+02  0.32441578261E+03  0.32536476207E+03  0.00000000000E+00 0.  1.
         -1    1    1    2    0  501  0.99744298020E+01  0.22740693489E+02  0.28044586810E+03  0.28154309319E+03  0.00000000000E+00 0. -1.
</event>
<event>
 4    1  0.6740123E+001  0.2957809E+02  0.7546771E-02  0.1423299E+00
          2   -1    0    0  502    0  0.00000000000E+00  0.00000000000E+00  0.21265584897E+04  0.21265584897E+04  0.00000000000E+00 0. -1.
         -2   -1    0    0    0  501 -0.00000000000E+00 -0.00000000000E+00 -0.44491269697E+00  0.44491269697E+00  0.00000000000E+00 0.  1.
          1    1    1    2  502    0  0.99160944180E+01 -0.27866369587E+02  0.13549430440E+04  0.13552658470E+04  0.00000000000E+00 0.  1.
         -1    1    1    2    0  501 -0.99160944180E+01  0.27866369587E+02  0.77117053300E+03  0.77173755542E+03  0.00000000000E+00 0. -1.
</event>
<event>
 4    1  0.6740123E+001  0.2084991E+02  0.7546771E-02  0.1521419E+00
          2   -1    0    0  502    0  0.00000000000E+00  0.00000000000E+00  0.19502384518E+02  0.19502384518E+02  0.00000000000E+00 0. -1.
         -2   -1    0    0    0  501 -0.00000000000E+00 -0.00000000000E+00 -0.10263715954E+03  0.10263715954E+03  0.00000000000E+00 0.  1.
          1    1    1    2  502    0 -0.20176313473E+02 -0.52569194338E+01  0.12465449515E+02  0.24292102809E+02  0.00000000000E+00 0. -1.
         -1    1    1    2    0  501  0.20176313473E+02  0.52569194338E+01 -0.95600224539E+02  0.97847441250E+02  0.00000000000E+00 0.  1.
</event>
<event>
 4    1  0.6740123E+001  0.3411844E+02  0.7546771E-02  0.1386869E+00
          2   -1    0    0  502    0  0.00000000000E+00  0.00000000000E+00  0.18706523682E+04  0.18706523682E+04  0.00000000000E+00 0. -1.
         -2   -1    0    0    0  501 -0.00000000000E+00 -0.00000000000E+00 -0.33063358830E+01  0.33063358830E+01  0.00000000000E+00 0.  1.
          1    1    1    2  502    0 -0.41317648941E+00 -0.34115937573E+02  0.89459340109E+02  0.95744667966E+02  0.00000000000E+00 0.  1.
         -1    1    1    2    0  501  0.41317648941E+00  0.34115937573E+02  0.17778866922E+04  0.17782140361E+04  0.00000000000E+00 0. -1.
</event>
<event>
 4    1  0.6740123E+001  0.3345637E+02  0.7546771E-02  0.1391753E+00
          2   -1    0    0  502    0  0.00000000000E+00  0.00000000000E+00  0.79297100941E+02  0.79297100941E+02  0.00000000000E+00 0.  1.
         -2   -1    0    0    0  501 -0.00000000000E+00 -0.00000000000E+00 -0.17987880789E+02  0.17987880789E+02  0.00000000000E+00 0. -1.
          1    1    1    2  502    0 -0.32611782030E+02 -0.74699671335E+01  0.80858654051E+01  0.34419615854E+02  0.00000000000E+00 0.  1.
         -1    1    1    2    0  501  0.32611782030E+02  0.74699671335E+01  0.53223354747E+02  0.62865365876E+02  0.00000000000E+00 0. -1.
</event>
<event>
 4    1  0.6740123E+001  0.2576607E+02  0.7546771E-02  0.1460413E+00
          2   -1    0    0  502    0  0.00000000000E+00  0.00000000000E+00  0.27210317190E+03  0.27210317190E+03  0.00000000000E+00 0. -1.
         -2   -1    0    0    0  501 -0.00000000000E+00 -0.00000000000E+00 -0.27903127385E+01  0.27903127385E+01  0.00000000000E+00 0.  1.
          1    1    1    2  502    0  0.22175830980E+02 -0.13119558291E+02  0.85945055564E+02  0.89724260182E+02  0.00000000000E+00 0.  1.
         -1    1    1    2    0  501 -0.22175830980E+02  0.13119558291E+02  0.18336780360E+03  0.18516922446E+03  0.00000000000E+00 0. -1.
</event>
<event>
 4    1  0.6740123E+001  0.2862094E+02  0.7546771E-02  0.1431971E+00
          2   -1    0    0  502    0  0.00000000000E+00  0.00000000000E+00  0.13733814562E+02  0.13733814562E+02  0.00000000000E+00 0. -1.
         -2   -1    0    0    0  501 -0.00000000000E+00 -0.00000000000E+00 -0.72882744447E+02  0.72882744447E+02  0.00000000000E+00 0.  1.
          1    1    1    2  502    0  0.27728181240E+02  0.70927033978E+01 -0.48031395098E+02  0.55912193584E+02  0.00000000000E+00 0.  1.
         -1    1    1    2    0  501 -0.27728181240E+02 -0.70927033978E+01 -0.11117534787E+02  0.30704365424E+02  0.00000000000E+00 0. -1.
</event>
<event>
 4    1  0.6740123E+001  0.2296694E+02  0.7546771E-02  0.1492914E+00
          2   -1    0    0  502    0  0.00000000000E+00  0.00000000000E+00  0.68721161490E+01  0.68721161490E+01  0.00000000000E+00 0.  1.
         -2   -1    0    0    0  501 -0.00000000000E+00 -0.00000000000E+00 -0.10034263372E+03  0.10034263372E+03  0.00000000000E+00 0. -1.
          1    1    1    2  502    0  0.22704631808E+02 -0.34611860988E+01 -0.72725449069E+02  0.76265792181E+02  0.00000000000E+00 0. -1.
         -1    1    1    2    0  501 -0.22704631808E+02  0.34611860988E+01 -0.20745068500E+02  0.30948957686E+02  0.00000000000E+00 0.  1.
</event>
<event>
 4    1  0.6740123E+001  0.2092960E+02  0.7546771E-02  0.1520272E+00
          2   -1    0    0  502    0  0.00000000000E+00  0.00000000000E+00  0.90822960231E+03  0.90822960231E+03  0.00000000000E+00 0. -1.
         -2   -1    0    0    0  501 -0.00000000000E+00 -0.00000000000E+00 -0.51223364876E+00  0.51223364876E+00  0.00000000000E+00 0.  1.
          1    1    1    2  502    0  0.54950696262E+01  0.20195357239E+02  0.34403815030E+03  0.34467418979E+03  0.00000000000E+00 0. -1.
         -1    1    1    2    0  501 -0.54950696262E+01 -0.20195357239E+02  0.56367921836E+03  0.56406764617E+03  0.00000000000E+00 0.  1.
</event>
<event>
 4    1  0.6740123E+001  0.2528695E+02  0.7546771E-02  0.1465619E+00
          2   -1    0    0  502    0  0.00000000000E+00  0.00000000000E+00  0.51506979106E+01  0.51506979106E+01  0.00000000000E+00 0.  1.
         -2   -1    0    0    0  501 -0.00000000000E+00 -0.00000000000E+00 -0.13242900122E+03  0.13242900122E+03  0.00000000000E+00 0. -1.
          1    1    1    2  502    0  0.17423523955E+01  0.25226847826E+02 -0.46433466814E+02  0.52872454865E+02  0.00000000000E+00 0. -1.
         -1    1    1    2    0  501 -0.17423523955E+01 -0.25226847826E+02 -0.80844836495E+02  0.84707244265E+02  0.00000000000E+00 0.  1.
</event>
<event>
 4    1  0.6740123E+001  0.2032394E+02  0.7546771E-02  0.1529140E+00
          2   -1    0    0  502    0  0.00000000000E+00  0.00000000000E+00  0.17566910801E+02  0.17566910801E+02  0.00000000000E+00 0.  1.
         -2   -1    0    0    0  501 -0.00000000000E+00 -0.00000000000E+00 -0.24722552238E+02  0.24722552238E+02  0.00000000000E+00 0. -1.
          1    1    1    2  502    0  0.20323483090E+02  0.13640475019E+00  0.10978857468E+01  0.20353572764E+02  0.00000000000E+00 0. -1.
         -1    1    1    2    0  501 -0.20323483090E+02 -0.13640475019E+00 -0.82535271832E+01  0.21935890274E+02  0.00000000000E+00 0.  1.
</event>
<event>
 4    1  0.6740123E+001  0.6146571E+02  0.7546771E-02  0.1254932E+00
          2   -1    0    0  502    0  0.00000000000E+00  0.00000000000E+00  0.74408724866E+03  0.74408724866E+03  0.00000000000E+00 0. -1.
         -2   -1    0    0    0  501 -0.00000000000E+00 -0.00000000000E+00 -0.55291251344E+01  0.55291251344E+01  0.00000000000E+00 0.  1.
          1    1    1    2  502    0 -0.37664146188E+02  0.48574118962E+02  0.26214805649E+03  0.26925756528E+03  0.00000000000E+00 0.  1.
         -1    1    1    2    0  501  0.37664146188E+02 -0.48574118962E+02  0.47641006704E+03  0.48035880851E+03  0.00000000000E+00 0. -1.
</event>
<event>
 4    1  0.6740123E+001  0.2068749E+02  0.7546771E-02  0.1523774E+00
          2   -1    0    0  502    0  0.00000000000E+00  0.00000000000E+00  0.63973225799E+03  0.63973225799E+03  0.00000000000E+00 0.  1.
         -2   -1    0    0    0  501 -0.00000000000E+00 -0.00000000000E+00 -0.72007048171E+00  0.72007048171E+00  0.00000000000E+00 0. -1.
          1    1    1    2  502    0 -0.50344616427E+01  0.20065549821E+02  0.40479895434E+03  0.40532723265E+03  0.00000000000E+00 0.  1.
         -1    1    1    2    0  501  0.50344616427E+01 -0.20065549821E+02  0.23421323317E+03  0.23512509582E+03  0.00000000000E+00 0. -1.
</event>
<event>
 4    1  0.6740123E+001  0.2341770E+02  0.7546771E-02  0.1487319E+00
          2   -1    0    0  502    0  0.00000000000E+00  0.00000000000E+00  0.35152386572E+03  0.35152386572E+03  0.00000000000E+00 0. -1.
         -2   -1    0    0    0  501 -0.00000000000E+00 -0.00000000000E+00 -0.15902281701E+01  0.15902281701E+01  0.00000000000E+00 0.  1.
          1    1    1    2  502    0  0.49142371497E+01 -0.22896264809E+02  0.19929599398E+03  0.20066709218E+03  0.00000000000E+00 0.  1.
         -1    1    1    2    0  501 -0.49142371497E+01  0.22896264809E+02  0.15063764358E+03  0.15244700171E+03  0.00000000000E+00 0. -1.
</event>
<event>
 4    1  0.6740123E+001  0.2644020E+02  0.7546771E-02  0.1453314E+00
          2   -1    0    0  502    0  0.00000000000E+00  0.00000000000E+00  0.34997640138E+03  0.34997640138E+03  0.00000000000E+00 0.  1.
         -2   -1    0    0    0  501 -0.00000000000E+00 -0.00000000000E+00 -0.28076035272E+01  0.28076035272E+01  0.00000000000E+00 0. -1.
          1    1    1    2  502    0 -0.74373166977E+01 -0.25372628105E+02  0.78834968153E+02  0.83150683342E+02  0.00000000000E+00 0. -1.
         -1    1    1    2    0  501  0.74373166977E+01  0.25372628105E+02  0.26833382970E+03  0.26963332157E+03  0.00000000000E+00 0.  1.
</event>
<event>
 4    1  0.6740123E+001  0.4261362E+02  0.7546771E-02  0.1333815E+00
          2   -1    0    0  502    0  0.00000000000E+00  0.00000000000E+00  0.88607181507E+02  0.88607181507E+02  0.00000000000E+00 0. -1.
         -2   -1    0    0    0  501 -0.00000000000E+00 -0.00000000000E+00 -0.22135731254E+02  0.22135731254E+02  0.00000000000E+00 0.  1.
          1    1    1    2  502    0  0.42488875681E+02 -0.32581909563E+01  0.48315084682E+02  0.64422571920E+02  0.00000000000E+00 0. -1.
         -1    1    1    2    0  501 -0.42488875681E+02  0.32581909563E+01  0.18156365570E+02  0.46320340841E+02  0.00000000000E+00 0.  1.
</event>
<event>
 4    1  0.6740123E+001  0.2672856E+02  0.7546771E-02  0.1450354E+00
          2   -1    0    0  502    0  0.00000000000E+00  0.00000000000E+00  0.89272062893E+02  0.89272062893E+02  0.00000000000E+00 0. -1.
         -2   -1    0    0    0  501 -0.00000000000E+00 -0.00000000000E+00 -0.11029574732E+02  0.11029574732E+02  0.00000000000E+00 0.  1.
          1    1    1    2  502    0 -0.18643682158E+02  0.19152782441E+02  0.65393486117E+02  0.70645056346E+02  0.00000000000E+00 0. -1.
         -1    1    1    2    0  501  0.18643682158E+02 -0.19152782441E+02  0.12849002044E+02  0.29656581279E+02  0.00000000000E+00 0.  1.
</event>
<event>
 4    1  0.6740123E+001  0.2049545E+02  0.7546771E-02  0.1526592E+00
          2   -1    0    0  502    0  0.00000000000E+00  0.00000000000E+00  0.24883679575E+02  0.24883679575E+02  0.00000000000E+00 0. -1.
         -2   -1    0    0    0  501 -0.00000000000E+00 -0.00000000000E+00 -0.41997040562E+02  0.41997040562E+02  0.00000000000E+00 0.  1.
          1    1    1    2  502    0 -0.76085145877E+01  0.19030866636E+02  0.17303794625E+02  0.26823211732E+02  0.00000000000E+00 0. -1.
         -1    1    1    2    0  501  0.76085145877E+01 -0.19030866636E+02 -0.34417155612E+02  0.40057508405E+02  0.00000000000E+00 0.  1.
</event>
<event>
 4    1  0.6740123E+001  0.2077702E+02  0.7546771E-02  0.1522472E+00
          2   -1    0    0  502    0  0.00000000000E+00  0.00000000000E+00  0.35347871194E+03  0.35347871194E+03  0.00000000000E+00 0. -1.
         -2   -1    0    0    0  501 -0.00000000000E+00 -0.00000000000E+00 -0.17244091875E+01  0.17244091875E+01  0.00000000000E+00 0.  1.
          1    1    1    2  502    0 -0.27856027636E+01  0.20589442169E+02  0.27181295987E+03  0.27260588743E+03  0.00000000000E+00 0. -1.
         -1    1    1    2    0  501  0.27856027636E+01 -0.20589442169E+02  0.79941342882E+02  0.82597233691E+02  0.00000000000E+00 0.  1.
</event>
<event>
 4    1  0.6740123E+001  0.3500690E+02  0.7546771E-02  0.1380515E+00
          2   -1    0    0  502    0  0.00000000000E+00  0.00000000000E+00  0.27957615779E+02  0.27957615779E+02  0.00000000000E+00 0. -1.
         -2   -1    0    0    0  501 -0.00000000000E+00 -0.00000000000E+00 -0.46328552312E+02  0.46328552312E+02  0.00000000000E+00 0.  1.
          1    1    1    2  502    0 -0.33911489854E+02  0.86887240560E+01 -0.17805013208E+02  0.39274693699E+02  0.00000000000E+00 0.  1.
         -1    1    1    2    0  501  0.33911489854E+02 -0.86887240560E+01 -0.56592332503E+00  0.35011474392E+02  0.00000000000E+00 0. -1.
</event>
<event>
 4    1  0.6740123E+001  0.3863823E+02  0.7546771E-02  0.1356656E+00
          2   -1    0    0  502    0  0.00000000000E+00  0.00000000000E+00  0.33229862288E+01  0.33229862288E+01  0.00000000000E+00 0. -1.
         -2   -1    0    0    0  501 -0.00000000000E+00 -0.00000000000E+00 -0.44998560795E+03  0.44998560795E+03  0.00000000000E+00 0.  1.
          1    1    1    2  502    0  0.38090492539E+02  0.64828193964E+01 -0.23238029196E+03  0.23557061077E+03  0.00000000000E+00 0.  1.
         -1    1    1    2    0  501 -0.38090492539E+02 -0.64828193964E+01 -0.21428232976E+03  0.21773798341E+03  0.00000000000E+00 0. -1.
</event>
<event>
 4    1  0.6740123E+001  0.2032396E+02  0.7546771E-02  0.1529140E+00
          2   -1    0    0  502    0  0.00000000000E+00  0.00000000000E+00  0.40752817137E+03  0.40752817137E+03  0.00000000000E+00 0. -1.
         -2   -1    0    0    0  501 -0.00000000000E+00 -0.00000000000E+00 -0.11677049861E+01  0.11677049861E+01  0.00000000000E+00 0.  1.
          1    1    1    2  502    0  0.14722110046E+02 -0.14011530294E+02  0.12894049868E+03  0.13053243162E+03  0.00000000000E+00 0.  1.
         -1    1    1    2    0  501 -0.14722110046E+02  0.14011530294E+02  0.27741996771E+03  0.27816344474E+03  0.00000000000E+00 0. -1.
</event>
<event>
 4    1  0.6740123E+001  0.2946802E+02  0.7546771E-02  0.1424276E+00
          2   -1    0    0  502    0  0.00000000000E+00  0.00000000000E+00  0.59384187039E+03  0.59384187039E+03  0.00000000000E+00 0. -1.
         -2   -1    0    0    0  501 -0.00000000000E+00 -0.00000000000E+00 -0.14949175584E+01  0.14949175584E+01  0.00000000000E+00 0.  1.
          1    1    1    2  502    0 -0.17946031626E+02 -0.23373155947E+02  0.25219223597E+03  0.25390803129E+03  0.00000000000E+00 0.  1.
         -1    1    1    2    0  501  0.17946031626E+02  0.23373155947E+02  0.34015471686E+03  0.34142875665E+03  0.00000000000E+00 0. -1.
</event>
<event>
 4    1  0.6740123E+001  0.2137153E+02  0.7546771E-02  0.1514026E+00
          2   -1    0    0  502    0  0.00000000000E+00  0.00000000000E+00  0.23848087331E+03  0.23848087331E+03  0.00000000000E+00 0. -1.
         -2   -1    0    0    0  501 -0.00000000000E+00 -0.00000000000E+00 -0.27964865553E+01  0.27964865553E+01  0.00000000000E+00 0.  1.
          1    1    1    2  502    0  0.14238159999E+02  0.15937915790E+02  0.50119399939E+02  0.54485746852E+02  0.00000000000E+00 0.  1.
         -1    1    1    2    0  501 -0.14238159999E+02 -0.15937915790E+02  0.18556498682E+03  0.18679161302E+03  0.00000000000E+00 0. -1.
</event>
<event>
 4    1  0.6740123E+001  0.3097161E+02  0.7546771E-02  0.1411337E+00
          2   -1    0    0  502    0  0.00000000000E+00  0.00000000000E+00  0.12781580684E+04  0.12781580684E+04  0.00000000000E+00 0. -1.
         -2   -1    0    0    0  501 -0.00000000000E+00 -0.00000000000E+00 -0.86434041469E+00  0.86434041469E+00  0.00000000000E+00 0.  1.
          1    1    1    2  502    0 -0.16339814798E+02  0.26310669778E+02  0.87074890562E+03  0.87129954524E+03  0.00000000000E+00 0.  1.
         -1    1    1    2    0  501  0.16339814798E+02 -0.26310669778E+02  0.40654482233E+03  0.40772286354E+03  0.00000000000E+00 0. -1.
</event>
<event>
 4    1  0.6740123E+001  0.2142684E+02  0.7546771E-02  0.1513257E+00
          2   -1    0    0  502    0  0.00000000000E+00  0.00000000000E+00  0.19381055407E+01  0.19381055407E+01  0.00000000000E+00 0. -1.
         -2   -1    0    0    0  501 -0.00000000000E+00 -0.00000000000E+00 -0.32479493982E+03  0.32479493982E+03  0.00000000000E+00 0.  1.
          1    1    1    2  502    0  0.64222135404E+01  0.20441738405E+02 -0.76436878845E+02  0.79383285038E+02  0.00000000000E+00 0. -1.
         -1    1    1    2    0  501 -0.64222135404E+01 -0.20441738405E+02 -0.24641995543E+03  0.24734976032E+03  0.00000000000E+00 0.  1.
</event>
<event>
 4    1  0.6740123E+001  0.5812150E+02  0.7546771E-02  0.1266352E+00
          2   -1    0    0  502    0  0.00000000000E+00  0.00000000000E+00  0.30200695557E+03  0.30200695557E+03  0.00000000000E+00 0.  1.
         -2   -1    0    0    0  501 -0.00000000000E+00 -0.00000000000E+00 -0.20042481095E+02  0.20042481095E+02  0.00000000000E+00 0. -1.
          1    1    1    2  502    0 -0.18521667352E+02 -0.55091352922E+02  0.33939104406E+02  0.67305067685E+02  0.00000000000E+00 0. -1.
         -1    1    1    2    0  501  0.18521667352E+02  0.55091352922E+02  0.24802537007E+03  0.25474436898E+03  0.00000000000E+00 0.  1.
</event>
<event>
 4    1  0.6740123E+001  0.2018328E+02  0.7546771E-02  0.1531252E+00
          2   -1    0    0  502    0  0.00000000000E+00  0.00000000000E+00  0.18736907768E+02  0.18736907768E+02  0.00000000000E+00 0.  1.
         -2   -1    0    0    0  501 -0.00000000000E+00 -0.00000000000E+00 -0.25503811227E+02  0.25503811227E+02  0.00000000000E+00 0. -1.
          1    1    1    2  502    0 -0.20115418304E+02  0.16537421202E+01  0.51128118021E+01  0.20820801163E+02  0.00000000000E+00 0.  1.
         -1    1    1    2    0  501  0.20115418304E+02 -0.16537421202E+01 -0.11879715261E+02  0.23419917831E+02  0.00000000000E+00 0. -1.
</event>
<event>
 4    1  0.6740123E+001  0.2159499E+02  0.7546771E-02  0.1510937E+00
          2   -1    0    0  502    0  0.00000000000E+00  0.00000000000E+00  0.67338609748E+02  0.67338609748E+02  0.00000000000E+00 0. -1.
         -2   -1    0    0    0  501 -0.00000000000E+00 -0.00000000000E+00 -0.70828892416E+01  0.70828892416E+01  0.00000000000E+00 0.  1.
          1    1    1    2  502    0  0.20687953071E+02 -0.61929302123E+01  0.24578403287E+02  0.32717605276E+02  0.00000000000E+00 0.  1.
         -1    1    1    2    0  501 -0.20687953071E+02  0.61929302123E+01  0.35677317220E+02  0.41703893714E+02  0.00000000000E+00 0. -1.
</event>
<event>
 4    1  0.6740123E+001  0.3025019E+02  0.7546771E-02  0.1417434E+00
          2   -1    0    0  502    0  0.00000000000E+00  0.00000000000E+00  0.48667024016E+03  0.48667024016E+03  0.00000000000E+00 0. -1.
         -2   -1    0    0    0  501 -0.00000000000E+00 -0.00000000000E+00 -0.19483618275E+01  0.19483618275E+01  0.00000000000E+00 0.  1.
          1    1    1    2  502    0 -0.28919447155E+01 -0.30111631675E+02  0.19669021264E+03  0.19900279760E+03  0.00000000000E+00 0. -1.
         -1    1    1    2    0  501  0.28919447155E+01  0.30111631675E+02  0.28803166569E+03  0.28961580438E+03  0.00000000000E+00 0.  1.
</event>
<event>
 4    1  0.6740123E+001  0.3763208E+02  0.7546771E-02  0.1362950E+00
          2   -1    0    0  502    0  0.00000000000E+00  0.00000000000E+00  0.19063130880E+01  0.19063130880E+01  0.00000000000E+00 0. -1.
         -2   -1    0    0    0  501 -0.00000000000E+00 -0.00000000000E+00 -0.77023628623E+03  0.77023628623E+03  0.00000000000E+00 0.  1.
          1    1    1    2  502    0 -0.12215871747E+02  0.35594187439E+02 -0.45691529075E+03  0.45846238300E+03  0.00000000000E+00 0. -1.
         -1    1    1    2    0  501  0.12215871747E+02 -0.35594187439E+02 -0.31141468238E+03  0.31368021631E+03  0.00000000000E+00 0.  1.
</event>
<event>
 4    1  0.6740123E+001  0.2029301E+02  0.7546771E-02  0.1529603E+00
          2   -1    0    0  502    0  0.00000000000E+00  0.00000000000E+00  0.87065245243E+03  0.87065245243E+03  0.00000000000E+00 0. -1.
         -2   -1    0    0    0  501 -0.00000000000E+00 -0.00000000000E+00 -0.68028058714E+00  0.68028058714E+00  0.00000000000E+00 0.  1.
          1    1    1    2  502    0 -0.27176017465E+01 -0.20110223491E+02  0.19449225362E+03  0.19554805846E+03  0.00000000000E+00 0.  1.
         -1    1    1    2    0  501  0.27176017465E+01  0.20110223491E+02  0.67547991821E+03  0.67578467455E+03  0.00000000000E+00 0. -1.
</event>
<event>
 4    1  0.6740123E+001  0.2354396E+02  0.7546771E-02  0.1485778E+00
          2   -1    0    0  502    0  0.00000000000E+00  0.00000000000E+00  0.16656801653E+02  0.16656801653E+02  0.00000000000E+00 0.  1.
         -2   -1    0    0    0  501 -0.00000000000E+00 -0.00000000000E+00 -0.33352762331E+02  0.33352762331E+02  0.00000000000E+00 0. -1.
          1    1    1    2  502    0  0.18623780995E+01  0.23470184101E+02 -0.95256646563E+01  0.25397958206E+02  0.00000000000E+00 0. -1.
         -1    1    1    2    0  501 -0.18623780995E+01 -0.23470184101E+02 -0.71702960219E+01  0.24611605777E+02  0.00000000000E+00 0.  1.
</event>
<event>
 4    1  0.6740123E+001  0.2323532E+02  0.7546771E-02  0.1489564E+00
          2   -1    0    0  502    0  0.00000000000E+00  0.00000000000E+00  0.12239015837E+02  0.12239015837E+02  0.00000000000E+00 0. -1.
         -2   -1    0    0    0  501 -0.00000000000E+00 -0.00000000000E+00 -0.97216745883E+02  0.97216745883E+02  0.00000000000E+00 0.  1.
          1    1    1    2  502    0 -0.49112399153E+01  0.22710342200E+02 -0.20399123889E+01  0.23324689985E+02  0.00000000000E+00 0. -1.
         -1    1    1    2    0  501  0.49112399153E+01 -0.22710342200E+02 -0.82937817658E+02  0.86131071735E+02  0.00000000000E+00 0.  1.
</event>
<event>
 4    1  0.6740123E+001  0.2022838E+02  0.7546771E-02  0.1530573E+00
          2   -1    0    0  502    0  0.00000000000E+00  0.00000000000E+00  0.58459091774E+03  0.58459091774E+03  0.00000000000E+00 0.  1.
         -2   -1    0    0    0  501 -0.00000000000E+00 -0.00000000000E+00 -0.75453414021E+00  0.75453414021E+00  0.00000000000E+00 0. -1.
          1    1    1    2  502    0  0.12373336708E+02  0.16002749558E+02  0.37063280054E+03  0.37118440200E+03  0.00000000000E+00 0.  1.
         -1    1    1    2    0  501 -0.12373336708E+02 -0.16002749558E+02  0.21320358306E+03  0.21416104987E+03  0.00000000000E+00 0. -1.
</event>
<event>
 4    1  0.6740123E+001  0.2356441E+02  0.7546771E-02  0.1485530E+00
          2   -1    0    0  502    0  0.00000000000E+00  0.00000000000E+00  0.31083887703E+01  0.31083887703E+01  0.00000000000E+00 0. -1.
         -2   -1    0    0    0  501 -0.00000000000E+00 -0.00000000000E+00 -0.17957398644E+03  0.17957398644E+03  0.00000000000E+00 0.  1.
          1    1    1    2  502    0 -0.52755022987E+01  0.22966294530E+02 -0.81644290587E+02  0.84976889767E+02  0.00000000000E+00 0.  1.
         -1    1    1    2    0  501  0.52755022987E+01 -0.22966294530E+02 -0.94821307085E+02  0.97705485446E+02  0.00000000000E+00 0. -1.
</event>
<event>
 4    1  0.6740123E+001  0.3649301E+02  0.7546771E-02  0.1370360E+00
          2   -1    0    0  502    0  0.00000000000E+00  0.00000000000E+00  0.24057711269E+02  0.24057711269E+02  0.00000000000E+00 0.  1.
         -2   -1    0    0    0  501 -0.00000000000E+00 -0.00000000000E+00 -0.10623440598E+03  0.10623440598E+03  0.00000000000E+00 0. -1.
          1    1    1    2  502    0 -0.20592525621E+02 -0.30127852141E+02  0.39956207274E+01  0.36711096021E+02  0.00000000000E+00 0.  1.
         -1    1    1    2    0  501  0.20592525621E+02  0.30127852141E+02 -0.86172315434E+02  0.93581021224E+02  0.00000000000E+00 0. -1.
</event>
<event>
 4    1  0.6740123E+001  0.2317651E+02  0.7546771E-02  0.1490293E+00
          2   -1    0    0  502    0  0.00000000000E+00  0.00000000000E+00  0.65558620805E+01  0.65558620805E+01  0.00000000000E+00 0. -1.
         -2   -1    0    0    0  501 -0.00000000000E+00 -0.00000000000E+00 -0.20758039049E+03  0.20758039049E+03  0.00000000000E+00 0.  1.
          1    1    1    2  502    0 -0.22980177745E+02  0.30103355246E+01 -0.18381156207E+03  0.18526694535E+03  0.00000000000E+00 0.  1.
         -1    1    1    2    0  501  0.22980177745E+02 -0.30103355246E+01 -0.17212966342E+02  0.28869307222E+02  0.00000000000E+00 0. -1.
</event>
<event>
 4    1  0.6740123E+001  0.2203767E+02  0.7546771E-02  0.1504949E+00
          2   -1    0    0  502    0  0.00000000000E+00  0.00000000000E+00  0.40432950627E+02  0.40432950627E+02  0.00000000000E+00 0. -1.
         -2   -1    0    0    0  501 -0.00000000000E+00 -0.00000000000E+00 -0.12959479081E+02  0.12959479081E+02  0.00000000000E+00 0.  1.
          1    1    1    2  502    0  0.21620021046E+02  0.42700824378E+01  0.20957175299E+02  0.30411545678E+02  0.00000000000E+00 0. -1.
         -1    1    1    2    0  501 -0.21620021046E+02 -0.42700824378E+01  0.65162962470E+01  0.22980884030E+02  0.00000000000E+00 0.  1.
</event>
<event>
 4    1  0.6740123E+001  0.6678166E+02  0.7546771E-02  0.1238383E+00
          2   -1    0    0  502    0  0.00000000000E+00  0.00000000000E+00  0.84772369839E+03  0.84772369839E+03  0.00000000000E+00 0. -1.
         -2   -1    0    0    0  501 -0.00000000000E+00 -0.00000000000E+00 -0.10092265135E+02  0.10092265135E+02  0.00000000000E+00 0.  1.
          1    1    1    2  502    0 -0.48510124488E+02 -0.45897250292E+02  0.71557528091E+03  0.71868475176E+03  0.00000000000E+00 0. -1.
         -1    1    1    2    0  501  0.48510124488E+02  0.45897250292E+02  0.12205615235E+03  0.13913121177E+03  0.00000000000E+00 0.  1.
</event>
<event>
 4    1  0.6740123E+001  0.3842386E+02  0.7546771E-02  0.1357978E+00
          2   -1    0    0  502    0  0.00000000000E+00  0.00000000000E+00  0.35243998379E+03  0.35243998379E+03  0.00000000000E+00 0. -1.
         -2   -1    0    0    0  501 -0.00000000000E+00 -0.00000000000E+00 -0.54865639039E+01  0.54865639039E+01  0.00000000000E+00 0.  1.
          1    1    1    2  502    0 -0.44413978478E+01  0.38166306955E+02  0.86446973316E+02  0.94601650075E+02  0.00000000000E+00 0.  1.
         -1    1    1    2    0  501  0.44413978478E+01 -0.38166306955E+02  0.26050644657E+03  0.26332489762E+03  0.00000000000E+00 0. -1.
</event>
<event>
 4    1  0.6740123E+001  0.5088315E+02  0.7546771E-02  0.1294388E+00
          2   -1    0    0  502    0  0.00000000000E+00  0.00000000000E+00  0.35455365825E+03  0.35455365825E+03  0.00000000000E+00 0.  1.
         -2   -1    0    0    0  501 -0.00000000000E+00 -0.00000000000E+00 -0.17446696686E+02  0.17446696686E+02  0.00000000000E+00 0. -1.
          1    1    1    2  502    0 -0.47779020355E+02  0.17500282792E+02  0.26723644824E+02  0.57473888650E+02  0.00000000000E+00 0. -1.
         -1    1    1    2    0  501  0.47779020355E+02 -0.17500282792E+02  0.31038331674E+03  0.31452646628E+03  0.00000000000E+00 0.  1.
</event>
<event>
 4    1  0.6740123E+001  0.2454682E+02  0.7546771E-02  0.1473937E+00
          2   -1    0    0  502    0  0.00000000000E+00  0.00000000000E+00  0.69003415812E+03  0.69003415812E+03  0.00000000000E+00 0. -1.
         -2   -1    0    0    0  501 -0.00000000000E+00 -0.00000000000E+00 -0.96324526663E+00  0.96324526663E+00  0.00000000000E+00 0.  1.
          1    1    1    2  502    0 -0.12610207163E+02 -0.21060125326E+02  0.23890743478E+03  0.24016516941E+03  0.00000000000E+00 0.  1.
         -1    1    1    2    0  501  0.12610207163E+02  0.21060125326E+02  0.45016347807E+03  0.45083223397E+03  0.00000000000E+00 0. -1.
</event>
<event>
 4    1  0.6740123E+001  0.2774185E+02  0.7546771E-02  0.1440295E+00
          2   -1    0    0  502    0  0.00000000000E+00  0.00000000000E+00  0.13893976626E+01  0.13893976626E+01  0.00000000000E+00 0.  1.
         -2   -1    0    0    0  501 -0.00000000000E+00 -0.00000000000E+00 -0.98923847764E+03  0.98923847764E+03  0.00000000000E+00 0. -1.
          1    1    1    2  502    0  0.19871922212E+02  0.19357602377E+02 -0.82250022897E+03  0.82296794392E+03  0.00000000000E+00 0. -1.
         -1    1    1    2    0  501 -0.19871922212E+02 -0.19357602377E+02 -0.16534885101E+03  0.16765993139E+03  0.00000000000E+00 0.  1.
</event>
<event>
 4    1  0.6740123E+001  0.2135010E+02  0.7546771E-02  0.1514325E+00
          2   -1    0    0  502    0  0.00000000000E+00  0.00000000000E+00  0.96077280521E+03  0.96077280521E+03  0.00000000000E+00 0. -1.
         -2   -1    0    0    0  501 -0.00000000000E+00 -0.00000000000E+00 -0.50268607997E+00  0.50268607997E+00  0.00000000000E+00 0.  1.
          1    1    1    2  502    0  0.11005970981E+02 -0.18294676917E+02  0.36619718042E+03  0.36681903106E+03  0.00000000000E+00 0.  1.
         -1    1    1    2    0  501 -0.11005970981E+02  0.18294676917E+02  0.59407293872E+03  0.59445646024E+03  0.00000000000E+00 0. -1.
</event>
<event>
 4    1  0.6740123E+001  0.2166051E+02  0.7546771E-02  0.1510040E+00
          2   -1    0    0  502    0  0.00000000000E+00  0.00000000000E+00  0.34238310978E+03  0.34238310978E+03  0.00000000000E+00 0.  1.
         -2   -1    0    0    0  501 -0.00000000000E+00 -0.00000000000E+00 -0.14373746478E+01  0.14373746478E+01  0.00000000000E+00 0. -1.
          1    1    1    2  502    0 -0.91935343092E+01  0.19612664868E+02  0.13334497982E+03  0.13509278789E+03  0.00000000000E+00 0. -1.
         -1    1    1    2    0  501  0.91935343092E+01 -0.19612664868E+02  0.20760075532E+03  0.20872769654E+03  0.00000000000E+00 0.  1.
</event>
<event>
 4    1  0.6740123E+001  0.2984865E+02  0.7546771E-02  0.1420916E+00
          2   -1    0    0  502    0  0.00000000000E+00  0.00000000000E+00  0.23007566561E+04  0.23007566561E+04  0.00000000000E+00 0.  1.
         -2   -1    0    0    0  501 -0.00000000000E+00 -0.00000000000E+00 -0.38729045515E+00  0.38729045515E+00  0.00000000000E+00 0. -1.
          1    1    1    2  502    0 -0.15238341338E+02 -0.25665824853E+02  0.11368614874E+04  0.11372532625E+04  0.00000000000E+00 0. -1.
         -1    1    1    2    0  501  0.15238341338E+02  0.25665824853E+02  0.11635078783E+04  0.11638906841E+04  0.00000000000E+00 0.  1.
</event>
<event>
 4    1  0.6740123E+001  0.2368832E+02  0.7546771E-02  0.1484031E+00
          2   -1    0    0  502    0  0.00000000000E+00  0.00000000000E+00  0.10249128786E+03  0.10249128786E+03  0.00000000000E+00 0.  1.
         -2   -1    0    0    0  501 -0.00000000000E+00 -0.00000000000E+00 -0.61097583257E+01  0.61097583257E+01  0.00000000000E+00 0. -1.
          1    1    1    2  502    0  0.12828176906E+02  0.19914178238E+02  0.65693536367E+02  0.69833926841E+02  0.00000000000E+00 0.  1.
         -1    1    1    2    0  501 -0.12828176906E+02 -0.19914178238E+02  0.30687993163E+02  0.38767119341E+02  0.00000000000E+00 0. -1.
</event>
<event>
 4    1  0.6740123E+001  0.2499150E+02  0.7546771E-02  0.1468899E+00
          2   -1    0    0  502    0  0.00000000000E+00  0.00000000000E+00  0.78473457657E+00  0.78473457657E+00  0.00000000000E+00 0.  1.
         -2   -1    0    0    0  501 -0.00000000000E+00 -0.00000000000E+00 -0.11790209969E+04  0.11790209969E+04  0.00000000000E+00 0. -1.
          1    1    1    2  502    0 -0.24380511451E+02 -0.54923377965E+01 -0.25285116899E+03  0.25408323198E+03  0.00000000000E+00 0.  1.
         -1    1    1    2    0  501  0.24380511451E+02  0.54923377965E+01 -0.92538509338E+03  0.92572249955E+03  0.00000000000E+00 0. -1.
</event>
<event>
 4    1  0.6740123E+001  0.2595267E+02  0.7546771E-02  0.1458422E+00
          2   -1    0    0  502    0  0.00000000000E+00  0.00000000000E+00  0.64819650180E+03  0.64819650180E+03  0.00000000000E+00 0.  1.
         -2   -1    0    0    0  501 -0.00000000000E+00 -0.00000000000E+00 -0.11356465874E+01  0.11356465874E+01  0.00000000000E+00 0. -1.
          1    1    1    2  502    0 -0.10852105495E+02 -0.23574834600E+02  0.41819416604E+03  0.41899868917E+03  0.00000000000E+00 0.  1.
         -1    1    1    2    0  501  0.10852105495E+02  0.23574834600E+02  0.22886668917E+03  0.23033345921E+03  0.00000000000E+00 0. -1.
</event>
<event>
 4    1  0.6740123E+001  0.2285307E+02  0.7546771E-02  0.1494351E+00
          2   -1    0    0  502    0  0.00000000000E+00  0.00000000000E+00  0.11485976489E+04  0.11485976489E+04  0.00000000000E+00 0.  1.
         -2   -1    0    0    0  501 -0.00000000000E+00 -0.00000000000E+00 -0.10679121233E+01  0.10679121233E+01  0.00000000000E+00 0. -1.
          1    1    1    2  502    0  0.97114157226E+01 -0.20686985933E+02  0.13817228068E+03  0.14004942746E+03  0.00000000000E+00 0. -1.
         -1    1    1    2    0  501 -0.97114157226E+01  0.20686985933E+02  0.10093574561E+04  0.10096161335E+04  0.00000000000E+00 0.  1.
</event>
<event>
 4    1  0.6740123E+001  0.2614085E+02  0.7546771E-02  0.1456435E+00
          2   -1    0    0  502    0  0.00000000000E+00  0.00000000000E+00  0.70586937649E+03  0.70586937649E+03  0.00000000000E+00 0.  1.
         -2   -1    0    0    0  501 -0.00000000000E+00 -0.00000000000E+00 -0.17932243081E+01  0.17932243081E+01  0.00000000000E+00 0. -1.
          1    1    1    2  502    0 -0.82250854050E+01  0.24813142972E+02  0.59205487080E+03  0.59263168506E+03  0.00000000000E+00 0.  1.
         -1    1    1    2    0  501  0.82250854050E+01 -0.24813142972E+02  0.11202128138E+03  0.11503091574E+03  0.00000000000E+00 0. -1.
</event>
<event>
 4    1  0.6740123E+001  0.2801921E+02  0.7546771E-02  0.1437630E+00
          2   -1    0    0  502    0  0.00000000000E+00  0.00000000000E+00  0.79813321606E+02  0.79813321606E+02  0.00000000000E+00 0.  1.
         -2   -1    0    0    0  501 -0.00000000000E+00 -0.00000000000E+00 -0.10440578149E+02  0.10440578149E+02  0.00000000000E+00 0. -1.
          1    1    1    2  502    0 -0.76660614545E+01 -0.26950092029E+02  0.23830734941E+02  0.36782874907E+02  0.00000000000E+00 0.  1.
         -1    1    1    2    0  501  0.76660614545E+01  0.26950092029E+02  0.45542008516E+02  0.53471024847E+02  0.00000000000E+00 0. -1.
</event>
<event>
 4    1  0.6740123E+001  0.2281013E+02  0.7546771E-02  0.1494896E+00
          2   -1    0    0  502    0  0.00000000000E+00  0.00000000000E+00  0.21244422965E+04  0.21244422965E+04  0.00000000000E+00 0.  1.
         -2   -1    0    0    0  501 -0.00000000000E+00 -0.00000000000E+00 -0.25418839697E+00  0.25418839697E+00  0.00000000000E+00 0. -1.
          1    1    1    2  502    0 -0.13981707316E+02  0.18022597508E+02  0.85915274577E+03  0.85945549200E+03  0.00000000000E+00 0. -1.
         -1    1    1    2    0  501  0.13981707316E+02 -0.18022597508E+02  0.12650353623E+04  0.12652409929E+04  0.00000000000E+00 0.  1.
</event>
<event>
 4    1  0.6740123E+001  0.2483646E+02  0.7546771E-02  0.1470641E+00
          2   -1    0    0  502    0  0.00000000000E+00  0.00000000000E+00  0.12416596353E+03  0.12416596353E+03  0.00000000000E+00 0.  1.
         -2   -1    0    0    0  501 -0.00000000000E+00 -0.00000000000E+00 -0.56864649988E+01  0.56864649988E+01  0.00000000000E+00 0. -1.
          1    1    1    2  502    0 -0.11521286877E+02  0.22002488420E+02  0.82318837178E+02  0.85983954912E+02  0.00000000000E+00 0. -1.
         -1    1    1    2    0  501  0.11521286877E+02 -0.22002488420E+02  0.36160661356E+02  0.43868473619E+02  0.00000000000E+00 0.  1.
</event>
<event>
 4    1  0.6740123E+001  0.2244518E+02  0.7546771E-02  0.1499585E+00
          2   -1    0    0  502    0  0.00000000000E+00  0.00000000000E+00  0.13478527354E+02  0.13478527354E+02  0.00000000000E+00 0. -1.
         -2   -1    0    0    0  501 -0.00000000000E+00 -0.00000000000E+00 -0.37960481155E+02  0.37960481155E+02  0.00000000000E+00 0.  1.
          1    1    1    2  502    0  0.54084349660E+01 -0.21783825813E+02 -0.15429789225E+02  0.27237192061E+02  0.00000000000E+00 0.  1.
         -1    1    1    2    0  501 -0.54084349660E+01  0.21783825813E+02 -0.90521645761E+01  0.24201816447E+02  0.00000000000E+00 0. -1.
</event>
<event>
 4    1  0.6740123E+001  0.2721753E+02  0.7546771E-02  0.1445435E+00
          2   -1    0    0  502    0  0.00000000000E+00  0.00000000000E+00  0.82554812296E+03  0.82554812296E+03  0.00000000000E+00 0.  1.
         -2   -1    0    0    0  501 -0.00000000000E+00 -0.00000000000E+00 -0.10496379572E+01  0.10496379572E+01  0.00000000000E+00 0. -1.
          1    1    1    2  502    0 -0.17879852819E+02  0.20520844198E+02  0.56968267986E+03  0.57033249068E+03  0.00000000000E+00 0.  1.
         -1    1    1    2    0  501  0.17879852819E+02 -0.20520844198E+02  0.25481580514E+03  0.25626527024E+03  0.00000000000E+00 0. -1.
</event>
<event>
 4    1  0.6740123E+001  0.2515891E+02  0.7546771E-02  0.1467033E+00
          2   -1    0    0  502    0  0.00000000000E+00  0.00000000000E+00  0.29345909645E+02  0.29345909645E+02  0.00000000000E+00 0. -1.
         -2   -1    0    0    0  501 -0.00000000000E+00 -0.00000000000E+00 -0.30277876069E+02  0.30277876069E+02  0.00000000000E+00 0.  1.
          1    1    1    2  502    0 -0.11871275024E+02 -0.22182059204E+02  0.15522242092E+02  0.29561984385E+02  0.00000000000E+00 0. -1.
         -1    1    1    2    0  501  0.11871275024E+02  0.22182059204E+02 -0.16454208515E+02  0.30061801328E+02  0.00000000000E+00 0.  1.
</event>
<event>
 4    1  0.6740123E+001  0.2103456E+02  0.7546771E-02  0.1518772E+00
          2   -1    0    0  502    0  0.00000000000E+00  0.00000000000E+00  0.22046498259E+02  0.22046498259E+02  0.00000000000E+00 0.  1.
         -2   -1    0    0    0  501 -0.00000000000E+00 -0.00000000000E+00 -0.28675289020E+02  0.28675289020E+02  0.00000000000E+00 0. -1.
          1    1    1    2  502    0  0.19925394834E+02 -0.67402641653E+01 -0.17208068369E+02  0.27176646910E+02  0.00000000000E+00 0. -1.
         -1    1    1    2    0  501 -0.19925394834E+02  0.67402641653E+01  0.10579277608E+02  0.23545140369E+02  0.00000000000E+00 0.  1.
</event>
<event>
 4    1  0.6740123E+001  0.2446043E+02  0.7546771E-02  0.1474931E+00
          2   -1    0    0  502    0  0.00000000000E+00  0.00000000000E+00  0.74163878120E+03  0.74163878120E+03  0.00000000000E+00 0.  1.
         -2   -1    0    0    0  501 -0.00000000000E+00 -0.00000000000E+00 -0.86205280869E+00  0.86205280869E+00  0.00000000000E+00 0. -1.
          1    1    1    2  502    0  0.22807887550E+02 -0.88381391724E+01  0.27635148301E+03  0.27743189183E+03  0.00000000000E+00 0.  1.
         -1    1    1    2    0  501 -0.22807887550E+02  0.88381391724E+01  0.46442524538E+03  0.46506894219E+03  0.00000000000E+00 0. -1.
</event>
<event>
 4    1  0.6740123E+001  0.2038569E+02  0.7546771E-02  0.1528219E+00
          2   -1    0    0  502    0  0.00000000000E+00  0.00000000000E+00  0.29649586006E+03  0.29649586006E+03  0.00000000000E+00 0. -1.
         -2   -1    0    0    0  501 -0.00000000000E+00 -0.00000000000E+00 -0.14227698608E+01  0.14227698608E+01  0.00000000000E+00 0.  1.
          1    1    1    2  502    0 -0.19890762272E+02 -0.44647207853E+01  0.12937730338E+03  0.13097351941E+03  0.00000000000E+00 0.  1.
         -1    1    1    2    0  501  0.19890762272E+02  0.44647207853E+01  0.16569578682E+03  0.16694511052E+03  0.00000000000E+00 0. -1.
</event>
<event>
 4    1  0.6740123E+001  0.2395036E+02  0.7546771E-02  0.1480897E+00
          2   -1    0    0  502    0  0.00000000000E+00  0.00000000000E+00  0.28908784723E+03  0.28908784723E+03  0.00000000000E+00 0. -1.
         -2   -1    0    0    0  501 -0.00000000000E+00 -0.00000000000E+00 -0.33595571985E+01  0.33595571985E+01  0.00000000000E+00 0.  1.
          1    1    1    2  502    0 -0.19294014664E+01  0.23872514291E+02  0.49306717905E+02  0.54815800269E+02  0.00000000000E+00 0.  1.
         -1    1    1    2    0  501  0.19294014664E+01 -0.23872514291E+02  0.23642157212E+03  0.23763160416E+03  0.00000000000E+00 0. -1.
</event>
<event>
 4    1  0.6740123E+001  0.2046150E+02  0.7546771E-02  0.1527094E+00
          2   -1    0    0  502    0  0.00000000000E+00  0.00000000000E+00  0.23467328750E+02  0.23467328750E+02  0.00000000000E+00 0. -1.
         -2   -1    0    0    0  501 -0.00000000000E+00 -0.00000000000E+00 -0.25526792780E+02  0.25526792780E+02  0.00000000000E+00 0.  1.
          1    1    1    2  502    0 -0.56665446263E+01  0.19661209666E+02 -0.14471905037E+02  0.25062101447E+02  0.00000000000E+00 0.  1.
         -1    1    1    2    0  501  0.56665446263E+01 -0.19661209666E+02  0.12412441006E+02  0.23932020083E+02  0.00000000000E+00 0. -1.
</event>
<event>
 4    1  0.6740123E+001  0.4628966E+02  0.7546771E-02  0.1315114E+00
          2   -1    0    0  502    0  0.00000000000E+00  0.00000000000E+00  0.20072402775E+04  0.20072402775E+04  0.00000000000E+00 0. -1.
         -2   -1    0    0    0  501 -0.00000000000E+00 -0.00000000000E+00 -0.15769443337E+01  0.15769443337E+01  0.00000000000E+00 0.  1.
          1    1    1    2  502    0  0.33360069014E+02 -0.32091094665E+02  0.43194505663E+03  0.43441830591E+03  0.00000000000E+00 0.  1.
         -1    1    1    2    0  501 -0.33360069014E+02  0.32091094665E+02  0.15737182765E+04  0.15743989159E+04  0.00000000000E+00 0. -1.
</event>
<event>
 4    1  0.6740123E+001  0.2023612E+02  0.7546771E-02  0.1530456E+00
          2   -1    0    0  502    0  0.00000000000E+00  0.00000000000E+00  0.10756146952E+02  0.10756146952E+02  0.00000000000E+00 0.  1.
         -2   -1    0    0    0  501 -0.00000000000E+00 -0.00000000000E+00 -0.57479149522E+02  0.57479149522E+02  0.00000000000E+00 0. -1.
          1    1    1    2  502    0 -0.24665940227E+01  0.20085232433E+02 -0.43186468236E+02  0.47692469915E+02  0.00000000000E+00 0.  1.
         -1    1    1    2    0  501  0.24665940227E+01 -0.20085232433E+02 -0.35365343341E+01  0.20542826559E+02  0.00000000000E+00 0. -1.
</event>
<event>
 4    1  0.6740123E+001  0.2363972E+02  0.7546771E-02  0.1484618E+00
          2   -1    0    0  502    0  0.00000000000E+00  0.00000000000E+00  0.38199823139E+03  0.38199823139E+03  0.00000000000E+00 0.  1.
         -2   -1    0    0    0  501 -0.00000000000E+00 -0.00000000000E+00 -0.14974740886E+01  0.14974740886E+01  0.00000000000E+00 0. -1.
          1    1    1    2  502    0  0.89365893397E+01  0.21885464566E+02  0.21937402111E+03  0.22064405119E+03  0.00000000000E+00 0. -1.
         -1    1    1    2    0  501 -0.89365893397E+01 -0.21885464566E+02  0.16112673620E+03  0.16285165429E+03  0.00000000000E+00 0.  1.
</event>
<event>
 4    1  0.6740123E+001  0.2508981E+02  0.7546771E-02  0.1467801E+00
          2   -1    0    0  502    0  0.00000000000E+00  0.00000000000E+00  0.14372132548E+02  0.14372132548E+02  0.00000000000E+00 0. -1.
         -2   -1    0    0    0  501 -0.00000000000E+00 -0.00000000000E+00 -0.51822994748E+02  0.51822994748E+02  0.00000000000E+00 0.  1.
          1    1    1    2  502    0 -0.73978300226E+01 -0.23974372272E+02 -0.31748246742E+02  0.40465412219E+02  0.00000000000E+00 0.  1.
         -1    1    1    2    0  501  0.73978300226E+01  0.23974372272E+02 -0.57026154585E+01  0.25729715077E+02  0.00000000000E+00 0. -1.
</event>
<event>
 4    1  0.6740123E+001  0.2296600E+02  0.7546771E-02  0.1492926E+00
          2   -1    0    0  502    0  0.00000000000E+00  0.00000000000E+00  0.46562647378E+01  0.46562647378E+01  0.00000000000E+00 0.  1.
         -2   -1    0    0    0  501 -0.00000000000E+00 -0.00000000000E+00 -0.12196868055E+03  0.12196868055E+03  0.00000000000E+00 0. -1.
          1    1    1    2  502    0 -0.66600391379E+00 -0.22956338894E+02 -0.75559608878E+02  0.78972726624E+02  0.00000000000E+00 0.  1.
         -1    1    1    2    0  501  0.66600391379E+00  0.22956338894E+02 -0.41752806930E+02  0.47652218660E+02  0.00000000000E+00 0. -1.
</event>
<event>
 4    1  0.6740123E+001  0.2727897E+02  0.7546771E-02  0.1444826E+00
          2   -1    0    0  502    0  0.00000000000E+00  0.00000000000E+00  0.80506198412E+02  0.80506198412E+02  0.00000000000E+00 0. -1.
         -2   -1    0    0    0  501 -0.00000000000E+00 -0.00000000000E+00 -0.99023296400E+01  0.99023296400E+01  0.00000000000E+00 0.  1.
          1    1    1    2  502    0  0.10982932784E+02 -0.24970330178E+02  0.23640117340E+02  0.36097054583E+02  0.00000000000E+00 0.  1.
         -1    1    1    2    0  501 -0.10982932784E+02  0.24970330178E+02  0.46963751432E+02  0.54311473468E+02  0.00000000000E+00 0. -1.
</event>
<event>
 4    1  0.6740123E+001  0.4402559E+02  0.7546771E-02  0.1326384E+00
          2   -1    0    0  502    0  0.00000000000E+00  0.00000000000E+00  0.14810226178E+04  0.14810226178E+04  0.00000000000E+00 0.  1.
         -2   -1    0    0    0  501 -0.00000000000E+00 -0.00000000000E+00 -0.15239243497E+01  0.15239243497E+01  0.00000000000E+00 0. -1.
          1    1    1    2  502    0 -0.36764698678E+02 -0.24220027328E+02  0.46119103984E+03  0.46328762990E+03  0.00000000000E+00 0. -1.
         -1    1    1    2    0  501  0.36764698678E+02  0.24220027328E+02  0.10183076536E+04  0.10192589123E+04  0.00000000000E+00 0.  1.
</event>
<event>
 4    1  0.6740123E+001  0.2333215E+02  0.7546771E-02  0.1488369E+00
          2   -1    0    0  502    0  0.00000000000E+00  0.00000000000E+00  0.67902572654E+00  0.67902572654E+00  0.00000000000E+00 0.  1.
         -2   -1    0    0    0  501 -0.00000000000E+00 -0.00000000000E+00 -0.81229484797E+03  0.81229484797E+03  0.00000000000E+00 0. -1.
          1    1    1    2  502    0 -0.21706450973E+02 -0.85568300662E+01 -0.35943107360E+03  0.36018757062E+03  0.00000000000E+00 0.  1.
         -1    1    1    2    0  501  0.21706450973E+02  0.85568300662E+01 -0.45218474864E+03  0.45278630308E+03  0.00000000000E+00 0. -1.
</event>
<event>
 4    1  0.6740123E+001  0.3688156E+02  0.7546771E-02  0.1367797E+00
          2   -1    0    0  502    0  0.00000000000E+00  0.00000000000E+00  0.12921623745E+04  0.12921623745E+04  0.00000000000E+00 0. -1.
         -2   -1    0    0    0  501 -0.00000000000E+00 -0.00000000000E+00 -0.17270678302E+01  0.17270678302E+01  0.00000000000E+00 0.  1.
          1    1    1    2  502    0  0.35264492992E+02 -0.10801167752E+02  0.24095529895E+03  0.24376157569E+03  0.00000000000E+00 0.  1.
         -1    1    1    2    0  501 -0.35264492992E+02  0.10801167752E+02  0.10494800077E+04  0.10501278667E+04  0.00000000000E+00 0. -1.
</event>
<event>
 4    1  0.6740123E+001  0.3743315E+02  0.7546771E-02  0.1364221E+00
          2   -1    0    0  502    0  0.00000000000E+00  0.00000000000E+00  0.92461542743E+03  0.92461542743E+03  0.00000000000E+00 0. -1.
         -2   -1    0    0    0  501 -0.00000000000E+00 -0.00000000000E+00 -0.28470552087E+01  0.28470552087E+01  0.00000000000E+00 0.  1.
          1    1    1    2  502    0 -0.31157386372E+02  0.20747472638E+02  0.77802382520E+03  0.77892381716E+03  0.00000000000E+00 0. -1.
         -1    1    1    2    0  501  0.31157386372E+02 -0.20747472638E+02  0.14374454702E+03  0.14853866549E+03  0.00000000000E+00 0.  1.
</event>
<event>
 4    1  0.6740123E+001  0.2592401E+02  0.7546771E-02  0.1458727E+00
          2   -1    0    0  502    0  0.00000000000E+00  0.00000000000E+00  0.13781194660E+03  0.13781194660E+03  0.00000000000E+00 0. -1.
         -2   -1    0    0    0  501 -0.00000000000E+00 -0.00000000000E+00 -0.52559530237E+01  0.52559530237E+01  0.00000000000E+00 0.  1.
          1    1    1    2  502    0  0.23821552801E+02 -0.10226811481E+02  0.47060051759E+02  0.53728042236E+02  0.00000000000E+00 0.  1.
         -1    1    1    2    0  501 -0.23821552801E+02  0.10226811481E+02  0.85495941821E+02  0.89339857392E+02  0.00000000000E+00 0. -1.
</event>
<event>
 4    1  0.6740123E+001  0.2892825E+02  0.7546771E-02  0.1429144E+00
          2   -1    0    0  502    0  0.00000000000E+00  0.00000000000E+00  0.14107630050E+04  0.14107630050E+04  0.00000000000E+00 0. -1.
         -2   -1    0    0    0  501 -0.00000000000E+00 -0.00000000000E+00 -0.82577841434E+00  0.82577841434E+00  0.00000000000E+00 0.  1.
          1    1    1    2  502    0 -0.26080879775E+02  0.12515247220E+02  0.10795489551E+04  0.10799364751E+04  0.00000000000E+00 0. -1.
         -1    1    1    2    0  501  0.26080879775E+02 -0.12515247220E+02  0.33038827145E+03  0.33165230832E+03  0.00000000000E+00 0.  1.
</event>
<event>
 4    1  0.6740123E+001  0.2444113E+02  0.7546771E-02  0.1475153E+00
          2   -1    0    0  502    0  0.00000000000E+00  0.00000000000E+00  0.42284587395E+02  0.42284587395E+02  0.00000000000E+00 0. -1.
         -2   -1    0    0    0  501 -0.00000000000E+00 -0.00000000000E+00 -0.19264541598E+02  0.19264541598E+02  0.00000000000E+00 0.  1.
          1    1    1    2  502    0 -0.21620449326E+02 -0.11398474186E+02 -0.43818682162E+01  0.24830823826E+02  0.00000000000E+00 0.  1.
         -1    1    1    2    0  501  0.21620449326E+02  0.11398474186E+02  0.27401914013E+02  0.36718305168E+02  0.00000000000E+00 0. -1.
</event>
<event>
 4    1  0.6740123E+001  0.3540703E+02  0.7546771E-02  0.1377724E+00
          2   -1    0    0  502    0  0.00000000000E+00  0.00000000000E+00  0.10985233384E+04  0.10985233384E+04  0.00000000000E+00 0.  1.
         -2   -1    0    0    0  501 -0.00000000000E+00 -0.00000000000E+00 -0.11413794734E+01  0.11413794734E+01  0.00000000000E+00 0. -1.
          1    1    1    2  502    0  0.72566690518E+01 -0.34655422874E+02  0.55517575894E+03  0.55630367687E+03  0.00000000000E+00 0.  1.
         -1    1    1    2    0  501 -0.72566690518E+01  0.34655422874E+02  0.54220619993E+03  0.54336104096E+03  0.00000000000E+00 0. -1.
</event>
<event>
 4    1  0.6740123E+001  0.2648860E+02  0.7546771E-02  0.1452814E+00
          2   -1    0    0  502    0  0.00000000000E+00  0.00000000000E+00  0.22807154974E+02  0.22807154974E+02  0.00000000000E+00 0. -1.
         -2   -1    0    0    0  501 -0.00000000000E+00 -0.00000000000E+00 -0.34720394504E+02  0.34720394504E+02  0.00000000000E+00 0.  1.
          1    1    1    2  502    0 -0.11274279657E+01 -0.26464600386E+02  0.37526565110E+01  0.26753104461E+02  0.00000000000E+00 0.  1.
         -1    1    1    2    0  501  0.11274279657E+01  0.26464600386E+02 -0.15665896041E+02  0.30774445018E+02  0.00000000000E+00 0. -1.
</event>
<event>
 4    1  0.6740123E+001  0.2440056E+02  0.7546771E-02  0.1475622E+00
          2   -1    0    0  502    0  0.00000000000E+00  0.00000000000E+00  0.19757017339E+04  0.19757017339E+04  0.00000000000E+00 0.  1.
         -2   -1    0    0    0  501 -0.00000000000E+00 -0.00000000000E+00 -0.36626344257E+00  0.36626344257E+00  0.00000000000E+00 0. -1.
          1    1    1    2  502    0  0.17308136822E+02  0.17199290879E+02  0.14036035865E+04  0.14038156629E+04  0.00000000000E+00 0.  1.
         -1    1    1    2    0  501 -0.17308136822E+02 -0.17199290879E+02  0.57173188398E+03  0.57225233453E+03  0.00000000000E+00 0. -1.
</event>
<event>
 4    1  0.6740123E+001  0.7690891E+02  0.7546771E-02  0.1211211E+00
          2   -1    0    0  502    0  0.00000000000E+00  0.00000000000E+00  0.36357999686E+03  0.36357999686E+03  0.00000000000E+00 0. -1.
         -2   -1    0    0    0  501 -0.00000000000E+00 -0.00000000000E+00 -0.24579976180E+02  0.24579976180E+02  0.00000000000E+00 0.  1.
          1    1    1    2  502    0 -0.38905276752E+02 -0.66342746077E+02  0.28235568613E+03  0.29264263873E+03  0.00000000000E+00 0. -1.
         -1    1    1    2    0  501  0.38905276752E+02  0.66342746077E+02  0.56644334554E+02  0.95517334307E+02  0.00000000000E+00 0.  1.
</event>
<event>
 4    1  0.6740123E+001  0.2146858E+02  0.7546771E-02  0.1512679E+00
          2   -1    0    0  502    0  0.00000000000E+00  0.00000000000E+00  0.14643618488E+04  0.14643618488E+04  0.00000000000E+00 0.  1.
         -2   -1    0    0    0  501 -0.00000000000E+00 -0.00000000000E+00 -0.41394460696E+00  0.41394460696E+00  0.00000000000E+00 0. -1.
          1    1    1    2  502    0  0.87803413196E+01  0.19590959368E+02  0.10905041564E+04  0.10907154602E+04  0.00000000000E+00 0.  1.
         -1    1    1    2    0  501 -0.87803413196E+01 -0.19590959368E+02  0.37344374778E+03  0.37406033315E+03  0.00000000000E+00 0. -1.
</event>
<event>
 4    1  0.6740123E+001  0.2085166E+02  0.7546771E-02  0.1521393E+00
          2   -1    0    0  502    0  0.00000000000E+00  0.00000000000E+00  0.85010565283E+03  0.85010565283E+03  0.00000000000E+00 0.  1.
         -2   -1    0    0    0  501 -0.00000000000E+00 -0.00000000000E+00 -0.65438362050E+00  0.65438362050E+00  0.00000000000E+00 0. -1.
          1    1    1    2  502    0  0.51923140553E+01 -0.20194837431E+02  0.62352685736E+03  0.62387541500E+03  0.00000000000E+00 0.  1.
         -1    1    1    2    0  501 -0.51923140553E+01  0.20194837431E+02  0.22592441184E+03  0.22688462145E+03  0.00000000000E+00 0. -1.
</event>
<event>
 4    1  0.6740123E+001  0.3301866E+02  0.7546771E-02  0.1395054E+00
          2   -1    0    0  502    0  0.00000000000E+00  0.00000000000E+00  0.55252571339E+03  0.55252571339E+03  0.00000000000E+00 0. -1.
         -2   -1    0    0    0  501 -0.00000000000E+00 -0.00000000000E+00 -0.19958295231E+01  0.19958295231E+01  0.00000000000E+00 0.  1.
          1    1    1    2  502    0  0.32878122391E+02 -0.30432026936E+01  0.24572783836E+03  0.24793628730E+03  0.00000000000E+00 0. -1.
         -1    1    1    2    0  501 -0.32878122391E+02  0.30432026936E+01  0.30480204551E+03  0.30658525561E+03  0.00000000000E+00 0.  1.
</event>
<event>
 4    1  0.6740123E+001  0.2149518E+02  0.7546771E-02  0.1512311E+00
          2   -1    0    0  502    0  0.00000000000E+00  0.00000000000E+00  0.78781909502E+03  0.78781909502E+03  0.00000000000E+00 0.  1.
         -2   -1    0    0    0  501 -0.00000000000E+00 -0.00000000000E+00 -0.96473069299E+00  0.96473069299E+00  0.00000000000E+00 0. -1.
          1    1    1    2  502    0  0.13572747369E+02 -0.16668032005E+02  0.14647497582E+03  0.14804378171E+03  0.00000000000E+00 0. -1.
         -1    1    1    2    0  501 -0.13572747369E+02  0.16668032005E+02  0.64037938851E+03  0.64074004400E+03  0.00000000000E+00 0.  1.
</event>
<event>
 4    1  0.6740123E+001  0.3367495E+02  0.7546771E-02  0.1390126E+00
          2   -1    0    0  502    0  0.00000000000E+00  0.00000000000E+00  0.20610559523E+03  0.20610559523E+03  0.00000000000E+00 0.  1.
         -2   -1    0    0    0  501 -0.00000000000E+00 -0.00000000000E+00 -0.68139326702E+01  0.68139326702E+01  0.00000000000E+00 0. -1.
          1    1    1    2  502    0  0.31784581800E+02  0.11123970062E+02  0.52933146105E+02  0.62736913430E+02  0.00000000000E+00 0. -1.
         -1    1    1    2    0  501 -0.31784581800E+02 -0.11123970062E+02  0.14635851645E+03  0.15018261447E+03  0.00000000000E+00 0.  1.
</event>
<event>
 4    1  0.6740123E+001  0.3752783E+02  0.7546771E-02  0.1363615E+00
          2   -1    0    0  502    0  0.00000000000E+00  0.00000000000E+00  0.15017417882E+04  0.15017417882E+04  0.00000000000E+00 0.  1.
         -2   -1    0    0    0  501 -0.00000000000E+00 -0.00000000000E+00 -0.15507592506E+01  0.15507592506E+01  0.00000000000E+00 0. -1.
          1    1    1    2  502    0 -0.20456431863E+02  0.31462241454E+02  0.27753656789E+03  0.28006228729E+03  0.00000000000E+00 0. -1.
         -1    1    1    2    0  501  0.20456431863E+02 -0.31462241454E+02  0.12226544610E+04  0.12232302601E+04  0.00000000000E+00 0.  1.
</event>
<event>
 4    1  0.6740123E+001  0.2714046E+02  0.7546771E-02  0.1446202E+00
          2   -1    0    0  502    0  0.00000000000E+00  0.00000000000E+00  0.28746172742E+03  0.28746172742E+03  0.00000000000E+00 0.  1.
         -2   -1    0    0    0  501 -0.00000000000E+00 -0.00000000000E+00 -0.31609329845E+01  0.31609329845E+01  0.00000000000E+00 0. -1.
          1    1    1    2  502    0  0.15472925501E+02  0.22297822888E+02  0.20537996744E+03  0.20716547819E+03  0.00000000000E+00 0.  1.
         -1    1    1    2    0  501 -0.15472925501E+02 -0.22297822888E+02  0.78920826999E+02  0.83457182215E+02  0.00000000000E+00 0. -1.
</event>
<event>
 4    1  0.6740123E+001  0.3144739E+02  0.7546771E-02  0.1407422E+00
          2   -1    0    0  502    0  0.00000000000E+00  0.00000000000E+00  0.80604222979E+01  0.80604222979E+01  0.00000000000E+00 0. -1.
         -2   -1    0    0    0  501 -0.00000000000E+00 -0.00000000000E+00 -0.23567490071E+03  0.23567490071E+03  0.00000000000E+00 0.  1.
          1    1    1    2  502    0 -0.30271260182E+02  0.85199268821E+01 -0.19818748593E+03  0.20066693281E+03  0.00000000000E+00 0.  1.
         -1    1    1    2    0  501  0.30271260182E+02 -0.85199268821E+01 -0.29426992484E+02  0.43068390193E+02  0.00000000000E+00 0. -1.
</event>
<event>
 4    1  0.6740123E+001  0.2776001E+02  0.7546771E-02  0.1440119E+00
          2   -1    0    0  502    0  0.00000000000E+00  0.00000000000E+00  0.25261142987E+03  0.25261142987E+03  0.00000000000E+00 0.  1.
         -2   -1    0    0    0  501 -0.00000000000E+00 -0.00000000000E+00 -0.36460159235E+01  0.36460159235E+01  0.00000000000E+00 0. -1.
          1    1    1    2  502    0  0.29836522641E+01  0.27599202958E+02  0.17626066308E+03  0.17843329155E+03  0.00000000000E+00 0.  1.
         -1    1    1    2    0  501 -0.29836522641E+01 -0.27599202958E+02  0.72704750865E+02  0.77824154239E+02  0.00000000000E+00 0. -1.
</event>
<event>
 4    1  0.6740123E+001  0.2216536E+02  0.7546771E-02  0.1503253E+00
          2   -1    0    0  502    0  0.00000000000E+00  0.00000000000E+00  0.27707101971E+02  0.27707101971E+02  0.00000000000E+00 0. -1.
         -2   -1    0    0    0  501 -0.00000000000E+00 -0.00000000000E+00 -0.23265649541E+02  0.23265649541E+02  0.00000000000E+00 0.  1.
          1    1    1    2  502    0  0.20780867848E+02  0.77109348883E+01  0.14650275797E+02  0.26569410349E+02  0.00000000000E+00 0. -1.
         -1    1    1    2    0  501 -0.20780867848E+02 -0.77109348883E+01 -0.10208823367E+02  0.24403341163E+02  0.00000000000E+00 0.  1.
</event>
<event>
 4    1  0.6740123E+001  0.3365248E+02  0.7546771E-02  0.1390292E+00
          2   -1    0    0  502    0  0.00000000000E+00  0.00000000000E+00  0.77875152766E+02  0.77875152766E+02  0.00000000000E+00 0.  1.
         -2   -1    0    0    0  501 -0.00000000000E+00 -0.00000000000E+00 -0.21840017046E+02  0.21840017046E+02  0.00000000000E+00 0. -1.
          1    1    1    2  502    0  0.47054538501E+01 -0.33321889663E+02  0.56837705324E+02  0.66053117815E+02  0.00000000000E+00 0.  1.
         -1    1    1    2    0  501 -0.47054538501E+01  0.33321889663E+02 -0.80256960337E+00  0.33662051996E+02  0.00000000000E+00 0. -1.
</event>
<event>
 4    1  0.6740123E+001  0.2012025E+02  0.7546771E-02  0.1532205E+00
          2   -1    0    0  502    0  0.00000000000E+00  0.00000000000E+00  0.12471219835E+04  0.12471219835E+04  0.00000000000E+00 0.  1.
         -2   -1    0    0    0  501 -0.00000000000E+00 -0.00000000000E+00 -0.33217489712E+00  0.33217489712E+00  0.00000000000E+00 0. -1.
          1    1    1    2  502    0 -0.13964562150E+02 -0.14485008434E+02  0.52924926867E+03  0.52963158219E+03  0.00000000000E+00 0.  1.
         -1    1    1    2    0  501  0.13964562150E+02  0.14485008434E+02  0.71754053992E+03  0.71782257620E+03  0.00000000000E+00 0. -1.
</event>
<event>
 4    1  0.6740123E+001  0.3567447E+02  0.7546771E-02  0.1375883E+00
          2   -1    0    0  502    0  0.00000000000E+00  0.00000000000E+00  0.90634267130E+01  0.90634267130E+01  0.00000000000E+00 0. -1.
         -2   -1    0    0    0  501 -0.00000000000E+00 -0.00000000000E+00 -0.22038879514E+03  0.22038879514E+03  0.00000000000E+00 0.  1.
          1    1    1    2  502    0  0.34921747051E+02 -0.72896797005E+01 -0.17477148308E+03  0.17837527616E+03  0.00000000000E+00 0.  1.
         -1    1    1    2    0  501 -0.34921747051E+02  0.72896797005E+01 -0.36553885343E+02  0.51076945689E+02  0.00000000000E+00 0. -1.
</event>
<event>
 4    1  0.6740123E+001  0.2779176E+02  0.7546771E-02  0.1439813E+00
          2   -1    0    0  502    0  0.00000000000E+00  0.00000000000E+00  0.13076416814E+03  0.13076416814E+03  0.00000000000E+00 0.  1.
         -2   -1    0    0    0  501 -0.00000000000E+00 -0.00000000000E+00 -0.59097074672E+01  0.59097074672E+01  0.00000000000E+00 0. -1.
          1    1    1    2  502    0  0.39374145769E+01 -0.27511432799E+02  0.63973812552E+02  0.69749773194E+02  0.00000000000E+00 0. -1.
         -1    1    1    2    0  501 -0.39374145769E+01  0.27511432799E+02  0.60880648120E+02  0.66924102413E+02  0.00000000000E+00 0.  1.
</event>
<event>
 4    1  0.6740123E+001  0.3715107E+02  0.7546771E-02  0.1366041E+00
          2   -1    0    0  502    0  0.00000000000E+00  0.00000000000E+00  0.14973656573E+03  0.14973656573E+03  0.00000000000E+00 0.  1.
         -2   -1    0    0    0  501 -0.00000000000E+00 -0.00000000000E+00 -0.93412562171E+01  0.93412562171E+01  0.00000000000E+00 0. -1.
          1    1    1    2  502    0 -0.37150537077E+02 -0.19881028579E+00  0.79351431539E+02  0.87617644443E+02  0.00000000000E+00 0. -1.
         -1    1    1    2    0  501  0.37150537077E+02  0.19881028579E+00  0.61043877971E+02  0.71460177500E+02  0.00000000000E+00 0.  1.
</event>
<event>
 4    1  0.6740123E+001  0.2115944E+02  0.7546771E-02  0.1517000E+00
          2   -1    0    0  502    0  0.00000000000E+00  0.00000000000E+00  0.91942356742E+03  0.91942356742E+03  0.00000000000E+00 0.  1.
         -2   -1    0    0    0  501 -0.00000000000E+00 -0.00000000000E+00 -0.86367890859E+00  0.86367890859E+00  0.00000000000E+00 0. -1.
          1    1    1    2  502    0  0.15827406055E+02 -0.14043335115E+02  0.76317682803E+03  0.76347009954E+03  0.00000000000E+00 0.  1.
         -1    1    1    2    0  501 -0.15827406055E+02  0.14043335115E+02  0.15538306049E+03  0.15681714680E+03  0.00000000000E+00 0. -1.
</event>
<event>
 4    1  0.6740123E+001  0.2326424E+02  0.7546771E-02  0.1489206E+00
          2   -1    0    0  502    0  0.00000000000E+00  0.00000000000E+00  0.35016673565E+02  0.35016673565E+02  0.00000000000E+00 0. -1.
         -2   -1    0    0    0  501 -0.00000000000E+00 -0.00000000000E+00 -0.17637063136E+02  0.17637063136E+02  0.00000000000E+00 0.  1.
          1    1    1    2  502    0 -0.75893716306E+00  0.23251856280E+02 -0.56782862098E+00  0.23271167470E+02  0.00000000000E+00 0.  1.
         -1    1    1    2    0  501  0.75893716306E+00 -0.23251856280E+02  0.17947439050E+02  0.29382569230E+02  0.00000000000E+00 0. -1.
</event>
<event>
 4    1  0.6740123E+001  0.4783626E+02  0.7546771E-02  0.1307836E+00
          2   -1    0    0  502    0  0.00000000000E+00  0.00000000000E+00  0.43546192406E+02  0.43546192406E+02  0.00000000000E+00 0. -1.
         -2   -1    0    0    0  501 -0.00000000000E+00 -0.00000000000E+00 -0.58217125762E+02  0.58217125762E+02  0.00000000000E+00 0.  1.
          1    1    1    2  502    0 -0.13281044128E+02  0.45955649411E+02  0.85410973389E+01  0.48592779193E+02  0.00000000000E+00 0.  1.
         -1    1    1    2    0  501  0.13281044128E+02 -0.45955649411E+02 -0.23212030695E+02  0.53170538975E+02  0.00000000000E+00 0. -1.
</event>
<event>
 4    1  0.6740123E+001  0.2051241E+02  0.7546771E-02  0.1526341E+00
          2   -1    0    0  502    0  0.00000000000E+00  0.00000000000E+00  0.33633469426E+03  0.33633469426E+03  0.00000000000E+00 0.  1.
         -2   -1    0    0    0  501 -0.00000000000E+00 -0.00000000000E+00 -0.13295300089E+01  0.13295300089E+01  0.00000000000E+00 0. -1.
          1    1    1    2  502    0  0.16151659765E+02  0.12644485721E+02  0.12647391746E+03  0.12812654265E+03  0.00000000000E+00 0.  1.
         -1    1    1    2    0  501 -0.16151659765E+02 -0.12644485721E+02  0.20853124678E+03  0.20953768162E+03  0.00000000000E+00 0. -1.
</event>
<event>
 4    1  0.6740123E+001  0.5220365E+02  0.7546771E-02  0.1288891E+00
          2   -1    0    0  502    0  0.00000000000E+00  0.00000000000E+00  0.10169489670E+04  0.10169489670E+04  0.00000000000E+00 0. -1.
         -2   -1    0    0    0  501 -0.00000000000E+00 -0.00000000000E+00 -0.30161536660E+01  0.30161536660E+01  0.00000000000E+00 0.  1.
          1    1    1    2  502    0 -0.29725455616E+02  0.42914076349E+02  0.33666189395E+03  0.34068526751E+03  0.00000000000E+00 0.  1.
         -1    1    1    2    0  501  0.29725455616E+02 -0.42914076349E+02  0.67727091942E+03  0.67927985320E+03  0.00000000000E+00 0. -1.
</event>
<event>
 4    1  0.6740123E+001  0.2023781E+02  0.7546771E-02  0.1530431E+00
          2   -1    0    0  502    0  0.00000000000E+00  0.00000000000E+00  0.96030346560E+03  0.96030346560E+03  0.00000000000E+00 0.  1.
         -2   -1    0    0    0  501 -0.00000000000E+00 -0.00000000000E+00 -0.99744578844E+00  0.99744578844E+00  0.00000000000E+00 0. -1.
          1    1    1    2  502    0  0.36981722191E+01  0.19897049327E+02  0.84330192368E+03  0.84354472527E+03  0.00000000000E+00 0.  1.
         -1    1    1    2    0  501 -0.36981722191E+01 -0.19897049327E+02  0.11600409613E+03  0.11775618612E+03  0.00000000000E+00 0. -1.
</event>
<event>
 4    1  0.6740123E+001  0.5335104E+02  0.7546771E-02  0.1284262E+00
          2   -1    0    0  502    0  0.00000000000E+00  0.00000000000E+00  0.28610351043E+04  0.28610351043E+04  0.00000000000E+00 0.  1.
         -2   -1    0    0    0  501 -0.00000000000E+00 -0.00000000000E+00 -0.10073718849E+01  0.10073718849E+01  0.00000000000E+00 0. -1.
          1    1    1    2  502    0 -0.15101693134E+02  0.51169061522E+02  0.12705418156E+04  0.12716614484E+04  0.00000000000E+00 0. -1.
         -1    1    1    2    0  501  0.15101693134E+02 -0.51169061522E+02  0.15894859168E+04  0.15903810278E+04  0.00000000000E+00 0.  1.
</event>
<event>
 4    1  0.6740123E+001  0.2522499E+02  0.7546771E-02  0.1466302E+00
          2   -1    0    0  502    0  0.00000000000E+00  0.00000000000E+00  0.71800324692E+02  0.71800324692E+02  0.00000000000E+00 0.  1.
         -2   -1    0    0    0  501 -0.00000000000E+00 -0.00000000000E+00 -0.11096947402E+02  0.11096947402E+02  0.00000000000E+00 0. -1.
          1    1    1    2  502    0 -0.25137796299E+02 -0.20955986922E+01  0.11750778083E+02  0.27827704221E+02  0.00000000000E+00 0. -1.
         -1    1    1    2    0  501  0.25137796299E+02  0.20955986922E+01  0.48952599207E+02  0.55069567873E+02  0.00000000000E+00 0.  1.
</event>
<event>
 4    1  0.6740123E+001  0.2425057E+02  0.7546771E-02  0.1477365E+00
          2   -1    0    0  502    0  0.00000000000E+00  0.00000000000E+00  0.15552642093E+04  0.15552642093E+04  0.00000000000E+00 0. -1.
         -2   -1    0    0    0  501 -0.00000000000E+00 -0.00000000000E+00 -0.44023658289E+00  0.44023658289E+00  0.00000000000E+00 0.  1.
          1    1    1    2  502    0 -0.17131783216E+02 -0.17163687015E+02  0.10695762798E+04  0.10698511619E+04  0.00000000000E+00 0. -1.
         -1    1    1    2    0  501  0.17131783216E+02  0.17163687015E+02  0.48524769286E+03  0.48585328400E+03  0.00000000000E+00 0.  1.
</event>
<event>
 4    1  0.6740123E+001  0.3161071E+02  0.7546771E-02  0.1406097E+00
          2   -1    0    0  502    0  0.00000000000E+00  0.00000000000E+00  0.28305576010E+04  0.28305576010E+04  0.00000000000E+00 0. -1.
         -2   -1    0    0    0  501 -0.00000000000E+00 -0.00000000000E+00 -0.52141943513E+00  0.52141943513E+00  0.00000000000E+00 0.  1.
          1    1    1    2  502    0 -0.45816328402E+01 -0.31276916632E+02  0.61056319895E+03  0.61138094244E+03  0.00000000000E+00 0.  1.
         -1    1    1    2    0  501  0.45816328402E+01  0.31276916632E+02  0.22194729826E+04  0.22196980780E+04  0.00000000000E+00 0. -1.
</event>
<event>
 4    1  0.6740123E+001  0.2271629E+02  0.7546771E-02  0.1496092E+00
          2   -1    0    0  502    0  0.00000000000E+00  0.00000000000E+00  0.82049369665E+02  0.82049369665E+02  0.00000000000E+00 0. -1.
         -2   -1    0    0    0  501 -0.00000000000E+00 -0.00000000000E+00 -0.64605180788E+01  0.64605180788E+01  0.00000000000E+00 0.  1.
          1    1    1    2  502    0  0.28318019411E+01 -0.22539089713E+02  0.30589060659E+02  0.38101447470E+02  0.00000000000E+00 0. -1.
         -1    1    1    2    0  501 -0.28318019411E+01  0.22539089713E+02  0.44999790927E+02  0.50408440274E+02  0.00000000000E+00 0.  1.
</event>
<event>
 4    1  0.6740123E+001  0.2299715E+02  0.7546771E-02  0.1492534E+00
          2   -1    0    0  502    0  0.00000000000E+00  0.00000000000E+00  0.29772311283E+03  0.29772311283E+03  0.00000000000E+00 0.  1.
         -2   -1    0    0    0  501 -0.00000000000E+00 -0.00000000000E+00 -0.19642324601E+01  0.19642324601E+01  0.00000000000E+00 0. -1.
          1    1    1    2  502    0 -0.14408225490E+01  0.22951966285E+02  0.19421911292E+03  0.19557589972E+03  0.00000000000E+00 0.  1.
         -1    1    1    2    0  501  0.14408225490E+01 -0.22951966285E+02  0.10153976745E+03  0.10411144557E+03  0.00000000000E+00 0. -1.
</event>
<event>
 4    1  0.6740123E+001  0.2660014E+02  0.7546771E-02  0.1451667E+00
          2   -1    0    0  502    0  0.00000000000E+00  0.00000000000E+00  0.17705777421E+04  0.17705777421E+04  0.00000000000E+00 0.  1.
         -2   -1    0    0    0  501 -0.00000000000E+00 -0.00000000000E+00 -0.69579611606E+00  0.69579611606E+00  0.00000000000E+00 0. -1.
          1    1    1    2  502    0  0.19885579106E+02 -0.17667235348E+02  0.14627520359E+04  0.14629938776E+04  0.00000000000E+00 0. -1.
         -1    1    1    2    0  501 -0.19885579106E+02  0.17667235348E+02  0.30712991008E+03  0.30827966058E+03  0.00000000000E+00 0.  1.
</event>
<event>
 4    1  0.6740123E+001  0.2249859E+02  0.7546771E-02  0.1498892E+00
          2   -1    0    0  502    0  0.00000000000E+00  0.00000000000E+00  0.42495165620E+02  0.42495165620E+02  0.00000000000E+00 0.  1.
         -2   -1    0    0    0  501 -0.00000000000E+00 -0.00000000000E+00 -0.17245652369E+02  0.17245652369E+02  0.00000000000E+00 0. -1.
          1    1    1    2  502    0  0.20394300885E+02  0.95004656373E+01  0.29237030845E+02  0.36891602413E+02  0.00000000000E+00 0.  1.
         -1    1    1    2    0  501 -0.20394300885E+02 -0.95004656373E+01 -0.39875175940E+01  0.22849215577E+02  0.00000000000E+00 0. -1.
</event>
<event>
 4    1  0.6740123E+001  0.2310615E+02  0.7546771E-02  0.1491170E+00
          2   -1    0    0  502    0  0.00000000000E+00  0.00000000000E+00  0.37104279898E+03  0.37104279898E+03  0.00000000000E+00 0. -1.
         -2   -1    0    0    0  501 -0.00000000000E+00 -0.00000000000E+00 -0.15078919864E+01  0.15078919864E+01  0.00000000000E+00 0.  1.
          1    1    1    2  502    0 -0.10522886555E+02 -0.20570924444E+02  0.14492330255E+03  0.14675373145E+03  0.00000000000E+00 0.  1.
         -1    1    1    2    0  501  0.10522886555E+02  0.20570924444E+02  0.22461160444E+03  0.22579695951E+03  0.00000000000E+00 0. -1.
</event>
<event>
 4    1  0.6740123E+001  0.2045964E+02  0.7546771E-02  0.1527121E+00
          2   -1    0    0  502    0  0.00000000000E+00  0.00000000000E+00  0.14097349355E+03  0.14097349355E+03  0.00000000000E+00 0.  1.
         -2   -1    0    0    0  501 -0.00000000000E+00 -0.00000000000E+00 -0.38493153849E+01  0.38493153849E+01  0.00000000000E+00 0. -1.
          1    1    1    2  502    0 -0.50081899410E+00  0.20453513779E+02  0.33940056212E+02  0.39629843064E+02  0.00000000000E+00 0. -1.
         -1    1    1    2    0  501  0.50081899410E+00 -0.20453513779E+02  0.10318412195E+03  0.10519296587E+03  0.00000000000E+00 0.  1.
</event>
<event>
 4    1  0.6740123E+001  0.2044450E+02  0.7546771E-02  0.1527346E+00
          2   -1    0    0  502    0  0.00000000000E+00  0.00000000000E+00  0.15336314472E+02  0.15336314472E+02  0.00000000000E+00 0. -1.
         -2   -1    0    0    0  501 -0.00000000000E+00 -0.00000000000E+00 -0.28338994431E+02  0.28338994431E+02  0.00000000000E+00 0.  1.
          1    1    1    2  502    0 -0.18786362576E+02 -0.80653690715E+01 -0.10774071151E+02  0.23109699398E+02  0.00000000000E+00 0.  1.
         -1    1    1    2    0  501  0.18786362576E+02  0.80653690715E+01 -0.22286088070E+01  0.20565609505E+02  0.00000000000E+00 0. -1.
</event>
<event>
 4    1  0.6740123E+001  0.3709191E+02  0.7546771E-02  0.1366425E+00
          2   -1    0    0  502    0  0.00000000000E+00  0.00000000000E+00  0.31985653668E+03  0.31985653668E+03  0.00000000000E+00 0.  1.
         -2   -1    0    0    0  501 -0.00000000000E+00 -0.00000000000E+00 -0.48403763259E+01  0.48403763259E+01  0.00000000000E+00 0. -1.
          1    1    1    2  502    0 -0.24696746481E+02  0.27674550988E+02  0.21168567273E+03  0.21491075846E+03  0.00000000000E+00 0.  1.
         -1    1    1    2    0  501  0.24696746481E+02 -0.27674550988E+02  0.10333048762E+03  0.10978615455E+03  0.00000000000E+00 0. -1.
</event>
<event>
 4    1  0.6740123E+001  0.2645802E+02  0.7546771E-02  0.1453130E+00
          2   -1    0    0  502    0  0.00000000000E+00  0.00000000000E+00  0.47497010952E+01  0.47497010952E+01  0.00000000000E+00 0.  1.
         -2   -1    0    0    0  501 -0.00000000000E+00 -0.00000000000E+00 -0.28194508871E+03  0.28194508871E+03  0.00000000000E+00 0. -1.
          1    1    1    2  502    0 -0.26452454419E+02 -0.54269123586E+00 -0.23762804815E+03  0.23909645779E+03  0.00000000000E+00 0. -1.
         -1    1    1    2    0  501  0.26452454419E+02  0.54269123586E+00 -0.39567339462E+02  0.47598332016E+02  0.00000000000E+00 0.  1.
</event>
<event>
 4    1  0.6740123E+001  0.2513777E+02  0.7546771E-02  0.1467268E+00
          2   -1    0    0  502    0  0.00000000000E+00  0.00000000000E+00  0.11346130020E+04  0.11346130020E+04  0.00000000000E+00 0.  1.
         -2   -1    0    0    0  501 -0.00000000000E+00 -0.00000000000E+00 -0.56093332185E+00  0.56093332185E+00  0.00000000000E+00 0. -1.
          1    1    1    2  502    0  0.22087570068E+02  0.12001946065E+02  0.51911550167E+03  0.51972378388E+03  0.00000000000E+00 0.  1.
         -1    1    1    2    0  501 -0.22087570068E+02 -0.12001946065E+02  0.61493656702E+03  0.61545015145E+03  0.00000000000E+00 0. -1.
</event>
<event>
 4    1  0.6740123E+001  0.2163900E+02  0.7546771E-02  0.1510334E+00
          2   -1    0    0  502    0  0.00000000000E+00  0.00000000000E+00  0.24976636708E+02  0.24976636708E+02  0.00000000000E+00 0. -1.
         -2   -1    0    0    0  501 -0.00000000000E+00 -0.00000000000E+00 -0.34293873838E+02  0.34293873838E+02  0.00000000000E+00 0.  1.
          1    1    1    2  502    0 -0.12811419809E+02  0.17438856181E+02  0.15294776733E+02  0.26498610864E+02  0.00000000000E+00 0. -1.
         -1    1    1    2    0  501  0.12811419809E+02 -0.17438856181E+02 -0.24612013863E+02  0.32771899682E+02  0.00000000000E+00 0.  1.
</event>
<event>
 4    1  0.6740123E+001  0.2008675E+02  0.7546771E-02  0.1532714E+00
          2   -1    0    0  502    0  0.00000000000E+00  0.00000000000E+00  0.17833518588E+04  0.17833518588E+04  0.00000000000E+00 0.  1.
         -2   -1    0    0    0  501 -0.00000000000E+00 -0.00000000000E+00 -0.26183816481E+00  0.26183816481E+00  0.00000000000E+00 0. -1.
          1    1    1    2  502    0  0.35544432749E+01 -0.19769759388E+02  0.56274840305E+03  0.56310677725E+03  0.00000000000E+00 0. -1.
         -1    1    1    2    0  501 -0.35544432749E+01  0.19769759388E+02  0.12203416176E+04  0.12205069197E+04  0.00000000000E+00 0.  1.
</event>
<event>
 4    1  0.6740123E+001  0.3201198E+02  0.7546771E-02  0.1402882E+00
          2   -1    0    0  502    0  0.00000000000E+00  0.00000000000E+00  0.49851693174E+01  0.49851693174E+01  0.00000000000E+00 0. -1.
         -2   -1    0    0    0  501 -0.00000000000E+00 -0.00000000000E+00 -0.23325326378E+03  0.23325326378E+03  0.00000000000E+00 0.  1.
          1    1    1    2  502    0  0.19065565333E+02  0.25715190888E+02 -0.73091833181E+02  0.79794629529E+02  0.00000000000E+00 0. -1.
         -1    1    1    2    0  501 -0.19065565333E+02 -0.25715190888E+02 -0.15517626128E+03  0.15844380357E+03  0.00000000000E+00 0.  1.
</event>
<event>
 4    1  0.6740123E+001  0.2056262E+02  0.7546771E-02  0.1525602E+00
          2   -1    0    0  502    0  0.00000000000E+00  0.00000000000E+00  0.53426961309E+03  0.53426961309E+03  0.00000000000E+00 0. -1.
         -2   -1    0    0    0  501 -0.00000000000E+00 -0.00000000000E+00 -0.93622210991E+00  0.93622210991E+00  0.00000000000E+00 0.  1.
          1    1    1    2  502    0 -0.94455199592E+01  0.18264811356E+02  0.16141763080E+03  0.16272207199E+03  0.00000000000E+00 0.  1.
         -1    1    1    2    0  501  0.94455199592E+01 -0.18264811356E+02  0.37191576018E+03  0.37248376321E+03  0.00000000000E+00 0. -1.
</event>
<event>
 4    1  0.6740123E+001  0.2227633E+02  0.7546771E-02  0.1501791E+00
          2   -1    0    0  502    0  0.00000000000E+00  0.00000000000E+00  0.14325977826E+03  0.14325977826E+03  0.00000000000E+00 0.  1.
         -2   -1    0    0    0  501 -0.00000000000E+00 -0.00000000000E+00 -0.75758752116E+01  0.75758752116E+01  0.00000000000E+00 0. -1.
          1    1    1    2  502    0 -0.18069582582E+02 -0.13027858205E+02  0.12279189670E+02  0.25436458147E+02  0.00000000000E+00 0. -1.
         -1    1    1    2    0  501  0.18069582582E+02  0.13027858205E+02  0.12340471338E+03  0.12539919533E+03  0.00000000000E+00 0.  1.
</event>
<event>
 4    1  0.6740123E+001  0.2609214E+02  0.7546771E-02  0.1456947E+00
          2   -1    0    0  502    0  0.00000000000E+00  0.00000000000E+00  0.17159509313E+04  0.17159509313E+04  0.00000000000E+00 0. -1.
         -2   -1    0    0    0  501 -0.00000000000E+00 -0.00000000000E+00 -0.56284794165E+00  0.56284794165E+00  0.00000000000E+00 0.  1.
          1    1    1    2  502    0  0.18167047285E+02  0.18728537380E+02  0.13239310971E+04  0.13241881851E+04  0.00000000000E+00 0. -1.
         -1    1    1    2    0  501 -0.18167047285E+02 -0.18728537380E+02  0.39145698626E+03  0.39232559413E+03  0.00000000000E+00 0.  1.
</event>
<event>
 4    1  0.6740123E+001  0.2373617E+02  0.7546771E-02  0.1483455E+00
          2   -1    0    0  502    0  0.00000000000E+00  0.00000000000E+00  0.79236212961E+01  0.79236212961E+01  0.00000000000E+00 0. -1.
         -2   -1    0    0    0  501 -0.00000000000E+00 -0.00000000000E+00 -0.72703883864E+02  0.72703883864E+02  0.00000000000E+00 0.  1.
          1    1    1    2  502    0 -0.22720916555E+02  0.68677292859E+01 -0.38369289975E+02  0.45117714568E+02  0.00000000000E+00 0.  1.
         -1    1    1    2    0  501  0.22720916555E+02 -0.68677292859E+01 -0.26410972593E+02  0.35509790592E+02  0.00000000000E+00 0. -1.
</event>
<event>
 4    1  0.6740123E+001  0.2524600E+02  0.7546771E-02  0.1466070E+00
          2   -1    0    0  502    0  0.00000000000E+00  0.00000000000E+00  0.14105734415E+01  0.14105734415E+01  0.00000000000E+00 0.  1.
         -2   -1    0    0    0  501 -0.00000000000E+00 -0.00000000000E+00 -0.45317341710E+03  0.45317341710E+03  0.00000000000E+00 0. -1.
          1    1    1    2  502    0  0.50953562026E+01  0.24726461489E+02 -0.21357534478E+03  0.21506228970E+03  0.00000000000E+00 0. -1.
         -1    1    1    2    0  501 -0.50953562026E+01 -0.24726461489E+02 -0.23818749888E+03  0.23952170084E+03  0.00000000000E+00 0.  1.
</event>
<event>
 4    1  0.6740123E+001  0.3206053E+02  0.7546771E-02  0.1402497E+00
          2   -1    0    0  502    0  0.00000000000E+00  0.00000000000E+00  0.24086088037E+04  0.24086088037E+04  0.00000000000E+00 0. -1.
         -2   -1    0    0    0  501 -0.00000000000E+00 -0.00000000000E+00 -0.74801246345E+00  0.74801246345E+00  0.00000000000E+00 0.  1.
          1    1    1    2  502    0 -0.31713399528E+02 -0.47051206944E+01  0.41444234403E+03  0.41568056774E+03  0.00000000000E+00 0.  1.
         -1    1    1    2    0  501  0.31713399528E+02  0.47051206944E+01  0.19934184472E+04  0.19936762484E+04  0.00000000000E+00 0. -1.
</event>
<event>
 4    1  0.6740123E+001  0.2243258E+02  0.7546771E-02  0.1499749E+00
          2   -1    0    0  502    0  0.00000000000E+00  0.00000000000E+00  0.87237437305E+03  0.87237437305E+03  0.00000000000E+00 0.  1.
         -2   -1    0    0    0  501 -0.00000000000E+00 -0.00000000000E+00 -0.63845804217E+00  0.63845804217E+00  0.00000000000E+00 0. -1.
          1    1    1    2  502    0 -0.18869846856E+02  0.12130518941E+02  0.57147357592E+03  0.57191368980E+03  0.00000000000E+00 0.  1.
         -1    1    1    2    0  501  0.18869846856E+02 -0.12130518941E+02  0.30026233909E+03  0.30109914129E+03  0.00000000000E+00 0. -1.
</event>
<event>
 4    1  0.6740123E+001  0.2445472E+02  0.7546771E-02  0.1474997E+00
          2   -1    0    0  502    0  0.00000000000E+00  0.00000000000E+00  0.23346402765E+02  0.23346402765E+02  0.00000000000E+00 0. -1.
         -2   -1    0    0    0  501 -0.00000000000E+00 -0.00000000000E+00 -0.25655641849E+02  0.25655641849E+02  0.00000000000E+00 0.  1.
          1    1    1    2  502    0 -0.23728002921E+02 -0.59173565737E+01 -0.18725478423E+00  0.24455434893E+02  0.00000000000E+00 0. -1.
         -1    1    1    2    0  501  0.23728002921E+02  0.59173565737E+01 -0.21219842997E+01  0.24546609721E+02  0.00000000000E+00 0.  1.
</event>
<event>
 4    1  0.6740123E+001  0.2424033E+02  0.7546771E-02  0.1477484E+00
          2   -1    0    0  502    0  0.00000000000E+00  0.00000000000E+00  0.23538019344E+03  0.23538019344E+03  0.00000000000E+00 0. -1.
         -2   -1    0    0    0  501 -0.00000000000E+00 -0.00000000000E+00 -0.26177529085E+01  0.26177529085E+01  0.00000000000E+00 0.  1.
          1    1    1    2  502    0  0.24238950884E+02  0.25851079595E+00  0.14200696817E+03  0.14406100297E+03  0.00000000000E+00 0. -1.
         -1    1    1    2    0  501 -0.24238950884E+02 -0.25851079595E+00  0.90755472359E+02  0.93936943376E+02  0.00000000000E+00 0.  1.
</event>
<event>
 4    1  0.6740123E+001  0.2937636E+02  0.7546771E-02  0.1425094E+00
          2   -1    0    0  502    0  0.00000000000E+00  0.00000000000E+00  0.16529383593E+04  0.16529383593E+04  0.00000000000E+00 0. -1.
         -2   -1    0    0    0  501 -0.00000000000E+00 -0.00000000000E+00 -0.52442603023E+00  0.52442603023E+00  0.00000000000E+00 0.  1.
          1    1    1    2  502    0 -0.72128620044E+01 -0.28477099483E+02  0.77094375030E+03  0.77150323182E+03  0.00000000000E+00 0.  1.
         -1    1    1    2    0  501  0.72128620044E+01  0.28477099483E+02  0.88147018294E+03  0.88195955348E+03  0.00000000000E+00 0. -1.
</event>
<event>
 4    1  0.6740123E+001  0.2137688E+02  0.7546771E-02  0.1513951E+00
          2   -1    0    0  502    0  0.00000000000E+00  0.00000000000E+00  0.25429916934E+04  0.25429916934E+04  0.00000000000E+00 0.  1.
         -2   -1    0    0    0  501 -0.00000000000E+00 -0.00000000000E+00 -0.18019029095E+00  0.18019029095E+00  0.00000000000E+00 0. -1.
          1    1    1    2  502    0 -0.12116095695E+00  0.21376536259E+02  0.12049533074E+04  0.12051429144E+04  0.00000000000E+00 0. -1.
         -1    1    1    2    0  501  0.12116095695E+00 -0.21376536259E+02  0.13378581957E+04  0.13380289693E+04  0.00000000000E+00 0.  1.
</event>
<event>
 4    1  0.6740123E+001  0.2974531E+02  0.7546771E-02  0.1421823E+00
          2   -1    0    0  502    0  0.00000000000E+00  0.00000000000E+00  0.55417597417E+02  0.55417597417E+02  0.00000000000E+00 0.  1.
         -2   -1    0    0    0  501 -0.00000000000E+00 -0.00000000000E+00 -0.26773082168E+02  0.26773082168E+02  0.00000000000E+00 0. -1.
          1    1    1    2  502    0 -0.19071146323E+02 -0.22827063771E+02  0.40432004168E+02  0.50194924281E+02  0.00000000000E+00 0.  1.
         -1    1    1    2    0  501  0.19071146323E+02  0.22827063771E+02 -0.11787488918E+02  0.31995755304E+02  0.00000000000E+00 0. -1.
</event>
<event>
 4    1  0.6740123E+001  0.3070390E+02  0.7546771E-02  0.1413576E+00
          2   -1    0    0  502    0  0.00000000000E+00  0.00000000000E+00  0.29151449849E+02  0.29151449849E+02  0.00000000000E+00 0. -1.
         -2   -1    0    0    0  501 -0.00000000000E+00 -0.00000000000E+00 -0.41501898176E+02  0.41501898176E+02  0.00000000000E+00 0.  1.
          1    1    1    2  502    0  0.30699249296E+02  0.53448336422E+00 -0.22774323168E+02  0.38228253630E+02  0.00000000000E+00 0. -1.
         -1    1    1    2    0  501 -0.30699249296E+02 -0.53448336422E+00  0.10423874842E+02  0.32425094395E+02  0.00000000000E+00 0.  1.
</event>
<event>
 4    1  0.6740123E+001  0.2650634E+02  0.7546771E-02  0.1452631E+00
          2   -1    0    0  502    0  0.00000000000E+00  0.00000000000E+00  0.30674711877E+03  0.30674711877E+03  0.00000000000E+00 0.  1.
         -2   -1    0    0    0  501 -0.00000000000E+00 -0.00000000000E+00 -0.25363783821E+01  0.25363783821E+01  0.00000000000E+00 0. -1.
          1    1    1    2  502    0 -0.12171427958E+01  0.26478381812E+02  0.20025934166E+03  0.20200591591E+03  0.00000000000E+00 0.  1.
         -1    1    1    2    0  501  0.12171427958E+01 -0.26478381812E+02  0.10395139872E+03  0.10727758124E+03  0.00000000000E+00 0. -1.
</event>
<event>
 4    1  0.6740123E+001  0.2186015E+02  0.7546771E-02  0.1507330E+00
          2   -1    0    0  502    0  0.00000000000E+00  0.00000000000E+00  0.36835825918E+03  0.36835825918E+03  0.00000000000E+00 0. -1.
         -2   -1    0    0    0  501 -0.00000000000E+00 -0.00000000000E+00 -0.17078846564E+01  0.17078846564E+01  0.00000000000E+00 0.  1.
          1    1    1    2  502    0  0.42456509181E+01  0.21443892789E+02  0.27405055599E+03  0.27492103108E+03  0.00000000000E+00 0. -1.
         -1    1    1    2    0  501 -0.42456509181E+01 -0.21443892789E+02  0.92599818527E+02  0.95145112753E+02  0.00000000000E+00 0.  1.
</event>
<event>
 4    1  0.6740123E+001  0.2758195E+02  0.7546771E-02  0.1441848E+00
          2   -1    0    0  502    0  0.00000000000E+00  0.00000000000E+00  0.82573438839E+03  0.82573438839E+03  0.00000000000E+00 0. -1.
         -2   -1    0    0    0  501 -0.00000000000E+00 -0.00000000000E+00 -0.12593916559E+01  0.12593916559E+01  0.00000000000E+00 0.  1.
          1    1    1    2  502    0 -0.20096173523E+01 -0.27508644282E+02  0.19799904925E+03  0.19991094912E+03  0.00000000000E+00 0.  1.
         -1    1    1    2    0  501  0.20096173523E+01  0.27508644282E+02  0.62647594748E+03  0.62708283093E+03  0.00000000000E+00 0. -1.
</event>
<event>
 4    1  0.6740123E+001  0.2462474E+02  0.7546771E-02  0.1473045E+00
          2   -1    0    0  502    0  0.00000000000E+00  0.00000000000E+00  0.10902679863E+03  0.10902679863E+03  0.00000000000E+00 0. -1.
         -2   -1    0    0    0  501 -0.00000000000E+00 -0.00000000000E+00 -0.56534270478E+01  0.56534270478E+01  0.00000000000E+00 0.  1.
          1    1    1    2  502    0 -0.18433004063E+02  0.16327953181E+02  0.44384066702E+02  0.50757492756E+02  0.00000000000E+00 0.  1.
         -1    1    1    2    0  501  0.18433004063E+02 -0.16327953181E+02  0.58989304876E+02  0.63922732918E+02  0.00000000000E+00 0. -1.
</event>
<event>
 4    1  0.6740123E+001  0.2270895E+02  0.7546771E-02  0.1496186E+00
          2   -1    0    0  502    0  0.00000000000E+00  0.00000000000E+00  0.96037359688E+00  0.96037359688E+00  0.00000000000E+00 0.  1.
         -2   -1    0    0    0  501 -0.00000000000E+00 -0.00000000000E+00 -0.86798529384E+03  0.86798529384E+03  0.00000000000E+00 0. -1.
          1    1    1    2  502    0 -0.18104426226E+02  0.13708617834E+02 -0.70181655588E+03  0.70218386093E+03  0.00000000000E+00 0. -1.
         -1    1    1    2    0  501  0.18104426226E+02 -0.13708617834E+02 -0.16520836437E+03  0.16676180651E+03  0.00000000000E+00 0.  1.
</event>
<event>
 4    1  0.6740123E+001  0.2663491E+02  0.7546771E-02  0.1451310E+00
          2   -1    0    0  502    0  0.00000000000E+00  0.00000000000E+00  0.28658417959E+02  0.28658417959E+02  0.00000000000E+00 0. -1.
         -2   -1    0    0    0  501 -0.00000000000E+00 -0.00000000000E+00 -0.24821991931E+02  0.24821991931E+02  0.00000000000E+00 0.  1.
          1    1    1    2  502    0  0.19269667659E+02  0.18387449174E+02  0.33148799748E+01  0.26840395080E+02  0.00000000000E+00 0.  1.
         -1    1    1    2    0  501 -0.19269667659E+02 -0.18387449174E+02  0.52154605347E+00  0.26640014810E+02  0.00000000000E+00 0. -1.
</event>
<event>
 4    1  0.6740123E+001  0.2724134E+02  0.7546771E-02  0.1445199E+00
          2   -1    0    0  502    0  0.00000000000E+00  0.00000000000E+00  0.87556400808E+01  0.87556400808E+01  0.00000000000E+00 0. -1.
         -2   -1    0    0    0  501 -0.00000000000E+00 -0.00000000000E+00 -0.20736370216E+03  0.20736370216E+03  0.00000000000E+00 0.  1.
          1    1    1    2  502    0  0.18476010172E+02 -0.20018177010E+02 -0.18239554819E+03  0.18441861718E+03  0.00000000000E+00 0.  1.
         -1    1    1    2    0  501 -0.18476010172E+02  0.20018177010E+02 -0.16212513883E+02  0.31700725056E+02  0.00000000000E+00 0. -1.
</event>
<event>
 4    1  0.6740123E+001  0.3146144E+02  0.7546771E-02  0.1407308E+00
          2   -1    0    0  502    0  0.00000000000E+00  0.00000000000E+00  0.20730533885E+04  0.20730533885E+04  0.00000000000E+00 0.  1.
         -2   -1    0    0    0  501 -0.00000000000E+00 -0.00000000000E+00 -0.52470521422E+00  0.52470521422E+00  0.00000000000E+00 0. -1.
          1    1    1    2  502    0 -0.23838496856E+02 -0.20531639544E+02  0.72519110066E+03  0.72587323592E+03  0.00000000000E+00 0.  1.
         -1    1    1    2    0  501  0.23838496856E+02  0.20531639544E+02  0.13473375826E+04  0.13477048578E+04  0.00000000000E+00 0. -1.
</event>
<event>
 4    1  0.6740123E+001  0.2431390E+02  0.7546771E-02  0.1476627E+00
          2   -1    0    0  502    0  0.00000000000E+00  0.00000000000E+00  0.11586193218E+04  0.11586193218E+04  0.00000000000E+00 0.  1.
         -2   -1    0    0    0  501 -0.00000000000E+00 -0.00000000000E+00 -0.78568115723E+00  0.78568115723E+00  0.00000000000E+00 0. -1.
          1    1    1    2  502    0  0.24173785688E+02  0.26065174178E+01  0.92216000062E+03  0.92248047817E+03  0.00000000000E+00 0.  1.
         -1    1    1    2    0  501 -0.24173785688E+02 -0.26065174178E+01  0.23567364000E+03  0.23692452478E+03  0.00000000000E+00 0. -1.
</event>
<event>
 4    1  0.6740123E+001  0.3037786E+02  0.7546771E-02  0.1416341E+00
          2   -1    0    0  502    0  0.00000000000E+00  0.00000000000E+00  0.64440428949E+01  0.64440428949E+01  0.00000000000E+00 0.  1.
         -2   -1    0    0    0  501 -0.00000000000E+00 -0.00000000000E+00 -0.14358591943E+03  0.14358591943E+03  0.00000000000E+00 0. -1.
          1    1    1    2  502    0  0.25200630092E+02 -0.16962986269E+02 -0.64703649638E+02  0.71479905824E+02  0.00000000000E+00 0. -1.
         -1    1    1    2    0  501 -0.25200630092E+02  0.16962986269E+02 -0.72438226893E+02  0.78550056497E+02  0.00000000000E+00 0.  1.
</event>
<event>
 4    1  0.6740123E+001  0.2686281E+02  0.7546771E-02  0.1448991E+00
          2   -1    0    0  502    0  0.00000000000E+00  0.00000000000E+00  0.90748805327E+02  0.90748805327E+02  0.00000000000E+00 0.  1.
         -2   -1    0    0    0  501 -0.00000000000E+00 -0.00000000000E+00 -0.97210411301E+01  0.97210411301E+01  0.00000000000E+00 0. -1.
          1    1    1    2  502    0  0.20286209605E+02  0.17609093880E+02  0.61945294585E+02  0.67519108470E+02  0.00000000000E+00 0.  1.
         -1    1    1    2    0  501 -0.20286209605E+02 -0.17609093880E+02  0.19082469613E+02  0.32950737988E+02  0.00000000000E+00 0. -1.
</event>
<event>
 4    1  0.6740123E+001  0.3303660E+02  0.7546771E-02  0.1394918E+00
          2   -1    0    0  502    0  0.00000000000E+00  0.00000000000E+00  0.17182342907E+02  0.17182342907E+02  0.00000000000E+00 0. -1.
         -2   -1    0    0    0  501 -0.00000000000E+00 -0.00000000000E+00 -0.76042048105E+02  0.76042048105E+02  0.00000000000E+00 0.  1.
          1    1    1    2  502    0 -0.26271718200E+02 -0.20030326562E+02 -0.10514447306E+02  0.34669449974E+02  0.00000000000E+00 0.  1.
         -1    1    1    2    0  501  0.26271718200E+02  0.20030326562E+02 -0.48345257892E+02  0.58554941039E+02  0.00000000000E+00 0. -1.
</event>
<event>
 4    1  0.6740123E+001  0.6259985E+02  0.7546771E-02  0.1251246E+00
          2   -1    0    0  502    0  0.00000000000E+00  0.00000000000E+00  0.26701413680E+02  0.26701413680E+02  0.00000000000E+00 0. -1.
         -2   -1    0    0    0  501 -0.00000000000E+00 -0.00000000000E+00 -0.16411002123E+03  0.16411002123E+03  0.00000000000E+00 0.  1.
          1    1    1    2  502    0  0.51941577557E+01 -0.62383987664E+02 -0.99723982836E+02  0.11774384886E+03  0.00000000000E+00 0. -1.
         -1    1    1    2    0  501 -0.51941577557E+01  0.62383987664E+02 -0.37684624718E+02  0.73067586054E+02  0.00000000000E+00 0.  1.
</event>
<event>
 4    1  0.6740123E+001  0.2324515E+02  0.7546771E-02  0.1489442E+00
          2   -1    0    0  502    0  0.00000000000E+00  0.00000000000E+00  0.42164209953E+03  0.42164209953E+03  0.00000000000E+00 0.  1.
         -2   -1    0    0    0  501 -0.00000000000E+00 -0.00000000000E+00 -0.15163723806E+01  0.15163723806E+01  0.00000000000E+00 0. -1.
          1    1    1    2  502    0  0.23245150963E+02 -0.10766134611E-01  0.12679451953E+03  0.12890766983E+03  0.00000000000E+00 0. -1.
         -1    1    1    2    0  501 -0.23245150963E+02  0.10766134611E-01  0.29333120762E+03  0.29425080208E+03  0.00000000000E+00 0.  1.
</event>
<event>
 4    1  0.6740123E+001  0.2021561E+02  0.7546771E-02  0.1530765E+00
          2   -1    0    0  502    0  0.00000000000E+00  0.00000000000E+00  0.44111079183E+03  0.44111079183E+03  0.00000000000E+00 0. -1.
         -2   -1    0    0    0  501 -0.00000000000E+00 -0.00000000000E+00 -0.13498168728E+01  0.13498168728E+01  0.00000000000E+00 0.  1.
          1    1    1    2  502    0 -0.95780700156E+01  0.17802574241E+02  0.95983428597E+02  0.98089192269E+02  0.00000000000E+00 0.  1.
         -1    1    1    2    0  501  0.95780700156E+01 -0.17802574241E+02  0.34377754636E+03  0.34437141643E+03  0.00000000000E+00 0. -1.
</event>
<event>
 4    1  0.6740123E+001  0.2389115E+02  0.7546771E-02  0.1481601E+00
          2   -1    0    0  502    0  0.00000000000E+00  0.00000000000E+00  0.16198949855E+02  0.16198949855E+02  0.00000000000E+00 0. -1.
         -2   -1    0    0    0  501 -0.00000000000E+00 -0.00000000000E+00 -0.47816749904E+02  0.47816749904E+02  0.00000000000E+00 0.  1.
          1    1    1    2  502    0  0.21963592038E+02  0.94014669062E+01  0.60905007072E+00  0.23898909958E+02  0.00000000000E+00 0. -1.
         -1    1    1    2    0  501 -0.21963592038E+02 -0.94014669062E+01 -0.32226850120E+02  0.40116789800E+02  0.00000000000E+00 0.  1.
</event>
<event>
 4    1  0.6740123E+001  0.2688605E+02  0.7546771E-02  0.1448756E+00
          2   -1    0    0  502    0  0.00000000000E+00  0.00000000000E+00  0.21152131817E+04  0.21152131817E+04  0.00000000000E+00 0. -1.
         -2   -1    0    0    0  501 -0.00000000000E+00 -0.00000000000E+00 -0.35606439905E+00  0.35606439905E+00  0.00000000000E+00 0.  1.
          1    1    1    2  502    0 -0.26704452872E+02  0.31196096986E+01  0.84528867310E+03  0.84571614661E+03  0.00000000000E+00 0.  1.
         -1    1    1    2    0  501  0.26704452872E+02 -0.31196096986E+01  0.12695684442E+04  0.12698530995E+04  0.00000000000E+00 0. -1.
</event>
<event>
 4    1  0.6740123E+001  0.2453516E+02  0.7546771E-02  0.1474071E+00
          2   -1    0    0  502    0  0.00000000000E+00  0.00000000000E+00  0.72112018448E+03  0.72112018448E+03  0.00000000000E+00 0.  1.
         -2   -1    0    0    0  501 -0.00000000000E+00 -0.00000000000E+00 -0.87653026009E+00  0.87653026009E+00  0.00000000000E+00 0. -1.
          1    1    1    2  502    0 -0.16355771439E+02 -0.18288327905E+02  0.43891153115E+03  0.43959675428E+03  0.00000000000E+00 0. -1.
         -1    1    1    2    0  501  0.16355771439E+02  0.18288327905E+02  0.28133212307E+03  0.28239996046E+03  0.00000000000E+00 0.  1.
</event>
<event>
 4    1  0.6740123E+001  0.2381372E+02  0.7546771E-02  0.1482525E+00
          2   -1    0    0  502    0  0.00000000000E+00  0.00000000000E+00  0.73147349070E+02  0.73147349070E+02  0.00000000000E+00 0.  1.
         -2   -1    0    0    0  501 -0.00000000000E+00 -0.00000000000E+00 -0.77530193600E+01  0.77530193600E+01  0.00000000000E+00 0. -1.
          1    1    1    2  502    0  0.23245344410E+02 -0.51717699849E+01  0.32459533933E+02  0.40258099616E+02  0.00000000000E+00 0. -1.
         -1    1    1    2    0  501 -0.23245344410E+02  0.51717699849E+01  0.32934795777E+02  0.40642268814E+02  0.00000000000E+00 0.  1.
</event>
<event>
 4    1  0.6740123E+001  0.3100494E+02  0.7546771E-02  0.1411060E+00
          2   -1    0    0  502    0  0.00000000000E+00  0.00000000000E+00  0.22135346593E+02  0.22135346593E+02  0.00000000000E+00 0. -1.
         -2   -1    0    0    0  501 -0.00000000000E+00 -0.00000000000E+00 -0.50447634148E+02  0.50447634148E+02  0.00000000000E+00 0.  1.
          1    1    1    2  502    0  0.20613047039E+02  0.23160495823E+02 -0.27693200558E+02  0.41571861062E+02  0.00000000000E+00 0.  1.
         -1    1    1    2    0  501 -0.20613047039E+02 -0.23160495823E+02 -0.61908699692E+00  0.31011119679E+02  0.00000000000E+00 0. -1.
</event>
<event>
 4    1  0.6740123E+001  0.3393151E+02  0.7546771E-02  0.1388235E+00
          2   -1    0    0  502    0  0.00000000000E+00  0.00000000000E+00  0.12323073457E+04  0.12323073457E+04  0.00000000000E+00 0.  1.
         -2   -1    0    0    0  501 -0.00000000000E+00 -0.00000000000E+00 -0.20033105388E+01  0.20033105388E+01  0.00000000000E+00 0. -1.
          1    1    1    2  502    0 -0.33114665519E+02  0.74004233941E+01  0.16432398574E+03  0.16779070185E+03  0.00000000000E+00 0. -1.
         -1    1    1    2    0  501  0.33114665519E+02 -0.74004233941E+01  0.10659800494E+04  0.10665199544E+04  0.00000000000E+00 0.  1.
</event>
<event>
 4    1  0.6740123E+001  0.2327993E+02  0.7546771E-02  0.1489013E+00
          2   -1    0    0  502    0  0.00000000000E+00  0.00000000000E+00  0.10913251335E+03  0.10913251335E+03  0.00000000000E+00 0.  1.
         -2   -1    0    0    0  501 -0.00000000000E+00 -0.00000000000E+00 -0.54192476378E+01  0.54192476378E+01  0.00000000000E+00 0. -1.
          1    1    1    2  502    0  0.78771178167E+00  0.23266600118E+02  0.68420296354E+02  0.72272346884E+02  0.00000000000E+00 0. -1.
         -1    1    1    2    0  501 -0.78771178167E+00 -0.23266600118E+02  0.35292969361E+02  0.42279414107E+02  0.00000000000E+00 0.  1.
</event>
<event>
 4    1  0.6740123E+001  0.2073578E+02  0.7546771E-02  0.1523071E+00
          2   -1    0    0  502    0  0.00000000000E+00  0.00000000000E+00  0.56590950312E+02  0.56590950312E+02  0.00000000000E+00 0. -1.
         -2   -1    0    0    0  501 -0.00000000000E+00 -0.00000000000E+00 -0.11612124451E+02  0.11612124451E+02  0.00000000000E+00 0.  1.
          1    1    1    2  502    0  0.51946150362E-01 -0.20735719051E+02  0.24392180574E+01  0.20878757810E+02  0.00000000000E+00 0.  1.
         -1    1    1    2    0  501 -0.51946150362E-01  0.20735719051E+02  0.42539607804E+02  0.47324316953E+02  0.00000000000E+00 0. -1.
</event>
<event>
 4    1  0.6740123E+001  0.2818530E+02  0.7546771E-02  0.1436052E+00
          2   -1    0    0  502    0  0.00000000000E+00  0.00000000000E+00  0.10074487331E+04  0.10074487331E+04  0.00000000000E+00 0. -1.
         -2   -1    0    0    0  501 -0.00000000000E+00 -0.00000000000E+00 -0.89689206613E+00  0.89689206613E+00  0.00000000000E+00 0.  1.
          1    1    1    2  502    0 -0.25804776399E+02 -0.11336878118E+02  0.32803619181E+03  0.32924482445E+03  0.00000000000E+00 0.  1.
         -1    1    1    2    0  501  0.25804776399E+02  0.11336878118E+02  0.67851564928E+03  0.67910080077E+03  0.00000000000E+00 0. -1.
</event>
<event>
 4    1  0.6740123E+001  0.2102479E+02  0.7546771E-02  0.1518911E+00
          2   -1    0    0  502    0  0.00000000000E+00  0.00000000000E+00  0.27078016929E+01  0.27078016929E+01  0.00000000000E+00 0.  1.
         -2   -1    0    0    0  501 -0.00000000000E+00 -0.00000000000E+00 -0.24955980586E+03  0.24955980586E+03  0.00000000000E+00 0. -1.
          1    1    1    2  502    0  0.17529598337E+02 -0.11608394550E+02 -0.49247043385E+02  0.53547296141E+02  0.00000000000E+00 0. -1.
         -1    1    1    2    0  501 -0.17529598337E+02  0.11608394550E+02 -0.19760496078E+03  0.19872031141E+03  0.00000000000E+00 0.  1.
</event>
<event>
 4    1  0.6740123E+001  0.5245728E+02  0.7546771E-02  0.1287856E+00
          2   -1    0    0  502    0  0.00000000000E+00  0.00000000000E+00  0.67656721294E+03  0.67656721294E+03  0.00000000000E+00 0. -1.
         -2   -1    0    0    0  501 -0.00000000000E+00 -0.00000000000E+00 -0.71859167509E+01  0.71859167509E+01  0.00000000000E+00 0.  1.
          1    1    1    2  502    0 -0.51472576341E+02  0.10116337623E+02  0.55991372636E+03  0.56236567051E+03  0.00000000000E+00 0. -1.
         -1    1    1    2    0  501  0.51472576341E+02 -0.10116337623E+02  0.10946756983E+03  0.12138745918E+03  0.00000000000E+00 0.  1.
</event>
<event>
 4    1  0.6740123E+001  0.2432850E+02  0.7546771E-02  0.1476457E+00
          2   -1    0    0  502    0  0.00000000000E+00  0.00000000000E+00  0.96717252976E+02  0.96717252976E+02  0.00000000000E+00 0. -1.
         -2   -1    0    0    0  501 -0.00000000000E+00 -0.00000000000E+00 -0.71615081178E+01  0.71615081178E+01  0.00000000000E+00 0.  1.
          1    1    1    2  502    0  0.16801479666E+02  0.17595066359E+02  0.64588492743E+02  0.69018471977E+02  0.00000000000E+00 0.  1.
         -1    1    1    2    0  501 -0.16801479666E+02 -0.17595066359E+02  0.24967252115E+02  0.34860289117E+02  0.00000000000E+00 0. -1.
</event>
<event>
 4    1  0.6740123E+001  0.2051425E+02  0.7546771E-02  0.1526314E+00
          2   -1    0    0  502    0  0.00000000000E+00  0.00000000000E+00  0.15477516000E+04  0.15477516000E+04  0.00000000000E+00 0. -1.
         -2   -1    0    0    0  501 -0.00000000000E+00 -0.00000000000E+00 -0.30818088469E+00  0.30818088469E+00  0.00000000000E+00 0.  1.
          1    1    1    2  502    0 -0.44906411260E+01  0.20016711681E+02  0.50814488961E+03  0.50855881021E+03  0.00000000000E+00 0.  1.
         -1    1    1    2    0  501  0.44906411260E+01 -0.20016711681E+02  0.10392985296E+04  0.10395009707E+04  0.00000000000E+00 0. -1.
</event>
<event>
 4    1  0.6740123E+001  0.3571337E+02  0.7546771E-02  0.1375616E+00
          2   -1    0    0  502    0  0.00000000000E+00  0.00000000000E+00  0.34052854534E+02  0.34052854534E+02  0.00000000000E+00 0.  1.
         -2   -1    0    0    0  501 -0.00000000000E+00 -0.00000000000E+00 -0.38251743121E+02  0.38251743121E+02  0.00000000000E+00 0. -1.
          1    1    1    2  502    0 -0.34239011215E+02  0.10155548920E+02  0.31185825294E+01  0.35849276420E+02  0.00000000000E+00 0.  1.
         -1    1    1    2    0  501  0.34239011215E+02 -0.10155548920E+02 -0.73174711165E+01  0.36455321235E+02  0.00000000000E+00 0. -1.
</event>
<event>
 4    1  0.6740123E+001  0.2704263E+02  0.7546771E-02  0.1447180E+00
          2   -1    0    0  502    0  0.00000000000E+00  0.00000000000E+00  0.10483784169E+02  0.10483784169E+02  0.00000000000E+00 0.  1.
         -2   -1    0    0    0  501 -0.00000000000E+00 -0.00000000000E+00 -0.70788722465E+02  0.70788722465E+02  0.00000000000E+00 0. -1.
          1    1    1    2  502    0  0.18093222696E+02 -0.20098232220E+02 -0.25243529904E+02  0.36993775799E+02  0.00000000000E+00 0.  1.
         -1    1    1    2    0  501 -0.18093222696E+02  0.20098232220E+02 -0.35061408393E+02  0.44278730835E+02  0.00000000000E+00 0. -1.
</event>
<event>
 4    1  0.6740123E+001  0.2168689E+02  0.7546771E-02  0.1509680E+00
          2   -1    0    0  502    0  0.00000000000E+00  0.00000000000E+00  0.64672083921E+03  0.64672083921E+03  0.00000000000E+00 0. -1.
         -2   -1    0    0    0  501 -0.00000000000E+00 -0.00000000000E+00 -0.94280513744E+00  0.94280513744E+00  0.00000000000E+00 0.  1.
          1    1    1    2  502    0 -0.20192587735E+02  0.79107848482E+01  0.16804371102E+03  0.16943733334E+03  0.00000000000E+00 0. -1.
         -1    1    1    2    0  501  0.20192587735E+02 -0.79107848482E+01  0.47773432306E+03  0.47822631101E+03  0.00000000000E+00 0.  1.
</event>
<event>
 4    1  0.6740123E+001  0.2726998E+02  0.7546771E-02  0.1444915E+00
          2   -1    0    0  502    0  0.00000000000E+00  0.00000000000E+00  0.43729735244E+03  0.43729735244E+03  0.00000000000E+00 0. -1.
         -2   -1    0    0    0  501 -0.00000000000E+00 -0.00000000000E+00 -0.17885008054E+01  0.17885008054E+01  0.00000000000E+00 0.  1.
          1    1    1    2  502    0 -0.25872527693E+02 -0.86176620574E+01  0.26643572690E+03  0.26782764673E+03  0.00000000000E+00 0. -1.
         -1    1    1    2    0  501  0.25872527693E+02  0.86176620574E+01  0.16907312474E+03  0.17125820651E+03  0.00000000000E+00 0.  1.
</event>
<event>
 4    1  0.6740123E+001  0.2118141E+02  0.7546771E-02  0.1516690E+00
          2   -1    0    0  502    0  0.00000000000E+00  0.00000000000E+00  0.26226681913E+03  0.26226681913E+03  0.00000000000E+00 0.  1.
         -2   -1    0    0    0  501 -0.00000000000E+00 -0.00000000000E+00 -0.20876432755E+01  0.20876432755E+01  0.00000000000E+00 0. -1.
          1    1    1    2  502    0  0.21131013099E+02  0.14602783409E+01  0.18625687678E+03  0.18745739856E+03  0.00000000000E+00 0.  1.
         -1    1    1    2    0  501 -0.21131013099E+02 -0.14602783409E+01  0.73922299070E+02  0.76897063840E+02  0.00000000000E+00 0. -1.
</event>
<event>
 4    1  0.6740123E+001  0.2185358E+02  0.7546771E-02  0.1507418E+00
          2   -1    0    0  502    0  0.00000000000E+00  0.00000000000E+00  0.95359729631E+03  0.95359729631E+03  0.00000000000E+00 0.  1.
         -2   -1    0    0    0  501 -0.00000000000E+00 -0.00000000000E+00 -0.72227746868E+00  0.72227746868E+00  0.00000000000E+00 0. -1.
          1    1    1    2  502    0 -0.29699647664E+01  0.21650826041E+02  0.74065322948E+03  0.74097556323E+03  0.00000000000E+00 0.  1.
         -1    1    1    2    0  501  0.29699647664E+01 -0.21650826041E+02  0.21222178936E+03  0.21334401055E+03  0.00000000000E+00 0. -1.
</event>
<event>
 4    1  0.6740123E+001  0.4392400E+02  0.7546771E-02  0.1326908E+00
          2   -1    0    0  502    0  0.00000000000E+00  0.00000000000E+00  0.29493059307E+03  0.29493059307E+03  0.00000000000E+00 0. -1.
         -2   -1    0    0    0  501 -0.00000000000E+00 -0.00000000000E+00 -0.65429380746E+01  0.65429380746E+01  0.00000000000E+00 0.  1.
          1    1    1    2  502    0 -0.25579946973E+02 -0.35706917758E+02  0.14203737186E+03  0.14867391388E+03  0.00000000000E+00 0.  1.
         -1    1    1    2    0  501  0.25579946973E+02  0.35706917758E+02  0.14635028313E+03  0.15279961726E+03  0.00000000000E+00 0. -1.
</event>
<event>
 4    1  0.6740123E+001  0.5826951E+02  0.7546771E-02  0.1265828E+00
          2   -1    0    0  502    0  0.00000000000E+00  0.00000000000E+00  0.32347852057E+02  0.32347852057E+02  0.00000000000E+00 0. -1.
         -2   -1    0    0    0  501 -0.00000000000E+00 -0.00000000000E+00 -0.11561785095E+03  0.11561785095E+03  0.00000000000E+00 0.  1.
          1    1    1    2  502    0  0.53411692332E+02  0.23292199771E+02 -0.19176157340E+02  0.61343789077E+02  0.00000000000E+00 0. -1.
         -1    1    1    2    0  501 -0.53411692332E+02 -0.23292199771E+02 -0.64093841555E+02  0.86621913932E+02  0.00000000000E+00 0.  1.
</event>
<event>
 4    1  0.6740123E+001  0.2340294E+02  0.7546771E-02  0.1487500E+00
          2   -1    0    0  502    0  0.00000000000E+00  0.00000000000E+00  0.14671638796E+03  0.14671638796E+03  0.00000000000E+00 0. -1.
         -2   -1    0    0    0  501 -0.00000000000E+00 -0.00000000000E+00 -0.63237626746E+01  0.63237626746E+01  0.00000000000E+00 0.  1.
          1    1    1    2  502    0 -0.13074697708E+01 -0.23366384616E+02  0.11917402450E+03  0.12145017713E+03  0.00000000000E+00 0. -1.
         -1    1    1    2    0  501  0.13074697708E+01  0.23366384616E+02  0.21218600782E+02  0.31589973510E+02  0.00000000000E+00 0.  1.
</event>
<event>
 4    1  0.6740123E+001  0.2775017E+02  0.7546771E-02  0.1440215E+00
          2   -1    0    0  502    0  0.00000000000E+00  0.00000000000E+00  0.46058266272E+03  0.46058266272E+03  0.00000000000E+00 0. -1.
         -2   -1    0    0    0  501 -0.00000000000E+00 -0.00000000000E+00 -0.18454132274E+01  0.18454132274E+01  0.00000000000E+00 0.  1.
          1    1    1    2  502    0 -0.27747430788E+02  0.38987146247E+00  0.15848121536E+03  0.16089240982E+03  0.00000000000E+00 0.  1.
         -1    1    1    2    0  501  0.27747430788E+02 -0.38987146247E+00  0.30025603412E+03  0.30153566612E+03  0.00000000000E+00 0. -1.
</event>
<event>
 4    1  0.6740123E+001  0.3677213E+02  0.7546771E-02  0.1368515E+00
          2   -1    0    0  502    0  0.00000000000E+00  0.00000000000E+00  0.22923379069E+04  0.22923379069E+04  0.00000000000E+00 0. -1.
         -2   -1    0    0    0  501 -0.00000000000E+00 -0.00000000000E+00 -0.62131137067E+00  0.62131137067E+00  0.00000000000E+00 0.  1.
          1    1    1    2  502    0 -0.30929641722E+02  0.19888356329E+02  0.88796620051E+03  0.88872727127E+03  0.00000000000E+00 0.  1.
         -1    1    1    2    0  501  0.30929641722E+02 -0.19888356329E+02  0.14037503950E+04  0.14042319470E+04  0.00000000000E+00 0. -1.
</event>
<event>
 4    1  0.6740123E+001  0.2930677E+02  0.7546771E-02  0.1425718E+00
          2   -1    0    0  502    0  0.00000000000E+00  0.00000000000E+00  0.37859691856E+01  0.37859691856E+01  0.00000000000E+00 0.  1.
         -2   -1    0    0    0  501 -0.00000000000E+00 -0.00000000000E+00 -0.22689561667E+03  0.22689561667E+03  0.00000000000E+00 0. -1.
          1    1    1    2  502    0  0.43491193950E+01 -0.28982273904E+02 -0.11298878063E+03  0.11672768133E+03  0.00000000000E+00 0. -1.
         -1    1    1    2    0  501 -0.43491193950E+01  0.28982273904E+02 -0.11012086686E+03  0.11395390453E+03  0.00000000000E+00 0.  1.
</event>
<event>
 4    1  0.6740123E+001  0.2032008E+02  0.7546771E-02  0.1529198E+00
          2   -1    0    0  502    0  0.00000000000E+00  0.00000000000E+00  0.31457344399E+02  0.31457344399E+02  0.00000000000E+00 0.  1.
         -2   -1    0    0    0  501 -0.00000000000E+00 -0.00000000000E+00 -0.29138485774E+02  0.29138485774E+02  0.00000000000E+00 0. -1.
          1    1    1    2  502    0 -0.48272436176E+01  0.19738377971E+02  0.23619444049E+02  0.31157406552E+02  0.00000000000E+00 0.  1.
         -1    1    1    2    0  501  0.48272436176E+01 -0.19738377971E+02 -0.21300585425E+02  0.29438423621E+02  0.00000000000E+00 0. -1.
</event>
<event>
 4    1  0.6740123E+001  0.2491071E+02  0.7546771E-02  0.1469805E+00
          2   -1    0    0  502    0  0.00000000000E+00  0.00000000000E+00  0.15887519919E+03  0.15887519919E+03  0.00000000000E+00 0. -1.
         -2   -1    0    0    0  501 -0.00000000000E+00 -0.00000000000E+00 -0.61968542100E+01  0.61968542100E+01  0.00000000000E+00 0.  1.
          1    1    1    2  502    0 -0.24909583221E+02  0.23735282395E+00  0.26154594085E+02  0.36119336433E+02  0.00000000000E+00 0.  1.
         -1    1    1    2    0  501  0.24909583221E+02 -0.23735282395E+00  0.12652375090E+03  0.12895271697E+03  0.00000000000E+00 0. -1.
</event>
<event>
 4    1  0.6740123E+001  0.2859707E+02  0.7546771E-02  0.1432193E+00
          2   -1    0    0  502    0  0.00000000000E+00  0.00000000000E+00  0.15452452479E+03  0.15452452479E+03  0.00000000000E+00 0.  1.
         -2   -1    0    0    0  501 -0.00000000000E+00 -0.00000000000E+00 -0.58040829689E+01  0.58040829689E+01  0.00000000000E+00 0. -1.
          1    1    1    2  502    0 -0.21237495684E+02  0.19151012739E+02  0.98164258561E+02  0.10224487357E+03  0.00000000000E+00 0.  1.
         -1    1    1    2    0  501  0.21237495684E+02 -0.19151012739E+02  0.50556183257E+02  0.58083734189E+02  0.00000000000E+00 0. -1.
</event>
<event>
 4    1  0.6740123E+001  0.4078799E+02  0.7546771E-02  0.1343929E+00
          2   -1    0    0  502    0  0.00000000000E+00  0.00000000000E+00  0.11210478052E+02  0.11210478052E+02  0.00000000000E+00 0. -1.
         -2   -1    0    0    0  501 -0.00000000000E+00 -0.00000000000E+00 -0.17754668802E+03  0.17754668802E+03  0.00000000000E+00 0.  1.
          1    1    1    2  502    0 -0.23977552002E+01  0.40717450617E+02 -0.44930110290E+02  0.60682574314E+02  0.00000000000E+00 0. -1.
         -1    1    1    2    0  501  0.23977552002E+01 -0.40717450617E+02 -0.12140609967E+03  0.12807459175E+03  0.00000000000E+00 0.  1.
</event>
<event>
 4    1  0.6740123E+001  0.2589310E+02  0.7546771E-02  0.1459055E+00
          2   -1    0    0  502    0  0.00000000000E+00  0.00000000000E+00  0.21530009491E+02  0.21530009491E+02  0.00000000000E+00 0.  1.
         -2   -1    0    0    0  501 -0.00000000000E+00 -0.00000000000E+00 -0.40232633592E+02  0.40232633592E+02  0.00000000000E+00 0. -1.
          1    1    1    2  502    0  0.25397949725E+02  0.50395279325E+01  0.53292404226E+01  0.26435837333E+02  0.00000000000E+00 0.  1.
         -1    1    1    2    0  501 -0.25397949725E+02 -0.50395279325E+01 -0.24031864523E+02  0.35326805750E+02  0.00000000000E+00 0. -1.
</event>
<event>
 4    1  0.6740123E+001  0.3372840E+02  0.7546771E-02  0.1389730E+00
          2   -1    0    0  502    0  0.00000000000E+00  0.00000000000E+00  0.73631294747E+00  0.73631294747E+00  0.00000000000E+00 0. -1.
         -2   -1    0    0    0  501 -0.00000000000E+00 -0.00000000000E+00 -0.16078660737E+04  0.16078660737E+04  0.00000000000E+00 0.  1.
          1    1    1    2  502    0 -0.25480823393E+02 -0.22098250114E+02 -0.64452910209E+03  0.64541100739E+03  0.00000000000E+00 0.  1.
         -1    1    1    2    0  501  0.25480823393E+02  0.22098250114E+02 -0.96260065870E+03  0.96319137929E+03  0.00000000000E+00 0. -1.
</event>
<event>
 4    1  0.6740123E+001  0.2568023E+02  0.7546771E-02  0.1461336E+00
          2   -1    0    0  502    0  0.00000000000E+00  0.00000000000E+00  0.21138745088E+03  0.21138745088E+03  0.00000000000E+00 0. -1.
         -2   -1    0    0    0  501 -0.00000000000E+00 -0.00000000000E+00 -0.44774082347E+01  0.44774082347E+01  0.00000000000E+00 0.  1.
          1    1    1    2  502    0  0.41847058721E+01  0.25336982322E+02  0.16288902931E+03  0.16490091057E+03  0.00000000000E+00 0. -1.
         -1    1    1    2    0  501 -0.41847058721E+01 -0.25336982322E+02  0.44021013333E+02  0.50963948545E+02  0.00000000000E+00 0.  1.
</event>
<event>
 4    1  0.6740123E+001  0.2194772E+02  0.7546771E-02  0.1506152E+00
          2   -1    0    0  502    0  0.00000000000E+00  0.00000000000E+00  0.16011799845E+04  0.16011799845E+04  0.00000000000E+00 0.  1.
         -2   -1    0    0    0  501 -0.00000000000E+00 -0.00000000000E+00 -0.36476870358E+00  0.36476870358E+00  0.00000000000E+00 0. -1.
          1    1    1    2  502    0  0.14770527333E+02  0.16233723649E+02  0.46517882497E+03  0.46569629745E+03  0.00000000000E+00 0. -1.
         -1    1    1    2    0  501 -0.14770527333E+02 -0.16233723649E+02  0.11356363909E+04  0.11358484558E+04  0.00000000000E+00 0.  1.
</event>
<event>
 4    1  0.6740123E+001  0.2093293E+02  0.7546771E-02  0.1520225E+00
          2   -1    0    0  502    0  0.00000000000E+00  0.00000000000E+00  0.45114465963E+03  0.45114465963E+03  0.00000000000E+00 0. -1.
         -2   -1    0    0    0  501 -0.00000000000E+00 -0.00000000000E+00 -0.11033575640E+01  0.11033575640E+01  0.00000000000E+00 0.  1.
          1    1    1    2  502    0  0.15523014006E+02 -0.14043630924E+02  0.30325617215E+03  0.30397778452E+03  0.00000000000E+00 0. -1.
         -1    1    1    2    0  501 -0.15523014006E+02  0.14043630924E+02  0.14678512992E+03  0.14827023268E+03  0.00000000000E+00 0.  1.
</event>
<event>
 4    1  0.6740123E+001  0.2248915E+02  0.7546771E-02  0.1499014E+00
          2   -1    0    0  502    0  0.00000000000E+00  0.00000000000E+00  0.31709627317E+04  0.31709627317E+04  0.00000000000E+00 0.  1.
         -2   -1    0    0    0  501 -0.00000000000E+00 -0.00000000000E+00 -0.15982714510E+00  0.15982714510E+00  0.00000000000E+00 0. -1.
          1    1    1    2  502    0  0.19799428352E+01  0.22401827186E+02  0.15134418643E+04  0.15136089451E+04  0.00000000000E+00 0.  1.
         -1    1    1    2    0  501 -0.19799428352E+01 -0.22401827186E+02  0.16573610403E+04  0.16575136138E+04  0.00000000000E+00 0. -1.
</event>
<event>
 4    1  0.6740123E+001  0.2284586E+02  0.7546771E-02  0.1494443E+00
          2   -1    0    0  502    0  0.00000000000E+00  0.00000000000E+00  0.66265994663E+03  0.66265994663E+03  0.00000000000E+00 0. -1.
         -2   -1    0    0    0  501 -0.00000000000E+00 -0.00000000000E+00 -0.93842784225E+00  0.93842784225E+00  0.00000000000E+00 0.  1.
          1    1    1    2  502    0  0.16052083838E+02  0.16256194973E+02  0.19785599826E+03  0.19917060355E+03  0.00000000000E+00 0.  1.
         -1    1    1    2    0  501 -0.16052083838E+02 -0.16256194973E+02  0.46386552052E+03  0.46442777092E+03  0.00000000000E+00 0. -1.
</event>
<event>
 4    1  0.6740123E+001  0.2056390E+02  0.7546771E-02  0.1525583E+00
          2   -1    0    0  502    0  0.00000000000E+00  0.00000000000E+00  0.55708213325E+02  0.55708213325E+02  0.00000000000E+00 0.  1.
         -2   -1    0    0    0  501 -0.00000000000E+00 -0.00000000000E+00 -0.96786678697E+01  0.96786678697E+01  0.00000000000E+00 0. -1.
          1    1    1    2  502    0  0.13614118475E+02 -0.15412006864E+02  0.78304171892E+01  0.22004308914E+02  0.00000000000E+00 0. -1.
         -1    1    1    2    0  501 -0.13614118475E+02  0.15412006864E+02  0.38199128266E+02  0.43382572281E+02  0.00000000000E+00 0.  1.
</event>
<event>
 4    1  0.6740123E+001  0.3259238E+02  0.7546771E-02  0.1398328E+00
          2   -1    0    0  502    0  0.00000000000E+00  0.00000000000E+00  0.11706306913E+03  0.11706306913E+03  0.00000000000E+00 0.  1.
         -2   -1    0    0    0  501 -0.00000000000E+00 -0.00000000000E+00 -0.11414633061E+02  0.11414633061E+02  0.00000000000E+00 0. -1.
          1    1    1    2  502    0  0.32440428200E+02 -0.31435468018E+01  0.23736656337E+02  0.40319872549E+02  0.00000000000E+00 0. -1.
         -1    1    1    2    0  501 -0.32440428200E+02  0.31435468018E+01  0.81911779734E+02  0.88157829644E+02  0.00000000000E+00 0.  1.
</event>
<event>
 4    1  0.6740123E+001  0.2378801E+02  0.7546771E-02  0.1482833E+00
          2   -1    0    0  502    0  0.00000000000E+00  0.00000000000E+00  0.61001744639E+03  0.61001744639E+03  0.00000000000E+00 0. -1.
         -2   -1    0    0    0  501 -0.00000000000E+00 -0.00000000000E+00 -0.92775249728E+00  0.92775249728E+00  0.00000000000E+00 0.  1.
          1    1    1    2  502    0  0.17264619187E+02  0.16364669382E+02  0.30807845153E+03  0.30899547210E+03  0.00000000000E+00 0.  1.
         -1    1    1    2    0  501 -0.17264619187E+02 -0.16364669382E+02  0.30101124237E+03  0.30194972679E+03  0.00000000000E+00 0. -1.
</event>
<event>
 4    1  0.6740123E+001  0.2159362E+02  0.7546771E-02  0.1510956E+00
          2   -1    0    0  502    0  0.00000000000E+00  0.00000000000E+00  0.12880252670E+03  0.12880252670E+03  0.00000000000E+00 0. -1.
         -2   -1    0    0    0  501 -0.00000000000E+00 -0.00000000000E+00 -0.40680772992E+01  0.40680772992E+01  0.00000000000E+00 0.  1.
          1    1    1    2  502    0 -0.14005160727E+02  0.16435928112E+02  0.40322287771E+02  0.45740257444E+02  0.00000000000E+00 0.  1.
         -1    1    1    2    0  501  0.14005160727E+02 -0.16435928112E+02  0.84412161626E+02  0.87130346552E+02  0.00000000000E+00 0. -1.
</event>
<event>
 4    1  0.6740123E+001  0.2207388E+02  0.7546771E-02  0.1504467E+00
          2   -1    0    0  502    0  0.00000000000E+00  0.00000000000E+00  0.12051333739E+04  0.12051333739E+04  0.00000000000E+00 0.  1.
         -2   -1    0    0    0  501 -0.00000000000E+00 -0.00000000000E+00 -0.66128328331E+00  0.66128328331E+00  0.00000000000E+00 0. -1.
          1    1    1    2  502    0  0.87414519995E+01  0.20269263230E+02  0.97806270639E+03  0.97831176710E+03  0.00000000000E+00 0.  1.
         -1    1    1    2    0  501 -0.87414519995E+01 -0.20269263230E+02  0.22640938427E+03  0.22748289012E+03  0.00000000000E+00 0. -1.
</event>
<event>
 4    1  0.6740123E+001  0.4072402E+02  0.7546771E-02  0.1344295E+00
          2   -1    0    0  502    0  0.00000000000E+00  0.00000000000E+00  0.65441896937E+02  0.65441896937E+02  0.00000000000E+00 0.  1.
         -2   -1    0    0    0  501 -0.00000000000E+00 -0.00000000000E+00 -0.35572944994E+02  0.35572944994E+02  0.00000000000E+00 0. -1.
          1    1    1    2  502    0 -0.10581549078E+02 -0.39325265096E+02  0.42020646612E+02  0.58516496798E+02  0.00000000000E+00 0.  1.
         -1    1    1    2    0  501  0.10581549078E+02  0.39325265096E+02 -0.12151694669E+02  0.42498345133E+02  0.00000000000E+00 0. -1.
</event>
<event>
 4    1  0.6740123E+001  0.4594528E+02  0.7546771E-02  0.1316779E+00
          2   -1    0    0  502    0  0.00000000000E+00  0.00000000000E+00  0.16412629768E+03  0.16412629768E+03  0.00000000000E+00 0. -1.
         -2   -1    0    0    0  501 -0.00000000000E+00 -0.00000000000E+00 -0.14607819834E+02  0.14607819834E+02  0.00000000000E+00 0.  1.
          1    1    1    2  502    0 -0.11425745896E+02  0.44501918625E+02  0.43863209545E+02  0.63521252995E+02  0.00000000000E+00 0.  1.
         -1    1    1    2    0  501  0.11425745896E+02 -0.44501918625E+02  0.10565526830E+03  0.11521286452E+03  0.00000000000E+00 0. -1.
</event>
<event>
 4    1  0.6740123E+001  0.2691045E+02  0.7546771E-02  0.1448510E+00
          2   -1    0    0  502    0  0.00000000000E+00  0.00000000000E+00  0.82654967598E+03  0.82654967598E+03  0.00000000000E+00 0.  1.
         -2   -1    0    0    0  501 -0.00000000000E+00 -0.00000000000E+00 -0.87670935804E+00  0.87670935804E+00  0.00000000000E+00 0. -1.
          1    1    1    2  502    0 -0.24252247873E+02 -0.11661944451E+02  0.40228499596E+03  0.40318406522E+03  0.00000000000E+00 0. -1.
         -1    1    1    2    0  501  0.24252247873E+02  0.11661944451E+02  0.42338797067E+03  0.42424232012E+03  0.00000000000E+00 0.  1.
</event>
<event>
 4    1  0.6740123E+001  0.2538157E+02  0.7546771E-02  0.1464580E+00
          2   -1    0    0  502    0  0.00000000000E+00  0.00000000000E+00  0.15303197544E+03  0.15303197544E+03  0.00000000000E+00 0.  1.
         -2   -1    0    0    0  501 -0.00000000000E+00 -0.00000000000E+00 -0.71012529116E+01  0.71012529116E+01  0.00000000000E+00 0. -1.
          1    1    1    2  502    0 -0.16961053402E+02 -0.18882442890E+02  0.21874060860E+02  0.33506693667E+02  0.00000000000E+00 0. -1.
         -1    1    1    2    0  501  0.16961053402E+02  0.18882442890E+02  0.12405666167E+03  0.12662653469E+03  0.00000000000E+00 0.  1.
</event>
<event>
 4    1  0.6740123E+001  0.5241027E+02  0.7546771E-02  0.1288047E+00
          2   -1    0    0  502    0  0.00000000000E+00  0.00000000000E+00  0.51679899531E+02  0.51679899531E+02  0.00000000000E+00 0.  1.
         -2   -1    0    0    0  501 -0.00000000000E+00 -0.00000000000E+00 -0.70986305800E+02  0.70986305800E+02  0.00000000000E+00 0. -1.
          1    1    1    2  502    0  0.33000022105E+02  0.40716517332E+02  0.21089950915E+02  0.56494444614E+02  0.00000000000E+00 0.  1.
         -1    1    1    2    0  501 -0.33000022105E+02 -0.40716517332E+02 -0.40396357184E+02  0.66171760717E+02  0.00000000000E+00 0. -1.
</event>
<event>
 4    1  0.6740123E+001  0.3563483E+02  0.7546771E-02  0.1376154E+00
          2   -1    0    0  502    0  0.00000000000E+00  0.00000000000E+00  0.17597940837E+04  0.17597940837E+04  0.00000000000E+00 0.  1.
         -2   -1    0    0    0  501 -0.00000000000E+00 -0.00000000000E+00 -0.10597024325E+01  0.10597024325E+01  0.00000000000E+00 0. -1.
          1    1    1    2  502    0 -0.35605524366E+02  0.14450001149E+01  0.13766861062E+04  0.13771472239E+04  0.00000000000E+00 0.  1.
         -1    1    1    2    0  501  0.35605524366E+02 -0.14450001149E+01  0.38204827511E+03  0.38370656224E+03  0.00000000000E+00 0. -1.
</event>
<event>
 4    1  0.6740123E+001  0.2186151E+02  0.7546771E-02  0.1507311E+00
          2   -1    0    0  502    0  0.00000000000E+00  0.00000000000E+00  0.64659781310E+03  0.64659781310E+03  0.00000000000E+00 0. -1.
         -2   -1    0    0    0  501 -0.00000000000E+00 -0.00000000000E+00 -0.89861598140E+00  0.89861598140E+00  0.00000000000E+00 0.  1.
          1    1    1    2  502    0 -0.21843607797E+02 -0.88451760050E+00  0.45923550725E+03  0.45975556190E+03  0.00000000000E+00 0. -1.
         -1    1    1    2    0  501  0.21843607797E+02  0.88451760050E+00  0.18646368986E+03  0.18774086718E+03  0.00000000000E+00 0.  1.
</event>
<event>
 4    1  0.6740123E+001  0.4395115E+02  0.7546771E-02  0.1326768E+00
          2   -1    0    0  502    0  0.00000000000E+00  0.00000000000E+00  0.61123792911E+03  0.61123792911E+03  0.00000000000E+00 0. -1.
         -2   -1    0    0    0  501 -0.00000000000E+00 -0.00000000000E+00 -0.32359761862E+01  0.32359761862E+01  0.00000000000E+00 0.  1.
          1    1    1    2  502    0  0.13343026628E+02  0.41876811276E+02  0.25702122508E+03  0.26075201595E+03  0.00000000000E+00 0.  1.
         -1    1    1    2    0  501 -0.13343026628E+02 -0.41876811276E+02  0.35098072784E+03  0.35372188934E+03  0.00000000000E+00 0. -1.
</event>
<event>
 4    1  0.6740123E+001  0.2217717E+02  0.7546771E-02  0.1503097E+00
          2   -1    0    0  502    0  0.00000000000E+00  0.00000000000E+00  0.15209460451E+03  0.15209460451E+03  0.00000000000E+00 0.  1.
         -2   -1    0    0    0  501 -0.00000000000E+00 -0.00000000000E+00 -0.37548974350E+01  0.37548974350E+01  0.00000000000E+00 0. -1.
          1    1    1    2  502    0 -0.33995563404E+01 -0.21915058502E+02  0.45137532018E+02  0.50291386630E+02  0.00000000000E+00 0. -1.
         -1    1    1    2    0  501  0.33995563404E+01  0.21915058502E+02  0.10320217506E+03  0.10555811532E+03  0.00000000000E+00 0.  1.
</event>
<event>
 4    1  0.6740123E+001  0.4504586E+02  0.7546771E-02  0.1321210E+00
          2   -1    0    0  502    0  0.00000000000E+00  0.00000000000E+00  0.16190153201E+04  0.16190153201E+04  0.00000000000E+00 0. -1.
         -2   -1    0    0    0  501 -0.00000000000E+00 -0.00000000000E+00 -0.24877451729E+01  0.24877451729E+01  0.00000000000E+00 0.  1.
          1    1    1    2  502    0 -0.29854967672E+02  0.33731447567E+02  0.23715504720E+03  0.24139520721E+03  0.00000000000E+00 0.  1.
         -1    1    1    2    0  501  0.29854967672E+02 -0.33731447567E+02  0.13793725278E+04  0.13801078581E+04  0.00000000000E+00 0. -1.
</event>
<event>
 4    1  0.6740123E+001  0.2849191E+02  0.7546771E-02  0.1433171E+00
          2   -1    0    0  502    0  0.00000000000E+00  0.00000000000E+00  0.87665964257E+03  0.87665964257E+03  0.00000000000E+00 0. -1.
         -2   -1    0    0    0  501 -0.00000000000E+00 -0.00000000000E+00 -0.16361986049E+01  0.16361986049E+01  0.00000000000E+00 0.  1.
          1    1    1    2  502    0  0.23815789678E+02 -0.15639596440E+02  0.14818933700E+03  0.15090350696E+03  0.00000000000E+00 0.  1.
         -1    1    1    2    0  501 -0.23815789678E+02  0.15639596440E+02  0.72683410697E+03  0.72739233421E+03  0.00000000000E+00 0. -1.
</event>
<event>
 4    1  0.6740123E+001  0.2722720E+02  0.7546771E-02  0.1445339E+00
          2   -1    0    0  502    0  0.00000000000E+00  0.00000000000E+00  0.44452075729E+02  0.44452075729E+02  0.00000000000E+00 0. -1.
         -2   -1    0    0    0  501 -0.00000000000E+00 -0.00000000000E+00 -0.27072919123E+02  0.27072919123E+02  0.00000000000E+00 0.  1.
          1    1    1    2  502    0 -0.22335617653E+02 -0.15570508538E+02 -0.13471704607E+02  0.30377744766E+02  0.00000000000E+00 0.  1.
         -1    1    1    2    0  501  0.22335617653E+02  0.15570508538E+02  0.30850861213E+02  0.41147250086E+02  0.00000000000E+00 0. -1.
</event>
<event>
 4    1  0.6740123E+001  0.2349590E+02  0.7546771E-02  0.1486363E+00
          2   -1    0    0  502    0  0.00000000000E+00  0.00000000000E+00  0.17293755240E+02  0.17293755240E+02  0.00000000000E+00 0. -1.
         -2   -1    0    0    0  501 -0.00000000000E+00 -0.00000000000E+00 -0.34964004252E+02  0.34964004252E+02  0.00000000000E+00 0.  1.
          1    1    1    2  502    0 -0.16261046635E+02  0.16959829293E+02 -0.11284937030E+01  0.23522987594E+02  0.00000000000E+00 0. -1.
         -1    1    1    2    0  501  0.16261046635E+02 -0.16959829293E+02 -0.16541755308E+02  0.28734771898E+02  0.00000000000E+00 0.  1.
</event>
<event>
 4    1  0.6740123E+001  0.2033076E+02  0.7546771E-02  0.1529038E+00
          2   -1    0    0  502    0  0.00000000000E+00  0.00000000000E+00  0.23227654169E+03  0.23227654169E+03  0.00000000000E+00 0. -1.
         -2   -1    0    0    0  501 -0.00000000000E+00 -0.00000000000E+00 -0.17852380702E+01  0.17852380702E+01  0.00000000000E+00 0.  1.
          1    1    1    2  502    0 -0.17639442060E+02  0.10108899223E+02  0.12187146621E+03  0.12355563134E+03  0.00000000000E+00 0.  1.
         -1    1    1    2    0  501  0.17639442060E+02 -0.10108899223E+02  0.10861983741E+03  0.11050614842E+03  0.00000000000E+00 0. -1.
</event>
<event>
 4    1  0.6740123E+001  0.5123904E+02  0.7546771E-02  0.1292888E+00
          2   -1    0    0  502    0  0.00000000000E+00  0.00000000000E+00  0.23606338069E+04  0.23606338069E+04  0.00000000000E+00 0. -1.
         -2   -1    0    0    0  501 -0.00000000000E+00 -0.00000000000E+00 -0.11261396894E+01  0.11261396894E+01  0.00000000000E+00 0.  1.
          1    1    1    2  502    0  0.50595415571E+02  0.80958467605E+01  0.10482557909E+04  0.10495073330E+04  0.00000000000E+00 0.  1.
         -1    1    1    2    0  501 -0.50595415571E+02 -0.80958467605E+01  0.13112518763E+04  0.13122526136E+04  0.00000000000E+00 0. -1.
</event>
<event>
 4    1  0.6740123E+001  0.2291707E+02  0.7546771E-02  0.1493542E+00
          2   -1    0    0  502    0  0.00000000000E+00  0.00000000000E+00  0.14119980865E+01  0.14119980865E+01  0.00000000000E+00 0.  1.
         -2   -1    0    0    0  501 -0.00000000000E+00 -0.00000000000E+00 -0.38649881271E+03  0.38649881271E+03  0.00000000000E+00 0. -1.
          1    1    1    2  502    0  0.20325304627E+02  0.10586510245E+02 -0.23017448583E+03  0.23131252914E+03  0.00000000000E+00 0. -1.
         -1    1    1    2    0  501 -0.20325304627E+02 -0.10586510245E+02 -0.15491232879E+03  0.15659828166E+03  0.00000000000E+00 0.  1.
</event>
<event>
 4    1  0.6740123E+001  0.4529709E+02  0.7546771E-02  0.1319960E+00
          2   -1    0    0  502    0  0.00000000000E+00  0.00000000000E+00  0.15499794758E+04  0.15499794758E+04  0.00000000000E+00 0.  1.
         -2   -1    0    0    0  501 -0.00000000000E+00 -0.00000000000E+00 -0.13652459282E+01  0.13652459282E+01  0.00000000000E+00 0. -1.
          1    1    1    2  502    0  0.53327530470E+01  0.44982082263E+02  0.63911905553E+03  0.64072224334E+03  0.00000000000E+00 0. -1.
         -1    1    1    2    0  501 -0.53327530470E+01 -0.44982082263E+02  0.90949517435E+03  0.91062247839E+03  0.00000000000E+00 0.  1.
</event>
<event>
 4    1  0.6740123E+001  0.4448962E+02  0.7546771E-02  0.1324011E+00
          2   -1    0    0  502    0  0.00000000000E+00  0.00000000000E+00  0.28409290893E+04  0.28409290893E+04  0.00000000000E+00 0. -1.
         -2   -1    0    0    0  501 -0.00000000000E+00 -0.00000000000E+00 -0.11093083613E+01  0.11093083613E+01  0.00000000000E+00 0.  1.
          1    1    1    2  502    0  0.23741279960E+02  0.37625490667E+02  0.22865393261E+04  0.22869721064E+04  0.00000000000E+00 0.  1.
         -1    1    1    2    0  501 -0.23741279960E+02 -0.37625490667E+02  0.55328045490E+03  0.55506629126E+03  0.00000000000E+00 0. -1.
</event>
<event>
 4    1  0.6740123E+001  0.2193516E+02  0.7546771E-02  0.1506320E+00
          2   -1    0    0  502    0  0.00000000000E+00  0.00000000000E+00  0.37630645720E+03  0.37630645720E+03  0.00000000000E+00 0.  1.
         -2   -1    0    0    0  501 -0.00000000000E+00 -0.00000000000E+00 -0.13581278962E+01  0.13581278962E+01  0.00000000000E+00 0. -1.
          1    1    1    2  502    0  0.15308371123E+02  0.15710035980E+02  0.23316425189E+03  0.23419376553E+03  0.00000000000E+00 0.  1.
         -1    1    1    2    0  501 -0.15308371123E+02 -0.15710035980E+02  0.14178407742E+03  0.14347081956E+03  0.00000000000E+00 0. -1.
</event>
<event>
 4    1  0.6740123E+001  0.2189217E+02  0.7546771E-02  0.1506898E+00
          2   -1    0    0  502    0  0.00000000000E+00  0.00000000000E+00  0.17804553730E+04  0.17804553730E+04  0.00000000000E+00 0.  1.
         -2   -1    0    0    0  501 -0.00000000000E+00 -0.00000000000E+00 -0.28587666696E+00  0.28587666696E+00  0.00000000000E+00 0. -1.
          1    1    1    2  502    0 -0.95179291385E+01 -0.19714873813E+02  0.67492286621E+03  0.67527782621E+03  0.00000000000E+00 0.  1.
         -1    1    1    2    0  501  0.95179291385E+01  0.19714873813E+02  0.11052466301E+04  0.11054634234E+04  0.00000000000E+00 0. -1.
</event>
<event>
 4    1  0.6740123E+001  0.3518051E+02  0.7546771E-02  0.1379299E+00
          2   -1    0    0  502    0  0.00000000000E+00  0.00000000000E+00  0.68063700302E+03  0.68063700302E+03  0.00000000000E+00 0.  1.
         -2   -1    0    0    0  501 -0.00000000000E+00 -0.00000000000E+00 -0.18195059828E+01  0.18195059828E+01  0.00000000000E+00 0. -1.
          1    1    1    2  502    0 -0.44302225552E+01  0.34900453432E+02  0.34783166258E+03  0.34960625569E+03  0.00000000000E+00 0. -1.
         -1    1    1    2    0  501  0.44302225552E+01 -0.34900453432E+02  0.33098583445E+03  0.33285025331E+03  0.00000000000E+00 0.  1.
</event>
<event>
 4    1  0.6740123E+001  0.5495424E+02  0.7546771E-02  0.1278012E+00
          2   -1    0    0  502    0  0.00000000000E+00  0.00000000000E+00  0.54374294401E+03  0.54374294401E+03  0.00000000000E+00 0. -1.
         -2   -1    0    0    0  501 -0.00000000000E+00 -0.00000000000E+00 -0.66087966632E+01  0.66087966632E+01  0.00000000000E+00 0.  1.
          1    1    1    2  502    0  0.40767258261E+01  0.54802821772E+02  0.15863467441E+03  0.16788367667E+03  0.00000000000E+00 0.  1.
         -1    1    1    2    0  501 -0.40767258261E+01 -0.54802821772E+02  0.37849947294E+03  0.38246806400E+03  0.00000000000E+00 0. -1.
</event>
<event>
 4    1  0.6740123E+001  0.2932568E+02  0.7546771E-02  0.1425548E+00
          2   -1    0    0  502    0  0.00000000000E+00  0.00000000000E+00  0.40522331178E+01  0.40522331178E+01  0.00000000000E+00 0. -1.
         -2   -1    0    0    0  501 -0.00000000000E+00 -0.00000000000E+00 -0.24414568855E+03  0.24414568855E+03  0.00000000000E+00 0.  1.
          1    1    1    2  502    0  0.27176839868E+02 -0.11018832604E+02 -0.16491741737E+03  0.16750447710E+03  0.00000000000E+00 0.  1.
         -1    1    1    2    0  501 -0.27176839868E+02  0.11018832604E+02 -0.75176038062E+02  0.80693444566E+02  0.00000000000E+00 0. -1.
</event>
<event>
 4    1  0.6740123E+001  0.3349231E+02  0.7546771E-02  0.1391484E+00
          2   -1    0    0  502    0  0.00000000000E+00  0.00000000000E+00  0.42934570307E+03  0.42934570307E+03  0.00000000000E+00 0.  1.
         -2   -1    0    0    0  501 -0.00000000000E+00 -0.00000000000E+00 -0.29109372929E+01  0.29109372929E+01  0.00000000000E+00 0. -1.
          1    1    1    2  502    0 -0.29605423548E+02 -0.15660580305E+02  0.28240118781E+03  0.28438031886E+03  0.00000000000E+00 0.  1.
         -1    1    1    2    0  501  0.29605423548E+02  0.15660580305E+02  0.14403357796E+03  0.14787632150E+03  0.00000000000E+00 0. -1.
</event>
<event>
 4    1  0.6740123E+001  0.2760766E+02  0.7546771E-02  0.1441598E+00
          2   -1    0    0  502    0  0.00000000000E+00  0.00000000000E+00  0.30235145160E+02  0.30235145160E+02  0.00000000000E+00 0.  1.
         -2   -1    0    0    0  501 -0.00000000000E+00 -0.00000000000E+00 -0.33618462305E+02  0.33618462305E+02  0.00000000000E+00 0. -1.
          1    1    1    2  502    0 -0.26944689769E+02 -0.60138811550E+01  0.14276807092E+02  0.31080706138E+02  0.00000000000E+00 0.  1.
         -1    1    1    2    0  501  0.26944689769E+02  0.60138811550E+01 -0.17660124238E+02  0.32772901327E+02  0.00000000000E+00 0. -1.
</event>
<event>
 4    1  0.6740123E+001  0.2331786E+02  0.7546771E-02  0.1488545E+00
          2   -1    0    0  502    0  0.00000000000E+00  0.00000000000E+00  0.14573926915E+03  0.14573926915E+03  0.00000000000E+00 0.  1.
         -2   -1    0    0    0  501 -0.00000000000E+00 -0.00000000000E+00 -0.81589884908E+01  0.81589884908E+01  0.00000000000E+00 0. -1.
          1    1    1    2  502    0  0.37364260329E+01  0.23016557756E+02  0.12101111264E+02  0.26270890816E+02  0.00000000000E+00 0. -1.
         -1    1    1    2    0  501 -0.37364260329E+01 -0.23016557756E+02  0.12547916940E+03  0.12762736683E+03  0.00000000000E+00 0.  1.
</event>
<event>
 4    1  0.6740123E+001  0.3869122E+02  0.7546771E-02  0.1356331E+00
          2   -1    0    0  502    0  0.00000000000E+00  0.00000000000E+00  0.24052085662E+03  0.24052085662E+03  0.00000000000E+00 0.  1.
         -2   -1    0    0    0  501 -0.00000000000E+00 -0.00000000000E+00 -0.87301197603E+01  0.87301197603E+01  0.00000000000E+00 0. -1.
          1    1    1    2  502    0  0.21990101181E+02  0.31834665682E+02  0.18266739481E+03  0.18672007823E+03  0.00000000000E+00 0.  1.
         -1    1    1    2    0  501 -0.21990101181E+02 -0.31834665682E+02  0.49123342057E+02  0.62530898153E+02  0.00000000000E+00 0. -1.
</event>
<event>
 4    1  0.6740123E+001  0.2240065E+02  0.7546771E-02  0.1500165E+00
          2   -1    0    0  502    0  0.00000000000E+00  0.00000000000E+00  0.19077390451E+04  0.19077390451E+04  0.00000000000E+00 0.  1.
         -2   -1    0    0    0  501 -0.00000000000E+00 -0.00000000000E+00 -0.26791971471E+00  0.26791971471E+00  0.00000000000E+00 0. -1.
          1    1    1    2  502    0  0.21323868199E+02 -0.68616174138E+01  0.10826405555E+04  0.10828722739E+04  0.00000000000E+00 0.  1.
         -1    1    1    2    0  501 -0.21323868199E+02  0.68616174138E+01  0.82483056988E+03  0.82513469092E+03  0.00000000000E+00 0. -1.
</event>
<event>
 4    1  0.6740123E+001  0.2301248E+02  0.7546771E-02  0.1492341E+00
          2   -1    0    0  502    0  0.00000000000E+00  0.00000000000E+00  0.70159805756E+03  0.70159805756E+03  0.00000000000E+00 0.  1.
         -2   -1    0    0    0  501 -0.00000000000E+00 -0.00000000000E+00 -0.35040086974E+01  0.35040086974E+01  0.00000000000E+00 0. -1.
          1    1    1    2  502    0 -0.13172711430E+02 -0.18869391800E+02  0.66132571614E+03  0.66172598339E+03  0.00000000000E+00 0.  1.
         -1    1    1    2    0  501  0.13172711430E+02  0.18869391800E+02  0.36768332731E+02  0.43376082870E+02  0.00000000000E+00 0. -1.
</event>
<event>
 4    1  0.6740123E+001  0.4884211E+02  0.7546771E-02  0.1303272E+00
          2   -1    0    0  502    0  0.00000000000E+00  0.00000000000E+00  0.91177982309E+02  0.91177982309E+02  0.00000000000E+00 0.  1.
         -2   -1    0    0    0  501 -0.00000000000E+00 -0.00000000000E+00 -0.33435729474E+02  0.33435729474E+02  0.00000000000E+00 0. -1.
          1    1    1    2  502    0  0.48321935724E+02  0.71092792896E+01  0.57928671637E+02  0.75771249969E+02  0.00000000000E+00 0.  1.
         -1    1    1    2    0  501 -0.48321935724E+02 -0.71092792896E+01 -0.18641880277E+00  0.48842461815E+02  0.00000000000E+00 0. -1.
</event>
<event>
 4    1  0.6740123E+001  0.2626034E+02  0.7546771E-02  0.1455183E+00
          2   -1    0    0  502    0  0.00000000000E+00  0.00000000000E+00  0.92796192209E+02  0.92796192209E+02  0.00000000000E+00 0. -1.
         -2   -1    0    0    0  501 -0.00000000000E+00 -0.00000000000E+00 -0.75882612028E+01  0.75882612028E+01  0.00000000000E+00 0.  1.
          1    1    1    2  502    0  0.30989050710E+01  0.26076857172E+02  0.35387541277E+02  0.44066810303E+02  0.00000000000E+00 0.  1.
         -1    1    1    2    0  501 -0.30989050710E+01 -0.26076857172E+02  0.49820389729E+02  0.56317643109E+02  0.00000000000E+00 0. -1.
</event>
<event>
 4    1  0.6740123E+001  0.2304122E+02  0.7546771E-02  0.1491981E+00
          2   -1    0    0  502    0  0.00000000000E+00  0.00000000000E+00  0.76941665494E+02  0.76941665494E+02  0.00000000000E+00 0.  1.
         -2   -1    0    0    0  501 -0.00000000000E+00 -0.00000000000E+00 -0.69284820646E+01  0.69284820646E+01  0.00000000000E+00 0. -1.
          1    1    1    2  502    0  0.20147673698E+02  0.11178949056E+02  0.37695201002E+02  0.44179473016E+02  0.00000000000E+00 0. -1.
         -1    1    1    2    0  501 -0.20147673698E+02 -0.11178949056E+02  0.32317982428E+02  0.39690674543E+02  0.00000000000E+00 0.  1.
</event>
<event>
 4    1  0.6740123E+001  0.6807424E+02  0.7546771E-02  0.1234619E+00
          2   -1    0    0  502    0  0.00000000000E+00  0.00000000000E+00  0.22236061141E+03  0.22236061141E+03  0.00000000000E+00 0.  1.
         -2   -1    0    0    0  501 -0.00000000000E+00 -0.00000000000E+00 -0.21312483665E+02  0.21312483665E+02  0.00000000000E+00 0. -1.
          1    1    1    2  502    0 -0.59747951328E+02  0.32623378758E+02  0.82392641140E+02  0.10687679750E+03  0.00000000000E+00 0. -1.
         -1    1    1    2    0  501  0.59747951328E+02 -0.32623378758E+02  0.11865548661E+03  0.13679629758E+03  0.00000000000E+00 0.  1.
</event>
<event>
 4    1  0.6740123E+001  0.3691310E+02  0.7546771E-02  0.1367591E+00
          2   -1    0    0  502    0  0.00000000000E+00  0.00000000000E+00  0.66498526038E+02  0.66498526038E+02  0.00000000000E+00 0.  1.
         -2   -1    0    0    0  501 -0.00000000000E+00 -0.00000000000E+00 -0.20757429194E+02  0.20757429194E+02  0.00000000000E+00 0. -1.
          1    1    1    2  502    0 -0.21268850335E+02  0.30169732326E+02  0.17921581104E+02  0.41033642447E+02  0.00000000000E+00 0. -1.
         -1    1    1    2    0  501  0.21268850335E+02 -0.30169732326E+02  0.27819515741E+02  0.46222312785E+02  0.00000000000E+00 0.  1.
</event>
<event>
 4    1  0.6740123E+001  0.2336505E+02  0.7546771E-02  0.1487964E+00
          2   -1    0    0  502    0  0.00000000000E+00  0.00000000000E+00  0.30027672857E+01  0.30027672857E+01  0.00000000000E+00 0.  1.
         -2   -1    0    0    0  501 -0.00000000000E+00 -0.00000000000E+00 -0.20703140455E+03  0.20703140455E+03  0.00000000000E+00 0. -1.
          1    1    1    2  502    0  0.46515606013E+01 -0.22897343405E+02 -0.13867062974E+03  0.14062527832E+03  0.00000000000E+00 0.  1.
         -1    1    1    2    0  501 -0.46515606013E+01  0.22897343405E+02 -0.65358007523E+02  0.69408893511E+02  0.00000000000E+00 0. -1.
</event>
<event>
 4    1  0.6740123E+001  0.2874964E+02  0.7546771E-02  0.1430782E+00
          2   -1    0    0  502    0  0.00000000000E+00  0.00000000000E+00  0.10315402658E+02  0.10315402658E+02  0.00000000000E+00 0. -1.
         -2   -1    0    0    0  501 -0.00000000000E+00 -0.00000000000E+00 -0.81158779912E+02  0.81158779912E+02  0.00000000000E+00 0.  1.
          1    1    1    2  502    0  0.57703870322E+01  0.28164596979E+02 -0.40578747138E+02  0.49731042708E+02  0.00000000000E+00 0.  1.
         -1    1    1    2    0  501 -0.57703870322E+01 -0.28164596979E+02 -0.30264630116E+02  0.41743139862E+02  0.00000000000E+00 0. -1.
</event>
<event>
 4    1  0.6740123E+001  0.2596496E+02  0.7546771E-02  0.1458292E+00
          2   -1    0    0  502    0  0.00000000000E+00  0.00000000000E+00  0.30066155914E+03  0.30066155914E+03  0.00000000000E+00 0. -1.
         -2   -1    0    0    0  501 -0.00000000000E+00 -0.00000000000E+00 -0.22436152384E+01  0.22436152384E+01  0.00000000000E+00 0.  1.
          1    1    1    2  502    0 -0.24466202126E+02  0.86939069032E+01  0.15284963086E+03  0.15503931346E+03  0.00000000000E+00 0. -1.
         -1    1    1    2    0  501  0.24466202126E+02 -0.86939069032E+01  0.14556831304E+03  0.14786586092E+03  0.00000000000E+00 0.  1.
</event>
<event>
 4    1  0.6740123E+001  0.2168282E+02  0.7546771E-02  0.1509735E+00
          2   -1    0    0  502    0  0.00000000000E+00  0.00000000000E+00  0.41424618965E+02  0.41424618965E+02  0.00000000000E+00 0.  1.
         -2   -1    0    0    0  501 -0.00000000000E+00 -0.00000000000E+00 -0.16170381685E+02  0.16170381685E+02  0.00000000000E+00 0. -1.
          1    1    1    2  502    0 -0.61024246686E+01 -0.20806374404E+02 -0.30968491182E+01  0.21902860022E+02  0.00000000000E+00 0. -1.
         -1    1    1    2    0  501  0.61024246686E+01  0.20806374404E+02  0.28351086397E+02  0.35692140628E+02  0.00000000000E+00 0.  1.
</event>
<event>
 4    1  0.6740123E+001  0.2621241E+02  0.7546771E-02  0.1455684E+00
          2   -1    0    0  502    0  0.00000000000E+00  0.00000000000E+00  0.11237041670E+04  0.11237041670E+04  0.00000000000E+00 0.  1.
         -2   -1    0    0    0  501 -0.00000000000E+00 -0.00000000000E+00 -0.84304340886E+00  0.84304340886E+00  0.00000000000E+00 0. -1.
          1    1    1    2  502    0 -0.22449971938E+02  0.13531040896E+02  0.85613363316E+03  0.85653481432E+03  0.00000000000E+00 0. -1.
         -1    1    1    2    0  501  0.22449971938E+02 -0.13531040896E+02  0.26672749046E+03  0.26801239612E+03  0.00000000000E+00 0.  1.
</event>
<event>
 4    1  0.6740123E+001  0.2313447E+02  0.7546771E-02  0.1490816E+00
          2   -1    0    0  502    0  0.00000000000E+00  0.00000000000E+00  0.51482287759E+02  0.51482287759E+02  0.00000000000E+00 0. -1.
         -2   -1    0    0    0  501 -0.00000000000E+00 -0.00000000000E+00 -0.16836772552E+02  0.16836772552E+02  0.00000000000E+00 0.  1.
          1    1    1    2  502    0  0.16919099892E+02 -0.15778080568E+02 -0.38050989493E+01  0.23445309671E+02  0.00000000000E+00 0.  1.
         -1    1    1    2    0  501 -0.16919099892E+02  0.15778080568E+02  0.38450614156E+02  0.44873750640E+02  0.00000000000E+00 0. -1.
</event>
<event>
 4    1  0.6740123E+001  0.2151474E+02  0.7546771E-02  0.1512041E+00
          2   -1    0    0  502    0  0.00000000000E+00  0.00000000000E+00  0.11934537390E+04  0.11934537390E+04  0.00000000000E+00 0. -1.
         -2   -1    0    0    0  501 -0.00000000000E+00 -0.00000000000E+00 -0.50095198867E+00  0.50095198867E+00  0.00000000000E+00 0.  1.
          1    1    1    2  502    0 -0.17296211083E+02 -0.12795519346E+02  0.88013095370E+03  0.88039387770E+03  0.00000000000E+00 0.  1.
         -1    1    1    2    0  501  0.17296211083E+02  0.12795519346E+02  0.31282183334E+03  0.31356081331E+03  0.00000000000E+00 0. -1.
</event>
<event>
 4    1  0.6740123E+001  0.2399895E+02  0.7546771E-02  0.1480321E+00
          2   -1    0    0  502    0  0.00000000000E+00  0.00000000000E+00  0.64444128178E+02  0.64444128178E+02  0.00000000000E+00 0.  1.
         -2   -1    0    0    0  501 -0.00000000000E+00 -0.00000000000E+00 -0.12150560847E+02  0.12150560847E+02  0.00000000000E+00 0. -1.
          1    1    1    2  502    0  0.10071890241E+02 -0.21783175685E+02  0.64520273588E+01  0.24851124180E+02  0.00000000000E+00 0.  1.
         -1    1    1    2    0  501 -0.10071890241E+02  0.21783175685E+02  0.45841539972E+02  0.51743564845E+02  0.00000000000E+00 0. -1.
</event>
<event>
 4    1  0.6740123E+001  0.2586802E+02  0.7546771E-02  0.1459323E+00
          2   -1    0    0  502    0  0.00000000000E+00  0.00000000000E+00  0.12545512231E+01  0.12545512231E+01  0.00000000000E+00 0.  1.
         -2   -1    0    0    0  501 -0.00000000000E+00 -0.00000000000E+00 -0.53581580144E+03  0.53581580144E+03  0.00000000000E+00 0. -1.
          1    1    1    2  502    0  0.99307364658E-01 -0.25867830618E+02 -0.28538038471E+03  0.28655037690E+03  0.00000000000E+00 0.  1.
         -1    1    1    2    0  501 -0.99307364658E-01  0.25867830618E+02 -0.24918086550E+03  0.25051997576E+03  0.00000000000E+00 0. -1.
</event>
<event>
 4    1  0.6740123E+001  0.2030786E+02  0.7546771E-02  0.1529380E+00
          2   -1    0    0  502    0  0.00000000000E+00  0.00000000000E+00  0.64393055731E+03  0.64393055731E+03  0.00000000000E+00 0. -1.
         -2   -1    0    0    0  501 -0.00000000000E+00 -0.00000000000E+00 -0.67839988465E+00  0.67839988465E+00  0.00000000000E+00 0.  1.
          1    1    1    2  502    0  0.17365115377E+02 -0.10529101830E+02  0.39785049391E+03  0.39836845347E+03  0.00000000000E+00 0.  1.
         -1    1    1    2    0  501 -0.17365115377E+02  0.10529101830E+02  0.24540166352E+03  0.24624050373E+03  0.00000000000E+00 0. -1.
</event>
<event>
 4    1  0.6740123E+001  0.3088739E+02  0.7546771E-02  0.1412038E+00
          2   -1    0    0  502    0  0.00000000000E+00  0.00000000000E+00  0.34307945450E+01  0.34307945450E+01  0.00000000000E+00 0. -1.
         -2   -1    0    0    0  501 -0.00000000000E+00 -0.00000000000E+00 -0.39934570771E+03  0.39934570771E+03  0.00000000000E+00 0.  1.
          1    1    1    2  502    0  0.57925249212E+01  0.30339375362E+02 -0.30893391719E+03  0.31047414745E+03  0.00000000000E+00 0. -1.
         -1    1    1    2    0  501 -0.57925249212E+01 -0.30339375362E+02 -0.86980995971E+02  0.92302354804E+02  0.00000000000E+00 0.  1.
</event>
<event>
 4    1  0.6740123E+001  0.2406368E+02  0.7546771E-02  0.1479557E+00
          2   -1    0    0  502    0  0.00000000000E+00  0.00000000000E+00  0.63474738339E+02  0.63474738339E+02  0.00000000000E+00 0.  1.
         -2   -1    0    0    0  501 -0.00000000000E+00 -0.00000000000E+00 -0.98383633936E+01  0.98383633936E+01  0.00000000000E+00 0. -1.
          1    1    1    2  502    0 -0.23672652117E+02 -0.43204567035E+01  0.16931621164E+02  0.29423470217E+02  0.00000000000E+00 0. -1.
         -1    1    1    2    0  501  0.23672652117E+02  0.43204567035E+01  0.36704753782E+02  0.43889631516E+02  0.00000000000E+00 0.  1.
</event>
<event>
 4    1  0.6740123E+001  0.3661070E+02  0.7546771E-02  0.1369580E+00
          2   -1    0    0  502    0  0.00000000000E+00  0.00000000000E+00  0.73494153296E+03  0.73494153296E+03  0.00000000000E+00 0. -1.
         -2   -1    0    0    0  501 -0.00000000000E+00 -0.00000000000E+00 -0.21823296917E+01  0.21823296917E+01  0.00000000000E+00 0.  1.
          1    1    1    2  502    0 -0.20657461300E+02 -0.30226031911E+02  0.51577871057E+03  0.51707641795E+03  0.00000000000E+00 0. -1.
         -1    1    1    2    0  501  0.20657461300E+02  0.30226031911E+02  0.21698049269E+03  0.22004744470E+03  0.00000000000E+00 0.  1.
</event>
<event>
 4    1  0.6740123E+001  0.3193160E+02  0.7546771E-02  0.1403522E+00
          2   -1    0    0  502    0  0.00000000000E+00  0.00000000000E+00  0.11701880760E+04  0.11701880760E+04  0.00000000000E+00 0.  1.
         -2   -1    0    0    0  501 -0.00000000000E+00 -0.00000000000E+00 -0.87535555020E+00  0.87535555020E+00  0.00000000000E+00 0. -1.
          1    1    1    2  502    0 -0.12107416985E+02  0.29547207140E+02  0.62433410488E+03  0.62515014318E+03  0.00000000000E+00 0.  1.
         -1    1    1    2    0  501  0.12107416985E+02 -0.29547207140E+02  0.54497861553E+03  0.54591328833E+03  0.00000000000E+00 0. -1.
</event>
<event>
 4    1  0.6740123E+001  0.2487233E+02  0.7546771E-02  0.1470237E+00
          2   -1    0    0  502    0  0.00000000000E+00  0.00000000000E+00  0.39839971702E+01  0.39839971702E+01  0.00000000000E+00 0.  1.
         -2   -1    0    0    0  501 -0.00000000000E+00 -0.00000000000E+00 -0.15607771071E+03  0.15607771071E+03  0.00000000000E+00 0. -1.
          1    1    1    2  502    0  0.16625418507E+02  0.18499407921E+02 -0.81770556275E+02  0.85469623302E+02  0.00000000000E+00 0.  1.
         -1    1    1    2    0  501 -0.16625418507E+02 -0.18499407921E+02 -0.70323157262E+02  0.74592084575E+02  0.00000000000E+00 0. -1.
</event>
<event>
 4    1  0.6740123E+001  0.2663933E+02  0.7546771E-02  0.1451265E+00
          2   -1    0    0  502    0  0.00000000000E+00  0.00000000000E+00  0.22633542162E+04  0.22633542162E+04  0.00000000000E+00 0.  1.
         -2   -1    0    0    0  501 -0.00000000000E+00 -0.00000000000E+00 -0.57014044782E+00  0.57014044782E+00  0.00000000000E+00 0. -1.
          1    1    1    2  502    0 -0.25137771652E+02  0.88173772901E+01  0.18907894055E+04  0.18909770569E+04  0.00000000000E+00 0.  1.
         -1    1    1    2    0  501  0.25137771652E+02 -0.88173772901E+01  0.37199467017E+03  0.37294729969E+03  0.00000000000E+00 0. -1.
</event>
<event>
 4    1  0.6740123E+001  0.2288030E+02  0.7546771E-02  0.1494007E+00
          2   -1    0    0  502    0  0.00000000000E+00  0.00000000000E+00  0.65301302220E+01  0.65301302220E+01  0.00000000000E+00 0. -1.
         -2   -1    0    0    0  501 -0.00000000000E+00 -0.00000000000E+00 -0.16219363473E+03  0.16219363473E+03  0.00000000000E+00 0.  1.
          1    1    1    2  502    0 -0.96939346701E+01  0.20725244480E+02 -0.17838294157E+02  0.29012288200E+02  0.00000000000E+00 0. -1.
         -1    1    1    2    0  501  0.96939346701E+01 -0.20725244480E+02 -0.13782521035E+03  0.13971147676E+03  0.00000000000E+00 0.  1.
</event>
<event>
 4    1  0.6740123E+001  0.2285373E+02  0.7546771E-02  0.1494343E+00
          2   -1    0    0  502    0  0.00000000000E+00  0.00000000000E+00  0.40403882666E+03  0.40403882666E+03  0.00000000000E+00 0.  1.
         -2   -1    0    0    0  501 -0.00000000000E+00 -0.00000000000E+00 -0.35792351668E+01  0.35792351668E+01  0.00000000000E+00 0. -1.
          1    1    1    2  502    0  0.22194552158E+02 -0.54492843885E+01  0.36312907553E+03  0.36384752073E+03  0.00000000000E+00 0.  1.
         -1    1    1    2    0  501 -0.22194552158E+02  0.54492843885E+01  0.37330515961E+02  0.43770541095E+02  0.00000000000E+00 0. -1.
</event>
<event>
 4    1  0.6740123E+001  0.2270732E+02  0.7546771E-02  0.1496206E+00
          2   -1    0    0  502    0  0.00000000000E+00  0.00000000000E+00  0.15539017535E+03  0.15539017535E+03  0.00000000000E+00 0.  1.
         -2   -1    0    0    0  501 -0.00000000000E+00 -0.00000000000E+00 -0.75723854253E+01  0.75723854253E+01  0.00000000000E+00 0. -1.
          1    1    1    2  502    0 -0.11365346860E+02  0.19658359989E+02  0.13498165488E+03  0.13687830135E+03  0.00000000000E+00 0.  1.
         -1    1    1    2    0  501  0.11365346860E+02 -0.19658359989E+02  0.12836135040E+02  0.26084259420E+02  0.00000000000E+00 0. -1.
</event>
<event>
 4    1  0.6740123E+001  0.3431781E+02  0.7546771E-02  0.1385424E+00
          2   -1    0    0  502    0  0.00000000000E+00  0.00000000000E+00  0.35449908237E+03  0.35449908237E+03  0.00000000000E+00 0. -1.
         -2   -1    0    0    0  501 -0.00000000000E+00 -0.00000000000E+00 -0.38411737097E+01  0.38411737097E+01  0.00000000000E+00 0.  1.
          1    1    1    2  502    0 -0.30406870509E+02 -0.15910186942E+02  0.10947039222E+03  0.11472348755E+03  0.00000000000E+00 0. -1.
         -1    1    1    2    0  501  0.30406870509E+02  0.15910186942E+02  0.24118751644E+03  0.24361676853E+03  0.00000000000E+00 0.  1.
</event>
<event>
 4    1  0.6740123E+001  0.2302811E+02  0.7546771E-02  0.1492145E+00
          2   -1    0    0  502    0  0.00000000000E+00  0.00000000000E+00  0.19931383189E+03  0.19931383189E+03  0.00000000000E+00 0.  1.
         -2   -1    0    0    0  501 -0.00000000000E+00 -0.00000000000E+00 -0.40472388477E+01  0.40472388477E+01  0.00000000000E+00 0. -1.
          1    1    1    2  502    0  0.79390858631E+01  0.21616309064E+02  0.38116374276E+02  0.44532593567E+02  0.00000000000E+00 0. -1.
         -1    1    1    2    0  501 -0.79390858631E+01 -0.21616309064E+02  0.15715021877E+03  0.15882847717E+03  0.00000000000E+00 0.  1.
</event>
<event>
 4    1  0.6740123E+001  0.2538216E+02  0.7546771E-02  0.1464573E+00
          2   -1    0    0  502    0  0.00000000000E+00  0.00000000000E+00  0.76523663740E+03  0.76523663740E+03  0.00000000000E+00 0. -1.
         -2   -1    0    0    0  501 -0.00000000000E+00 -0.00000000000E+00 -0.88770046821E+00  0.88770046821E+00  0.00000000000E+00 0.  1.
          1    1    1    2  502    0  0.98277357561E+01  0.23402341705E+02  0.29516566895E+03  0.29625500184E+03  0.00000000000E+00 0.  1.
         -1    1    1    2    0  501 -0.98277357561E+01 -0.23402341705E+02  0.46918326798E+03  0.46986933603E+03  0.00000000000E+00 0. -1.
</event>
<event>
 4    1  0.6740123E+001  0.2639207E+02  0.7546771E-02  0.1453812E+00
          2   -1    0    0  502    0  0.00000000000E+00  0.00000000000E+00  0.23282569768E+03  0.23282569768E+03  0.00000000000E+00 0.  1.
         -2   -1    0    0    0  501 -0.00000000000E+00 -0.00000000000E+00 -0.30021348700E+01  0.30021348700E+01  0.00000000000E+00 0. -1.
          1    1    1    2  502    0  0.97118742030E+01  0.24540183734E+02  0.12186855721E+03  0.12469356982E+03  0.00000000000E+00 0.  1.
         -1    1    1    2    0  501 -0.97118742030E+01 -0.24540183734E+02  0.10795500561E+03  0.11113426273E+03  0.00000000000E+00 0. -1.
</event>
<event>
 4    1  0.6740123E+001  0.3029680E+02  0.7546771E-02  0.1417034E+00
          2   -1    0    0  502    0  0.00000000000E+00  0.00000000000E+00  0.22921712733E+04  0.22921712733E+04  0.00000000000E+00 0.  1.
         -2   -1    0    0    0  501 -0.00000000000E+00 -0.00000000000E+00 -0.71264484193E+00  0.71264484193E+00  0.00000000000E+00 0. -1.
          1    1    1    2  502    0  0.30138417876E+02 -0.30938520470E+01  0.38692546623E+03  0.38810979447E+03  0.00000000000E+00 0. -1.
         -1    1    1    2    0  501 -0.30138417876E+02  0.30938520470E+01  0.19045331622E+04  0.19047741237E+04  0.00000000000E+00 0.  1.
</event>
<event>
 4    1  0.6740123E+001  0.4950093E+02  0.7546771E-02  0.1300351E+00
          2   -1    0    0  502    0  0.00000000000E+00  0.00000000000E+00  0.15411492597E+02  0.15411492597E+02  0.00000000000E+00 0. -1.
         -2   -1    0    0    0  501 -0.00000000000E+00 -0.00000000000E+00 -0.16130796354E+03  0.16130796354E+03  0.00000000000E+00 0.  1.
          1    1    1    2  502    0 -0.46356867443E+02  0.17360383018E+02 -0.62366403668E+02  0.79623554079E+02  0.00000000000E+00 0. -1.
         -1    1    1    2    0  501  0.46356867443E+02 -0.17360383018E+02 -0.83530067275E+02  0.97095902058E+02  0.00000000000E+00 0.  1.
</event>
<event>
 4    1  0.6740123E+001  0.2150832E+02  0.7546771E-02  0.1512130E+00
          2   -1    0    0  502    0  0.00000000000E+00  0.00000000000E+00  0.54011061300E+03  0.54011061300E+03  0.00000000000E+00 0.  1.
         -2   -1    0    0    0  501 -0.00000000000E+00 -0.00000000000E+00 -0.21414692132E+01  0.21414692132E+01  0.00000000000E+00 0. -1.
          1    1    1    2  502    0 -0.18441215349E+02  0.11069305414E+02  0.47900458115E+03  0.47948722268E+03  0.00000000000E+00 0.  1.
         -1    1    1    2    0  501  0.18441215349E+02 -0.11069305414E+02  0.58964562638E+02  0.62764859539E+02  0.00000000000E+00 0. -1.
</event>
<event>
 4    1  0.6740123E+001  0.2048623E+02  0.7546771E-02  0.1526728E+00
          2   -1    0    0  502    0  0.00000000000E+00  0.00000000000E+00  0.34491086579E+03  0.34491086579E+03  0.00000000000E+00 0.  1.
         -2   -1    0    0    0  501 -0.00000000000E+00 -0.00000000000E+00 -0.12222225532E+01  0.12222225532E+01  0.00000000000E+00 0. -1.
          1    1    1    2  502    0 -0.10520150768E+02 -0.17578737552E+02  0.18337797220E+03  0.18451874234E+03  0.00000000000E+00 0.  1.
         -1    1    1    2    0  501  0.10520150768E+02  0.17578737552E+02  0.16031067103E+03  0.16161434600E+03  0.00000000000E+00 0. -1.
</event>
<event>
 4    1  0.6740123E+001  0.2329202E+02  0.7546771E-02  0.1488863E+00
          2   -1    0    0  502    0  0.00000000000E+00  0.00000000000E+00  0.33586867050E+02  0.33586867050E+02  0.00000000000E+00 0. -1.
         -2   -1    0    0    0  501 -0.00000000000E+00 -0.00000000000E+00 -0.22359716493E+02  0.22359716493E+02  0.00000000000E+00 0.  1.
          1    1    1    2  502    0 -0.12182476593E+02  0.19852091744E+02 -0.91248877404E+01  0.25015632289E+02  0.00000000000E+00 0.  1.
         -1    1    1    2    0  501  0.12182476593E+02 -0.19852091744E+02  0.20352038297E+02  0.30930951253E+02  0.00000000000E+00 0. -1.
</event>
<event>
 4    1  0.6740123E+001  0.2434890E+02  0.7546771E-02  0.1476221E+00
          2   -1    0    0  502    0  0.00000000000E+00  0.00000000000E+00  0.30560963102E+04  0.30560963102E+04  0.00000000000E+00 0.  1.
         -2   -1    0    0    0  501 -0.00000000000E+00 -0.00000000000E+00 -0.19400144253E+00  0.19400144253E+00  0.00000000000E+00 0. -1.
          1    1    1    2  502    0 -0.21192004614E+02  0.11990320012E+02  0.15364315938E+04  0.15366245187E+04  0.00000000000E+00 0.  1.
         -1    1    1    2    0  501  0.21192004614E+02 -0.11990320012E+02  0.15194707149E+04  0.15196657930E+04  0.00000000000E+00 0. -1.
</event>
<event>
 4    1  0.6740123E+001  0.2252150E+02  0.7546771E-02  0.1498596E+00
          2   -1    0    0  502    0  0.00000000000E+00  0.00000000000E+00  0.30751035786E+02  0.30751035786E+02  0.00000000000E+00 0.  1.
         -2   -1    0    0    0  501 -0.00000000000E+00 -0.00000000000E+00 -0.36670766085E+02  0.36670766085E+02  0.00000000000E+00 0. -1.
          1    1    1    2  502    0 -0.16201370246E+02 -0.15643961565E+02  0.22045461155E+02  0.31515397647E+02  0.00000000000E+00 0.  1.
         -1    1    1    2    0  501  0.16201370246E+02  0.15643961565E+02 -0.27965191454E+02  0.35906404225E+02  0.00000000000E+00 0. -1.
</event>
<event>
 4    1  0.6740123E+001  0.7374231E+02  0.7546771E-02  0.1219171E+00
          2   -1    0    0  502    0  0.00000000000E+00  0.00000000000E+00  0.12515630476E+02  0.12515630476E+02  0.00000000000E+00 0.  1.
         -2   -1    0    0    0  501 -0.00000000000E+00 -0.00000000000E+00 -0.46387741269E+03  0.46387741269E+03  0.00000000000E+00 0. -1.
          1    1    1    2  502    0  0.45609054120E+02 -0.57946026827E+02 -0.28563344038E+03  0.29499896628E+03  0.00000000000E+00 0.  1.
         -1    1    1    2    0  501 -0.45609054120E+02  0.57946026827E+02 -0.16572834184E+03  0.18139407689E+03  0.00000000000E+00 0. -1.
</event>
<event>
 4    1  0.6740123E+001  0.2116299E+02  0.7546771E-02  0.1516950E+00
          2   -1    0    0  502    0  0.00000000000E+00  0.00000000000E+00  0.23814853975E+02  0.23814853975E+02  0.00000000000E+00 0.  1.
         -2   -1    0    0    0  501 -0.00000000000E+00 -0.00000000000E+00 -0.20634688737E+02  0.20634688737E+02  0.00000000000E+00 0. -1.
          1    1    1    2  502    0  0.17163838274E+02  0.12380425372E+02 -0.50253417063E+01  0.21751467443E+02  0.00000000000E+00 0.  1.
         -1    1    1    2    0  501 -0.17163838274E+02 -0.12380425372E+02  0.82055069447E+01  0.22698075268E+02  0.00000000000E+00 0. -1.
</event>
<event>
 4    1  0.6740123E+001  0.2754527E+02  0.7546771E-02  0.1442206E+00
          2   -1    0    0  502    0  0.00000000000E+00  0.00000000000E+00  0.87189628743E+02  0.87189628743E+02  0.00000000000E+00 0. -1.
         -2   -1    0    0    0  501 -0.00000000000E+00 -0.00000000000E+00 -0.99686664939E+01  0.99686664939E+01  0.00000000000E+00 0.  1.
          1    1    1    2  502    0 -0.19106971696E+02 -0.19841002303E+02  0.55925696951E+02  0.62341200816E+02  0.00000000000E+00 0. -1.
         -1    1    1    2    0  501  0.19106971696E+02  0.19841002303E+02  0.21295265298E+02  0.34817094421E+02  0.00000000000E+00 0.  1.
</event>
<event>
 4    1  0.6740123E+001  0.7506767E+02  0.7546771E-02  0.1215786E+00
          2   -1    0    0  502    0  0.00000000000E+00  0.00000000000E+00  0.53545557815E+03  0.53545557815E+03  0.00000000000E+00 0.  1.
         -2   -1    0    0    0  501 -0.00000000000E+00 -0.00000000000E+00 -0.24889616359E+02  0.24889616359E+02  0.00000000000E+00 0. -1.
          1    1    1    2  502    0 -0.78148670921E+01 -0.74659776988E+02  0.42430790385E+02  0.86229498551E+02  0.00000000000E+00 0. -1.
         -1    1    1    2    0  501  0.78148670921E+01  0.74659776988E+02  0.46813517141E+03  0.47411569596E+03  0.00000000000E+00 0.  1.
</event>
<event>
 4    1  0.6740123E+001  0.2086015E+02  0.7546771E-02  0.1521271E+00
          2   -1    0    0  502    0  0.00000000000E+00  0.00000000000E+00  0.31348808915E+03  0.31348808915E+03  0.00000000000E+00 0.  1.
         -2   -1    0    0    0  501 -0.00000000000E+00 -0.00000000000E+00 -0.14560975637E+01  0.14560975637E+01  0.00000000000E+00 0. -1.
          1    1    1    2  502    0 -0.20433490543E+02 -0.41973945864E+01  0.12198082302E+03  0.12375163369E+03  0.00000000000E+00 0.  1.
         -1    1    1    2    0  501  0.20433490543E+02  0.41973945864E+01  0.19005116857E+03  0.19119255303E+03  0.00000000000E+00 0. -1.
</event>
<event>
 4    1  0.6740123E+001  0.2961163E+02  0.7546771E-02  0.1423002E+00
          2   -1    0    0  502    0  0.00000000000E+00  0.00000000000E+00  0.16810485197E+02  0.16810485197E+02  0.00000000000E+00 0.  1.
         -2   -1    0    0    0  501 -0.00000000000E+00 -0.00000000000E+00 -0.65739923160E+02  0.65739923160E+02  0.00000000000E+00 0. -1.
          1    1    1    2  502    0  0.20642984972E+02  0.21230061895E+02 -0.43223754148E+02  0.52394095843E+02  0.00000000000E+00 0. -1.
         -1    1    1    2    0  501 -0.20642984972E+02 -0.21230061895E+02 -0.57056838149E+01  0.30156312513E+02  0.00000000000E+00 0.  1.
</event>
<event>
 4    1  0.6740123E+001  0.2008353E+02  0.7546771E-02  0.1532763E+00
          2   -1    0    0  502    0  0.00000000000E+00  0.00000000000E+00  0.11437013027E+03  0.11437013027E+03  0.00000000000E+00 0. -1.
         -2   -1    0    0    0  501 -0.00000000000E+00 -0.00000000000E+00 -0.42142648124E+01  0.42142648124E+01  0.00000000000E+00 0.  1.
          1    1    1    2  502    0  0.17897418529E+02  0.91121177870E+01  0.31128467188E+02  0.37044969295E+02  0.00000000000E+00 0.  1.
         -1    1    1    2    0  501 -0.17897418529E+02 -0.91121177870E+01  0.79027398266E+02  0.81539425785E+02  0.00000000000E+00 0. -1.
</event>
<event>
 4    1  0.6740123E+001  0.2741562E+02  0.7546771E-02  0.1443477E+00
          2   -1    0    0  502    0  0.00000000000E+00  0.00000000000E+00  0.92122874488E+02  0.92122874488E+02  0.00000000000E+00 0.  1.
         -2   -1    0    0    0  501 -0.00000000000E+00 -0.00000000000E+00 -0.10701071672E+02  0.10701071672E+02  0.00000000000E+00 0. -1.
          1    1    1    2  502    0  0.78353462138E+01 -0.26272102432E+02  0.15652232925E+02  0.31569105341E+02  0.00000000000E+00 0. -1.
         -1    1    1    2    0  501 -0.78353462138E+01  0.26272102432E+02  0.65769569891E+02  0.71254840819E+02  0.00000000000E+00 0.  1.
</event>
<event>
 4    1  0.6740123E+001  0.2065783E+02  0.7546771E-02  0.1524207E+00
          2   -1    0    0  502    0  0.00000000000E+00  0.00000000000E+00  0.51933157758E+02  0.51933157758E+02  0.00000000000E+00 0.  1.
         -2   -1    0    0    0  501 -0.00000000000E+00 -0.00000000000E+00 -0.88115995174E+01  0.88115995174E+01  0.00000000000E+00 0. -1.
          1    1    1    2  502    0  0.53662810296E+01  0.19948660349E+02  0.13672459872E+02  0.24772609486E+02  0.00000000000E+00 0.  1.
         -1    1    1    2    0  501 -0.53662810296E+01 -0.19948660349E+02  0.29449098368E+02  0.35972147788E+02  0.00000000000E+00 0. -1.
</event>
<event>
 4    1  0.6740123E+001  0.2037868E+02  0.7546771E-02  0.1528324E+00
          2   -1    0    0  502    0  0.00000000000E+00  0.00000000000E+00  0.13426140743E+04  0.13426140743E+04  0.00000000000E+00 0. -1.
         -2   -1    0    0    0  501 -0.00000000000E+00 -0.00000000000E+00 -0.39762297258E+00  0.39762297258E+00  0.00000000000E+00 0.  1.
          1    1    1    2  502    0 -0.13948105424E+02  0.14857347953E+02  0.35465140467E+03  0.35523641320E+03  0.00000000000E+00 0.  1.
         -1    1    1    2    0  501  0.13948105424E+02 -0.14857347953E+02  0.98756504666E+03  0.98777528407E+03  0.00000000000E+00 0. -1.
</event>
<event>
 4    1  0.6740123E+001  0.5398030E+02  0.7546771E-02  0.1281780E+00
          2   -1    0    0  502    0  0.00000000000E+00  0.00000000000E+00  0.14312751835E+04  0.14312751835E+04  0.00000000000E+00 0. -1.
         -2   -1    0    0    0  501 -0.00000000000E+00 -0.00000000000E+00 -0.22286355780E+01  0.22286355780E+01  0.00000000000E+00 0.  1.
          1    1    1    2  502    0  0.24370128924E+02  0.48166059514E+02  0.92532687685E+03  0.92690004936E+03  0.00000000000E+00 0.  1.
         -1    1    1    2    0  501 -0.24370128924E+02 -0.48166059514E+02  0.50371967106E+03  0.50660376971E+03  0.00000000000E+00 0. -1.
</event>
<event>
 4    1  0.6740123E+001  0.2938231E+02  0.7546771E-02  0.1425041E+00
          2   -1    0    0  502    0  0.00000000000E+00  0.00000000000E+00  0.86084345178E+03  0.86084345178E+03  0.00000000000E+00 0. -1.
         -2   -1    0    0    0  501 -0.00000000000E+00 -0.00000000000E+00 -0.11811786938E+01  0.11811786938E+01  0.00000000000E+00 0.  1.
          1    1    1    2  502    0 -0.14766427074E+02  0.25402220666E+02  0.26237175172E+03  0.26401184875E+03  0.00000000000E+00 0.  1.
         -1    1    1    2    0  501  0.14766427074E+02 -0.25402220666E+02  0.59729052137E+03  0.59801278172E+03  0.00000000000E+00 0. -1.
</event>
<event>
 4    1  0.6740123E+001  0.2009759E+02  0.7546771E-02  0.1532549E+00
          2   -1    0    0  502    0  0.00000000000E+00  0.00000000000E+00  0.16822556014E+01  0.16822556014E+01  0.00000000000E+00 0. -1.
         -2   -1    0    0    0  501 -0.00000000000E+00 -0.00000000000E+00 -0.24130704628E+03  0.24130704628E+03  0.00000000000E+00 0.  1.
          1    1    1    2  502    0 -0.68364062979E+01  0.18899117071E+02 -0.11122703102E+03  0.11302816244E+03  0.00000000000E+00 0.  1.
         -1    1    1    2    0  501  0.68364062979E+01 -0.18899117071E+02 -0.12839775966E+03  0.12996113943E+03  0.00000000000E+00 0. -1.
</event>
<event>
 4    1  0.6740123E+001  0.2615467E+02  0.7546771E-02  0.1456289E+00
          2   -1    0    0  502    0  0.00000000000E+00  0.00000000000E+00  0.80085144517E+03  0.80085144517E+03  0.00000000000E+00 0. -1.
         -2   -1    0    0    0  501 -0.00000000000E+00 -0.00000000000E+00 -0.16121408791E+01  0.16121408791E+01  0.00000000000E+00 0.  1.
          1    1    1    2  502    0  0.22706816736E+02 -0.12979489724E+02  0.12450172732E+03  0.12721928622E+03  0.00000000000E+00 0.  1.
         -1    1    1    2    0  501 -0.22706816736E+02  0.12979489724E+02  0.67473757697E+03  0.67524429984E+03  0.00000000000E+00 0. -1.
</event>
<event>
 4    1  0.6740123E+001  0.2405023E+02  0.7546771E-02  0.1479715E+00
          2   -1    0    0  502    0  0.00000000000E+00  0.00000000000E+00  0.12321696057E+02  0.12321696057E+02  0.00000000000E+00 0.  1.
         -2   -1    0    0    0  501 -0.00000000000E+00 -0.00000000000E+00 -0.47509951800E+02  0.47509951800E+02  0.00000000000E+00 0. -1.
          1    1    1    2  502    0 -0.11916201701E+02 -0.20890617991E+02 -0.20862966345E+02  0.31838296872E+02  0.00000000000E+00 0.  1.
         -1    1    1    2    0  501  0.11916201701E+02  0.20890617991E+02 -0.14325289397E+02  0.27993350984E+02  0.00000000000E+00 0. -1.
</event>
<event>
 4    1  0.6740123E+001  0.2420682E+02  0.7546771E-02  0.1477876E+00
          2   -1    0    0  502    0  0.00000000000E+00  0.00000000000E+00  0.20640126981E+01  0.20640126981E+01  0.00000000000E+00 0.  1.
         -2   -1    0    0    0  501 -0.00000000000E+00 -0.00000000000E+00 -0.44847610032E+03  0.44847610032E+03  0.00000000000E+00 0. -1.
          1    1    1    2  502    0 -0.21390499732E+02  0.11332116316E+02 -0.35967033751E+03  0.36048401077E+03  0.00000000000E+00 0. -1.
         -1    1    1    2    0  501  0.21390499732E+02 -0.11332116316E+02 -0.86741750117E+02  0.90056102249E+02  0.00000000000E+00 0.  1.
</event>
<event>
 4    1  0.6740123E+001  0.2598355E+02  0.7546771E-02  0.1458095E+00
          2   -1    0    0  502    0  0.00000000000E+00  0.00000000000E+00  0.22516180448E+03  0.22516180448E+03  0.00000000000E+00 0. -1.
         -2   -1    0    0    0  501 -0.00000000000E+00 -0.00000000000E+00 -0.42862703532E+01  0.42862703532E+01  0.00000000000E+00 0.  1.
          1    1    1    2  502    0 -0.33611229985E+01  0.25765244839E+02  0.17332114482E+03  0.17525799334E+03  0.00000000000E+00 0. -1.
         -1    1    1    2    0  501  0.33611229985E+01 -0.25765244839E+02  0.47554389309E+02  0.54190081491E+02  0.00000000000E+00 0.  1.
</event>
<event>
 4    1  0.6740123E+001  0.2003696E+02  0.7546771E-02  0.1533471E+00
          2   -1    0    0  502    0  0.00000000000E+00  0.00000000000E+00  0.51249411385E+03  0.51249411385E+03  0.00000000000E+00 0.  1.
         -2   -1    0    0    0  501 -0.00000000000E+00 -0.00000000000E+00 -0.78441395299E+00  0.78441395299E+00  0.00000000000E+00 0. -1.
          1    1    1    2  502    0 -0.18916037853E+02 -0.66078186844E+01  0.26515375059E+03  0.26590974259E+03  0.00000000000E+00 0. -1.
         -1    1    1    2    0  501  0.18916037853E+02  0.66078186844E+01  0.24655594931E+03  0.24736878521E+03  0.00000000000E+00 0.  1.
</event>
<event>
 4    1  0.6740123E+001  0.2140079E+02  0.7546771E-02  0.1513619E+00
          2   -1    0    0  502    0  0.00000000000E+00  0.00000000000E+00  0.44979245673E+03  0.44979245673E+03  0.00000000000E+00 0.  1.
         -2   -1    0    0    0  501 -0.00000000000E+00 -0.00000000000E+00 -0.10929288398E+01  0.10929288398E+01  0.00000000000E+00 0. -1.
          1    1    1    2  502    0  0.19993050562E+02 -0.76335994710E+01  0.28328647718E+03  0.28409368536E+03  0.00000000000E+00 0. -1.
         -1    1    1    2    0  501 -0.19993050562E+02  0.76335994710E+01  0.16541305071E+03  0.16679170021E+03  0.00000000000E+00 0.  1.
</event>
<event>
 4    1  0.6740123E+001  0.2338695E+02  0.7546771E-02  0.1487695E+00
          2   -1    0    0  502    0  0.00000000000E+00  0.00000000000E+00  0.22098473791E+04  0.22098473791E+04  0.00000000000E+00 0. -1.
         -2   -1    0    0    0  501 -0.00000000000E+00 -0.00000000000E+00 -0.25102103589E+00  0.25102103589E+00  0.00000000000E+00 0.  1.
          1    1    1    2  502    0  0.21845264903E+02 -0.83506887152E+01  0.12355706014E+04  0.12357919164E+04  0.00000000000E+00 0. -1.
         -1    1    1    2    0  501 -0.21845264903E+02  0.83506887152E+01  0.97402575667E+03  0.97430648374E+03  0.00000000000E+00 0.  1.
</event>
<event>
 4    1  0.6740123E+001  0.4960016E+02  0.7546771E-02  0.1299915E+00
          2   -1    0    0  502    0  0.00000000000E+00  0.00000000000E+00  0.17780485248E+04  0.17780485248E+04  0.00000000000E+00 0. -1.
         -2   -1    0    0    0  501 -0.00000000000E+00 -0.00000000000E+00 -0.14298341022E+01  0.14298341022E+01  0.00000000000E+00 0.  1.
          1    1    1    2  502    0 -0.10486505764E+02 -0.48478956540E+02  0.72838257514E+03  0.73006941574E+03  0.00000000000E+00 0.  1.
         -1    1    1    2    0  501  0.10486505764E+02  0.48478956540E+02  0.10482361155E+04  0.10494089431E+04  0.00000000000E+00 0. -1.
</event>
<event>
 4    1  0.6740123E+001  0.2125239E+02  0.7546771E-02  0.1515692E+00
          2   -1    0    0  502    0  0.00000000000E+00  0.00000000000E+00  0.89893417042E+03  0.89893417042E+03  0.00000000000E+00 0.  1.
         -2   -1    0    0    0  501 -0.00000000000E+00 -0.00000000000E+00 -0.97201776835E+00  0.97201776835E+00  0.00000000000E+00 0. -1.
          1    1    1    2  502    0 -0.26037766869E+01 -0.21092281299E+02  0.76172012054E+03  0.76201653920E+03  0.00000000000E+00 0.  1.
         -1    1    1    2    0  501  0.26037766869E+01  0.21092281299E+02  0.13624203212E+03  0.13788964899E+03  0.00000000000E+00 0. -1.
</event>
<event>
 4    1  0.6740123E+001  0.2439815E+02  0.7546771E-02  0.1475650E+00
          2   -1    0    0  502    0  0.00000000000E+00  0.00000000000E+00  0.21727695887E+02  0.21727695887E+02  0.00000000000E+00 0.  1.
         -2   -1    0    0    0  501 -0.00000000000E+00 -0.00000000000E+00 -0.42581619703E+02  0.42581619703E+02  0.00000000000E+00 0. -1.
          1    1    1    2  502    0  0.12026341346E+02 -0.21228211204E+02 -0.29628556467E+02  0.38381260993E+02  0.00000000000E+00 0. -1.
         -1    1    1    2    0  501 -0.12026341346E+02  0.21228211204E+02  0.87746326507E+01  0.25928054598E+02  0.00000000000E+00 0.  1.
</event>
<event>
 4    1  0.6740123E+001  0.2149387E+02  0.7546771E-02  0.1512329E+00
          2   -1    0    0  502    0  0.00000000000E+00  0.00000000000E+00  0.10326537058E+02  0.10326537058E+02  0.00000000000E+00 0. -1.
         -2   -1    0    0    0  501 -0.00000000000E+00 -0.00000000000E+00 -0.45251882748E+02  0.45251882748E+02  0.00000000000E+00 0.  1.
          1    1    1    2  502    0 -0.15686369887E+02 -0.14694358256E+02 -0.20424651654E+02  0.29650510281E+02  0.00000000000E+00 0. -1.
         -1    1    1    2    0  501  0.15686369887E+02  0.14694358256E+02 -0.14500694036E+02  0.25927909524E+02  0.00000000000E+00 0.  1.
</event>
<event>
 4    1  0.6740123E+001  0.3022576E+02  0.7546771E-02  0.1417645E+00
          2   -1    0    0  502    0  0.00000000000E+00  0.00000000000E+00  0.14229860742E+04  0.14229860742E+04  0.00000000000E+00 0.  1.
         -2   -1    0    0    0  501 -0.00000000000E+00 -0.00000000000E+00 -0.66246016843E+00  0.66246016843E+00  0.00000000000E+00 0. -1.
          1    1    1    2  502    0  0.23041540280E+02 -0.19562304560E+02  0.58614904382E+03  0.58692784728E+03  0.00000000000E+00 0. -1.
         -1    1    1    2    0  501 -0.23041540280E+02  0.19562304560E+02  0.83617457020E+03  0.83672068708E+03  0.00000000000E+00 0.  1.
</event>
<event>
 4    1  0.6740123E+001  0.4885743E+02  0.7546771E-02  0.1303204E+00
          2   -1    0    0  502    0  0.00000000000E+00  0.00000000000E+00  0.37301306501E+02  0.37301306501E+02  0.00000000000E+00 0.  1.
         -2   -1    0    0    0  501 -0.00000000000E+00 -0.00000000000E+00 -0.93817234694E+02  0.93817234694E+02  0.00000000000E+00 0. -1.
          1    1    1    2  502    0 -0.26944996413E+02  0.40755555124E+02 -0.65221410449E+02  0.81491597641E+02  0.00000000000E+00 0.  1.
         -1    1    1    2    0  501  0.26944996413E+02 -0.40755555124E+02  0.87054822558E+01  0.49626943554E+02  0.00000000000E+00 0. -1.
</event>
<event>
 4    1  0.6740123E+001  0.2365968E+02  0.7546771E-02  0.1484377E+00
          2   -1    0    0  502    0  0.00000000000E+00  0.00000000000E+00  0.91202728923E+03  0.91202728923E+03  0.00000000000E+00 0.  1.
         -2   -1    0    0    0  501 -0.00000000000E+00 -0.00000000000E+00 -0.79797342739E+00  0.79797342739E+00  0.00000000000E+00 0. -1.
          1    1    1    2  502    0  0.11417270330E+01  0.23632116556E+02  0.23633153632E+03  0.23751289551E+03  0.00000000000E+00 0. -1.
         -1    1    1    2    0  501 -0.11417270330E+01 -0.23632116556E+02  0.67489777948E+03  0.67531236715E+03  0.00000000000E+00 0.  1.
</event>
<event>
 4    1  0.6740123E+001  0.2033776E+02  0.7546771E-02  0.1528934E+00
          2   -1    0    0  502    0  0.00000000000E+00  0.00000000000E+00  0.60640300974E+03  0.60640300974E+03  0.00000000000E+00 0. -1.
         -2   -1    0    0    0  501 -0.00000000000E+00 -0.00000000000E+00 -0.85473516954E+00  0.85473516954E+00  0.00000000000E+00 0.  1.
          1    1    1    2  502    0 -0.18842825986E+02 -0.76532544832E+01  0.16631634434E+03  0.16755521714E+03  0.00000000000E+00 0.  1.
         -1    1    1    2    0  501  0.18842825986E+02  0.76532544832E+01  0.43923193023E+03  0.43970252778E+03  0.00000000000E+00 0. -1.
</event>
<event>
 4    1  0.6740123E+001  0.2119985E+02  0.7546771E-02  0.1516431E+00
          2   -1    0    0  502    0  0.00000000000E+00  0.00000000000E+00  0.96543069102E+02  0.96543069102E+02  0.00000000000E+00 0. -1.
         -2   -1    0    0    0  501 -0.00000000000E+00 -0.00000000000E+00 -0.52562470179E+01  0.52562470179E+01  0.00000000000E+00 0.  1.
          1    1    1    2  502    0  0.73568934126E+01 -0.19882396581E+02  0.62854474491E+02  0.66333389315E+02  0.00000000000E+00 0.  1.
         -1    1    1    2    0  501 -0.73568934126E+01  0.19882396581E+02  0.28432347593E+02  0.35465926805E+02  0.00000000000E+00 0. -1.
</event>
<event>
 4    1  0.6740123E+001  0.2070429E+02  0.7546771E-02  0.1523529E+00
          2   -1    0    0  502    0  0.00000000000E+00  0.00000000000E+00  0.17184725366E+01  0.17184725366E+01  0.00000000000E+00 0. -1.
         -2   -1    0    0    0  501 -0.00000000000E+00 -0.00000000000E+00 -0.25745478931E+03  0.25745478931E+03  0.00000000000E+00 0.  1.
          1    1    1    2  502    0  0.25748527721E+01  0.20543562570E+02 -0.10501396721E+03  0.10703551344E+03  0.00000000000E+00 0. -1.
         -1    1    1    2    0  501 -0.25748527721E+01 -0.20543562570E+02 -0.15072234957E+03  0.15213774840E+03  0.00000000000E+00 0.  1.
</event>
<event>
 4    1  0.6740123E+001  0.2158373E+02  0.7546771E-02  0.1511091E+00
          2   -1    0    0  502    0  0.00000000000E+00  0.00000000000E+00  0.68506385720E+03  0.68506385720E+03  0.00000000000E+00 0. -1.
         -2   -1    0    0    0  501 -0.00000000000E+00 -0.00000000000E+00 -0.73031727270E+00  0.73031727270E+00  0.00000000000E+00 0.  1.
          1    1    1    2  502    0  0.16430818167E+00 -0.21583104872E+02  0.25218005303E+03  0.25310202796E+03  0.00000000000E+00 0.  1.
         -1    1    1    2    0  501 -0.16430818167E+00  0.21583104872E+02  0.43215348690E+03  0.43269214651E+03  0.00000000000E+00 0. -1.
</event>
<event>
 4    1  0.6740123E+001  0.2050036E+02  0.7546771E-02  0.1526519E+00
          2   -1    0    0  502    0  0.00000000000E+00  0.00000000000E+00  0.25698517476E+02  0.25698517476E+02  0.00000000000E+00 0. -1.
         -2   -1    0    0    0  501 -0.00000000000E+00 -0.00000000000E+00 -0.16358082172E+02  0.16358082172E+02  0.00000000000E+00 0.  1.
          1    1    1    2  502    0  0.64004875721E+01  0.19475588911E+02  0.50159818813E+01  0.21105091301E+02  0.00000000000E+00 0.  1.
         -1    1    1    2    0  501 -0.64004875721E+01 -0.19475588911E+02  0.43244534234E+01  0.20951508347E+02  0.00000000000E+00 0. -1.
</event>
<event>
 4    1  0.6740123E+001  0.3634576E+02  0.7546771E-02  0.1371341E+00
          2   -1    0    0  502    0  0.00000000000E+00  0.00000000000E+00  0.32313849983E+04  0.32313849983E+04  0.00000000000E+00 0. -1.
         -2   -1    0    0    0  501 -0.00000000000E+00 -0.00000000000E+00 -0.51918905034E+00  0.51918905034E+00  0.00000000000E+00 0.  1.
          1    1    1    2  502    0 -0.12999086686E+02  0.33941685271E+02  0.87033375636E+03  0.87109233823E+03  0.00000000000E+00 0.  1.
         -1    1    1    2    0  501  0.12999086686E+02 -0.33941685271E+02  0.23605320528E+04  0.23608118491E+04  0.00000000000E+00 0. -1.
</event>
<event>
 4    1  0.6740123E+001  0.7540798E+02  0.7546771E-02  0.1214929E+00
          2   -1    0    0  502    0  0.00000000000E+00  0.00000000000E+00  0.85750748925E+02  0.85750748925E+02  0.00000000000E+00 0.  1.
         -2   -1    0    0    0  501 -0.00000000000E+00 -0.00000000000E+00 -0.66544411403E+02  0.66544411403E+02  0.00000000000E+00 0. -1.
          1    1    1    2  502    0  0.38854319499E+02  0.64627433836E+02  0.51097412974E+01  0.75580902377E+02  0.00000000000E+00 0. -1.
         -1    1    1    2    0  501 -0.38854319499E+02 -0.64627433836E+02  0.14096596224E+02  0.76714257951E+02  0.00000000000E+00 0.  1.
</event>
<event>
 4    1  0.6740123E+001  0.2501977E+02  0.7546771E-02  0.1468582E+00
          2   -1    0    0  502    0  0.00000000000E+00  0.00000000000E+00  0.99261651290E+03  0.99261651290E+03  0.00000000000E+00 0.  1.
         -2   -1    0    0    0  501 -0.00000000000E+00 -0.00000000000E+00 -0.14323855409E+02  0.14323855409E+02  0.00000000000E+00 0. -1.
          1    1    1    2  502    0  0.25014183373E+02 -0.52878040637E+00 -0.31158024670E+01  0.25213036381E+02  0.00000000000E+00 0. -1.
         -1    1    1    2    0  501 -0.25014183373E+02  0.52878040637E+00  0.98140845996E+03  0.98172733193E+03  0.00000000000E+00 0.  1.
</event>
<event>
 4    1  0.6740123E+001  0.2886376E+02  0.7546771E-02  0.1429734E+00
          2   -1    0    0  502    0  0.00000000000E+00  0.00000000000E+00  0.57929170684E+03  0.57929170684E+03  0.00000000000E+00 0.  1.
         -2   -1    0    0    0  501 -0.00000000000E+00 -0.00000000000E+00 -0.14562320114E+01  0.14562320114E+01  0.00000000000E+00 0. -1.
          1    1    1    2  502    0 -0.27489279619E+02  0.88009077798E+01  0.32126203382E+03  0.32255605845E+03  0.00000000000E+00 0.  1.
         -1    1    1    2    0  501  0.27489279619E+02 -0.88009077798E+01  0.25657344101E+03  0.25819188040E+03  0.00000000000E+00 0. -1.
</event>
<event>
 4    1  0.6740123E+001  0.2583430E+02  0.7546771E-02  0.1459683E+00
          2   -1    0    0  502    0  0.00000000000E+00  0.00000000000E+00  0.18124707622E+01  0.18124707622E+01  0.00000000000E+00 0. -1.
         -2   -1    0    0    0  501 -0.00000000000E+00 -0.00000000000E+00 -0.38766195279E+03  0.38766195279E+03  0.00000000000E+00 0.  1.
          1    1    1    2  502    0  0.16368343128E+02 -0.19987207848E+02 -0.14932844484E+03  0.15154667787E+03  0.00000000000E+00 0.  1.
         -1    1    1    2    0  501 -0.16368343128E+02  0.19987207848E+02 -0.23652103719E+03  0.23792774569E+03  0.00000000000E+00 0. -1.
</event>
<event>
 4    1  0.6740123E+001  0.2541863E+02  0.7546771E-02  0.1464174E+00
          2   -1    0    0  502    0  0.00000000000E+00  0.00000000000E+00  0.54156988497E+02  0.54156988497E+02  0.00000000000E+00 0. -1.
         -2   -1    0    0    0  501 -0.00000000000E+00 -0.00000000000E+00 -0.15278472658E+02  0.15278472658E+02  0.00000000000E+00 0.  1.
          1    1    1    2  502    0  0.99381695491E+01  0.23395293024E+02  0.31868438122E+01  0.25617629148E+02  0.00000000000E+00 0.  1.
         -1    1    1    2    0  501 -0.99381695491E+01 -0.23395293024E+02  0.35691672026E+02  0.43817832006E+02  0.00000000000E+00 0. -1.
</event>
<event>
 4    1  0.6740123E+001  0.4606699E+02  0.7546771E-02  0.1316189E+00
          2   -1    0    0  502    0  0.00000000000E+00  0.00000000000E+00  0.22933081651E+03  0.22933081651E+03  0.00000000000E+00 0. -1.
         -2   -1    0    0    0  501 -0.00000000000E+00 -0.00000000000E+00 -0.11637983214E+02  0.11637983214E+02  0.00000000000E+00 0.  1.
          1    1    1    2  502    0  0.14432347819E+02 -0.43747858787E+02  0.54312434896E+02  0.71218034208E+02  0.00000000000E+00 0.  1.
         -1    1    1    2    0  501 -0.14432347819E+02  0.43747858787E+02  0.16338039840E+03  0.16975076552E+03  0.00000000000E+00 0. -1.
</event>
<event>
 4    1  0.6740123E+001  0.2160219E+02  0.7546771E-02  0.1510838E+00
          2   -1    0    0  502    0  0.00000000000E+00  0.00000000000E+00  0.69485486729E+02  0.69485486729E+02  0.00000000000E+00 0. -1.
         -2   -1    0    0    0  501 -0.00000000000E+00 -0.00000000000E+00 -0.70731855122E+01  0.70731855122E+01  0.00000000000E+00 0.  1.
          1    1    1    2  502    0 -0.21198826089E+02 -0.41550595259E+01  0.22602369462E+02  0.31265345873E+02  0.00000000000E+00 0.  1.
         -1    1    1    2    0  501  0.21198826089E+02  0.41550595259E+01  0.39809931754E+02  0.45293326368E+02  0.00000000000E+00 0. -1.
</event>
<event>
 4    1  0.6740123E+001  0.2730134E+02  0.7546771E-02  0.1444604E+00
          2   -1    0    0  502    0  0.00000000000E+00  0.00000000000E+00  0.75657663200E+03  0.75657663200E+03  0.00000000000E+00 0.  1.
         -2   -1    0    0    0  501 -0.00000000000E+00 -0.00000000000E+00 -0.21792220071E+01  0.21792220071E+01  0.00000000000E+00 0. -1.
          1    1    1    2  502    0  0.12820278550E+02 -0.24104017547E+02  0.65802085196E+03  0.65858697590E+03  0.00000000000E+00 0.  1.
         -1    1    1    2    0  501 -0.12820278550E+02  0.24104017547E+02  0.96376558032E+02  0.10016887811E+03  0.00000000000E+00 0. -1.
</event>
<event>
 4    1  0.6740123E+001  0.2112031E+02  0.7546771E-02  0.1517554E+00
          2   -1    0    0  502    0  0.00000000000E+00  0.00000000000E+00  0.10426031924E+04  0.10426031924E+04  0.00000000000E+00 0.  1.
         -2   -1    0    0    0  501 -0.00000000000E+00 -0.00000000000E+00 -0.72964781657E+00  0.72964781657E+00  0.00000000000E+00 0. -1.
          1    1    1    2  502    0  0.95157252151E+01 -0.18855193671E+02  0.18542985655E+03  0.18662877338E+03  0.00000000000E+00 0. -1.
         -1    1    1    2    0  501 -0.95157252151E+01  0.18855193671E+02  0.85644368802E+03  0.85670406682E+03  0.00000000000E+00 0.  1.
</event>
<event>
 4    1  0.6740123E+001  0.3248722E+02  0.7546771E-02  0.1399145E+00
          2   -1    0    0  502    0  0.00000000000E+00  0.00000000000E+00  0.29474791261E+03  0.29474791261E+03  0.00000000000E+00 0.  1.
         -2   -1    0    0    0  501 -0.00000000000E+00 -0.00000000000E+00 -0.35920100644E+01  0.35920100644E+01  0.00000000000E+00 0. -1.
          1    1    1    2  502    0 -0.32461657785E+02 -0.12885960089E+01  0.13722750094E+03  0.14102058970E+03  0.00000000000E+00 0.  1.
         -1    1    1    2    0  501  0.32461657785E+02  0.12885960089E+01  0.15392840161E+03  0.15731933297E+03  0.00000000000E+00 0. -1.
</event>
<event>
 4    1  0.6740123E+001  0.2427381E+02  0.7546771E-02  0.1477094E+00
          2   -1    0    0  502    0  0.00000000000E+00  0.00000000000E+00  0.21229255132E+04  0.21229255132E+04  0.00000000000E+00 0. -1.
         -2   -1    0    0    0  501 -0.00000000000E+00 -0.00000000000E+00 -0.29035459554E+00  0.29035459554E+00  0.00000000000E+00 0.  1.
          1    1    1    2  502    0  0.15380092162E+02 -0.18779528766E+02  0.12842550453E+04  0.12844844255E+04  0.00000000000E+00 0. -1.
         -1    1    1    2    0  501 -0.15380092162E+02  0.18779528766E+02  0.83838011330E+03  0.83873144230E+03  0.00000000000E+00 0.  1.
</event>
<event>
 4    1  0.6740123E+001  0.2256716E+02  0.7546771E-02  0.1498006E+00
          2   -1    0    0  502    0  0.00000000000E+00  0.00000000000E+00  0.17425813417E+02  0.17425813417E+02  0.00000000000E+00 0. -1.
         -2   -1    0    0    0  501 -0.00000000000E+00 -0.00000000000E+00 -0.29418916134E+02  0.29418916134E+02  0.00000000000E+00 0.  1.
          1    1    1    2  502    0 -0.13630627111E+02  0.17985621114E+02 -0.78961569933E+01  0.23908698366E+02  0.00000000000E+00 0.  1.
         -1    1    1    2    0  501  0.13630627111E+02 -0.17985621114E+02 -0.40969457240E+01  0.22936031186E+02  0.00000000000E+00 0. -1.
</event>
<event>
 4    1  0.6740123E+001  0.2827826E+02  0.7546771E-02  0.1435174E+00
          2   -1    0    0  502    0  0.00000000000E+00  0.00000000000E+00  0.24345051673E+03  0.24345051673E+03  0.00000000000E+00 0.  1.
         -2   -1    0    0    0  501 -0.00000000000E+00 -0.00000000000E+00 -0.37502456771E+01  0.37502456771E+01  0.00000000000E+00 0. -1.
          1    1    1    2  502    0  0.90169801013E+01  0.26802124027E+02  0.76301437017E+02  0.81373024237E+02  0.00000000000E+00 0. -1.
         -1    1    1    2    0  501 -0.90169801013E+01 -0.26802124027E+02  0.16339883403E+03  0.16582773817E+03  0.00000000000E+00 0.  1.
</event>
<event>
 4    1  0.6740123E+001  0.2523532E+02  0.7546771E-02  0.1466188E+00
          2   -1    0    0  502    0  0.00000000000E+00  0.00000000000E+00  0.73358362594E+02  0.73358362594E+02  0.00000000000E+00 0.  1.
         -2   -1    0    0    0  501 -0.00000000000E+00 -0.00000000000E+00 -0.10647196156E+02  0.10647196156E+02  0.00000000000E+00 0. -1.
          1    1    1    2  502    0  0.23059654225E+02  0.10250546901E+02  0.49405604091E+02  0.55477338440E+02  0.00000000000E+00 0.  1.
         -1    1    1    2    0  501 -0.23059654225E+02 -0.10250546901E+02  0.13305562347E+02  0.28528220311E+02  0.00000000000E+00 0. -1.
</event>
<event>
 4    1  0.6740123E+001  0.3288988E+02  0.7546771E-02  0.1396037E+00
          2   -1    0    0  502    0  0.00000000000E+00  0.00000000000E+00  0.32694856379E+03  0.32694856379E+03  0.00000000000E+00 0.  1.
         -2   -1    0    0    0  501 -0.00000000000E+00 -0.00000000000E+00 -0.33086269864E+01  0.33086269864E+01  0.00000000000E+00 0. -1.
          1    1    1    2  502    0  0.19462873807E+02  0.26513034696E+02  0.16222085613E+03  0.16552145066E+03  0.00000000000E+00 0. -1.
         -1    1    1    2    0  501 -0.19462873807E+02 -0.26513034696E+02  0.16141908068E+03  0.16473574012E+03  0.00000000000E+00 0.  1.
</event>
<event>
 4    1  0.6740123E+001  0.3501556E+02  0.7546771E-02  0.1380454E+00
          2   -1    0    0  502    0  0.00000000000E+00  0.00000000000E+00  0.95355487371E+03  0.95355487371E+03  0.00000000000E+00 0. -1.
         -2   -1    0    0    0  501 -0.00000000000E+00 -0.00000000000E+00 -0.13153811814E+01  0.13153811814E+01  0.00000000000E+00 0.  1.
          1    1    1    2  502    0  0.11094147200E+02  0.33211583767E+02  0.40453334224E+03  0.40604595107E+03  0.00000000000E+00 0. -1.
         -1    1    1    2    0  501 -0.11094147200E+02 -0.33211583767E+02  0.54770615029E+03  0.54882430382E+03  0.00000000000E+00 0.  1.
</event>
<event>
 4    1  0.6740123E+001  0.3461852E+02  0.7546771E-02  0.1383265E+00
          2   -1    0    0  502    0  0.00000000000E+00  0.00000000000E+00  0.12428471943E+03  0.12428471943E+03  0.00000000000E+00 0.  1.
         -2   -1    0    0    0  501 -0.00000000000E+00 -0.00000000000E+00 -0.10273816793E+02  0.10273816793E+02  0.00000000000E+00 0. -1.
          1    1    1    2  502    0  0.19928073217E+02  0.28307492542E+02  0.73680409682E+02  0.81407892781E+02  0.00000000000E+00 0.  1.
         -1    1    1    2    0  501 -0.19928073217E+02 -0.28307492542E+02  0.40330492952E+02  0.53150643439E+02  0.00000000000E+00 0. -1.
</event>
<event>
 4    1  0.6740123E+001  0.3032285E+02  0.7546771E-02  0.1416811E+00
          2   -1    0    0  502    0  0.00000000000E+00  0.00000000000E+00  0.10911197817E+03  0.10911197817E+03  0.00000000000E+00 0.  1.
         -2   -1    0    0    0  501 -0.00000000000E+00 -0.00000000000E+00 -0.88616004754E+01  0.88616004754E+01  0.00000000000E+00 0. -1.
          1    1    1    2  502    0  0.17576238002E+02 -0.24709330745E+02  0.37060583375E+02  0.47884882879E+02  0.00000000000E+00 0. -1.
         -1    1    1    2    0  501 -0.17576238002E+02  0.24709330745E+02  0.63189794324E+02  0.70088695771E+02  0.00000000000E+00 0.  1.
</event>
<event>
 4    1  0.6740123E+001  0.2004307E+02  0.7546771E-02  0.1533378E+00
          2   -1    0    0  502    0  0.00000000000E+00  0.00000000000E+00  0.17804875617E+02  0.17804875617E+02  0.00000000000E+00 0.  1.
         -2   -1    0    0    0  501 -0.00000000000E+00 -0.00000000000E+00 -0.27095431098E+02  0.27095431098E+02  0.00000000000E+00 0. -1.
          1    1    1    2  502    0 -0.19151948907E+02 -0.59099660672E+01  0.45370870688E+01  0.20550182601E+02  0.00000000000E+00 0. -1.
         -1    1    1    2    0  501  0.19151948907E+02  0.59099660672E+01 -0.13827642550E+02  0.24350124114E+02  0.00000000000E+00 0.  1.
</event>
<event>
 4    1  0.6740123E+001  0.2213781E+02  0.7546771E-02  0.1503618E+00
          2   -1    0    0  502    0  0.00000000000E+00  0.00000000000E+00  0.91691869502E+03  0.91691869502E+03  0.00000000000E+00 0.  1.
         -2   -1    0    0    0  501 -0.00000000000E+00 -0.00000000000E+00 -0.13896227361E+01  0.13896227361E+01  0.00000000000E+00 0. -1.
          1    1    1    2  502    0  0.27864232063E+00  0.22136054027E+02  0.81795084870E+03  0.81825037331E+03  0.00000000000E+00 0.  1.
         -1    1    1    2    0  501 -0.27864232063E+00 -0.22136054027E+02  0.97578223582E+02  0.10005794445E+03  0.00000000000E+00 0. -1.
</event>
<event>
 4    1  0.6740123E+001  0.2114552E+02  0.7546771E-02  0.1517197E+00
          2   -1    0    0  502    0  0.00000000000E+00  0.00000000000E+00  0.10142284310E+04  0.10142284310E+04  0.00000000000E+00 0.  1.
         -2   -1    0    0    0  501 -0.00000000000E+00 -0.00000000000E+00 -0.16646717586E+01  0.16646717586E+01  0.00000000000E+00 0. -1.
          1    1    1    2  502    0  0.19275782153E+02  0.86935106859E+01  0.70758981833E+02  0.73850974372E+02  0.00000000000E+00 0. -1.
         -1    1    1    2    0  501 -0.19275782153E+02 -0.86935106859E+01  0.94180477743E+03  0.94204212841E+03  0.00000000000E+00 0.  1.
</event>
<event>
 4    1  0.6740123E+001  0.2125883E+02  0.7546771E-02  0.1515601E+00
          2   -1    0    0  502    0  0.00000000000E+00  0.00000000000E+00  0.18653377180E+04  0.18653377180E+04  0.00000000000E+00 0.  1.
         -2   -1    0    0    0  501 -0.00000000000E+00 -0.00000000000E+00 -0.30750435855E+00  0.30750435855E+00  0.00000000000E+00 0. -1.
          1    1    1    2  502    0  0.20337864734E+02 -0.61894340684E+01  0.13621222840E+04  0.13622881687E+04  0.00000000000E+00 0.  1.
         -1    1    1    2    0  501 -0.20337864734E+02  0.61894340684E+01  0.50290792955E+03  0.50335705363E+03  0.00000000000E+00 0. -1.
</event>
<event>
 4    1  0.6740123E+001  0.2873620E+02  0.7546771E-02  0.1430906E+00
          2   -1    0    0  502    0  0.00000000000E+00  0.00000000000E+00  0.24688182601E+02  0.24688182601E+02  0.00000000000E+00 0.  1.
         -2   -1    0    0    0  501 -0.00000000000E+00 -0.00000000000E+00 -0.33910100480E+02  0.33910100480E+02  0.00000000000E+00 0. -1.
          1    1    1    2  502    0 -0.19399762829E+02  0.21199486043E+02 -0.80314132335E+01  0.29837436298E+02  0.00000000000E+00 0. -1.
         -1    1    1    2    0  501  0.19399762829E+02 -0.21199486043E+02 -0.11905046462E+01  0.28760846782E+02  0.00000000000E+00 0.  1.
</event>
<event>
 4    1  0.6740123E+001  0.2063378E+02  0.7546771E-02  0.1524558E+00
          2   -1    0    0  502    0  0.00000000000E+00  0.00000000000E+00  0.22595737990E+04  0.22595737990E+04  0.00000000000E+00 0. -1.
         -2   -1    0    0    0  501 -0.00000000000E+00 -0.00000000000E+00 -0.19965911212E+00  0.19965911212E+00  0.00000000000E+00 0.  1.
          1    1    1    2  502    0  0.14209070364E+02  0.14961794670E+02  0.13977405246E+04  0.13978928167E+04  0.00000000000E+00 0.  1.
         -1    1    1    2    0  501 -0.14209070364E+02 -0.14961794670E+02  0.86163361532E+03  0.86188064140E+03  0.00000000000E+00 0. -1.
</event>
<event>
 4    1  0.6740123E+001  0.2103980E+02  0.7546771E-02  0.1518697E+00
          2   -1    0    0  502    0  0.00000000000E+00  0.00000000000E+00  0.36555386060E+03  0.36555386060E+03  0.00000000000E+00 0. -1.
         -2   -1    0    0    0  501 -0.00000000000E+00 -0.00000000000E+00 -0.12942926535E+01  0.12942926535E+01  0.00000000000E+00 0.  1.
          1    1    1    2  502    0  0.21036312425E+02  0.38314677947E+00  0.22867043533E+03  0.22963632386E+03  0.00000000000E+00 0. -1.
         -1    1    1    2    0  501 -0.21036312425E+02 -0.38314677947E+00  0.13558913262E+03  0.13721182940E+03  0.00000000000E+00 0.  1.
</event>
<event>
 4    1  0.6740123E+001  0.2010568E+02  0.7546771E-02  0.1532426E+00
          2   -1    0    0  502    0  0.00000000000E+00  0.00000000000E+00  0.15673592036E+04  0.15673592036E+04  0.00000000000E+00 0. -1.
         -2   -1    0    0    0  501 -0.00000000000E+00 -0.00000000000E+00 -0.26701724824E+00  0.26701724824E+00  0.00000000000E+00 0.  1.
          1    1    1    2  502    0  0.40906594284E+01 -0.19685138719E+02  0.92829916889E+03  0.92851687392E+03  0.00000000000E+00 0. -1.
         -1    1    1    2    0  501 -0.40906594284E+01  0.19685138719E+02  0.63879301744E+03  0.63910934691E+03  0.00000000000E+00 0.  1.
</event>
<event>
 4    1  0.6740123E+001  0.2076487E+02  0.7546771E-02  0.1522649E+00
          2   -1    0    0  502    0  0.00000000000E+00  0.00000000000E+00  0.18787287579E+01  0.18787287579E+01  0.00000000000E+00 0.  1.
         -2   -1    0    0    0  501 -0.00000000000E+00 -0.00000000000E+00 -0.23007811050E+03  0.23007811050E+03  0.00000000000E+00 0. -1.
          1    1    1    2  502    0 -0.20114608576E+02 -0.51558145993E+01 -0.11988201865E+03  0.12166707976E+03  0.00000000000E+00 0. -1.
         -1    1    1    2    0  501  0.20114608576E+02  0.51558145993E+01 -0.10831736310E+03  0.11028975950E+03  0.00000000000E+00 0.  1.
</event>
<event>
 4    1  0.6740123E+001  0.3160865E+02  0.7546771E-02  0.1406114E+00
          2   -1    0    0  502    0  0.00000000000E+00  0.00000000000E+00  0.12895085891E+02  0.12895085891E+02  0.00000000000E+00 0. -1.
         -2   -1    0    0    0  501 -0.00000000000E+00 -0.00000000000E+00 -0.78880253704E+02  0.78880253704E+02  0.00000000000E+00 0.  1.
          1    1    1    2  502    0 -0.17787036468E+02 -0.26129060373E+02 -0.26877916390E+02  0.41491310557E+02  0.00000000000E+00 0.  1.
         -1    1    1    2    0  501  0.17787036468E+02  0.26129060373E+02 -0.39107251424E+02  0.50284029037E+02  0.00000000000E+00 0. -1.
</event>
<event>
 4    1  0.6740123E+001  0.2062181E+02  0.7546771E-02  0.1524733E+00
          2   -1    0    0  502    0  0.00000000000E+00  0.00000000000E+00  0.21327726293E+03  0.21327726293E+03  0.00000000000E+00 0. -1.
         -2   -1    0    0    0  501 -0.00000000000E+00 -0.00000000000E+00 -0.21757022786E+01  0.21757022786E+01  0.00000000000E+00 0.  1.
          1    1    1    2  502    0 -0.19258873384E+02 -0.73725759871E+01  0.74412735075E+02  0.77217318149E+02  0.00000000000E+00 0.  1.
         -1    1    1    2    0  501  0.19258873384E+02  0.73725759871E+01  0.13668882558E+03  0.13823564706E+03  0.00000000000E+00 0. -1.
</event>
<event>
 4    1  0.6740123E+001  0.3116322E+02  0.7546771E-02  0.1409750E+00
          2   -1    0    0  502    0  0.00000000000E+00  0.00000000000E+00  0.15585179721E+03  0.15585179721E+03  0.00000000000E+00 0.  1.
         -2   -1    0    0    0  501 -0.00000000000E+00 -0.00000000000E+00 -0.93695133713E+01  0.93695133713E+01  0.00000000000E+00 0. -1.
          1    1    1    2  502    0  0.90682392408E+01 -0.29814650189E+02  0.12105178050E+03  0.12499871955E+03  0.00000000000E+00 0.  1.
         -1    1    1    2    0  501 -0.90682392408E+01  0.29814650189E+02  0.25430503346E+02  0.40222591031E+02  0.00000000000E+00 0. -1.
</event>
<event>
 4    1  0.6740123E+001  0.5508765E+02  0.7546771E-02  0.1277503E+00
          2   -1    0    0  502    0  0.00000000000E+00  0.00000000000E+00  0.30697551875E+03  0.30697551875E+03  0.00000000000E+00 0. -1.
         -2   -1    0    0    0  501 -0.00000000000E+00 -0.00000000000E+00 -0.11183287062E+02  0.11183287062E+02  0.00000000000E+00 0.  1.
          1    1    1    2  502    0 -0.68302390366E+00  0.55083415889E+02  0.93707552111E+02  0.10870029692E+03  0.00000000000E+00 0.  1.
         -1    1    1    2    0  501  0.68302390366E+00 -0.55083415889E+02  0.20208467957E+03  0.20945850889E+03  0.00000000000E+00 0. -1.
</event>
<event>
 4    1  0.6740123E+001  0.4616608E+02  0.7546771E-02  0.1315709E+00
          2   -1    0    0  502    0  0.00000000000E+00  0.00000000000E+00  0.89634757477E+02  0.89634757477E+02  0.00000000000E+00 0.  1.
         -2   -1    0    0    0  501 -0.00000000000E+00 -0.00000000000E+00 -0.24735441814E+02  0.24735441814E+02  0.00000000000E+00 0. -1.
          1    1    1    2  502    0 -0.41202664674E+02 -0.20824199270E+02  0.43702212169E+02  0.63570356299E+02  0.00000000000E+00 0.  1.
         -1    1    1    2    0  501  0.41202664674E+02  0.20824199270E+02  0.21197103494E+02  0.50799842992E+02  0.00000000000E+00 0. -1.
</event>
<event>
 4    1  0.6740123E+001  0.3463390E+02  0.7546771E-02  0.1383155E+00
          2   -1    0    0  502    0  0.00000000000E+00  0.00000000000E+00  0.77280518951E+02  0.77280518951E+02  0.00000000000E+00 0.  1.
         -2   -1    0    0    0  501 -0.00000000000E+00 -0.00000000000E+00 -0.33666132812E+02  0.33666132812E+02  0.00000000000E+00 0. -1.
          1    1    1    2  502    0 -0.28620870592E+02 -0.19502634531E+02  0.62532285732E+02  0.71482821335E+02  0.00000000000E+00 0.  1.
         -1    1    1    2    0  501  0.28620870592E+02  0.19502634531E+02 -0.18917899593E+02  0.39463830429E+02  0.00000000000E+00 0. -1.
</event>
<event>
 4    1  0.6740123E+001  0.2668462E+02  0.7546771E-02  0.1450802E+00
          2   -1    0    0  502    0  0.00000000000E+00  0.00000000000E+00  0.92163341310E+03  0.92163341310E+03  0.00000000000E+00 0.  1.
         -2   -1    0    0    0  501 -0.00000000000E+00 -0.00000000000E+00 -0.82427800736E+00  0.82427800736E+00  0.00000000000E+00 0. -1.
          1    1    1    2  502    0  0.21213362538E+02  0.16188329152E+02  0.34493564677E+03  0.34596628328E+03  0.00000000000E+00 0. -1.
         -1    1    1    2    0  501 -0.21213362538E+02 -0.16188329152E+02  0.57587348832E+03  0.57649140783E+03  0.00000000000E+00 0.  1.
</event>
<event>
 4    1  0.6740123E+001  0.2190201E+02  0.7546771E-02  0.1506766E+00
          2   -1    0    0  502    0  0.00000000000E+00  0.00000000000E+00  0.58543480024E+03  0.58543480024E+03  0.00000000000E+00 0.  1.
         -2   -1    0    0    0  501 -0.00000000000E+00 -0.00000000000E+00 -0.84417753592E+00  0.84417753592E+00  0.00000000000E+00 0. -1.
          1    1    1    2  502    0 -0.19671150294E+02  0.96303549164E+01  0.24206139693E+03  0.24305023714E+03  0.00000000000E+00 0. -1.
         -1    1    1    2    0  501  0.19671150294E+02 -0.96303549164E+01  0.34252922577E+03  0.34322874063E+03  0.00000000000E+00 0.  1.
</event>
<event>
 4    1  0.6740123E+001  0.3695143E+02  0.7546771E-02  0.1367340E+00
          2   -1    0    0  502    0  0.00000000000E+00  0.00000000000E+00  0.38129429739E+02  0.38129429739E+02  0.00000000000E+00 0.  1.
         -2   -1    0    0    0  501 -0.00000000000E+00 -0.00000000000E+00 -0.39179086248E+02  0.39179086248E+02  0.00000000000E+00 0. -1.
          1    1    1    2  502    0 -0.33156753421E+02  0.16310673990E+02  0.10810581757E+02  0.38500351444E+02  0.00000000000E+00 0.  1.
         -1    1    1    2    0  501  0.33156753421E+02 -0.16310673990E+02 -0.11860238267E+02  0.38808164543E+02  0.00000000000E+00 0. -1.
</event>
<event>
 4    1  0.6740123E+001  0.2495928E+02  0.7546771E-02  0.1469259E+00
          2   -1    0    0  502    0  0.00000000000E+00  0.00000000000E+00  0.14958843531E+03  0.14958843531E+03  0.00000000000E+00 0. -1.
         -2   -1    0    0    0  501 -0.00000000000E+00 -0.00000000000E+00 -0.41679689554E+01  0.41679689554E+01  0.00000000000E+00 0.  1.
          1    1    1    2  502    0  0.20421715098E+02  0.14349881681E+02  0.74918459427E+02  0.78966708902E+02  0.00000000000E+00 0. -1.
         -1    1    1    2    0  501 -0.20421715098E+02 -0.14349881681E+02  0.70502006927E+02  0.74789695363E+02  0.00000000000E+00 0.  1.
</event>
<event>
 4    1  0.6740123E+001  0.2063765E+02  0.7546771E-02  0.1524502E+00
          2   -1    0    0  502    0  0.00000000000E+00  0.00000000000E+00  0.12264438974E+01  0.12264438974E+01  0.00000000000E+00 0.  1.
         -2   -1    0    0    0  501 -0.00000000000E+00 -0.00000000000E+00 -0.37179213956E+03  0.37179213956E+03  0.00000000000E+00 0. -1.
          1    1    1    2  502    0  0.20487081544E+02 -0.24883855902E+01 -0.23317788920E+03  0.23408938589E+03  0.00000000000E+00 0. -1.
         -1    1    1    2    0  501 -0.20487081544E+02  0.24883855902E+01 -0.13738780646E+03  0.13892919757E+03  0.00000000000E+00 0.  1.
</event>
<event>
 4    1  0.6740123E+001  0.2624312E+02  0.7546771E-02  0.1455363E+00
          2   -1    0    0  502    0  0.00000000000E+00  0.00000000000E+00  0.38343396064E+02  0.38343396064E+02  0.00000000000E+00 0.  1.
         -2   -1    0    0    0  501 -0.00000000000E+00 -0.00000000000E+00 -0.18000607937E+02  0.18000607937E+02  0.00000000000E+00 0. -1.
          1    1    1    2  502    0 -0.20284789137E+02  0.16650191882E+02  0.11485985847E+02  0.28646630359E+02  0.00000000000E+00 0.  1.
         -1    1    1    2    0  501  0.20284789137E+02 -0.16650191882E+02  0.88568022805E+01  0.27697373642E+02  0.00000000000E+00 0. -1.
</event>
<event>
 4    1  0.6740123E+001  0.2690869E+02  0.7546771E-02  0.1448527E+00
          2   -1    0    0  502    0  0.00000000000E+00  0.00000000000E+00  0.14481381983E+04  0.14481381983E+04  0.00000000000E+00 0.  1.
         -2   -1    0    0    0  501 -0.00000000000E+00 -0.00000000000E+00 -0.96279300219E+00  0.96279300219E+00  0.00000000000E+00 0. -1.
          1    1    1    2  502    0  0.14258529476E+02  0.22820433517E+02  0.12259219087E+04  0.12262171929E+04  0.00000000000E+00 0.  1.
         -1    1    1    2    0  501 -0.14258529476E+02 -0.22820433517E+02  0.22125349659E+03  0.22288379842E+03  0.00000000000E+00 0. -1.
</event>
<event>
 4    1  0.6740123E+001  0.8087966E+02  0.7546771E-02  0.1201820E+00
          2   -1    0    0  502    0  0.00000000000E+00  0.00000000000E+00  0.49171183392E+02  0.49171183392E+02  0.00000000000E+00 0.  1.
         -2   -1    0    0    0  501 -0.00000000000E+00 -0.00000000000E+00 -0.13304021430E+03  0.13304021430E+03  0.00000000000E+00 0. -1.
          1    1    1    2  502    0  0.23152800397E+02  0.77494944639E+02 -0.42470202754E+02  0.91352267256E+02  0.00000000000E+00 0. -1.
         -1    1    1    2    0  501 -0.23152800397E+02 -0.77494944639E+02 -0.41398828150E+02  0.90859130433E+02  0.00000000000E+00 0.  1.
</event>
<event>
 4    1  0.6740123E+001  0.7654894E+02  0.7546771E-02  0.1212094E+00
          2   -1    0    0  502    0  0.00000000000E+00  0.00000000000E+00  0.24104676302E+03  0.24104676302E+03  0.00000000000E+00 0.  1.
         -2   -1    0    0    0  501 -0.00000000000E+00 -0.00000000000E+00 -0.24986507124E+02  0.24986507124E+02  0.00000000000E+00 0. -1.
          1    1    1    2  502    0 -0.64489526357E+02  0.41241247983E+02  0.12992448303E+03  0.15079824547E+03  0.00000000000E+00 0.  1.
         -1    1    1    2    0  501  0.64489526357E+02 -0.41241247983E+02  0.86135772857E+02  0.11523502467E+03  0.00000000000E+00 0. -1.
</event>
<event>
 4    1  0.6740123E+001  0.3275072E+02  0.7546771E-02  0.1397106E+00
          2   -1    0    0  502    0  0.00000000000E+00  0.00000000000E+00  0.85653116868E+03  0.85653116868E+03  0.00000000000E+00 0. -1.
         -2   -1    0    0    0  501 -0.00000000000E+00 -0.00000000000E+00 -0.17344749731E+01  0.17344749731E+01  0.00000000000E+00 0.  1.
          1    1    1    2  502    0 -0.20341100123E+01  0.32687488852E+02  0.20113046995E+03  0.20377947756E+03  0.00000000000E+00 0.  1.
         -1    1    1    2    0  501  0.20341100123E+01 -0.32687488852E+02  0.65366622376E+03  0.65448616610E+03  0.00000000000E+00 0. -1.
</event>
<event>
 4    1  0.6740123E+001  0.2132310E+02  0.7546771E-02  0.1514701E+00
          2   -1    0    0  502    0  0.00000000000E+00  0.00000000000E+00  0.11125033334E+03  0.11125033334E+03  0.00000000000E+00 0.  1.
         -2   -1    0    0    0  501 -0.00000000000E+00 -0.00000000000E+00 -0.95910038776E+01  0.95910038776E+01  0.00000000000E+00 0. -1.
          1    1    1    2  502    0 -0.10044036322E+01 -0.21299432800E+02  0.96601127431E+02  0.98926500420E+02  0.00000000000E+00 0.  1.
         -1    1    1    2    0  501  0.10044036322E+01  0.21299432800E+02  0.50582020358E+01  0.21914836803E+02  0.00000000000E+00 0. -1.
</event>
<event>
 4    1  0.6740123E+001  0.2058036E+02  0.7546771E-02  0.1525341E+00
          2   -1    0    0  502    0  0.00000000000E+00  0.00000000000E+00  0.29543262708E+01  0.29543262708E+01  0.00000000000E+00 0.  1.
         -2   -1    0    0    0  501 -0.00000000000E+00 -0.00000000000E+00 -0.22616330436E+03  0.22616330436E+03  0.00000000000E+00 0. -1.
          1    1    1    2  502    0 -0.50104159440E+01  0.19961135551E+02 -0.18091904149E+03  0.18208583354E+03  0.00000000000E+00 0. -1.
         -1    1    1    2    0  501  0.50104159440E+01 -0.19961135551E+02 -0.42289936591E+02  0.47031797088E+02  0.00000000000E+00 0.  1.
</event>
<event>
 4    1  0.6740123E+001  0.4112083E+02  0.7546771E-02  0.1342040E+00
          2   -1    0    0  502    0  0.00000000000E+00  0.00000000000E+00  0.26530037148E+03  0.26530037148E+03  0.00000000000E+00 0.  1.
         -2   -1    0    0    0  501 -0.00000000000E+00 -0.00000000000E+00 -0.30496320951E+02  0.30496320951E+02  0.00000000000E+00 0. -1.
          1    1    1    2  502    0  0.18134279050E+02 -0.36906243679E+02  0.24894043542E+03  0.25231381906E+03  0.00000000000E+00 0.  1.
         -1    1    1    2    0  501 -0.18134279050E+02  0.36906243679E+02 -0.14136384892E+02  0.43482873375E+02  0.00000000000E+00 0. -1.
</event>
<event>
 4    1  0.6740123E+001  0.2638758E+02  0.7546771E-02  0.1453859E+00
          2   -1    0    0  502    0  0.00000000000E+00  0.00000000000E+00  0.11380764883E+03  0.11380764883E+03  0.00000000000E+00 0. -1.
         -2   -1    0    0    0  501 -0.00000000000E+00 -0.00000000000E+00 -0.19349122713E+02  0.19349122713E+02  0.00000000000E+00 0.  1.
          1    1    1    2  502    0  0.24254545274E+02 -0.10393323451E+02 -0.78257406964E+01  0.27523560021E+02  0.00000000000E+00 0.  1.
         -1    1    1    2    0  501 -0.24254545274E+02  0.10393323451E+02  0.10228426681E+03  0.10563321152E+03  0.00000000000E+00 0. -1.
</event>
<event>
 4    1  0.6740123E+001  0.2401279E+02  0.7546771E-02  0.1480158E+00
          2   -1    0    0  502    0  0.00000000000E+00  0.00000000000E+00  0.25131920582E+04  0.25131920582E+04  0.00000000000E+00 0. -1.
         -2   -1    0    0    0  501 -0.00000000000E+00 -0.00000000000E+00 -0.27727941083E+00  0.27727941083E+00  0.00000000000E+00 0.  1.
          1    1    1    2  502    0  0.17542467597E+02  0.16397441559E+02  0.17784932282E+04  0.17786553283E+04  0.00000000000E+00 0.  1.
         -1    1    1    2    0  501 -0.17542467597E+02 -0.16397441559E+02  0.73442155054E+03  0.73481400923E+03  0.00000000000E+00 0. -1.
</event>
<event>
 4    1  0.6740123E+001  0.3841168E+02  0.7546771E-02  0.1358053E+00
          2   -1    0    0  502    0  0.00000000000E+00  0.00000000000E+00  0.36159385747E+03  0.36159385747E+03  0.00000000000E+00 0. -1.
         -2   -1    0    0    0  501 -0.00000000000E+00 -0.00000000000E+00 -0.49132997503E+01  0.49132997503E+01  0.00000000000E+00 0.  1.
          1    1    1    2  502    0 -0.37966943659E+02  0.58282580944E+01  0.25378956143E+03  0.25667995422E+03  0.00000000000E+00 0. -1.
         -1    1    1    2    0  501  0.37966943659E+02 -0.58282580944E+01  0.10289099629E+03  0.10982720301E+03  0.00000000000E+00 0.  1.
</event>
<event>
 4    1  0.6740123E+001  0.3587720E+02  0.7546771E-02  0.1374499E+00
          2   -1    0    0  502    0  0.00000000000E+00  0.00000000000E+00  0.39614748066E+03  0.39614748066E+03  0.00000000000E+00 0.  1.
         -2   -1    0    0    0  501 -0.00000000000E+00 -0.00000000000E+00 -0.40207569755E+01  0.40207569755E+01  0.00000000000E+00 0. -1.
          1    1    1    2  502    0 -0.24901576902E+02 -0.25827992977E+02  0.10841684981E+03  0.11419889262E+03  0.00000000000E+00 0. -1.
         -1    1    1    2    0  501  0.24901576902E+02  0.25827992977E+02  0.28370987388E+03  0.28596934502E+03  0.00000000000E+00 0.  1.
</event>
<event>
 4    1  0.6740123E+001  0.1186390E+03  0.7546771E-02  0.1134933E+00
          2   -1    0    0  502    0  0.00000000000E+00  0.00000000000E+00  0.42030884397E+03  0.42030884397E+03  0.00000000000E+00 0.  1.
         -2   -1    0    0    0  501 -0.00000000000E+00 -0.00000000000E+00 -0.95007647776E+02  0.95007647776E+02  0.00000000000E+00 0. -1.
          1    1    1    2  502    0  0.11152401595E+03  0.40467245227E+02 -0.44684348975E+02  0.12677497826E+03  0.00000000000E+00 0. -1.
         -1    1    1    2    0  501 -0.11152401595E+03 -0.40467245227E+02  0.36998554516E+03  0.38854151348E+03  0.00000000000E+00 0.  1.
</event>
<event>
 4    1  0.6740123E+001  0.2098626E+02  0.7546771E-02  0.1519461E+00
          2   -1    0    0  502    0  0.00000000000E+00  0.00000000000E+00  0.22961797661E+03  0.22961797661E+03  0.00000000000E+00 0. -1.
         -2   -1    0    0    0  501 -0.00000000000E+00 -0.00000000000E+00 -0.26800577672E+01  0.26800577672E+01  0.00000000000E+00 0.  1.
          1    1    1    2  502    0  0.13085728933E+02 -0.16406918551E+02  0.17540130859E+03  0.17665232049E+03  0.00000000000E+00 0. -1.
         -1    1    1    2    0  501 -0.13085728933E+02  0.16406918551E+02  0.51536610246E+02  0.55645713885E+02  0.00000000000E+00 0.  1.
</event>
<event>
 4    1  0.6740123E+001  0.2217289E+02  0.7546771E-02  0.1503154E+00
          2   -1    0    0  502    0  0.00000000000E+00  0.00000000000E+00  0.12470755113E+03  0.12470755113E+03  0.00000000000E+00 0. -1.
         -2   -1    0    0    0  501 -0.00000000000E+00 -0.00000000000E+00 -0.51746245767E+01  0.51746245767E+01  0.00000000000E+00 0.  1.
          1    1    1    2  502    0  0.37318811095E+01  0.21856583416E+02  0.28075238618E+02  0.35775077900E+02  0.00000000000E+00 0.  1.
         -1    1    1    2    0  501 -0.37318811095E+01 -0.21856583416E+02  0.91457687938E+02  0.94107097810E+02  0.00000000000E+00 0. -1.
</event>
<event>
 4    1  0.6740123E+001  0.2009794E+02  0.7546771E-02  0.1532544E+00
          2   -1    0    0  502    0  0.00000000000E+00  0.00000000000E+00  0.14357066904E+03  0.14357066904E+03  0.00000000000E+00 0. -1.
         -2   -1    0    0    0  501 -0.00000000000E+00 -0.00000000000E+00 -0.37340440798E+01  0.37340440798E+01  0.00000000000E+00 0.  1.
          1    1    1    2  502    0  0.20054808908E+02  0.13159774516E+01  0.33347561615E+02  0.38935678017E+02  0.00000000000E+00 0.  1.
         -1    1    1    2    0  501 -0.20054808908E+02 -0.13159774516E+01  0.10648906334E+03  0.10836903510E+03  0.00000000000E+00 0. -1.
</event>
<event>
 4    1  0.6740123E+001  0.4946695E+02  0.7546771E-02  0.1300500E+00
          2   -1    0    0  502    0  0.00000000000E+00  0.00000000000E+00  0.81294841843E+03  0.81294841843E+03  0.00000000000E+00 0.  1.
         -2   -1    0    0    0  501 -0.00000000000E+00 -0.00000000000E+00 -0.80165595956E+01  0.80165595956E+01  0.00000000000E+00 0. -1.
          1    1    1    2  502    0  0.49082260517E+02  0.61572050577E+01  0.78073981991E+02  0.92425787178E+02  0.00000000000E+00 0. -1.
         -1    1    1    2    0  501 -0.49082260517E+02 -0.61572050577E+01  0.72685787684E+03  0.72853919085E+03  0.00000000000E+00 0.  1.
</event>
<event>
 4    1  0.6740123E+001  0.3546094E+02  0.7546771E-02  0.1377351E+00
          2   -1    0    0  502    0  0.00000000000E+00  0.00000000000E+00  0.23784271441E+02  0.23784271441E+02  0.00000000000E+00 0.  1.
         -2   -1    0    0    0  501 -0.00000000000E+00 -0.00000000000E+00 -0.52892316152E+02  0.52892316152E+02  0.00000000000E+00 0. -1.
          1    1    1    2  502    0 -0.24186537045E+02  0.25932411712E+02 -0.15338451773E+02  0.38636079696E+02  0.00000000000E+00 0. -1.
         -1    1    1    2    0  501  0.24186537045E+02 -0.25932411712E+02 -0.13769592939E+02  0.38040507898E+02  0.00000000000E+00 0.  1.
</event>
<event>
 4    1  0.6740123E+001  0.3001491E+02  0.7546771E-02  0.1419467E+00
          2   -1    0    0  502    0  0.00000000000E+00  0.00000000000E+00  0.45310849349E+03  0.45310849349E+03  0.00000000000E+00 0.  1.
         -2   -1    0    0    0  501 -0.00000000000E+00 -0.00000000000E+00 -0.23335711623E+01  0.23335711623E+01  0.00000000000E+00 0. -1.
          1    1    1    2  502    0 -0.79126056716E+01  0.28953160760E+02  0.31298695590E+03  0.31442285129E+03  0.00000000000E+00 0.  1.
         -1    1    1    2    0  501  0.79126056716E+01 -0.28953160760E+02  0.13778796643E+03  0.14101921337E+03  0.00000000000E+00 0. -1.
</event>
<event>
 4    1  0.6740123E+001  0.2989164E+02  0.7546771E-02  0.1420541E+00
          2   -1    0    0  502    0  0.00000000000E+00  0.00000000000E+00  0.14725987107E+04  0.14725987107E+04  0.00000000000E+00 0.  1.
         -2   -1    0    0    0  501 -0.00000000000E+00 -0.00000000000E+00 -0.12937504364E+01  0.12937504364E+01  0.00000000000E+00 0. -1.
          1    1    1    2  502    0  0.29062867171E+02  0.69899665849E+01  0.12726679239E+04  0.12730189136E+04  0.00000000000E+00 0.  1.
         -1    1    1    2    0  501 -0.29062867171E+02 -0.69899665849E+01  0.19863703634E+03  0.20087354750E+03  0.00000000000E+00 0. -1.
</event>
<event>
 4    1  0.6740123E+001  0.2465467E+02  0.7546771E-02  0.1472704E+00
          2   -1    0    0  502    0  0.00000000000E+00  0.00000000000E+00  0.16549665828E+01  0.16549665828E+01  0.00000000000E+00 0.  1.
         -2   -1    0    0    0  501 -0.00000000000E+00 -0.00000000000E+00 -0.39144226703E+03  0.39144226703E+03  0.00000000000E+00 0. -1.
          1    1    1    2  502    0 -0.13656887806E+02  0.20526615510E+02 -0.14607161450E+03  0.14813766939E+03  0.00000000000E+00 0.  1.
         -1    1    1    2    0  501  0.13656887806E+02 -0.20526615510E+02 -0.24371568595E+03  0.24495956423E+03  0.00000000000E+00 0. -1.
</event>
<event>
 4    1  0.6740123E+001  0.2355751E+02  0.7546771E-02  0.1485614E+00
          2   -1    0    0  502    0  0.00000000000E+00  0.00000000000E+00  0.34731704361E+03  0.34731704361E+03  0.00000000000E+00 0.  1.
         -2   -1    0    0    0  501 -0.00000000000E+00 -0.00000000000E+00 -0.21009366258E+01  0.21009366258E+01  0.00000000000E+00 0. -1.
          1    1    1    2  502    0  0.21819354776E+01 -0.23456243859E+02  0.25810203276E+03  0.25917487443E+03  0.00000000000E+00 0.  1.
         -1    1    1    2    0  501 -0.21819354776E+01  0.23456243859E+02  0.87114074220E+02  0.90243105807E+02  0.00000000000E+00 0. -1.
</event>
<event>
 4    1  0.6740123E+001  0.2655691E+02  0.7546771E-02  0.1452110E+00
          2   -1    0    0  502    0  0.00000000000E+00  0.00000000000E+00  0.38351258264E+03  0.38351258264E+03  0.00000000000E+00 0. -1.
         -2   -1    0    0    0  501 -0.00000000000E+00 -0.00000000000E+00 -0.40663570369E+01  0.40663570369E+01  0.00000000000E+00 0.  1.
          1    1    1    2  502    0 -0.22260472727E+02 -0.14482434952E+02  0.46298099162E+02  0.53373996985E+02  0.00000000000E+00 0.  1.
         -1    1    1    2    0  501  0.22260472727E+02  0.14482434952E+02  0.33314812644E+03  0.33420494269E+03  0.00000000000E+00 0. -1.
</event>
<event>
 4    1  0.6740123E+001  0.2452879E+02  0.7546771E-02  0.1474144E+00
          2   -1    0    0  502    0  0.00000000000E+00  0.00000000000E+00  0.19002456384E+03  0.19002456384E+03  0.00000000000E+00 0. -1.
         -2   -1    0    0    0  501 -0.00000000000E+00 -0.00000000000E+00 -0.33044923855E+01  0.33044923855E+01  0.00000000000E+00 0.  1.
          1    1    1    2  502    0 -0.42331928935E+01  0.24160745653E+02  0.11313274301E+03  0.11576130223E+03  0.00000000000E+00 0. -1.
         -1    1    1    2    0  501  0.42331928935E+01 -0.24160745653E+02  0.73587328442E+02  0.77567753995E+02  0.00000000000E+00 0.  1.
</event>
<event>
 4    1  0.6740123E+001  0.2081383E+02  0.7546771E-02  0.1521940E+00
          2   -1    0    0  502    0  0.00000000000E+00  0.00000000000E+00  0.26973838319E+03  0.26973838319E+03  0.00000000000E+00 0. -1.
         -2   -1    0    0    0  501 -0.00000000000E+00 -0.00000000000E+00 -0.18285080868E+01  0.18285080868E+01  0.00000000000E+00 0.  1.
          1    1    1    2  502    0  0.17885872713E+02 -0.10644774782E+02  0.86594685619E+02  0.89060963673E+02  0.00000000000E+00 0.  1.
         -1    1    1    2    0  501 -0.17885872713E+02  0.10644774782E+02  0.18131518948E+03  0.18250592760E+03  0.00000000000E+00 0. -1.
</event>
<event>
 4    1  0.6740123E+001  0.3306533E+02  0.7546771E-02  0.1394700E+00
          2   -1    0    0  502    0  0.00000000000E+00  0.00000000000E+00  0.12343734708E+01  0.12343734708E+01  0.00000000000E+00 0. -1.
         -2   -1    0    0    0  501 -0.00000000000E+00 -0.00000000000E+00 -0.92556851378E+03  0.92556851378E+03  0.00000000000E+00 0.  1.
          1    1    1    2  502    0 -0.15365416382E+02  0.29278324798E+02 -0.36602177838E+03  0.36751225636E+03  0.00000000000E+00 0.  1.
         -1    1    1    2    0  501  0.15365416382E+02 -0.29278324798E+02 -0.55831236192E+03  0.55929063089E+03  0.00000000000E+00 0. -1.
</event>
<event>
 4    1  0.6740123E+001  0.2129700E+02  0.7546771E-02  0.1515066E+00
          2   -1    0    0  502    0  0.00000000000E+00  0.00000000000E+00  0.18567718219E+04  0.18567718219E+04  0.00000000000E+00 0. -1.
         -2   -1    0    0    0  501 -0.00000000000E+00 -0.00000000000E+00 -0.29253447575E+00  0.29253447575E+00  0.00000000000E+00 0.  1.
          1    1    1    2  502    0 -0.20700791681E+02  0.50039551367E+01  0.13053784040E+04  0.13055521207E+04  0.00000000000E+00 0. -1.
         -1    1    1    2    0  501  0.20700791681E+02 -0.50039551367E+01  0.55110088348E+03  0.55151223569E+03  0.00000000000E+00 0.  1.
</event>
<event>
 4    1  0.6740123E+001  0.5571632E+02  0.7546771E-02  0.1275125E+00
          2   -1    0    0  502    0  0.00000000000E+00  0.00000000000E+00  0.47563350239E+02  0.47563350239E+02  0.00000000000E+00 0. -1.
         -2   -1    0    0    0  501 -0.00000000000E+00 -0.00000000000E+00 -0.10191823977E+03  0.10191823977E+03  0.00000000000E+00 0.  1.
          1    1    1    2  502    0 -0.54729718264E+02 -0.10438669766E+02 -0.71998001644E+02  0.91038563963E+02  0.00000000000E+00 0.  1.
         -1    1    1    2    0  501  0.54729718264E+02  0.10438669766E+02  0.17643112116E+02  0.58443026042E+02  0.00000000000E+00 0. -1.
</event>
<event>
 4    1  0.6740123E+001  0.4562092E+02  0.7546771E-02  0.1318363E+00
          2   -1    0    0  502    0  0.00000000000E+00  0.00000000000E+00  0.20410941513E+02  0.20410941513E+02  0.00000000000E+00 0.  1.
         -2   -1    0    0    0  501 -0.00000000000E+00 -0.00000000000E+00 -0.10202198837E+03  0.10202198837E+03  0.00000000000E+00 0. -1.
          1    1    1    2  502    0 -0.15253017187E+02  0.42995506874E+02 -0.42210381256E+02  0.62152911681E+02  0.00000000000E+00 0.  1.
         -1    1    1    2    0  501  0.15253017187E+02 -0.42995506874E+02 -0.39400665600E+02  0.60280018202E+02  0.00000000000E+00 0. -1.
</event>
<event>
 4    1  0.6740123E+001  0.5567207E+02  0.7546771E-02  0.1275291E+00
          2   -1    0    0  502    0  0.00000000000E+00  0.00000000000E+00  0.12200582993E+02  0.12200582993E+02  0.00000000000E+00 0.  1.
         -2   -1    0    0    0  501 -0.00000000000E+00 -0.00000000000E+00 -0.30774209038E+03  0.30774209038E+03  0.00000000000E+00 0. -1.
          1    1    1    2  502    0 -0.37626655279E+02  0.41031861280E+02 -0.21459949805E+03  0.22170323270E+03  0.00000000000E+00 0. -1.
         -1    1    1    2    0  501  0.37626655279E+02 -0.41031861280E+02 -0.80942009338E+02  0.98239440671E+02  0.00000000000E+00 0.  1.
</event>
<event>
 4    1  0.6740123E+001  0.2528319E+02  0.7546771E-02  0.1465660E+00
          2   -1    0    0  502    0  0.00000000000E+00  0.00000000000E+00  0.30758455023E+03  0.30758455023E+03  0.00000000000E+00 0.  1.
         -2   -1    0    0    0  501 -0.00000000000E+00 -0.00000000000E+00 -0.20961960220E+01  0.20961960220E+01  0.00000000000E+00 0. -1.
          1    1    1    2  502    0  0.35086305497E+01 -0.25038554179E+02  0.16706836598E+03  0.16897064418E+03  0.00000000000E+00 0. -1.
         -1    1    1    2    0  501 -0.35086305497E+01  0.25038554179E+02  0.13841998822E+03  0.14071010206E+03  0.00000000000E+00 0.  1.
</event>
<event>
 4    1  0.6740123E+001  0.2119348E+02  0.7546771E-02  0.1516520E+00
          2   -1    0    0  502    0  0.00000000000E+00  0.00000000000E+00  0.15815313690E+02  0.15815313690E+02  0.00000000000E+00 0.  1.
         -2   -1    0    0    0  501 -0.00000000000E+00 -0.00000000000E+00 -0.48533644089E+02  0.48533644089E+02  0.00000000000E+00 0. -1.
          1    1    1    2  502    0  0.18139431838E+02  0.10960134139E+02 -0.37081819731E+02  0.42710945697E+02  0.00000000000E+00 0. -1.
         -1    1    1    2    0  501 -0.18139431838E+02 -0.10960134139E+02  0.43634893317E+01  0.21638012083E+02  0.00000000000E+00 0.  1.
</event>
<event>
 4    1  0.6740123E+001  0.4443778E+02  0.7546771E-02  0.1324275E+00
          2   -1    0    0  502    0  0.00000000000E+00  0.00000000000E+00  0.15044882617E+04  0.15044882617E+04  0.00000000000E+00 0. -1.
         -2   -1    0    0    0  501 -0.00000000000E+00 -0.00000000000E+00 -0.23420510630E+01  0.23420510630E+01  0.00000000000E+00 0.  1.
          1    1    1    2  502    0 -0.39089792201E+02  0.21135377096E+02  0.25155690332E+03  0.25545174031E+03  0.00000000000E+00 0.  1.
         -1    1    1    2    0  501  0.39089792201E+02 -0.21135377096E+02  0.12505893073E+04  0.12513785725E+04  0.00000000000E+00 0. -1.
</event>
<event>
 4    1  0.6740123E+001  0.2657831E+02  0.7546771E-02  0.1451891E+00
          2   -1    0    0  502    0  0.00000000000E+00  0.00000000000E+00  0.13220327542E+03  0.13220327542E+03  0.00000000000E+00 0. -1.
         -2   -1    0    0    0  501 -0.00000000000E+00 -0.00000000000E+00 -0.54726032894E+01  0.54726032894E+01  0.00000000000E+00 0.  1.
          1    1    1    2  502    0 -0.23584727020E+02 -0.12254276933E+02  0.52785631601E+02  0.59099319415E+02  0.00000000000E+00 0.  1.
         -1    1    1    2    0  501  0.23584727020E+02  0.12254276933E+02  0.73945040532E+02  0.78576559298E+02  0.00000000000E+00 0. -1.
</event>
<event>
 4    1  0.6740123E+001  0.3756950E+02  0.7546771E-02  0.1363349E+00
          2   -1    0    0  502    0  0.00000000000E+00  0.00000000000E+00  0.31541299749E+03  0.31541299749E+03  0.00000000000E+00 0. -1.
         -2   -1    0    0    0  501 -0.00000000000E+00 -0.00000000000E+00 -0.63084645230E+01  0.63084645230E+01  0.00000000000E+00 0.  1.
          1    1    1    2  502    0 -0.32217102082E+02  0.19326811541E+02  0.24127374201E+03  0.24418125623E+03  0.00000000000E+00 0. -1.
         -1    1    1    2    0  501  0.32217102082E+02 -0.19326811541E+02  0.67830790957E+02  0.77540205783E+02  0.00000000000E+00 0.  1.
</event>
<event>
 4    1  0.6740123E+001  0.2408392E+02  0.7546771E-02  0.1479318E+00
          2   -1    0    0  502    0  0.00000000000E+00  0.00000000000E+00  0.18495338249E+04  0.18495338249E+04  0.00000000000E+00 0.  1.
         -2   -1    0    0    0  501 -0.00000000000E+00 -0.00000000000E+00 -0.49499325571E+00  0.49499325571E+00  0.00000000000E+00 0. -1.
          1    1    1    2  502    0 -0.18024943468E+02  0.15972992537E+02  0.36457404654E+03  0.36536867748E+03  0.00000000000E+00 0. -1.
         -1    1    1    2    0  501  0.18024943468E+02 -0.15972992537E+02  0.14844647851E+04  0.14846601407E+04  0.00000000000E+00 0.  1.
</event>
<event>
 4    1  0.6740123E+001  0.2703328E+02  0.7546771E-02  0.1447274E+00
          2   -1    0    0  502    0  0.00000000000E+00  0.00000000000E+00  0.24932174270E+03  0.24932174270E+03  0.00000000000E+00 0. -1.
         -2   -1    0    0    0  501 -0.00000000000E+00 -0.00000000000E+00 -0.31980463037E+01  0.31980463037E+01  0.00000000000E+00 0.  1.
          1    1    1    2  502    0 -0.27027039065E+02 -0.58066368906E+00  0.15953715436E+03  0.16181131491E+03  0.00000000000E+00 0.  1.
         -1    1    1    2    0  501  0.27027039065E+02  0.58066368906E+00  0.86586542034E+02  0.90708474094E+02  0.00000000000E+00 0. -1.
</event>
<event>
 4    1  0.6740123E+001  0.2552282E+02  0.7546771E-02  0.1463039E+00
          2   -1    0    0  502    0  0.00000000000E+00  0.00000000000E+00  0.40239774310E+03  0.40239774310E+03  0.00000000000E+00 0. -1.
         -2   -1    0    0    0  501 -0.00000000000E+00 -0.00000000000E+00 -0.16402122160E+01  0.16402122160E+01  0.00000000000E+00 0.  1.
          1    1    1    2  502    0  0.25138839163E+02  0.44105853037E+01  0.17731425149E+03  0.17914172679E+03  0.00000000000E+00 0. -1.
         -1    1    1    2    0  501 -0.25138839163E+02 -0.44105853037E+01  0.22344327940E+03  0.22489622853E+03  0.00000000000E+00 0.  1.
</event>
<event>
 4    1  0.6740123E+001  0.4196489E+02  0.7546771E-02  0.1337341E+00
          2   -1    0    0  502    0  0.00000000000E+00  0.00000000000E+00  0.71558714913E+03  0.71558714913E+03  0.00000000000E+00 0. -1.
         -2   -1    0    0    0  501 -0.00000000000E+00 -0.00000000000E+00 -0.43560979611E+01  0.43560979611E+01  0.00000000000E+00 0.  1.
          1    1    1    2  502    0  0.41553681480E+02 -0.58603702272E+01  0.11818503190E+03  0.12541432992E+03  0.00000000000E+00 0.  1.
         -1    1    1    2    0  501 -0.41553681480E+02  0.58603702272E+01  0.59304601926E+03  0.59452891717E+03  0.00000000000E+00 0. -1.
</event>
<event>
 4    1  0.6740123E+001  0.2165229E+02  0.7546771E-02  0.1510152E+00
          2   -1    0    0  502    0  0.00000000000E+00  0.00000000000E+00  0.16974619228E+03  0.16974619228E+03  0.00000000000E+00 0. -1.
         -2   -1    0    0    0  501 -0.00000000000E+00 -0.00000000000E+00 -0.28713901489E+01  0.28713901489E+01  0.00000000000E+00 0.  1.
          1    1    1    2  502    0  0.16937485819E+02 -0.13488638179E+02  0.10029124841E+03  0.10260193123E+03  0.00000000000E+00 0. -1.
         -1    1    1    2    0  501 -0.16937485819E+02  0.13488638179E+02  0.66583553720E+02  0.70015651191E+02  0.00000000000E+00 0.  1.
</event>
<event>
 4    1  0.6740123E+001  0.5053836E+02  0.7546771E-02  0.1295855E+00
          2   -1    0    0  502    0  0.00000000000E+00  0.00000000000E+00  0.12204466892E+04  0.12204466892E+04  0.00000000000E+00 0. -1.
         -2   -1    0    0    0  501 -0.00000000000E+00 -0.00000000000E+00 -0.21415561250E+01  0.21415561250E+01  0.00000000000E+00 0.  1.
          1    1    1    2  502    0 -0.46144215336E+02 -0.20611573618E+02  0.70140805750E+03  0.70322641354E+03  0.00000000000E+00 0. -1.
         -1    1    1    2    0  501  0.46144215336E+02  0.20611573618E+02  0.51689707559E+03  0.51936183180E+03  0.00000000000E+00 0.  1.
</event>
<event>
 4    1  0.6740123E+001  0.2449546E+02  0.7546771E-02  0.1474527E+00
          2   -1    0    0  502    0  0.00000000000E+00  0.00000000000E+00  0.56721012864E+03  0.56721012864E+03  0.00000000000E+00 0.  1.
         -2   -1    0    0    0  501 -0.00000000000E+00 -0.00000000000E+00 -0.10950880319E+01  0.10950880319E+01  0.00000000000E+00 0. -1.
          1    1    1    2  502    0  0.24258469472E+02  0.33991548672E+01  0.23066423174E+03  0.23196123685E+03  0.00000000000E+00 0. -1.
         -1    1    1    2    0  501 -0.24258469472E+02 -0.33991548672E+01  0.33545080886E+03  0.33634397982E+03  0.00000000000E+00 0.  1.
</event>
<event>
 4    1  0.6740123E+001  0.2060396E+02  0.7546771E-02  0.1524995E+00
          2   -1    0    0  502    0  0.00000000000E+00  0.00000000000E+00  0.30859410476E+03  0.30859410476E+03  0.00000000000E+00 0. -1.
         -2   -1    0    0    0  501 -0.00000000000E+00 -0.00000000000E+00 -0.13895261789E+01  0.13895261789E+01  0.00000000000E+00 0.  1.
          1    1    1    2  502    0  0.94851848100E+01  0.18290824737E+02  0.13812374087E+03  0.13965203469E+03  0.00000000000E+00 0.  1.
         -1    1    1    2    0  501 -0.94851848100E+01 -0.18290824737E+02  0.16908083771E+03  0.17033159625E+03  0.00000000000E+00 0. -1.
</event>
<event>
 4    1  0.6740123E+001  0.5480113E+02  0.7546771E-02  0.1278599E+00
          2   -1    0    0  502    0  0.00000000000E+00  0.00000000000E+00  0.73793754096E+03  0.73793754096E+03  0.00000000000E+00 0.  1.
         -2   -1    0    0    0  501 -0.00000000000E+00 -0.00000000000E+00 -0.41667414798E+01  0.41667414798E+01  0.00000000000E+00 0. -1.
          1    1    1    2  502    0 -0.32773267851E+02 -0.43921262189E+02  0.31025153920E+03  0.31505425237E+03  0.00000000000E+00 0. -1.
         -1    1    1    2    0  501  0.32773267851E+02  0.43921262189E+02  0.42351926028E+03  0.42705003007E+03  0.00000000000E+00 0.  1.
</event>
<event>
 4    1  0.6740123E+001  0.2533841E+02  0.7546771E-02  0.1465053E+00
          2   -1    0    0  502    0  0.00000000000E+00  0.00000000000E+00  0.17342408146E+02  0.17342408146E+02  0.00000000000E+00 0.  1.
         -2   -1    0    0    0  501 -0.00000000000E+00 -0.00000000000E+00 -0.37246147853E+02  0.37246147853E+02  0.00000000000E+00 0. -1.
          1    1    1    2  502    0 -0.90029791415E+01  0.23685042811E+02 -0.12073531598E+02  0.28067865107E+02  0.00000000000E+00 0.  1.
         -1    1    1    2    0  501  0.90029791415E+01 -0.23685042811E+02 -0.78302081094E+01  0.26520690893E+02  0.00000000000E+00 0. -1.
</event>
<event>
 4    1  0.6740123E+001  0.2109996E+02  0.7546771E-02  0.1517842E+00
          2   -1    0    0  502    0  0.00000000000E+00  0.00000000000E+00  0.84608386915E+03  0.84608386915E+03  0.00000000000E+00 0. -1.
         -2   -1    0    0    0  501 -0.00000000000E+00 -0.00000000000E+00 -0.66759759041E+00  0.66759759041E+00  0.00000000000E+00 0.  1.
          1    1    1    2  502    0 -0.34330289027E+01 -0.20818808387E+02  0.22786229024E+03  0.22883712938E+03  0.00000000000E+00 0.  1.
         -1    1    1    2    0  501  0.34330289027E+01  0.20818808387E+02  0.61755398132E+03  0.61791433735E+03  0.00000000000E+00 0. -1.
</event>
<event>
 4    1  0.6740123E+001  0.5285540E+02  0.7546771E-02  0.1286245E+00
          2   -1    0    0  502    0  0.00000000000E+00  0.00000000000E+00  0.11464711144E+04  0.11464711144E+04  0.00000000000E+00 0.  1.
         -2   -1    0    0    0  501 -0.00000000000E+00 -0.00000000000E+00 -0.42396258905E+01  0.42396258905E+01  0.00000000000E+00 0. -1.
          1    1    1    2  502    0  0.21459271802E+02 -0.48303140048E+02  0.94630651467E+03  0.94778146921E+03  0.00000000000E+00 0.  1.
         -1    1    1    2    0  501 -0.21459271802E+02  0.48303140048E+02  0.19592497387E+03  0.20292927110E+03  0.00000000000E+00 0. -1.
</event>
<event>
 4    1  0.6740123E+001  0.2763099E+02  0.7546771E-02  0.1441371E+00
          2   -1    0    0  502    0  0.00000000000E+00  0.00000000000E+00  0.13807712747E+04  0.13807712747E+04  0.00000000000E+00 0.  1.
         -2   -1    0    0    0  501 -0.00000000000E+00 -0.00000000000E+00 -0.79108346640E+00  0.79108346640E+00  0.00000000000E+00 0. -1.
          1    1    1    2  502    0  0.44496247091E+01 -0.27270360279E+02  0.31097494113E+03  0.31220007322E+03  0.00000000000E+00 0. -1.
         -1    1    1    2    0  501 -0.44496247091E+01  0.27270360279E+02  0.10690052501E+04  0.10693622850E+04  0.00000000000E+00 0.  1.
</event>
<event>
 4    1  0.6740123E+001  0.4859476E+02  0.7546771E-02  0.1304383E+00
          2   -1    0    0  502    0  0.00000000000E+00  0.00000000000E+00  0.62398794264E+03  0.62398794264E+03  0.00000000000E+00 0. -1.
         -2   -1    0    0    0  501 -0.00000000000E+00 -0.00000000000E+00 -0.38783535866E+01  0.38783535866E+01  0.00000000000E+00 0.  1.
          1    1    1    2  502    0 -0.35240378247E+02  0.33459928101E+02  0.26120586883E+03  0.26568770570E+03  0.00000000000E+00 0. -1.
         -1    1    1    2    0  501  0.35240378247E+02 -0.33459928101E+02  0.35890372022E+03  0.36217859053E+03  0.00000000000E+00 0.  1.
</event>
<event>
 4    1  0.6740123E+001  0.8969869E+02  0.7546771E-02  0.1182965E+00
          2   -1    0    0  502    0  0.00000000000E+00  0.00000000000E+00  0.11840047039E+04  0.11840047039E+04  0.00000000000E+00 0.  1.
         -2   -1    0    0    0  501 -0.00000000000E+00 -0.00000000000E+00 -0.17759884131E+02  0.17759884131E+02  0.00000000000E+00 0. -1.
          1    1    1    2  502    0 -0.72130146548E+02  0.53320703121E+02  0.11099167174E+03  0.14270601465E+03  0.00000000000E+00 0. -1.
         -1    1    1    2    0  501  0.72130146548E+02 -0.53320703121E+02  0.10552531481E+04  0.10590585734E+04  0.00000000000E+00 0.  1.
</event>
<event>
 4    1  0.6740123E+001  0.5473673E+02  0.7546771E-02  0.1278846E+00
          2   -1    0    0  502    0  0.00000000000E+00  0.00000000000E+00  0.45664002552E+03  0.45664002552E+03  0.00000000000E+00 0.  1.
         -2   -1    0    0    0  501 -0.00000000000E+00 -0.00000000000E+00 -0.17455277993E+02  0.17455277993E+02  0.00000000000E+00 0. -1.
          1    1    1    2  502    0  0.39440913353E+02  0.37954234690E+02  0.32322731926E+02  0.63567826580E+02  0.00000000000E+00 0. -1.
         -1    1    1    2    0  501 -0.39440913353E+02 -0.37954234690E+02  0.40686201560E+03  0.41052747693E+03  0.00000000000E+00 0.  1.
</event>
<event>
 4    1  0.6740123E+001  0.2022397E+02  0.7546771E-02  0.1530639E+00
          2   -1    0    0  502    0  0.00000000000E+00  0.00000000000E+00  0.48431773722E+01  0.48431773722E+01  0.00000000000E+00 0. -1.
         -2   -1    0    0    0  501 -0.00000000000E+00 -0.00000000000E+00 -0.48912480991E+03  0.48912480991E+03  0.00000000000E+00 0.  1.
          1    1    1    2  502    0  0.56779587724E+01 -0.19410558684E+02 -0.46679357287E+03  0.46723147227E+03  0.00000000000E+00 0.  1.
         -1    1    1    2    0  501 -0.56779587724E+01  0.19410558684E+02 -0.17488059670E+02  0.26736515018E+02  0.00000000000E+00 0. -1.
</event>
<event>
 4    1  0.6740123E+001  0.2161735E+02  0.7546771E-02  0.1510630E+00
          2   -1    0    0  502    0  0.00000000000E+00  0.00000000000E+00  0.26712721807E+02  0.26712721807E+02  0.00000000000E+00 0.  1.
         -2   -1    0    0    0  501 -0.00000000000E+00 -0.00000000000E+00 -0.18050447398E+02  0.18050447398E+02  0.00000000000E+00 0. -1.
          1    1    1    2  502    0 -0.45298914442E+01  0.21137404289E+02  0.40110081042E+00  0.21621069780E+02  0.00000000000E+00 0. -1.
         -1    1    1    2    0  501  0.45298914442E+01 -0.21137404289E+02  0.82611735987E+01  0.23142099425E+02  0.00000000000E+00 0.  1.
</event>
<event>
 4    1  0.6740123E+001  0.2026120E+02  0.7546771E-02  0.1530080E+00
          2   -1    0    0  502    0  0.00000000000E+00  0.00000000000E+00  0.25264629345E+02  0.25264629345E+02  0.00000000000E+00 0. -1.
         -2   -1    0    0    0  501 -0.00000000000E+00 -0.00000000000E+00 -0.16250063464E+02  0.16250063464E+02  0.00000000000E+00 0.  1.
          1    1    1    2  502    0  0.17082058171E+02  0.10895842102E+02  0.47009644641E+01  0.20799402716E+02  0.00000000000E+00 0.  1.
         -1    1    1    2    0  501 -0.17082058171E+02 -0.10895842102E+02  0.43136014166E+01  0.20715290093E+02  0.00000000000E+00 0. -1.
</event>
<event>
 4    1  0.6740123E+001  0.2040683E+02  0.7546771E-02  0.1527905E+00
          2   -1    0    0  502    0  0.00000000000E+00  0.00000000000E+00  0.22429283355E+03  0.22429283355E+03  0.00000000000E+00 0.  1.
         -2   -1    0    0    0  501 -0.00000000000E+00 -0.00000000000E+00 -0.28337087995E+01  0.28337087995E+01  0.00000000000E+00 0. -1.
          1    1    1    2  502    0  0.84904820211E+01  0.18556682927E+02  0.17741257431E+03  0.17858236276E+03  0.00000000000E+00 0.  1.
         -1    1    1    2    0  501 -0.84904820211E+01 -0.18556682927E+02  0.44046550446E+02  0.48544179593E+02  0.00000000000E+00 0. -1.
</event>
<event>
 4    1  0.6740123E+001  0.2568242E+02  0.7546771E-02  0.1461312E+00
          2   -1    0    0  502    0  0.00000000000E+00  0.00000000000E+00  0.19501612507E+03  0.19501612507E+03  0.00000000000E+00 0. -1.
         -2   -1    0    0    0  501 -0.00000000000E+00 -0.00000000000E+00 -0.40058027534E+01  0.40058027534E+01  0.00000000000E+00 0.  1.
          1    1    1    2  502    0 -0.21294919029E+02  0.14356634219E+02  0.56242942630E+02  0.61829241611E+02  0.00000000000E+00 0.  1.
         -1    1    1    2    0  501  0.21294919029E+02 -0.14356634219E+02  0.13476737968E+03  0.13719268621E+03  0.00000000000E+00 0. -1.
</event>
<event>
 4    1  0.6740123E+001  0.2739317E+02  0.7546771E-02  0.1443698E+00
          2   -1    0    0  502    0  0.00000000000E+00  0.00000000000E+00  0.61716142228E+03  0.61716142228E+03  0.00000000000E+00 0.  1.
         -2   -1    0    0    0  501 -0.00000000000E+00 -0.00000000000E+00 -0.22853027689E+01  0.22853027689E+01  0.00000000000E+00 0. -1.
          1    1    1    2  502    0 -0.21602529309E+02  0.16843877774E+02  0.95563076596E+02  0.99411705042E+02  0.00000000000E+00 0. -1.
         -1    1    1    2    0  501  0.21602529309E+02 -0.16843877774E+02  0.51931304292E+03  0.52003502001E+03  0.00000000000E+00 0.  1.
</event>
<event>
 4    1  0.6740123E+001  0.6822871E+02  0.7546771E-02  0.1234176E+00
          2   -1    0    0  502    0  0.00000000000E+00  0.00000000000E+00  0.79503371074E+03  0.79503371074E+03  0.00000000000E+00 0. -1.
         -2   -1    0    0    0  501 -0.00000000000E+00 -0.00000000000E+00 -0.59910375037E+01  0.59910375037E+01  0.00000000000E+00 0.  1.
          1    1    1    2  502    0  0.62870389399E+02  0.26504181392E+02  0.45480805909E+03  0.45989730170E+03  0.00000000000E+00 0. -1.
         -1    1    1    2    0  501 -0.62870389399E+02 -0.26504181392E+02  0.33423461414E+03  0.34112744655E+03  0.00000000000E+00 0.  1.
</event>
<event>
 4    1  0.6740123E+001  0.2209541E+02  0.7546771E-02  0.1504181E+00
          2   -1    0    0  502    0  0.00000000000E+00  0.00000000000E+00  0.47113461807E+03  0.47113461807E+03  0.00000000000E+00 0.  1.
         -2   -1    0    0    0  501 -0.00000000000E+00 -0.00000000000E+00 -0.10988314060E+01  0.10988314060E+01  0.00000000000E+00 0. -1.
          1    1    1    2  502    0  0.44395546581E+01 -0.21644806502E+02  0.17866350738E+03  0.18002459878E+03  0.00000000000E+00 0. -1.
         -1    1    1    2    0  501 -0.44395546581E+01  0.21644806502E+02  0.29137227929E+03  0.29220885070E+03  0.00000000000E+00 0.  1.
</event>
<event>
 4    1  0.6740123E+001  0.2476852E+02  0.7546771E-02  0.1471410E+00
          2   -1    0    0  502    0  0.00000000000E+00  0.00000000000E+00  0.11200649256E+03  0.11200649256E+03  0.00000000000E+00 0. -1.
         -2   -1    0    0    0  501 -0.00000000000E+00 -0.00000000000E+00 -0.77515951809E+01  0.77515951809E+01  0.00000000000E+00 0.  1.
          1    1    1    2  502    0  0.24375282823E+02 -0.43960225971E+01  0.19692408682E+02  0.31642856809E+02  0.00000000000E+00 0.  1.
         -1    1    1    2    0  501 -0.24375282823E+02  0.43960225971E+01  0.84562488693E+02  0.88115230927E+02  0.00000000000E+00 0. -1.
</event>
<event>
 4    1  0.6740123E+001  0.3922963E+02  0.7546771E-02  0.1353060E+00
          2   -1    0    0  502    0  0.00000000000E+00  0.00000000000E+00  0.28697175163E+03  0.28697175163E+03  0.00000000000E+00 0.  1.
         -2   -1    0    0    0  501 -0.00000000000E+00 -0.00000000000E+00 -0.53711280305E+01  0.53711280305E+01  0.00000000000E+00 0. -1.
          1    1    1    2  502    0  0.19541487370E+02  0.34016083625E+02  0.13503442574E+03  0.14061742356E+03  0.00000000000E+00 0. -1.
         -1    1    1    2    0  501 -0.19541487370E+02 -0.34016083625E+02  0.14656619786E+03  0.15172545610E+03  0.00000000000E+00 0.  1.
</event>
<event>
 4    1  0.6740123E+001  0.4675782E+02  0.7546771E-02  0.1312876E+00
          2   -1    0    0  502    0  0.00000000000E+00  0.00000000000E+00  0.32833541942E+03  0.32833541942E+03  0.00000000000E+00 0. -1.
         -2   -1    0    0    0  501 -0.00000000000E+00 -0.00000000000E+00 -0.13597687240E+02  0.13597687240E+02  0.00000000000E+00 0.  1.
          1    1    1    2  502    0  0.18928676165E+02 -0.42755108132E+02  0.35237838763E+02  0.58549118981E+02  0.00000000000E+00 0.  1.
         -1    1    1    2    0  501 -0.18928676165E+02  0.42755108132E+02  0.27949989342E+03  0.28338398768E+03  0.00000000000E+00 0. -1.
</event>
<event>
 4    1  0.6740123E+001  0.4619167E+02  0.7546771E-02  0.1315586E+00
          2   -1    0    0  502    0  0.00000000000E+00  0.00000000000E+00  0.24478224702E+02  0.24478224702E+02  0.00000000000E+00 0. -1.
         -2   -1    0    0    0  501 -0.00000000000E+00 -0.00000000000E+00 -0.10172559572E+03  0.10172559572E+03  0.00000000000E+00 0.  1.
          1    1    1    2  502    0 -0.19241695243E+02  0.41993182038E+02 -0.62496371661E+02  0.77714005458E+02  0.00000000000E+00 0.  1.
         -1    1    1    2    0  501  0.19241695243E+02 -0.41993182038E+02 -0.14750999361E+02  0.48489814968E+02  0.00000000000E+00 0. -1.
</event>
<event>
 4    1  0.6740123E+001  0.2229332E+02  0.7546771E-02  0.1501568E+00
          2   -1    0    0  502    0  0.00000000000E+00  0.00000000000E+00  0.62923426559E+02  0.62923426559E+02  0.00000000000E+00 0.  1.
         -2   -1    0    0    0  501 -0.00000000000E+00 -0.00000000000E+00 -0.79064221645E+01  0.79064221645E+01  0.00000000000E+00 0. -1.
          1    1    1    2  502    0  0.21870139545E+02  0.43231091603E+01  0.26378054760E+02  0.34536850602E+02  0.00000000000E+00 0.  1.
         -1    1    1    2    0  501 -0.21870139545E+02 -0.43231091603E+01  0.28638949635E+02  0.36292998122E+02  0.00000000000E+00 0. -1.
</event>
<event>
 4    1  0.6740123E+001  0.2132648E+02  0.7546771E-02  0.1514654E+00
          2   -1    0    0  502    0  0.00000000000E+00  0.00000000000E+00  0.19041889000E+03  0.19041889000E+03  0.00000000000E+00 0.  1.
         -2   -1    0    0    0  501 -0.00000000000E+00 -0.00000000000E+00 -0.40409014237E+01  0.40409014237E+01  0.00000000000E+00 0. -1.
          1    1    1    2  502    0 -0.13034479234E+02 -0.16879605478E+02  0.31013928145E+02  0.37638842556E+02  0.00000000000E+00 0. -1.
         -1    1    1    2    0  501  0.13034479234E+02  0.16879605478E+02  0.15536406043E+03  0.15682094887E+03  0.00000000000E+00 0.  1.
</event>
<event>
 4    1  0.6740123E+001  0.2225402E+02  0.7546771E-02  0.1502084E+00
          2   -1    0    0  502    0  0.00000000000E+00  0.00000000000E+00  0.15819298527E+01  0.15819298527E+01  0.00000000000E+00 0. -1.
         -2   -1    0    0    0  501 -0.00000000000E+00 -0.00000000000E+00 -0.41326566940E+03  0.41326566940E+03  0.00000000000E+00 0.  1.
          1    1    1    2  502    0 -0.22169951865E+02 -0.19325776540E+01 -0.10370408827E+03  0.10606497795E+03  0.00000000000E+00 0. -1.
         -1    1    1    2    0  501  0.22169951865E+02  0.19325776540E+01 -0.30797965128E+03  0.30878262131E+03  0.00000000000E+00 0.  1.
</event>
<event>
 4    1  0.6740123E+001  0.2136165E+02  0.7546771E-02  0.1514164E+00
          2   -1    0    0  502    0  0.00000000000E+00  0.00000000000E+00  0.21589884558E+02  0.21589884558E+02  0.00000000000E+00 0.  1.
         -2   -1    0    0    0  501 -0.00000000000E+00 -0.00000000000E+00 -0.31076550349E+02  0.31076550349E+02  0.00000000000E+00 0. -1.
          1    1    1    2  502    0  0.19122234167E+02 -0.95215729717E+01 -0.19636819850E+02  0.29015941915E+02  0.00000000000E+00 0. -1.
         -1    1    1    2    0  501 -0.19122234167E+02  0.95215729717E+01  0.10150154059E+02  0.23650492992E+02  0.00000000000E+00 0.  1.
</event>
<event>
 4    1  0.6740123E+001  0.2547248E+02  0.7546771E-02  0.1463587E+00
          2   -1    0    0  502    0  0.00000000000E+00  0.00000000000E+00  0.31840793984E+03  0.31840793984E+03  0.00000000000E+00 0. -1.
         -2   -1    0    0    0  501 -0.00000000000E+00 -0.00000000000E+00 -0.20388462806E+01  0.20388462806E+01  0.00000000000E+00 0.  1.
          1    1    1    2  502    0 -0.22519990539E+02 -0.11903655767E+02  0.15452941302E+03  0.15661477096E+03  0.00000000000E+00 0. -1.
         -1    1    1    2    0  501  0.22519990539E+02  0.11903655767E+02  0.16183968054E+03  0.16383201516E+03  0.00000000000E+00 0.  1.
</event>
<event>
 4    1  0.6740123E+001  0.3249105E+02  0.7546771E-02  0.1399115E+00
          2   -1    0    0  502    0  0.00000000000E+00  0.00000000000E+00  0.37400416462E+03  0.37400416462E+03  0.00000000000E+00 0. -1.
         -2   -1    0    0    0  501 -0.00000000000E+00 -0.00000000000E+00 -0.29855523826E+01  0.29855523826E+01  0.00000000000E+00 0.  1.
          1    1    1    2  502    0 -0.31731039380E+02 -0.69863575591E+01  0.14147373506E+03  0.14515676272E+03  0.00000000000E+00 0.  1.
         -1    1    1    2    0  501  0.31731039380E+02  0.69863575591E+01  0.22954487718E+03  0.23183295428E+03  0.00000000000E+00 0. -1.
</event>
<event>
 4    1  0.6740123E+001  0.2427255E+02  0.7546771E-02  0.1477108E+00
          2   -1    0    0  502    0  0.00000000000E+00  0.00000000000E+00  0.49964286584E+03  0.49964286584E+03  0.00000000000E+00 0. -1.
         -2   -1    0    0    0  501 -0.00000000000E+00 -0.00000000000E+00 -0.23820030672E+01  0.23820030672E+01  0.00000000000E+00 0.  1.
          1    1    1    2  502    0  0.20449412381E+02  0.13075858973E+02  0.42700354903E+03  0.42769286578E+03  0.00000000000E+00 0. -1.
         -1    1    1    2    0  501 -0.20449412381E+02 -0.13075858973E+02  0.70257313742E+02  0.74332003127E+02  0.00000000000E+00 0.  1.
</event>
<event>
 4    1  0.6740123E+001  0.2745929E+02  0.7546771E-02  0.1443048E+00
          2   -1    0    0  502    0  0.00000000000E+00  0.00000000000E+00  0.18250372750E+04  0.18250372750E+04  0.00000000000E+00 0.  1.
         -2   -1    0    0    0  501 -0.00000000000E+00 -0.00000000000E+00 -0.48545891888E+00  0.48545891888E+00  0.00000000000E+00 0. -1.
          1    1    1    2  502    0 -0.87136510620E+01  0.26040065242E+02  0.56000294901E+03  0.56067576692E+03  0.00000000000E+00 0.  1.
         -1    1    1    2    0  501  0.87136510620E+01 -0.26040065242E+02  0.12645488670E+04  0.12648469670E+04  0.00000000000E+00 0. -1.
</event>
<event>
 4    1  0.6740123E+001  0.2054215E+02  0.7546771E-02  0.1525903E+00
          2   -1    0    0  502    0  0.00000000000E+00  0.00000000000E+00  0.15705145463E+03  0.15705145463E+03  0.00000000000E+00 0. -1.
         -2   -1    0    0    0  501 -0.00000000000E+00 -0.00000000000E+00 -0.51608566377E+01  0.51608566377E+01  0.00000000000E+00 0.  1.
          1    1    1    2  502    0 -0.15308274854E+02 -0.13698047463E+02  0.19790102651E+02  0.28524164252E+02  0.00000000000E+00 0.  1.
         -1    1    1    2    0  501  0.15308274854E+02  0.13698047463E+02  0.13210049534E+03  0.13368814702E+03  0.00000000000E+00 0. -1.
</event>
<event>
 4    1  0.6740123E+001  0.2781807E+02  0.7546771E-02  0.1439559E+00
          2   -1    0    0  502    0  0.00000000000E+00  0.00000000000E+00  0.24580383696E+02  0.24580383696E+02  0.00000000000E+00 0.  1.
         -2   -1    0    0    0  501 -0.00000000000E+00 -0.00000000000E+00 -0.33098530875E+02  0.33098530875E+02  0.00000000000E+00 0. -1.
          1    1    1    2  502    0 -0.39959351394E+01  0.27529575419E+02  0.21139469558E+01  0.27898275792E+02  0.00000000000E+00 0.  1.
         -1    1    1    2    0  501  0.39959351394E+01 -0.27529575419E+02 -0.10632094135E+02  0.29780638779E+02  0.00000000000E+00 0. -1.
</event>
<event>
 4    1  0.6740123E+001  0.2449019E+02  0.7546771E-02  0.1474588E+00
          2   -1    0    0  502    0  0.00000000000E+00  0.00000000000E+00  0.46084810346E+01  0.46084810346E+01  0.00000000000E+00 0. -1.
         -2   -1    0    0    0  501 -0.00000000000E+00 -0.00000000000E+00 -0.14235431159E+03  0.14235431159E+03  0.00000000000E+00 0.  1.
          1    1    1    2  502    0 -0.12117124956E+02  0.21282499391E+02 -0.47352900523E+02  0.53311037182E+02  0.00000000000E+00 0. -1.
         -1    1    1    2    0  501  0.12117124956E+02 -0.21282499391E+02 -0.90392930030E+02  0.93651755439E+02  0.00000000000E+00 0.  1.
</event>
<event>
 4    1  0.6740123E+001  0.3138221E+02  0.7546771E-02  0.1407954E+00
          2   -1    0    0  502    0  0.00000000000E+00  0.00000000000E+00  0.28479318669E+02  0.28479318669E+02  0.00000000000E+00 0.  1.
         -2   -1    0    0    0  501 -0.00000000000E+00 -0.00000000000E+00 -0.37436335063E+02  0.37436335063E+02  0.00000000000E+00 0. -1.
          1    1    1    2  502    0 -0.26425447191E+02 -0.16927461341E+02 -0.13580590202E+02  0.34194672639E+02  0.00000000000E+00 0. -1.
         -1    1    1    2    0  501  0.26425447191E+02  0.16927461341E+02  0.46235738078E+01  0.31720981092E+02  0.00000000000E+00 0.  1.
</event>
<event>
 4    1  0.6740123E+001  0.2616390E+02  0.7546771E-02  0.1456193E+00
          2   -1    0    0  502    0  0.00000000000E+00  0.00000000000E+00  0.17271268537E+04  0.17271268537E+04  0.00000000000E+00 0. -1.
         -2   -1    0    0    0  501 -0.00000000000E+00 -0.00000000000E+00 -0.56956137847E+00  0.56956137847E+00  0.00000000000E+00 0.  1.
          1    1    1    2  502    0 -0.25549628299E+02 -0.56361475951E+01  0.38689894570E+03  0.38778259869E+03  0.00000000000E+00 0.  1.
         -1    1    1    2    0  501  0.25549628299E+02  0.56361475951E+01  0.13396583466E+04  0.13399138164E+04  0.00000000000E+00 0. -1.
</event>
<event>
 4    1  0.6740123E+001  0.2792614E+02  0.7546771E-02  0.1438520E+00
          2   -1    0    0  502    0  0.00000000000E+00  0.00000000000E+00  0.22149712135E+01  0.22149712135E+01  0.00000000000E+00 0. -1.
         -2   -1    0    0    0  501 -0.00000000000E+00 -0.00000000000E+00 -0.49094282570E+03  0.49094282570E+03  0.00000000000E+00 0.  1.
          1    1    1    2  502    0  0.44770065894E+01 -0.27564933764E+02 -0.11322916059E+03  0.11662209040E+03  0.00000000000E+00 0. -1.
         -1    1    1    2    0  501 -0.44770065894E+01  0.27564933764E+02 -0.37549869389E+03  0.37653570651E+03  0.00000000000E+00 0.  1.
</event>
<event>
 4    1  0.6740123E+001  0.2083757E+02  0.7546771E-02  0.1521597E+00
          2   -1    0    0  502    0  0.00000000000E+00  0.00000000000E+00  0.82546806736E+00  0.82546806736E+00  0.00000000000E+00 0. -1.
         -2   -1    0    0    0  501 -0.00000000000E+00 -0.00000000000E+00 -0.57379747343E+03  0.57379747343E+03  0.00000000000E+00 0.  1.
          1    1    1    2  502    0 -0.20783894455E+02  0.14946743199E+01 -0.36940068564E+03  0.36998793341E+03  0.00000000000E+00 0. -1.
         -1    1    1    2    0  501  0.20783894455E+02 -0.14946743199E+01 -0.20357131973E+03  0.20463500809E+03  0.00000000000E+00 0.  1.
</event>
<event>
 4    1  0.6740123E+001  0.2286867E+02  0.7546771E-02  0.1494154E+00
          2   -1    0    0  502    0  0.00000000000E+00  0.00000000000E+00  0.59810722692E+02  0.59810722692E+02  0.00000000000E+00 0.  1.
         -2   -1    0    0    0  501 -0.00000000000E+00 -0.00000000000E+00 -0.97958375690E+01  0.97958375690E+01  0.00000000000E+00 0. -1.
          1    1    1    2  502    0  0.64104416741E+00 -0.22859681226E+02  0.13602193408E+02  0.26608187253E+02  0.00000000000E+00 0. -1.
         -1    1    1    2    0  501 -0.64104416741E+00  0.22859681226E+02  0.36412691715E+02  0.42998373008E+02  0.00000000000E+00 0.  1.
</event>
<event>
 4    1  0.6740123E+001  0.2038471E+02  0.7546771E-02  0.1528234E+00
          2   -1    0    0  502    0  0.00000000000E+00  0.00000000000E+00  0.25160655150E+01  0.25160655150E+01  0.00000000000E+00 0.  1.
         -2   -1    0    0    0  501 -0.00000000000E+00 -0.00000000000E+00 -0.16583041153E+03  0.16583041153E+03  0.00000000000E+00 0. -1.
          1    1    1    2  502    0  0.19385629623E+02 -0.63034807866E+01 -0.76278511532E+02  0.78955353380E+02  0.00000000000E+00 0.  1.
         -1    1    1    2    0  501 -0.19385629623E+02  0.63034807866E+01 -0.87035834485E+02  0.89391123667E+02  0.00000000000E+00 0. -1.
</event>
<event>
 4    1  0.6740123E+001  0.2232926E+02  0.7546771E-02  0.1501097E+00
          2   -1    0    0  502    0  0.00000000000E+00  0.00000000000E+00  0.15757902707E+04  0.15757902707E+04  0.00000000000E+00 0. -1.
         -2   -1    0    0    0  501 -0.00000000000E+00 -0.00000000000E+00 -0.31744762569E+00  0.31744762569E+00  0.00000000000E+00 0.  1.
          1    1    1    2  502    0 -0.13264326613E+02  0.17962552989E+02  0.74267991984E+03  0.74301551734E+03  0.00000000000E+00 0.  1.
         -1    1    1    2    0  501  0.13264326613E+02 -0.17962552989E+02  0.83279290327E+03  0.83309220102E+03  0.00000000000E+00 0. -1.
</event>
<event>
 4    1  0.6740123E+001  0.2197937E+02  0.7546771E-02  0.1505728E+00
          2   -1    0    0  502    0  0.00000000000E+00  0.00000000000E+00  0.25079438438E+03  0.25079438438E+03  0.00000000000E+00 0.  1.
         -2   -1    0    0    0  501 -0.00000000000E+00 -0.00000000000E+00 -0.20027524500E+01  0.20027524500E+01  0.00000000000E+00 0. -1.
          1    1    1    2  502    0 -0.14899713885E+02 -0.16158314307E+02  0.99691821280E+02  0.10208600210E+03  0.00000000000E+00 0. -1.
         -1    1    1    2    0  501  0.14899713885E+02  0.16158314307E+02  0.14909981065E+03  0.15071113473E+03  0.00000000000E+00 0.  1.
</event>
<event>
 4    1  0.6740123E+001  0.2520668E+02  0.7546771E-02  0.1466504E+00
          2   -1    0    0  502    0  0.00000000000E+00  0.00000000000E+00  0.45778905449E+03  0.45778905449E+03  0.00000000000E+00 0. -1.
         -2   -1    0    0    0  501 -0.00000000000E+00 -0.00000000000E+00 -0.16824910728E+01  0.16824910728E+01  0.00000000000E+00 0.  1.
          1    1    1    2  502    0  0.24736691052E+02 -0.48448701573E+01  0.13192659753E+03  0.13431308122E+03  0.00000000000E+00 0.  1.
         -1    1    1    2    0  501 -0.24736691052E+02  0.48448701573E+01  0.32417996589E+03  0.32515846434E+03  0.00000000000E+00 0. -1.
</event>
<event>
 4    1  0.6740123E+001  0.3710409E+02  0.7546771E-02  0.1366346E+00
          2   -1    0    0  502    0  0.00000000000E+00  0.00000000000E+00  0.25767037126E+03  0.25767037126E+03  0.00000000000E+00 0. -1.
         -2   -1    0    0    0  501 -0.00000000000E+00 -0.00000000000E+00 -0.83235340370E+01  0.83235340370E+01  0.00000000000E+00 0.  1.
          1    1    1    2  502    0  0.23351120534E+02  0.28834673310E+02  0.20426009871E+03  0.20760274839E+03  0.00000000000E+00 0. -1.
         -1    1    1    2    0  501 -0.23351120534E+02 -0.28834673310E+02  0.45086738519E+02  0.58391156911E+02  0.00000000000E+00 0.  1.
</event>
<event>
 4    1  0.6740123E+001  0.3201944E+02  0.7546771E-02  0.1402823E+00
          2   -1    0    0  502    0  0.00000000000E+00  0.00000000000E+00  0.13434229274E+03  0.13434229274E+03  0.00000000000E+00 0. -1.
         -2   -1    0    0    0  501 -0.00000000000E+00 -0.00000000000E+00 -0.77546341516E+01  0.77546341516E+01  0.00000000000E+00 0.  1.
          1    1    1    2  502    0 -0.31020802541E+02 -0.79343631300E+01  0.54343943032E+02  0.63075418769E+02  0.00000000000E+00 0.  1.
         -1    1    1    2    0  501  0.31020802541E+02  0.79343631300E+01  0.72243715555E+02  0.79021508122E+02  0.00000000000E+00 0. -1.
</event>
<event>
 4    1  0.6740123E+001  0.4357627E+02  0.7546771E-02  0.1328714E+00
          2   -1    0    0  502    0  0.00000000000E+00  0.00000000000E+00  0.12640290252E+04  0.12640290252E+04  0.00000000000E+00 0. -1.
         -2   -1    0    0    0  501 -0.00000000000E+00 -0.00000000000E+00 -0.55053134352E+01  0.55053134352E+01  0.00000000000E+00 0.  1.
          1    1    1    2  502    0 -0.31051874224E+02 -0.30572409213E+02  0.11705387867E+04  0.11713496243E+04  0.00000000000E+00 0. -1.
         -1    1    1    2    0  501  0.31051874224E+02  0.30572409213E+02  0.87984925101E+02  0.98184714406E+02  0.00000000000E+00 0.  1.
</event>
<event>
 4    1  0.6740123E+001  0.2369754E+02  0.7546771E-02  0.1483920E+00
          2   -1    0    0  502    0  0.00000000000E+00  0.00000000000E+00  0.36441524740E+02  0.36441524740E+02  0.00000000000E+00 0. -1.
         -2   -1    0    0    0  501 -0.00000000000E+00 -0.00000000000E+00 -0.15998488927E+02  0.15998488927E+02  0.00000000000E+00 0.  1.
          1    1    1    2  502    0  0.23619661609E+02  0.19196109036E+01  0.51938449656E+01  0.24260035986E+02  0.00000000000E+00 0.  1.
         -1    1    1    2    0  501 -0.23619661609E+02 -0.19196109036E+01  0.15249190848E+02  0.28179977680E+02  0.00000000000E+00 0. -1.
</event>
<event>
 4    1  0.6740123E+001  0.2691097E+02  0.7546771E-02  0.1448504E+00
          2   -1    0    0  502    0  0.00000000000E+00  0.00000000000E+00  0.14424636683E+04  0.14424636683E+04  0.00000000000E+00 0. -1.
         -2   -1    0    0    0  501 -0.00000000000E+00 -0.00000000000E+00 -0.18021934426E+01  0.18021934426E+01  0.00000000000E+00 0.  1.
          1    1    1    2  502    0  0.24534963906E+02  0.11056042123E+02  0.10697739644E+03  0.11031030718E+03  0.00000000000E+00 0.  1.
         -1    1    1    2    0  501 -0.24534963906E+02 -0.11056042123E+02  0.13336840784E+04  0.13339555546E+04  0.00000000000E+00 0. -1.
</event>
<event>
 4    1  0.6740123E+001  0.2303260E+02  0.7546771E-02  0.1492089E+00
          2   -1    0    0  502    0  0.00000000000E+00  0.00000000000E+00  0.56391258780E+00  0.56391258780E+00  0.00000000000E+00 0. -1.
         -2   -1    0    0    0  501 -0.00000000000E+00 -0.00000000000E+00 -0.11176880012E+04  0.11176880012E+04  0.00000000000E+00 0.  1.
          1    1    1    2  502    0 -0.20425572827E+02  0.10644095007E+02 -0.78102611613E+03  0.78136566015E+03  0.00000000000E+00 0.  1.
         -1    1    1    2    0  501  0.20425572827E+02 -0.10644095007E+02 -0.33609797251E+03  0.33688625367E+03  0.00000000000E+00 0. -1.
</event>
<event>
 4    1  0.6740123E+001  0.2224109E+02  0.7546771E-02  0.1502254E+00
          2   -1    0    0  502    0  0.00000000000E+00  0.00000000000E+00  0.67080825815E+01  0.67080825815E+01  0.00000000000E+00 0. -1.
         -2   -1    0    0    0  501 -0.00000000000E+00 -0.00000000000E+00 -0.79061172519E+02  0.79061172519E+02  0.00000000000E+00 0.  1.
          1    1    1    2  502    0  0.14713796498E+02 -0.16678438764E+02 -0.47300262675E+02  0.52268355399E+02  0.00000000000E+00 0.  1.
         -1    1    1    2    0  501 -0.14713796498E+02  0.16678438764E+02 -0.25052827263E+02  0.33500899702E+02  0.00000000000E+00 0. -1.
</event>
<event>
 4    1  0.6740123E+001  0.3347188E+02  0.7546771E-02  0.1391637E+00
          2   -1    0    0  502    0  0.00000000000E+00  0.00000000000E+00  0.87678587938E+03  0.87678587938E+03  0.00000000000E+00 0. -1.
         -2   -1    0    0    0  501 -0.00000000000E+00 -0.00000000000E+00 -0.14215570108E+01  0.14215570108E+01  0.00000000000E+00 0.  1.
          1    1    1    2  502    0  0.28977393920E+02 -0.16753432927E+02  0.29805095980E+03  0.29992455970E+03  0.00000000000E+00 0. -1.
         -1    1    1    2    0  501 -0.28977393920E+02  0.16753432927E+02  0.57731336257E+03  0.57828287669E+03  0.00000000000E+00 0.  1.
</event>
<event>
 4    1  0.6740123E+001  0.6752049E+02  0.7546771E-02  0.1236220E+00
          2   -1    0    0  502    0  0.00000000000E+00  0.00000000000E+00  0.89222359329E+03  0.89222359329E+03  0.00000000000E+00 0.  1.
         -2   -1    0    0    0  501 -0.00000000000E+00 -0.00000000000E+00 -0.54005188044E+01  0.54005188044E+01  0.00000000000E+00 0. -1.
          1    1    1    2  502    0 -0.58118991798E+02  0.34368587771E+02  0.33926628222E+03  0.34591997237E+03  0.00000000000E+00 0. -1.
         -1    1    1    2    0  501  0.58118991798E+02 -0.34368587771E+02  0.54755679227E+03  0.55170413972E+03  0.00000000000E+00 0.  1.
</event>
<event>
 4    1  0.6740123E+001  0.3018457E+02  0.7546771E-02  0.1417999E+00
          2   -1    0    0  502    0  0.00000000000E+00  0.00000000000E+00  0.11809086634E+04  0.11809086634E+04  0.00000000000E+00 0.  1.
         -2   -1    0    0    0  501 -0.00000000000E+00 -0.00000000000E+00 -0.92916872774E+00  0.92916872774E+00  0.00000000000E+00 0. -1.
          1    1    1    2  502    0 -0.27443181480E+02  0.12569022912E+02  0.83338361280E+03  0.83393006579E+03  0.00000000000E+00 0. -1.
         -1    1    1    2    0  501  0.27443181480E+02 -0.12569022912E+02  0.34659588192E+03  0.34790776638E+03  0.00000000000E+00 0.  1.
</event>
<event>
 4    1  0.6740123E+001  0.2073367E+02  0.7546771E-02  0.1523102E+00
          2   -1    0    0  502    0  0.00000000000E+00  0.00000000000E+00  0.23658287075E+02  0.23658287075E+02  0.00000000000E+00 0. -1.
         -2   -1    0    0    0  501 -0.00000000000E+00 -0.00000000000E+00 -0.22601033924E+02  0.22601033924E+02  0.00000000000E+00 0.  1.
          1    1    1    2  502    0  0.19750750910E+02 -0.63081557820E+01 -0.97120539314E+01  0.22895610550E+02  0.00000000000E+00 0.  1.
         -1    1    1    2    0  501 -0.19750750910E+02  0.63081557820E+01  0.10769307082E+02  0.23363710448E+02  0.00000000000E+00 0. -1.
</event>
<event>
 4    1  0.6740123E+001  0.2653277E+02  0.7546771E-02  0.1452359E+00
          2   -1    0    0  502    0  0.00000000000E+00  0.00000000000E+00  0.22018322599E+04  0.22018322599E+04  0.00000000000E+00 0. -1.
         -2   -1    0    0    0  501 -0.00000000000E+00 -0.00000000000E+00 -0.59576444608E+00  0.59576444608E+00  0.00000000000E+00 0.  1.
          1    1    1    2  502    0  0.24292391558E+02  0.10670868533E+02  0.35103901631E+03  0.35204030833E+03  0.00000000000E+00 0.  1.
         -1    1    1    2    0  501 -0.24292391558E+02 -0.10670868533E+02  0.18501974792E+04  0.18503877160E+04  0.00000000000E+00 0. -1.
</event>
<event>
 4    1  0.6740123E+001  0.3864009E+02  0.7546771E-02  0.1356644E+00
          2   -1    0    0  502    0  0.00000000000E+00  0.00000000000E+00  0.92516325581E+03  0.92516325581E+03  0.00000000000E+00 0.  1.
         -2   -1    0    0    0  501 -0.00000000000E+00 -0.00000000000E+00 -0.16352439024E+01  0.16352439024E+01  0.00000000000E+00 0. -1.
          1    1    1    2  502    0 -0.37395157378E+02  0.97292763894E+01  0.51479229466E+03  0.51624041227E+03  0.00000000000E+00 0.  1.
         -1    1    1    2    0  501  0.37395157378E+02 -0.97292763894E+01  0.40873571724E+03  0.41055808744E+03  0.00000000000E+00 0. -1.
</event>
<event>
 4    1  0.6740123E+001  0.4443586E+02  0.7546771E-02  0.1324285E+00
          2   -1    0    0  502    0  0.00000000000E+00  0.00000000000E+00  0.91842601267E+01  0.91842601267E+01  0.00000000000E+00 0. -1.
         -2   -1    0    0    0  501 -0.00000000000E+00 -0.00000000000E+00 -0.22200491762E+03  0.22200491762E+03  0.00000000000E+00 0.  1.
          1    1    1    2  502    0 -0.43754482117E+02 -0.77518288139E+01 -0.12695480704E+03  0.13450676037E+03  0.00000000000E+00 0.  1.
         -1    1    1    2    0  501  0.43754482117E+02  0.77518288139E+01 -0.85865850455E+02  0.96682417376E+02  0.00000000000E+00 0. -1.
</event>
<event>
 4    1  0.6740123E+001  0.2022993E+02  0.7546771E-02  0.1530549E+00
          2   -1    0    0  502    0  0.00000000000E+00  0.00000000000E+00  0.19240491154E+02  0.19240491154E+02  0.00000000000E+00 0. -1.
         -2   -1    0    0    0  501 -0.00000000000E+00 -0.00000000000E+00 -0.23055009416E+02  0.23055009416E+02  0.00000000000E+00 0.  1.
          1    1    1    2  502    0  0.81712869716E+01 -0.18506222469E+02  0.39767109078E+01  0.20617090738E+02  0.00000000000E+00 0.  1.
         -1    1    1    2    0  501 -0.81712869716E+01  0.18506222469E+02 -0.77912291703E+01  0.21678409832E+02  0.00000000000E+00 0. -1.
</event>
<event>
 4    1  0.6740123E+001  0.3297521E+02  0.7546771E-02  0.1395385E+00
          2   -1    0    0  502    0  0.00000000000E+00  0.00000000000E+00  0.39836912782E+03  0.39836912782E+03  0.00000000000E+00 0. -1.
         -2   -1    0    0    0  501 -0.00000000000E+00 -0.00000000000E+00 -0.28238069883E+01  0.28238069883E+01  0.00000000000E+00 0.  1.
          1    1    1    2  502    0  0.10846189876E+02 -0.31140406390E+02  0.23442350587E+03  0.23673137698E+03  0.00000000000E+00 0.  1.
         -1    1    1    2    0  501 -0.10846189876E+02  0.31140406390E+02  0.16112181496E+03  0.16446155782E+03  0.00000000000E+00 0. -1.
</event>
<event>
 4    1  0.6740123E+001  0.2538567E+02  0.7546771E-02  0.1464535E+00
          2   -1    0    0  502    0  0.00000000000E+00  0.00000000000E+00  0.76632559014E+03  0.76632559014E+03  0.00000000000E+00 0. -1.
         -2   -1    0    0    0  501 -0.00000000000E+00 -0.00000000000E+00 -0.86371519938E+00  0.86371519938E+00  0.00000000000E+00 0.  1.
          1    1    1    2  502    0  0.48021091312E+01  0.24927334498E+02  0.32043810627E+03  0.32144208219E+03  0.00000000000E+00 0.  1.
         -1    1    1    2    0  501 -0.48021091312E+01 -0.24927334498E+02  0.44502376867E+03  0.44574722314E+03  0.00000000000E+00 0. -1.
</event>
<event>
 4    1  0.6740123E+001  0.2063993E+02  0.7546771E-02  0.1524468E+00
          2   -1    0    0  502    0  0.00000000000E+00  0.00000000000E+00  0.18885460519E+03  0.18885460519E+03  0.00000000000E+00 0.  1.
         -2   -1    0    0    0  501 -0.00000000000E+00 -0.00000000000E+00 -0.22572932108E+01  0.22572932108E+01  0.00000000000E+00 0. -1.
          1    1    1    2  502    0  0.86828614989E+01 -0.18724703043E+02  0.95806499060E+02  0.98004550150E+02  0.00000000000E+00 0.  1.
         -1    1    1    2    0  501 -0.86828614989E+01  0.18724703043E+02  0.90790812921E+02  0.93107348253E+02  0.00000000000E+00 0. -1.
</event>
<event>
 4    1  0.6740123E+001  0.2897205E+02  0.7546771E-02  0.1428745E+00
          2   -1    0    0  502    0  0.00000000000E+00  0.00000000000E+00  0.57776969576E+02  0.57776969576E+02  0.00000000000E+00 0. -1.
         -2   -1    0    0    0  501 -0.00000000000E+00 -0.00000000000E+00 -0.19872396092E+02  0.19872396092E+02  0.00000000000E+00 0.  1.
          1    1    1    2  502    0  0.26291253125E+02  0.12171671028E+02 -0.11819469488E+01  0.28996147418E+02  0.00000000000E+00 0. -1.
         -1    1    1    2    0  501 -0.26291253125E+02 -0.12171671028E+02  0.39086520433E+02  0.48653218250E+02  0.00000000000E+00 0.  1.
</event>
<event>
 4    1  0.6740123E+001  0.2378879E+02  0.7546771E-02  0.1482824E+00
          2   -1    0    0  502    0  0.00000000000E+00  0.00000000000E+00  0.13797577897E+04  0.13797577897E+04  0.00000000000E+00 0. -1.
         -2   -1    0    0    0  501 -0.00000000000E+00 -0.00000000000E+00 -0.54617878871E+00  0.54617878871E+00  0.00000000000E+00 0.  1.
          1    1    1    2  502    0  0.18256552285E+02  0.15251392431E+02  0.10340301821E+04  0.10343037872E+04  0.00000000000E+00 0. -1.
         -1    1    1    2    0  501 -0.18256552285E+02 -0.15251392431E+02  0.34518142883E+03  0.34600018133E+03  0.00000000000E+00 0.  1.
</event>
<event>
 4    1  0.6740123E+001  0.6221981E+02  0.7546771E-02  0.1252471E+00
          2   -1    0    0  502    0  0.00000000000E+00  0.00000000000E+00  0.93152908469E+03  0.93152908469E+03  0.00000000000E+00 0. -1.
         -2   -1    0    0    0  501 -0.00000000000E+00 -0.00000000000E+00 -0.44526407855E+01  0.44526407855E+01  0.00000000000E+00 0.  1.
          1    1    1    2  502    0  0.61307935707E+02 -0.10613272205E+02  0.58436032260E+03  0.58766341656E+03  0.00000000000E+00 0. -1.
         -1    1    1    2    0  501 -0.61307935707E+02  0.10613272205E+02  0.34271612130E+03  0.34831830892E+03  0.00000000000E+00 0.  1.
</event>
<event>
 4    1  0.6740123E+001  0.2102534E+02  0.7546771E-02  0.1518903E+00
          2   -1    0    0  502    0  0.00000000000E+00  0.00000000000E+00  0.98300878181E+00  0.98300878181E+00  0.00000000000E+00 0.  1.
         -2   -1    0    0    0  501 -0.00000000000E+00 -0.00000000000E+00 -0.53214967217E+03  0.53214967217E+03  0.00000000000E+00 0. -1.
          1    1    1    2  502    0  0.45662325436E+01 -0.20523508223E+02 -0.16066115719E+03  0.16203108436E+03  0.00000000000E+00 0. -1.
         -1    1    1    2    0  501 -0.45662325436E+01  0.20523508223E+02 -0.37050550621E+03  0.37110159660E+03  0.00000000000E+00 0.  1.
</event>
<event>
 4    1  0.6740123E+001  0.2531830E+02  0.7546771E-02  0.1465274E+00
          2   -1    0    0  502    0  0.00000000000E+00  0.00000000000E+00  0.30771042298E+03  0.30771042298E+03  0.00000000000E+00 0.  1.
         -2   -1    0    0    0  501 -0.00000000000E+00 -0.00000000000E+00 -0.26859363581E+01  0.26859363581E+01  0.00000000000E+00 0. -1.
          1    1    1    2  502    0 -0.12765440658E+02 -0.21864579762E+02  0.22603292386E+03  0.22744647500E+03  0.00000000000E+00 0.  1.
         -1    1    1    2    0  501  0.12765440658E+02  0.21864579762E+02  0.78991562763E+02  0.82949884334E+02  0.00000000000E+00 0. -1.
</event>
<event>
 4    1  0.6740123E+001  0.5331827E+02  0.7546771E-02  0.1284393E+00
          2   -1    0    0  502    0  0.00000000000E+00  0.00000000000E+00  0.10475957167E+04  0.10475957167E+04  0.00000000000E+00 0. -1.
         -2   -1    0    0    0  501 -0.00000000000E+00 -0.00000000000E+00 -0.27197237117E+01  0.27197237117E+01  0.00000000000E+00 0.  1.
          1    1    1    2  502    0  0.35785679746E+02 -0.39524965174E+02  0.54719743967E+03  0.54978893744E+03  0.00000000000E+00 0. -1.
         -1    1    1    2    0  501 -0.35785679746E+02  0.39524965174E+02  0.49767855330E+03  0.50052650295E+03  0.00000000000E+00 0.  1.
</event>
<event>
 4    1  0.6740123E+001  0.2338239E+02  0.7546771E-02  0.1487752E+00
          2   -1    0    0  502    0  0.00000000000E+00  0.00000000000E+00  0.75861583321E+02  0.75861583321E+02  0.00000000000E+00 0.  1.
         -2   -1    0    0    0  501 -0.00000000000E+00 -0.00000000000E+00 -0.80446811638E+01  0.80446811638E+01  0.00000000000E+00 0. -1.
          1    1    1    2  502    0 -0.21593169142E+02 -0.89705673536E+01  0.47446119610E+02  0.52894898603E+02  0.00000000000E+00 0.  1.
         -1    1    1    2    0  501  0.21593169142E+02  0.89705673536E+01  0.20370782547E+02  0.31011365881E+02  0.00000000000E+00 0. -1.
</event>
<event>
 4    1  0.6740123E+001  0.2386288E+02  0.7546771E-02  0.1481938E+00
          2   -1    0    0  502    0  0.00000000000E+00  0.00000000000E+00  0.22941091117E+04  0.22941091117E+04  0.00000000000E+00 0. -1.
         -2   -1    0    0    0  501 -0.00000000000E+00 -0.00000000000E+00 -0.27515995082E+00  0.27515995082E+00  0.00000000000E+00 0.  1.
          1    1    1    2  502    0 -0.23800454719E+02 -0.17248800340E+01  0.15058936405E+04  0.15060826980E+04  0.00000000000E+00 0. -1.
         -1    1    1    2    0  501  0.23800454719E+02  0.17248800340E+01  0.78794031121E+03  0.78830157356E+03  0.00000000000E+00 0.  1.
</event>
<event>
 4    1  0.6740123E+001  0.2001890E+02  0.7546771E-02  0.1533747E+00
          2   -1    0    0  502    0  0.00000000000E+00  0.00000000000E+00  0.36036569439E+01  0.36036569439E+01  0.00000000000E+00 0.  1.
         -2   -1    0    0    0  501 -0.00000000000E+00 -0.00000000000E+00 -0.11332943155E+03  0.11332943155E+03  0.00000000000E+00 0. -1.
          1    1    1    2  502    0  0.14850051078E+02  0.13425068422E+02 -0.46864135140E+02  0.50960804954E+02  0.00000000000E+00 0. -1.
         -1    1    1    2    0  501 -0.14850051078E+02 -0.13425068422E+02 -0.62861639468E+02  0.65972283542E+02  0.00000000000E+00 0.  1.
</event>
<event>
 4    1  0.6740123E+001  0.2411202E+02  0.7546771E-02  0.1478987E+00
          2   -1    0    0  502    0  0.00000000000E+00  0.00000000000E+00  0.11831350444E+01  0.11831350444E+01  0.00000000000E+00 0.  1.
         -2   -1    0    0    0  501 -0.00000000000E+00 -0.00000000000E+00 -0.56462125720E+03  0.56462125720E+03  0.00000000000E+00 0. -1.
          1    1    1    2  502    0  0.24111268201E+02 -0.19039410848E+00 -0.17984022872E+03  0.18144943475E+03  0.00000000000E+00 0.  1.
         -1    1    1    2    0  501 -0.24111268201E+02  0.19039410848E+00 -0.38359789343E+03  0.38435495750E+03  0.00000000000E+00 0. -1.
</event>
<event>
 4    1  0.6740123E+001  0.2175581E+02  0.7546771E-02  0.1508742E+00
          2   -1    0    0  502    0  0.00000000000E+00  0.00000000000E+00  0.38849931128E+02  0.38849931128E+02  0.00000000000E+00 0.  1.
         -2   -1    0    0    0  501 -0.00000000000E+00 -0.00000000000E+00 -0.15973135185E+02  0.15973135185E+02  0.00000000000E+00 0. -1.
          1    1    1    2  502    0  0.75124775230E+01  0.20417585428E+02 -0.19139041829E+01  0.21839829268E+02  0.00000000000E+00 0. -1.
         -1    1    1    2    0  501 -0.75124775230E+01 -0.20417585428E+02  0.24790700125E+02  0.32983237045E+02  0.00000000000E+00 0.  1.
</event>
<event>
 4    1  0.6740123E+001  0.2344414E+02  0.7546771E-02  0.1486995E+00
          2   -1    0    0  502    0  0.00000000000E+00  0.00000000000E+00  0.19575781696E+04  0.19575781696E+04  0.00000000000E+00 0.  1.
         -2   -1    0    0    0  501 -0.00000000000E+00 -0.00000000000E+00 -0.29651635168E+00  0.29651635168E+00  0.00000000000E+00 0. -1.
          1    1    1    2  502    0 -0.11720753516E+02  0.20303976516E+02  0.75304425181E+03  0.75340910049E+03  0.00000000000E+00 0.  1.
         -1    1    1    2    0  501  0.11720753516E+02 -0.20303976516E+02  0.12042374015E+04  0.12044655855E+04  0.00000000000E+00 0. -1.
</event>
<event>
 4    1  0.6740123E+001  0.5201433E+02  0.7546771E-02  0.1289667E+00
          2   -1    0    0  502    0  0.00000000000E+00  0.00000000000E+00  0.96582313242E+01  0.96582313242E+01  0.00000000000E+00 0. -1.
         -2   -1    0    0    0  501 -0.00000000000E+00 -0.00000000000E+00 -0.45274862378E+03  0.45274862378E+03  0.00000000000E+00 0.  1.
          1    1    1    2  502    0 -0.36919698002E+02  0.36639142000E+02 -0.36430915342E+03  0.36800360065E+03  0.00000000000E+00 0.  1.
         -1    1    1    2    0  501  0.36919698002E+02 -0.36639142000E+02 -0.78781239030E+02  0.94403254447E+02  0.00000000000E+00 0. -1.
</event>
<event>
 4    1  0.6740123E+001  0.2518657E+02  0.7546771E-02  0.1466727E+00
          2   -1    0    0  502    0  0.00000000000E+00  0.00000000000E+00  0.17469000033E+04  0.17469000033E+04  0.00000000000E+00 0.  1.
         -2   -1    0    0    0  501 -0.00000000000E+00 -0.00000000000E+00 -0.36566904492E+00  0.36566904492E+00  0.00000000000E+00 0. -1.
          1    1    1    2  502    0 -0.16861421352E+02  0.18709779470E+02  0.94597017791E+03  0.94630541628E+03  0.00000000000E+00 0. -1.
         -1    1    1    2    0  501  0.16861421352E+02 -0.18709779470E+02  0.80056415637E+03  0.80096025610E+03  0.00000000000E+00 0.  1.
</event>
<event>
 4    1  0.6740123E+001  0.2250612E+02  0.7546771E-02  0.1498795E+00
          2   -1    0    0  502    0  0.00000000000E+00  0.00000000000E+00  0.31345235030E+01  0.31345235030E+01  0.00000000000E+00 0. -1.
         -2   -1    0    0    0  501 -0.00000000000E+00 -0.00000000000E+00 -0.17541454881E+03  0.17541454881E+03  0.00000000000E+00 0.  1.
          1    1    1    2  502    0  0.81741012852E+01  0.20969248684E+02 -0.61082859962E+02  0.65097166630E+02  0.00000000000E+00 0. -1.
         -1    1    1    2    0  501 -0.81741012852E+01 -0.20969248684E+02 -0.11119716535E+03  0.11345190569E+03  0.00000000000E+00 0.  1.
</event>
<event>
 4    1  0.6740123E+001  0.2187379E+02  0.7546771E-02  0.1507146E+00
          2   -1    0    0  502    0  0.00000000000E+00  0.00000000000E+00  0.91776500238E+02  0.91776500238E+02  0.00000000000E+00 0. -1.
         -2   -1    0    0    0  501 -0.00000000000E+00 -0.00000000000E+00 -0.74530425039E+01  0.74530425039E+01  0.00000000000E+00 0.  1.
          1    1    1    2  502    0  0.20946940916E+02 -0.62998665037E+01  0.14963615471E+02  0.26502310082E+02  0.00000000000E+00 0.  1.
         -1    1    1    2    0  501 -0.20946940916E+02  0.62998665037E+01  0.69359842263E+02  0.72727232660E+02  0.00000000000E+00 0. -1.
</event>
<event>
 4    1  0.6740123E+001  0.2043672E+02  0.7546771E-02  0.1527461E+00
          2   -1    0    0  502    0  0.00000000000E+00  0.00000000000E+00  0.94425868775E+03  0.94425868775E+03  0.00000000000E+00 0. -1.
         -2   -1    0    0    0  501 -0.00000000000E+00 -0.00000000000E+00 -0.67506323298E+00  0.67506323298E+00  0.00000000000E+00 0.  1.
          1    1    1    2  502    0  0.15221937085E+02 -0.13636431873E+02  0.74921481710E+03  0.74949349684E+03  0.00000000000E+00 0. -1.
         -1    1    1    2    0  501 -0.15221937085E+02  0.13636431873E+02  0.19436880742E+03  0.19544025414E+03  0.00000000000E+00 0.  1.
</event>
<event>
 4    1  0.6740123E+001  0.2186897E+02  0.7546771E-02  0.1507211E+00
          2   -1    0    0  502    0  0.00000000000E+00  0.00000000000E+00  0.38280488681E+02  0.38280488681E+02  0.00000000000E+00 0.  1.
         -2   -1    0    0    0  501 -0.00000000000E+00 -0.00000000000E+00 -0.15378293737E+02  0.15378293737E+02  0.00000000000E+00 0. -1.
          1    1    1    2  502    0 -0.10623364798E+02 -0.19115335949E+02 -0.16939731102E+00  0.21869628336E+02  0.00000000000E+00 0. -1.
         -1    1    1    2    0  501  0.10623364798E+02  0.19115335949E+02  0.23071592255E+02  0.31789154082E+02  0.00000000000E+00 0.  1.
</event>
<event>
 4    1  0.6740123E+001  0.2529569E+02  0.7546771E-02  0.1465523E+00
          2   -1    0    0  502    0  0.00000000000E+00  0.00000000000E+00  0.66761160718E+02  0.66761160718E+02  0.00000000000E+00 0.  1.
         -2   -1    0    0    0  501 -0.00000000000E+00 -0.00000000000E+00 -0.15292686862E+02  0.15292686862E+02  0.00000000000E+00 0. -1.
          1    1    1    2  502    0 -0.14876981372E+02  0.20458424984E+02  0.66872959142E+00  0.25304523841E+02  0.00000000000E+00 0. -1.
         -1    1    1    2    0  501  0.14876981372E+02 -0.20458424984E+02  0.50799744264E+02  0.56749323739E+02  0.00000000000E+00 0.  1.
</event>
<event>
 4    1  0.6740123E+001  0.2183558E+02  0.7546771E-02  0.1507661E+00
          2   -1    0    0  502    0  0.00000000000E+00  0.00000000000E+00  0.62537927801E+02  0.62537927801E+02  0.00000000000E+00 0. -1.
         -2   -1    0    0    0  501 -0.00000000000E+00 -0.00000000000E+00 -0.81167366847E+01  0.81167366847E+01  0.00000000000E+00 0.  1.
          1    1    1    2  502    0  0.69375572404E+01  0.20704178820E+02  0.35914266792E+02  0.42031265508E+02  0.00000000000E+00 0.  1.
         -1    1    1    2    0  501 -0.69375572404E+01 -0.20704178820E+02  0.18506924324E+02  0.28623398977E+02  0.00000000000E+00 0. -1.
</event>
<event>
 4    1  0.6740123E+001  0.2198858E+02  0.7546771E-02  0.1505605E+00
          2   -1    0    0  502    0  0.00000000000E+00  0.00000000000E+00  0.91547007317E+00  0.91547007317E+00  0.00000000000E+00 0. -1.
         -2   -1    0    0    0  501 -0.00000000000E+00 -0.00000000000E+00 -0.53165993548E+03  0.53165993548E+03  0.00000000000E+00 0.  1.
          1    1    1    2  502    0 -0.84773363852E+01  0.20288725147E+02 -0.28703521277E+03  0.28787620771E+03  0.00000000000E+00 0.  1.
         -1    1    1    2    0  501  0.84773363852E+01 -0.20288725147E+02 -0.24370925264E+03  0.24469919784E+03  0.00000000000E+00 0. -1.
</event>
<event>
 4    1  0.6740123E+001  0.6925461E+02  0.7546771E-02  0.1231264E+00
          2   -1    0    0  502    0  0.00000000000E+00  0.00000000000E+00  0.77908932172E+03  0.77908932172E+03  0.00000000000E+00 0. -1.
         -2   -1    0    0    0  501 -0.00000000000E+00 -0.00000000000E+00 -0.77259396182E+01  0.77259396182E+01  0.00000000000E+00 0.  1.
          1    1    1    2  502    0  0.36015937094E+02 -0.59152797482E+02  0.56301323528E+03  0.56725664763E+03  0.00000000000E+00 0. -1.
         -1    1    1    2    0  501 -0.36015937094E+02  0.59152797482E+02  0.20835014682E+03  0.21955861371E+03  0.00000000000E+00 0.  1.
</event>
<event>
 4    1  0.6740123E+001  0.2590428E+02  0.7546771E-02  0.1458936E+00
          2   -1    0    0  502    0  0.00000000000E+00  0.00000000000E+00  0.74728949702E+02  0.74728949702E+02  0.00000000000E+00 0.  1.
         -2   -1    0    0    0  501 -0.00000000000E+00 -0.00000000000E+00 -0.10046670678E+02  0.10046670678E+02  0.00000000000E+00 0. -1.
          1    1    1    2  502    0  0.18503589804E+02  0.18128682821E+02  0.46155718572E+02  0.52928086432E+02  0.00000000000E+00 0.  1.
         -1    1    1    2    0  501 -0.18503589804E+02 -0.18128682821E+02  0.18526560452E+02  0.31847533949E+02  0.00000000000E+00 0. -1.
</event>
<event>
 4    1  0.6740123E+001  0.3560421E+02  0.7546771E-02  0.1376365E+00
          2   -1    0    0  502    0  0.00000000000E+00  0.00000000000E+00  0.17067069563E+02  0.17067069563E+02  0.00000000000E+00 0. -1.
         -2   -1    0    0    0  501 -0.00000000000E+00 -0.00000000000E+00 -0.74351298571E+02  0.74351298571E+02  0.00000000000E+00 0.  1.
          1    1    1    2  502    0 -0.36508117676E+01  0.35416536158E+02 -0.30104758345E+02  0.46625700370E+02  0.00000000000E+00 0. -1.
         -1    1    1    2    0  501  0.36508117676E+01 -0.35416536158E+02 -0.27179470662E+02  0.44792667764E+02  0.00000000000E+00 0.  1.
</event>
<event>
 4    1  0.6740123E+001  0.2312290E+02  0.7546771E-02  0.1490961E+00
          2   -1    0    0  502    0  0.00000000000E+00  0.00000000000E+00  0.40173787432E+01  0.40173787432E+01  0.00000000000E+00 0.  1.
         -2   -1    0    0    0  501 -0.00000000000E+00 -0.00000000000E+00 -0.13332873602E+03  0.13332873602E+03  0.00000000000E+00 0. -1.
          1    1    1    2  502    0  0.12099373620E+02  0.19704655462E+02 -0.67568630415E+02  0.71415601272E+02  0.00000000000E+00 0.  1.
         -1    1    1    2    0  501 -0.12099373620E+02 -0.19704655462E+02 -0.61742726866E+02  0.65930513495E+02  0.00000000000E+00 0. -1.
</event>
<event>
 4    1  0.6740123E+001  0.2101871E+02  0.7546771E-02  0.1518998E+00
          2   -1    0    0  502    0  0.00000000000E+00  0.00000000000E+00  0.77010095022E+02  0.77010095022E+02  0.00000000000E+00 0.  1.
         -2   -1    0    0    0  501 -0.00000000000E+00 -0.00000000000E+00 -0.14026067171E+02  0.14026067171E+02  0.00000000000E+00 0. -1.
          1    1    1    2  502    0  0.17060951286E+02  0.12276401451E+02  0.66484588845E+02  0.69727947376E+02  0.00000000000E+00 0.  1.
         -1    1    1    2    0  501 -0.17060951286E+02 -0.12276401451E+02 -0.35005609953E+01  0.21308214817E+02  0.00000000000E+00 0. -1.
</event>
<event>
 4    1  0.6740123E+001  0.2667931E+02  0.7546771E-02  0.1450856E+00
          2   -1    0    0  502    0  0.00000000000E+00  0.00000000000E+00  0.10395521174E+03  0.10395521174E+03  0.00000000000E+00 0.  1.
         -2   -1    0    0    0  501 -0.00000000000E+00 -0.00000000000E+00 -0.15357809335E+02  0.15357809335E+02  0.00000000000E+00 0. -1.
          1    1    1    2  502    0 -0.55021025970E+01 -0.26105796303E+02  0.88708372838E+02  0.92633477454E+02  0.00000000000E+00 0.  1.
         -1    1    1    2    0  501  0.55021025970E+01  0.26105796303E+02 -0.11097042914E+00  0.26679543625E+02  0.00000000000E+00 0. -1.
</event>
<event>
 4    1  0.6740123E+001  0.6083527E+02  0.7546771E-02  0.1257021E+00
          2   -1    0    0  502    0  0.00000000000E+00  0.00000000000E+00  0.28839666508E+03  0.28839666508E+03  0.00000000000E+00 0. -1.
         -2   -1    0    0    0  501 -0.00000000000E+00 -0.00000000000E+00 -0.13415358417E+02  0.13415358417E+02  0.00000000000E+00 0.  1.
          1    1    1    2  502    0 -0.12544691857E+02 -0.59527818483E+02  0.10604336315E+03  0.12225434689E+03  0.00000000000E+00 0.  1.
         -1    1    1    2    0  501  0.12544691857E+02  0.59527818483E+02  0.16893794352E+03  0.17955767661E+03  0.00000000000E+00 0. -1.
</event>
<event>
 4    1  0.6740123E+001  0.4377934E+02  0.7546771E-02  0.1327657E+00
          2   -1    0    0  502    0  0.00000000000E+00  0.00000000000E+00  0.22979584896E+04  0.22979584896E+04  0.00000000000E+00 0. -1.
         -2   -1    0    0    0  501 -0.00000000000E+00 -0.00000000000E+00 -0.14061638648E+01  0.14061638648E+01  0.00000000000E+00 0.  1.
          1    1    1    2  502    0 -0.28594751001E+02 -0.33150735462E+02  0.41494857243E+03  0.41725166124E+03  0.00000000000E+00 0.  1.
         -1    1    1    2    0  501  0.28594751001E+02  0.33150735462E+02  0.18816037533E+04  0.18821129922E+04  0.00000000000E+00 0. -1.
</event>
<event>
 4    1  0.6740123E+001  0.2214450E+02  0.7546771E-02  0.1503529E+00
          2   -1    0    0  502    0  0.00000000000E+00  0.00000000000E+00  0.12541441498E+04  0.12541441498E+04  0.00000000000E+00 0. -1.
         -2   -1    0    0    0  501 -0.00000000000E+00 -0.00000000000E+00 -0.59689975959E+00  0.59689975959E+00  0.00000000000E+00 0.  1.
          1    1    1    2  502    0 -0.16600895132E+02  0.14655684847E+02  0.25831034100E+03  0.25925780815E+03  0.00000000000E+00 0.  1.
         -1    1    1    2    0  501  0.16600895132E+02 -0.14655684847E+02  0.99523690904E+03  0.99548324142E+03  0.00000000000E+00 0. -1.
</event>
<event>
 4    1  0.6740123E+001  0.2097309E+02  0.7546771E-02  0.1519649E+00
          2   -1    0    0  502    0  0.00000000000E+00  0.00000000000E+00  0.29445102629E+02  0.29445102629E+02  0.00000000000E+00 0. -1.
         -2   -1    0    0    0  501 -0.00000000000E+00 -0.00000000000E+00 -0.20681946380E+02  0.20681946380E+02  0.00000000000E+00 0.  1.
          1    1    1    2  502    0 -0.19061175586E+02  0.87488400161E+01 -0.88260966799E+01  0.22754573144E+02  0.00000000000E+00 0.  1.
         -1    1    1    2    0  501  0.19061175586E+02 -0.87488400161E+01  0.17589252929E+02  0.27372475865E+02  0.00000000000E+00 0. -1.
</event>
<event>
 4    1  0.6740123E+001  0.2119856E+02  0.7546771E-02  0.1516449E+00
          2   -1    0    0  502    0  0.00000000000E+00  0.00000000000E+00  0.10824188093E+04  0.10824188093E+04  0.00000000000E+00 0. -1.
         -2   -1    0    0    0  501 -0.00000000000E+00 -0.00000000000E+00 -0.41873994979E+00  0.41873994979E+00  0.00000000000E+00 0.  1.
          1    1    1    2  502    0 -0.20345417044E+02  0.59533887444E+01  0.59104915884E+03  0.59142919018E+03  0.00000000000E+00 0. -1.
         -1    1    1    2    0  501  0.20345417044E+02 -0.59533887444E+01  0.49095091047E+03  0.49140835903E+03  0.00000000000E+00 0.  1.
</event>
<event>
 4    1  0.6740123E+001  0.2007833E+02  0.7546771E-02  0.1532842E+00
          2   -1    0    0  502    0  0.00000000000E+00  0.00000000000E+00  0.17490023641E+03  0.17490023641E+03  0.00000000000E+00 0.  1.
         -2   -1    0    0    0  501 -0.00000000000E+00 -0.00000000000E+00 -0.30002820665E+01  0.30002820665E+01  0.00000000000E+00 0. -1.
          1    1    1    2  502    0  0.14285557713E+02 -0.14108944583E+02  0.43128994218E+02  0.47573623140E+02  0.00000000000E+00 0.  1.
         -1    1    1    2    0  501 -0.14285557713E+02  0.14108944583E+02  0.12877096013E+03  0.13032689534E+03  0.00000000000E+00 0. -1.
</event>
<event>
 4    1  0.6740123E+001  0.3443346E+02  0.7546771E-02  0.1384590E+00
          2   -1    0    0  502    0  0.00000000000E+00  0.00000000000E+00  0.20783502050E+01  0.20783502050E+01  0.00000000000E+00 0. -1.
         -2   -1    0    0    0  501 -0.00000000000E+00 -0.00000000000E+00 -0.98903981271E+03  0.98903981271E+03  0.00000000000E+00 0.  1.
          1    1    1    2  502    0  0.24448898031E+02  0.24246949001E+02 -0.81585905819E+03  0.81658536968E+03  0.00000000000E+00 0.  1.
         -1    1    1    2    0  501 -0.24448898031E+02 -0.24246949001E+02 -0.17110240432E+03  0.17453279324E+03  0.00000000000E+00 0. -1.
</event>
<event>
 4    1  0.6740123E+001  0.2428178E+02  0.7546771E-02  0.1477001E+00
          2   -1    0    0  502    0  0.00000000000E+00  0.00000000000E+00  0.96831694226E+02  0.96831694226E+02  0.00000000000E+00 0. -1.
         -2   -1    0    0    0  501 -0.00000000000E+00 -0.00000000000E+00 -0.88749838984E+01  0.88749838984E+01  0.00000000000E+00 0.  1.
          1    1    1    2  502    0  0.85174364305E+01 -0.22738911861E+02  0.73591234723E+02  0.77493707254E+02  0.00000000000E+00 0. -1.
         -1    1    1    2    0  501 -0.85174364305E+01  0.22738911861E+02  0.14365475605E+02  0.28212970871E+02  0.00000000000E+00 0.  1.
</event>
<event>
 4    1  0.6740123E+001  0.2256709E+02  0.7546771E-02  0.1498007E+00
          2   -1    0    0  502    0  0.00000000000E+00  0.00000000000E+00  0.62561741973E+03  0.62561741973E+03  0.00000000000E+00 0. -1.
         -2   -1    0    0    0  501 -0.00000000000E+00 -0.00000000000E+00 -0.98873955239E+00  0.98873955239E+00  0.00000000000E+00 0.  1.
          1    1    1    2  502    0  0.15588969381E+02  0.16317400165E+02  0.18061677918E+03  0.18202113733E+03  0.00000000000E+00 0.  1.
         -1    1    1    2    0  501 -0.15588969381E+02 -0.16317400165E+02  0.44401190100E+03  0.44458502195E+03  0.00000000000E+00 0. -1.
</event>
<event>
 4    1  0.6740123E+001  0.3523195E+02  0.7546771E-02  0.1378940E+00
          2   -1    0    0  502    0  0.00000000000E+00  0.00000000000E+00  0.77318698570E+03  0.77318698570E+03  0.00000000000E+00 0. -1.
         -2   -1    0    0    0  501 -0.00000000000E+00 -0.00000000000E+00 -0.16205921028E+01  0.16205921028E+01  0.00000000000E+00 0.  1.
          1    1    1    2  502    0  0.15546550268E+02  0.31616378360E+02  0.42326633222E+03  0.42473012443E+03  0.00000000000E+00 0.  1.
         -1    1    1    2    0  501 -0.15546550268E+02 -0.31616378360E+02  0.34830006138E+03  0.35007745337E+03  0.00000000000E+00 0. -1.
</event>
<event>
 4    1  0.6740123E+001  0.2294666E+02  0.7546771E-02  0.1493169E+00
          2   -1    0    0  502    0  0.00000000000E+00  0.00000000000E+00  0.47925682846E+00  0.47925682846E+00  0.00000000000E+00 0. -1.
         -2   -1    0    0    0  501 -0.00000000000E+00 -0.00000000000E+00 -0.11666720603E+04  0.11666720603E+04  0.00000000000E+00 0.  1.
          1    1    1    2  502    0  0.22303471300E+02 -0.53948426931E+01 -0.72397880528E+03  0.72434236357E+03  0.00000000000E+00 0.  1.
         -1    1    1    2    0  501 -0.22303471300E+02  0.53948426931E+01 -0.44221399818E+03  0.44280895355E+03  0.00000000000E+00 0. -1.
</event>
<event>
 4    1  0.6740123E+001  0.2497265E+02  0.7546771E-02  0.1469110E+00
          2   -1    0    0  502    0  0.00000000000E+00  0.00000000000E+00  0.68395182716E+01  0.68395182716E+01  0.00000000000E+00 0.  1.
         -2   -1    0    0    0  501 -0.00000000000E+00 -0.00000000000E+00 -0.91430025774E+02  0.91430025774E+02  0.00000000000E+00 0. -1.
          1    1    1    2  502    0  0.49415709577E+01  0.24478845878E+02 -0.39730141238E+02  0.46926720979E+02  0.00000000000E+00 0. -1.
         -1    1    1    2    0  501 -0.49415709577E+01 -0.24478845878E+02 -0.44860366265E+02  0.51342823067E+02  0.00000000000E+00 0.  1.
</event>
<event>
 4    1  0.6740123E+001  0.2406464E+02  0.7546771E-02  0.1479545E+00
          2   -1    0    0  502    0  0.00000000000E+00  0.00000000000E+00  0.60021831342E+02  0.60021831342E+02  0.00000000000E+00 0. -1.
         -2   -1    0    0    0  501 -0.00000000000E+00 -0.00000000000E+00 -0.97289179696E+01  0.97289179696E+01  0.00000000000E+00 0.  1.
          1    1    1    2  502    0 -0.67658465731E+01  0.23093946562E+02  0.28321676346E+02  0.37164827441E+02  0.00000000000E+00 0.  1.
         -1    1    1    2    0  501  0.67658465731E+01 -0.23093946562E+02  0.21971237026E+02  0.32585921870E+02  0.00000000000E+00 0. -1.
</event>
<event>
 4    1  0.6740123E+001  0.2571569E+02  0.7546771E-02  0.1460954E+00
          2   -1    0    0  502    0  0.00000000000E+00  0.00000000000E+00  0.15746499027E+04  0.15746499027E+04  0.00000000000E+00 0.  1.
         -2   -1    0    0    0  501 -0.00000000000E+00 -0.00000000000E+00 -0.57447476188E+00  0.57447476188E+00  0.00000000000E+00 0. -1.
          1    1    1    2  502    0 -0.16061854713E+02  0.20082666505E+02  0.11955037609E+04  0.11957803055E+04  0.00000000000E+00 0.  1.
         -1    1    1    2    0  501  0.16061854713E+02 -0.20082666505E+02  0.37857166699E+03  0.37944407192E+03  0.00000000000E+00 0. -1.
</event>
<event>
 4    1  0.6740123E+001  0.2430542E+02  0.7546771E-02  0.1476726E+00
          2   -1    0    0  502    0  0.00000000000E+00  0.00000000000E+00  0.98321038027E+03  0.98321038027E+03  0.00000000000E+00 0.  1.
         -2   -1    0    0    0  501 -0.00000000000E+00 -0.00000000000E+00 -0.12431511436E+01  0.12431511436E+01  0.00000000000E+00 0. -1.
          1    1    1    2  502    0 -0.20212497180E+02 -0.13498457064E+02  0.13716917450E+03  0.13930590733E+03  0.00000000000E+00 0. -1.
         -1    1    1    2    0  501  0.20212497180E+02  0.13498457064E+02  0.84479805463E+03  0.84514762408E+03  0.00000000000E+00 0.  1.
</event>
<event>
 4    1  0.6740123E+001  0.2186261E+02  0.7546771E-02  0.1507297E+00
          2   -1    0    0  502    0  0.00000000000E+00  0.00000000000E+00  0.43480778838E+03  0.43480778838E+03  0.00000000000E+00 0.  1.
         -2   -1    0    0    0  501 -0.00000000000E+00 -0.00000000000E+00 -0.11688470022E+01  0.11688470022E+01  0.00000000000E+00 0. -1.
          1    1    1    2  502    0  0.88377146124E+01  0.19996707368E+02  0.27000217184E+03  0.27088585475E+03  0.00000000000E+00 0.  1.
         -1    1    1    2    0  501 -0.88377146124E+01 -0.19996707368E+02  0.16363676954E+03  0.16509078064E+03  0.00000000000E+00 0. -1.
</event>
<event>
 4    1  0.6740123E+001  0.2524259E+02  0.7546771E-02  0.1466108E+00
          2   -1    0    0  502    0  0.00000000000E+00  0.00000000000E+00  0.19688294039E+03  0.19688294039E+03  0.00000000000E+00 0. -1.
         -2   -1    0    0    0  501 -0.00000000000E+00 -0.00000000000E+00 -0.53190734484E+01  0.53190734484E+01  0.00000000000E+00 0.  1.
          1    1    1    2  502    0 -0.22374537788E+02  0.11686259296E+02  0.15904494354E+03  0.16103565650E+03  0.00000000000E+00 0. -1.
         -1    1    1    2    0  501  0.22374537788E+02 -0.11686259296E+02  0.32518923397E+02  0.41166357338E+02  0.00000000000E+00 0.  1.
</event>
<event>
 4    1  0.6740123E+001  0.3232011E+02  0.7546771E-02  0.1400450E+00
          2   -1    0    0  502    0  0.00000000000E+00  0.00000000000E+00  0.91464840084E+01  0.91464840084E+01  0.00000000000E+00 0. -1.
         -2   -1    0    0    0  501 -0.00000000000E+00 -0.00000000000E+00 -0.13899197385E+03  0.13899197385E+03  0.00000000000E+00 0.  1.
          1    1    1    2  502    0 -0.27912781810E+02  0.16293137147E+02 -0.33644680490E+02  0.46653555403E+02  0.00000000000E+00 0. -1.
         -1    1    1    2    0  501  0.27912781810E+02 -0.16293137147E+02 -0.96200809353E+02  0.10148490246E+03  0.00000000000E+00 0.  1.
</event>
<event>
 4    1  0.6740123E+001  0.2394872E+02  0.7546771E-02  0.1480917E+00
          2   -1    0    0  502    0  0.00000000000E+00  0.00000000000E+00  0.23247020028E+02  0.23247020028E+02  0.00000000000E+00 0.  1.
         -2   -1    0    0    0  501 -0.00000000000E+00 -0.00000000000E+00 -0.52483142146E+02  0.52483142146E+02  0.00000000000E+00 0. -1.
          1    1    1    2  502    0 -0.23945223485E+02  0.40908347922E+00  0.12945894879E+02  0.27223836453E+02  0.00000000000E+00 0.  1.
         -1    1    1    2    0  501  0.23945223485E+02 -0.40908347922E+00 -0.42182016996E+02  0.48506325721E+02  0.00000000000E+00 0. -1.
</event>
<event>
 4    1  0.6740123E+001  0.2270556E+02  0.7546771E-02  0.1496229E+00
          2   -1    0    0  502    0  0.00000000000E+00  0.00000000000E+00  0.17460059558E+04  0.17460059558E+04  0.00000000000E+00 0. -1.
         -2   -1    0    0    0  501 -0.00000000000E+00 -0.00000000000E+00 -0.51131801961E+00  0.51131801961E+00  0.00000000000E+00 0.  1.
          1    1    1    2  502    0  0.21708089914E+02 -0.66559216713E+01  0.30510744024E+03  0.30595112772E+03  0.00000000000E+00 0.  1.
         -1    1    1    2    0  501 -0.21708089914E+02  0.66559216713E+01  0.14403871976E+04  0.14405661461E+04  0.00000000000E+00 0. -1.
</event>
<event>
 4    1  0.6740123E+001  0.2409136E+02  0.7546771E-02  0.1479230E+00
          2   -1    0    0  502    0  0.00000000000E+00  0.00000000000E+00  0.14080798728E+04  0.14080798728E+04  0.00000000000E+00 0. -1.
         -2   -1    0    0    0  501 -0.00000000000E+00 -0.00000000000E+00 -0.68356540670E+00  0.68356540670E+00  0.00000000000E+00 0.  1.
          1    1    1    2  502    0  0.10215662868E+02  0.21818198489E+02  0.11475161657E+04  0.11477690291E+04  0.00000000000E+00 0. -1.
         -1    1    1    2    0  501 -0.10215662868E+02 -0.21818198489E+02  0.25988014163E+03  0.26099440907E+03  0.00000000000E+00 0.  1.
</event>
<event>
 4    1  0.6740123E+001  0.2175745E+02  0.7546771E-02  0.1508719E+00
          2   -1    0    0  502    0  0.00000000000E+00  0.00000000000E+00  0.17555320354E+04  0.17555320354E+04  0.00000000000E+00 0.  1.
         -2   -1    0    0    0  501 -0.00000000000E+00 -0.00000000000E+00 -0.44857434446E+00  0.44857434446E+00  0.00000000000E+00 0. -1.
          1    1    1    2  502    0 -0.20018363263E+02 -0.85236007584E+01  0.14320424187E+04  0.14322076929E+04  0.00000000000E+00 0.  1.
         -1    1    1    2    0  501  0.20018363263E+02  0.85236007584E+01  0.32304104232E+03  0.32377291681E+03  0.00000000000E+00 0. -1.
</event>
<event>
 4    1  0.6740123E+001  0.2175531E+02  0.7546771E-02  0.1508748E+00
          2   -1    0    0  502    0  0.00000000000E+00  0.00000000000E+00  0.10295651614E+04  0.10295651614E+04  0.00000000000E+00 0. -1.
         -2   -1    0    0    0  501 -0.00000000000E+00 -0.00000000000E+00 -0.55291138322E+00  0.55291138322E+00  0.00000000000E+00 0.  1.
          1    1    1    2  502    0 -0.21216332560E+02  0.48125713754E+01  0.72598064688E+03  0.72630654221E+03  0.00000000000E+00 0. -1.
         -1    1    1    2    0  501  0.21216332560E+02 -0.48125713754E+01  0.30303160315E+03  0.30381153059E+03  0.00000000000E+00 0.  1.
</event>
<event>
 4    1  0.6740123E+001  0.3284591E+02  0.7546771E-02  0.1396374E+00
          2   -1    0    0  502    0  0.00000000000E+00  0.00000000000E+00  0.26007175147E+04  0.26007175147E+04  0.00000000000E+00 0.  1.
         -2   -1    0    0    0  501 -0.00000000000E+00 -0.00000000000E+00 -0.75652616970E+00  0.75652616970E+00  0.00000000000E+00 0. -1.
          1    1    1    2  502    0 -0.17044768516E+02 -0.28077210555E+02  0.42580624653E+03  0.42707120421E+03  0.00000000000E+00 0. -1.
         -1    1    1    2    0  501  0.17044768516E+02  0.28077210555E+02  0.21741547420E+04  0.21744028367E+04  0.00000000000E+00 0.  1.
</event>
<event>
 4    1  0.6740123E+001  0.2403271E+02  0.7546771E-02  0.1479922E+00
          2   -1    0    0  502    0  0.00000000000E+00  0.00000000000E+00  0.29583949470E+03  0.29583949470E+03  0.00000000000E+00 0. -1.
         -2   -1    0    0    0  501 -0.00000000000E+00 -0.00000000000E+00 -0.29053842180E+01  0.29053842180E+01  0.00000000000E+00 0.  1.
          1    1    1    2  502    0 -0.20630920641E+02 -0.12326240991E+02  0.23201931966E+03  0.23326066064E+03  0.00000000000E+00 0. -1.
         -1    1    1    2    0  501  0.20630920641E+02  0.12326240991E+02  0.60914790817E+02  0.65484218279E+02  0.00000000000E+00 0.  1.
</event>
<event>
 4    1  0.6740123E+001  0.2612698E+02  0.7546771E-02  0.1456580E+00
          2   -1    0    0  502    0  0.00000000000E+00  0.00000000000E+00  0.25323283273E+04  0.25323283273E+04  0.00000000000E+00 0. -1.
         -2   -1    0    0    0  501 -0.00000000000E+00 -0.00000000000E+00 -0.31712467464E+00  0.31712467464E+00  0.00000000000E+00 0.  1.
          1    1    1    2  502    0  0.24422734320E+02  0.92816636963E+01  0.17564197366E+04  0.17566140471E+04  0.00000000000E+00 0. -1.
         -1    1    1    2    0  501 -0.24422734320E+02 -0.92816636963E+01  0.77559146606E+03  0.77603140494E+03  0.00000000000E+00 0.  1.
</event>
<event>
 4    1  0.6740123E+001  0.2571062E+02  0.7546771E-02  0.1461008E+00
          2   -1    0    0  502    0  0.00000000000E+00  0.00000000000E+00  0.16233215741E+02  0.16233215741E+02  0.00000000000E+00 0.  1.
         -2   -1    0    0    0  501 -0.00000000000E+00 -0.00000000000E+00 -0.52828561459E+02  0.52828561459E+02  0.00000000000E+00 0. -1.
          1    1    1    2  502    0  0.13448526067E+02 -0.21912853291E+02 -0.17667099463E+01  0.25771248646E+02  0.00000000000E+00 0.  1.
         -1    1    1    2    0  501 -0.13448526067E+02  0.21912853291E+02 -0.34828635771E+02  0.43290528554E+02  0.00000000000E+00 0. -1.
</event>
<event>
 4    1  0.6740123E+001  0.2100416E+02  0.7546771E-02  0.1519205E+00
          2   -1    0    0  502    0  0.00000000000E+00  0.00000000000E+00  0.38855451433E+03  0.38855451433E+03  0.00000000000E+00 0. -1.
         -2   -1    0    0    0  501 -0.00000000000E+00 -0.00000000000E+00 -0.14177981289E+01  0.14177981289E+01  0.00000000000E+00 0.  1.
          1    1    1    2  502    0  0.19402134212E+02  0.80456149437E+01  0.28058610249E+03  0.28137117059E+03  0.00000000000E+00 0.  1.
         -1    1    1    2    0  501 -0.19402134212E+02 -0.80456149437E+01  0.10655061372E+03  0.10860114187E+03  0.00000000000E+00 0. -1.
</event>
<event>
 4    1  0.6740123E+001  0.2953420E+02  0.7546771E-02  0.1423688E+00
          2   -1    0    0  502    0  0.00000000000E+00  0.00000000000E+00  0.24194839980E+03  0.24194839980E+03  0.00000000000E+00 0.  1.
         -2   -1    0    0    0  501 -0.00000000000E+00 -0.00000000000E+00 -0.36472415185E+01  0.36472415185E+01  0.00000000000E+00 0. -1.
          1    1    1    2  502    0  0.26214904960E+01  0.29417629677E+02  0.10596447865E+03  0.11000336305E+03  0.00000000000E+00 0. -1.
         -1    1    1    2    0  501 -0.26214904960E+01 -0.29417629677E+02  0.13233667963E+03  0.13559227826E+03  0.00000000000E+00 0.  1.
</event>
<event>
 4    1  0.6740123E+001  0.2169146E+02  0.7546771E-02  0.1509617E+00
          2   -1    0    0  502    0  0.00000000000E+00  0.00000000000E+00  0.45718177375E+03  0.45718177375E+03  0.00000000000E+00 0. -1.
         -2   -1    0    0    0  501 -0.00000000000E+00 -0.00000000000E+00 -0.14284460048E+01  0.14284460048E+01  0.00000000000E+00 0.  1.
          1    1    1    2  502    0  0.19012218611E+02  0.10442948125E+02  0.10664495801E+03  0.10882861155E+03  0.00000000000E+00 0.  1.
         -1    1    1    2    0  501 -0.19012218611E+02 -0.10442948125E+02  0.34910836973E+03  0.34978160820E+03  0.00000000000E+00 0. -1.
</event>
<event>
 4    1  0.6740123E+001  0.3129783E+02  0.7546771E-02  0.1408644E+00
          2   -1    0    0  502    0  0.00000000000E+00  0.00000000000E+00  0.53871675931E+01  0.53871675931E+01  0.00000000000E+00 0. -1.
         -2   -1    0    0    0  501 -0.00000000000E+00 -0.00000000000E+00 -0.19152326356E+03  0.19152326356E+03  0.00000000000E+00 0.  1.
          1    1    1    2  502    0  0.26236690719E+02 -0.17064290659E+02 -0.70919714866E+02  0.77518771354E+02  0.00000000000E+00 0. -1.
         -1    1    1    2    0  501 -0.26236690719E+02  0.17064290659E+02 -0.11521638110E+03  0.11939165980E+03  0.00000000000E+00 0.  1.
</event>
<event>
 4    1  0.6740123E+001  0.2405254E+02  0.7546771E-02  0.1479688E+00
          2   -1    0    0  502    0  0.00000000000E+00  0.00000000000E+00  0.74945183187E+03  0.74945183187E+03  0.00000000000E+00 0. -1.
         -2   -1    0    0    0  501 -0.00000000000E+00 -0.00000000000E+00 -0.99309821633E+00  0.99309821633E+00  0.00000000000E+00 0.  1.
          1    1    1    2  502    0 -0.23965781305E+02  0.20410413558E+01  0.19715574706E+03  0.19861750457E+03  0.00000000000E+00 0.  1.
         -1    1    1    2    0  501  0.23965781305E+02 -0.20410413558E+01  0.55130298660E+03  0.55182742552E+03  0.00000000000E+00 0. -1.
</event>
<event>
 4    1  0.6740123E+001  0.3202249E+02  0.7546771E-02  0.1402799E+00
          2   -1    0    0  502    0  0.00000000000E+00  0.00000000000E+00  0.17352682663E+01  0.17352682663E+01  0.00000000000E+00 0.  1.
         -2   -1    0    0    0  501 -0.00000000000E+00 -0.00000000000E+00 -0.66771482513E+03  0.66771482513E+03  0.00000000000E+00 0. -1.
          1    1    1    2  502    0  0.28155331814E+02  0.15255063048E+02 -0.44649131639E+03  0.44763817450E+03  0.00000000000E+00 0. -1.
         -1    1    1    2    0  501 -0.28155331814E+02 -0.15255063048E+02 -0.21948824048E+03  0.22181191890E+03  0.00000000000E+00 0.  1.
</event>
<event>
 4    1  0.6740123E+001  0.2165379E+02  0.7546771E-02  0.1510132E+00
          2   -1    0    0  502    0  0.00000000000E+00  0.00000000000E+00  0.63602396417E+03  0.63602396417E+03  0.00000000000E+00 0.  1.
         -2   -1    0    0    0  501 -0.00000000000E+00 -0.00000000000E+00 -0.74071681643E+00  0.74071681643E+00  0.00000000000E+00 0. -1.
          1    1    1    2  502    0  0.15607037764E+02  0.15010235124E+02  0.33953095807E+03  0.34022074933E+03  0.00000000000E+00 0. -1.
         -1    1    1    2    0  501 -0.15607037764E+02 -0.15010235124E+02  0.29575228928E+03  0.29654393166E+03  0.00000000000E+00 0.  1.
</event>
<event>
 4    1  0.6740123E+001  0.3587420E+02  0.7546771E-02  0.1374519E+00
          2   -1    0    0  502    0  0.00000000000E+00  0.00000000000E+00  0.49586590088E+03  0.49586590088E+03  0.00000000000E+00 0.  1.
         -2   -1    0    0    0  501 -0.00000000000E+00 -0.00000000000E+00 -0.28906004485E+01  0.28906004485E+01  0.00000000000E+00 0. -1.
          1    1    1    2  502    0 -0.14656179123E+02 -0.32743768634E+02  0.32618454942E+03  0.32815136484E+03  0.00000000000E+00 0.  1.
         -1    1    1    2    0  501  0.14656179123E+02  0.32743768634E+02  0.16679075102E+03  0.17060513649E+03  0.00000000000E+00 0. -1.
</event>
<event>
 4    1  0.6740123E+001  0.2102807E+02  0.7546771E-02  0.1518864E+00
          2   -1    0    0  502    0  0.00000000000E+00  0.00000000000E+00  0.69359997994E+00  0.69359997994E+00  0.00000000000E+00 0.  1.
         -2   -1    0    0    0  501 -0.00000000000E+00 -0.00000000000E+00 -0.64514015410E+03  0.64514015410E+03  0.00000000000E+00 0. -1.
          1    1    1    2  502    0  0.20609139097E+02 -0.41764713872E+01 -0.35733268265E+03  0.35795087040E+03  0.00000000000E+00 0.  1.
         -1    1    1    2    0  501 -0.20609139097E+02  0.41764713872E+01 -0.28711387147E+03  0.28788288368E+03  0.00000000000E+00 0. -1.
</event>
<event>
 4    1  0.6740123E+001  0.3201561E+02  0.7546771E-02  0.1402853E+00
          2   -1    0    0  502    0  0.00000000000E+00  0.00000000000E+00  0.38808271415E+02  0.38808271415E+02  0.00000000000E+00 0.  1.
         -2   -1    0    0    0  501 -0.00000000000E+00 -0.00000000000E+00 -0.51797168362E+02  0.51797168362E+02  0.00000000000E+00 0. -1.
          1    1    1    2  502    0 -0.13724777458E+02  0.28924548367E+02 -0.38209279727E+02  0.49849253473E+02  0.00000000000E+00 0. -1.
         -1    1    1    2    0  501  0.13724777458E+02 -0.28924548367E+02  0.25220382781E+02  0.40756186305E+02  0.00000000000E+00 0.  1.
</event>
<event>
 4    1  0.6740123E+001  0.3057361E+02  0.7546771E-02  0.1414676E+00
          2   -1    0    0  502    0  0.00000000000E+00  0.00000000000E+00  0.56184420870E+01  0.56184420870E+01  0.00000000000E+00 0. -1.
         -2   -1    0    0    0  501 -0.00000000000E+00 -0.00000000000E+00 -0.17363994106E+03  0.17363994106E+03  0.00000000000E+00 0.  1.
          1    1    1    2  502    0  0.30487932490E+02  0.22873180100E+01 -0.10234909357E+03  0.10681798915E+03  0.00000000000E+00 0.  1.
         -1    1    1    2    0  501 -0.30487932490E+02 -0.22873180100E+01 -0.65672405406E+02  0.72440394001E+02  0.00000000000E+00 0. -1.
</event>
<event>
 4    1  0.6740123E+001  0.2097345E+02  0.7546771E-02  0.1519644E+00
          2   -1    0    0  502    0  0.00000000000E+00  0.00000000000E+00  0.26104133212E+01  0.26104133212E+01  0.00000000000E+00 0. -1.
         -2   -1    0    0    0  501 -0.00000000000E+00 -0.00000000000E+00 -0.17161160243E+03  0.17161160243E+03  0.00000000000E+00 0.  1.
          1    1    1    2  502    0 -0.20227405686E+02  0.55441629109E+01 -0.72793196139E+02  0.75754439390E+02  0.00000000000E+00 0.  1.
         -1    1    1    2    0  501  0.20227405686E+02 -0.55441629109E+01 -0.96207992969E+02  0.98467576360E+02  0.00000000000E+00 0. -1.
</event>
<event>
 4    1  0.6740123E+001  0.5692063E+02  0.7546771E-02  0.1270670E+00
          2   -1    0    0  502    0  0.00000000000E+00  0.00000000000E+00  0.38149523125E+04  0.38149523125E+04  0.00000000000E+00 0.  1.
         -2   -1    0    0    0  501 -0.00000000000E+00 -0.00000000000E+00 -0.94929703720E+00  0.94929703720E+00  0.00000000000E+00 0. -1.
          1    1    1    2  502    0  0.30015401093E+01  0.56841432796E+02  0.25263084288E+04  0.25269495909E+04  0.00000000000E+00 0. -1.
         -1    1    1    2    0  501 -0.30015401093E+01 -0.56841432796E+02  0.12876945866E+04  0.12889520186E+04  0.00000000000E+00 0.  1.
</event>
<event>
 4    1  0.6740123E+001  0.2522091E+02  0.7546771E-02  0.1466347E+00
          2   -1    0    0  502    0  0.00000000000E+00  0.00000000000E+00  0.59454444894E+02  0.59454444894E+02  0.00000000000E+00 0. -1.
         -2   -1    0    0    0  501 -0.00000000000E+00 -0.00000000000E+00 -0.10705946732E+02  0.10705946732E+02  0.00000000000E+00 0.  1.
          1    1    1    2  502    0  0.14451426645E+02 -0.20670042816E+02  0.23471289480E+02  0.34452805865E+02  0.00000000000E+00 0. -1.
         -1    1    1    2    0  501 -0.14451426645E+02  0.20670042816E+02  0.25277208683E+02  0.35707585761E+02  0.00000000000E+00 0.  1.
</event>
<event>
 4    1  0.6740123E+001  0.2397783E+02  0.7546771E-02  0.1480571E+00
          2   -1    0    0  502    0  0.00000000000E+00  0.00000000000E+00  0.97941090439E+01  0.97941090439E+01  0.00000000000E+00 0. -1.
         -2   -1    0    0    0  501 -0.00000000000E+00 -0.00000000000E+00 -0.10029198706E+03  0.10029198706E+03  0.00000000000E+00 0.  1.
          1    1    1    2  502    0  0.21884701561E+02  0.97977755730E+01 -0.80694533788E+02  0.84181615284E+02  0.00000000000E+00 0.  1.
         -1    1    1    2    0  501 -0.21884701561E+02 -0.97977755730E+01 -0.98033442312E+01  0.25904480823E+02  0.00000000000E+00 0. -1.
</event>
<event>
 4    1  0.6740123E+001  0.2093780E+02  0.7546771E-02  0.1520155E+00
          2   -1    0    0  502    0  0.00000000000E+00  0.00000000000E+00  0.99386520784E+01  0.99386520784E+01  0.00000000000E+00 0.  1.
         -2   -1    0    0    0  501 -0.00000000000E+00 -0.00000000000E+00 -0.58880738551E+02  0.58880738551E+02  0.00000000000E+00 0. -1.
          1    1    1    2  502    0  0.26534861051E+01 -0.20768976613E+02 -0.41705559670E+02  0.46666316390E+02  0.00000000000E+00 0. -1.
         -1    1    1    2    0  501 -0.26534861051E+01  0.20768976613E+02 -0.72365268027E+01  0.22153074239E+02  0.00000000000E+00 0.  1.
</event>
<event>
 4    1  0.6740123E+001  0.3366981E+02  0.7546771E-02  0.1390164E+00
          2   -1    0    0  502    0  0.00000000000E+00  0.00000000000E+00  0.40565952166E+01  0.40565952166E+01  0.00000000000E+00 0.  1.
         -2   -1    0    0    0  501 -0.00000000000E+00 -0.00000000000E+00 -0.30415986996E+03  0.30415986996E+03  0.00000000000E+00 0. -1.
          1    1    1    2  502    0  0.11360595416E+01 -0.33650642628E+02 -0.10613575567E+03  0.11134834984E+03  0.00000000000E+00 0.  1.
         -1    1    1    2    0  501 -0.11360595416E+01  0.33650642628E+02 -0.19396751907E+03  0.19686811533E+03  0.00000000000E+00 0. -1.
</event>
<event>
 4    1  0.6740123E+001  0.2593863E+02  0.7546771E-02  0.1458571E+00
          2   -1    0    0  502    0  0.00000000000E+00  0.00000000000E+00  0.94966049436E+01  0.94966049436E+01  0.00000000000E+00 0.  1.
         -2   -1    0    0    0  501 -0.00000000000E+00 -0.00000000000E+00 -0.88720738305E+02  0.88720738305E+02  0.00000000000E+00 0. -1.
          1    1    1    2  502    0  0.21450473185E+02  0.14583894719E+02 -0.61653741585E+02  0.66887940890E+02  0.00000000000E+00 0.  1.
         -1    1    1    2    0  501 -0.21450473185E+02 -0.14583894719E+02 -0.17570391777E+02  0.31329402359E+02  0.00000000000E+00 0. -1.
</event>
<event>
 4    1  0.6740123E+001  0.2839086E+02  0.7546771E-02  0.1434116E+00
          2   -1    0    0  502    0  0.00000000000E+00  0.00000000000E+00  0.23490915988E+04  0.23490915988E+04  0.00000000000E+00 0. -1.
         -2   -1    0    0    0  501 -0.00000000000E+00 -0.00000000000E+00 -0.87741905289E+00  0.87741905289E+00  0.00000000000E+00 0.  1.
          1    1    1    2  502    0 -0.12440776644E+02  0.25519949822E+02  0.20909971700E+04  0.20911899019E+04  0.00000000000E+00 0. -1.
         -1    1    1    2    0  501  0.12440776644E+02 -0.25519949822E+02  0.25721700980E+03  0.25877911603E+03  0.00000000000E+00 0.  1.
</event>
<event>
 4    1  0.6740123E+001  0.2141771E+02  0.7546771E-02  0.1513384E+00
          2   -1    0    0  502    0  0.00000000000E+00  0.00000000000E+00  0.10382880453E+04  0.10382880453E+04  0.00000000000E+00 0.  1.
         -2   -1    0    0    0  501 -0.00000000000E+00 -0.00000000000E+00 -0.60941951960E+00  0.60941951960E+00  0.00000000000E+00 0. -1.
          1    1    1    2  502    0  0.16153068916E+02  0.14064024391E+02  0.24641656840E+03  0.24734559547E+03  0.00000000000E+00 0. -1.
         -1    1    1    2    0  501 -0.16153068916E+02 -0.14064024391E+02  0.79126205738E+03  0.79155186934E+03  0.00000000000E+00 0.  1.
</event>
<event>
 4    1  0.6740123E+001  0.3119763E+02  0.7546771E-02  0.1409467E+00
          2   -1    0    0  502    0  0.00000000000E+00  0.00000000000E+00  0.15351601758E+04  0.15351601758E+04  0.00000000000E+00 0. -1.
         -2   -1    0    0    0  501 -0.00000000000E+00 -0.00000000000E+00 -0.64158479052E+00  0.64158479052E+00  0.00000000000E+00 0.  1.
          1    1    1    2  502    0  0.12401965532E+02  0.28626623064E+02  0.68376899492E+03  0.68448033625E+03  0.00000000000E+00 0.  1.
         -1    1    1    2    0  501 -0.12401965532E+02 -0.28626623064E+02  0.85074959606E+03  0.85132142431E+03  0.00000000000E+00 0. -1.
</event>
<event>
 4    1  0.6740123E+001  0.3281508E+02  0.7546771E-02  0.1396611E+00
          2   -1    0    0  502    0  0.00000000000E+00  0.00000000000E+00  0.99403131059E+03  0.99403131059E+03  0.00000000000E+00 0. -1.
         -2   -1    0    0    0  501 -0.00000000000E+00 -0.00000000000E+00 -0.10947158186E+01  0.10947158186E+01  0.00000000000E+00 0.  1.
          1    1    1    2  502    0 -0.28687086551E+02 -0.15933628216E+02  0.54728896671E+03  0.54827186917E+03  0.00000000000E+00 0. -1.
         -1    1    1    2    0  501  0.28687086551E+02  0.15933628216E+02  0.44564762806E+03  0.44685415723E+03  0.00000000000E+00 0.  1.
</event>
<event>
 4    1  0.6740123E+001  0.2438708E+02  0.7546771E-02  0.1475778E+00
          2   -1    0    0  502    0  0.00000000000E+00  0.00000000000E+00  0.57666736442E+03  0.57666736442E+03  0.00000000000E+00 0. -1.
         -2   -1    0    0    0  501 -0.00000000000E+00 -0.00000000000E+00 -0.10314200865E+01  0.10314200865E+01  0.00000000000E+00 0.  1.
          1    1    1    2  502    0 -0.17839439498E+02  0.16627804440E+02  0.28499475367E+03  0.28603625487E+03  0.00000000000E+00 0.  1.
         -1    1    1    2    0  501  0.17839439498E+02 -0.16627804440E+02  0.29064119066E+03  0.29166252963E+03  0.00000000000E+00 0. -1.
</event>
<event>
 4    1  0.6740123E+001  0.2099026E+02  0.7546771E-02  0.1519404E+00
          2   -1    0    0  502    0  0.00000000000E+00  0.00000000000E+00  0.13691660411E+04  0.13691660411E+04  0.00000000000E+00 0.  1.
         -2   -1    0    0    0  501 -0.00000000000E+00 -0.00000000000E+00 -0.32500514802E+00  0.32500514802E+00  0.00000000000E+00 0. -1.
          1    1    1    2  502    0  0.15815199069E+02 -0.13801112389E+02  0.61637101743E+03  0.61672832135E+03  0.00000000000E+00 0. -1.
         -1    1    1    2    0  501 -0.15815199069E+02  0.13801112389E+02  0.75247001848E+03  0.75276272486E+03  0.00000000000E+00 0.  1.
</event>
<event>
 4    1  0.6740123E+001  0.2127774E+02  0.7546771E-02  0.1515336E+00
          2   -1    0    0  502    0  0.00000000000E+00  0.00000000000E+00  0.20545163770E+03  0.20545163770E+03  0.00000000000E+00 0. -1.
         -2   -1    0    0    0  501 -0.00000000000E+00 -0.00000000000E+00 -0.32245114197E+01  0.32245114197E+01  0.00000000000E+00 0.  1.
          1    1    1    2  502    0 -0.96754054310E+00  0.21255726151E+02  0.15982135942E+03  0.16123153834E+03  0.00000000000E+00 0. -1.
         -1    1    1    2    0  501  0.96754054310E+00 -0.21255726151E+02  0.42405766856E+02  0.47444610775E+02  0.00000000000E+00 0.  1.
</event>
<event>
 4    1  0.6740123E+001  0.3396985E+02  0.7546771E-02  0.1387954E+00
          2   -1    0    0  502    0  0.00000000000E+00  0.00000000000E+00  0.59284485094E+03  0.59284485094E+03  0.00000000000E+00 0. -1.
         -2   -1    0    0    0  501 -0.00000000000E+00 -0.00000000000E+00 -0.26005395248E+01  0.26005395248E+01  0.00000000000E+00 0.  1.
          1    1    1    2  502    0 -0.27223436274E+02 -0.20318350867E+02  0.44443402311E+03  0.44573035769E+03  0.00000000000E+00 0. -1.
         -1    1    1    2    0  501  0.27223436274E+02  0.20318350867E+02  0.14581028831E+03  0.14971503278E+03  0.00000000000E+00 0.  1.
</event>
<event>
 4    1  0.6740123E+001  0.2053807E+02  0.7546771E-02  0.1525963E+00
          2   -1    0    0  502    0  0.00000000000E+00  0.00000000000E+00  0.95657074965E+02  0.95657074965E+02  0.00000000000E+00 0.  1.
         -2   -1    0    0    0  501 -0.00000000000E+00 -0.00000000000E+00 -0.50379693854E+01  0.50379693854E+01  0.00000000000E+00 0. -1.
          1    1    1    2  502    0 -0.17310449445E+02  0.11052632118E+02  0.63090192238E+02  0.66348961509E+02  0.00000000000E+00 0.  1.
         -1    1    1    2    0  501  0.17310449445E+02 -0.11052632118E+02  0.27528913341E+02  0.34346082841E+02  0.00000000000E+00 0. -1.
</event>
<event>
 4    1  0.6740123E+001  0.2306453E+02  0.7546771E-02  0.1491689E+00
          2   -1    0    0  502    0  0.00000000000E+00  0.00000000000E+00  0.13426817722E+04  0.13426817722E+04  0.00000000000E+00 0.  1.
         -2   -1    0    0    0  501 -0.00000000000E+00 -0.00000000000E+00 -0.57095665621E+00  0.57095665621E+00  0.00000000000E+00 0. -1.
          1    1    1    2  502    0 -0.22220836344E+02  0.61811608109E+01  0.29948479017E+03  0.30037162292E+03  0.00000000000E+00 0. -1.
         -1    1    1    2    0  501  0.22220836344E+02 -0.61811608109E+01  0.10426260254E+04  0.10428811059E+04  0.00000000000E+00 0.  1.
</event>
<event>
 4    1  0.6740123E+001  0.4219428E+02  0.7546771E-02  0.1336086E+00
          2   -1    0    0  502    0  0.00000000000E+00  0.00000000000E+00  0.50984169752E+01  0.50984169752E+01  0.00000000000E+00 0. -1.
         -2   -1    0    0    0  501 -0.00000000000E+00 -0.00000000000E+00 -0.41462609516E+03  0.41462609516E+03  0.00000000000E+00 0.  1.
          1    1    1    2  502    0 -0.29405353156E+02  0.30260248989E+02 -0.12139804997E+03  0.12852176469E+03  0.00000000000E+00 0. -1.
         -1    1    1    2    0  501  0.29405353156E+02 -0.30260248989E+02 -0.28812962821E+03  0.29120274744E+03  0.00000000000E+00 0.  1.
</event>
<event>
 4    1  0.6740123E+001  0.2305582E+02  0.7546771E-02  0.1491798E+00
          2   -1    0    0  502    0  0.00000000000E+00  0.00000000000E+00  0.15533148014E+03  0.15533148014E+03  0.00000000000E+00 0.  1.
         -2   -1    0    0    0  501 -0.00000000000E+00 -0.00000000000E+00 -0.55416824155E+01  0.55416824155E+01  0.00000000000E+00 0. -1.
          1    1    1    2  502    0  0.22253498953E+02 -0.60293303384E+01  0.25149769332E+02  0.34118645012E+02  0.00000000000E+00 0. -1.
         -1    1    1    2    0  501 -0.22253498953E+02  0.60293303384E+01  0.12464002839E+03  0.12675451754E+03  0.00000000000E+00 0.  1.
</event>
<event>
 4    1  0.6740123E+001  0.2150889E+02  0.7546771E-02  0.1512122E+00
          2   -1    0    0  502    0  0.00000000000E+00  0.00000000000E+00  0.22752641381E+04  0.22752641381E+04  0.00000000000E+00 0. -1.
         -2   -1    0    0    0  501 -0.00000000000E+00 -0.00000000000E+00 -0.20567634679E+00  0.20567634679E+00  0.00000000000E+00 0.  1.
          1    1    1    2  502    0 -0.20260569720E+02  0.72209238869E+01  0.10160438076E+04  0.10162714458E+04  0.00000000000E+00 0.  1.
         -1    1    1    2    0  501  0.20260569720E+02 -0.72209238869E+01  0.12590146541E+04  0.12591983687E+04  0.00000000000E+00 0. -1.
</event>
<event>
 4    1  0.6740123E+001  0.3104912E+02  0.7546771E-02  0.1410693E+00
          2   -1    0    0  502    0  0.00000000000E+00  0.00000000000E+00  0.56658772329E+02  0.56658772329E+02  0.00000000000E+00 0. -1.
         -2   -1    0    0    0  501 -0.00000000000E+00 -0.00000000000E+00 -0.21436484885E+02  0.21436484885E+02  0.00000000000E+00 0.  1.
          1    1    1    2  502    0  0.99488160148E+01  0.29412056629E+02  0.35344984856E+02  0.47045892166E+02  0.00000000000E+00 0. -1.
         -1    1    1    2    0  501 -0.99488160148E+01 -0.29412056629E+02 -0.12269741126E+00  0.31049365049E+02  0.00000000000E+00 0.  1.
</event>
<event>
 4    1  0.6740123E+001  0.2022024E+02  0.7546771E-02  0.1530695E+00
          2   -1    0    0  502    0  0.00000000000E+00  0.00000000000E+00  0.10037367666E+04  0.10037367666E+04  0.00000000000E+00 0.  1.
         -2   -1    0    0    0  501 -0.00000000000E+00 -0.00000000000E+00 -0.41321931787E+00  0.41321931787E+00  0.00000000000E+00 0. -1.
          1    1    1    2  502    0  0.17676589039E+01 -0.20142824669E+02  0.44175254874E+03  0.44221507473E+03  0.00000000000E+00 0.  1.
         -1    1    1    2    0  501 -0.17676589039E+01  0.20142824669E+02  0.56157099854E+03  0.56193491118E+03  0.00000000000E+00 0. -1.
</event>
<event>
 4    1  0.6740123E+001  0.4751854E+02  0.7546771E-02  0.1309305E+00
          2   -1    0    0  502    0  0.00000000000E+00  0.00000000000E+00  0.10725564804E+03  0.10725564804E+03  0.00000000000E+00 0.  1.
         -2   -1    0    0    0  501 -0.00000000000E+00 -0.00000000000E+00 -0.24661043875E+02  0.24661043875E+02  0.00000000000E+00 0. -1.
          1    1    1    2  502    0  0.12867313666E+02 -0.45743236963E+02  0.66527654342E+02  0.81755368515E+02  0.00000000000E+00 0.  1.
         -1    1    1    2    0  501 -0.12867313666E+02  0.45743236963E+02  0.16066949827E+02  0.50161323403E+02  0.00000000000E+00 0. -1.
</event>
<event>
 4    1  0.6740123E+001  0.2335829E+02  0.7546771E-02  0.1488047E+00
          2   -1    0    0  502    0  0.00000000000E+00  0.00000000000E+00  0.11517613148E+02  0.11517613148E+02  0.00000000000E+00 0.  1.
         -2   -1    0    0    0  501 -0.00000000000E+00 -0.00000000000E+00 -0.48437361083E+02  0.48437361083E+02  0.00000000000E+00 0. -1.
          1    1    1    2  502    0  0.10865750161E+02 -0.20677171063E+02 -0.22906151661E+02  0.32715465970E+02  0.00000000000E+00 0. -1.
         -1    1    1    2    0  501 -0.10865750161E+02  0.20677171063E+02 -0.14013596275E+02  0.27239508261E+02  0.00000000000E+00 0.  1.
</event>
<event>
 4    1  0.6740123E+001  0.3205911E+02  0.7546771E-02  0.1402508E+00
          2   -1    0    0  502    0  0.00000000000E+00  0.00000000000E+00  0.32898862278E+03  0.32898862278E+03  0.00000000000E+00 0. -1.
         -2   -1    0    0    0  501 -0.00000000000E+00 -0.00000000000E+00 -0.39404752599E+01  0.39404752599E+01  0.00000000000E+00 0.  1.
          1    1    1    2  502    0  0.31502864284E+02 -0.59461028388E+01  0.86753977603E+02  0.92488049104E+02  0.00000000000E+00 0.  1.
         -1    1    1    2    0  501 -0.31502864284E+02  0.59461028388E+01  0.23829416992E+03  0.24044104894E+03  0.00000000000E+00 0. -1.
</event>
<event>
 4    1  0.6740123E+001  0.2452303E+02  0.7546771E-02  0.1474211E+00
          2   -1    0    0  502    0  0.00000000000E+00  0.00000000000E+00  0.26997894870E+01  0.26997894870E+01  0.00000000000E+00 0.  1.
         -2   -1    0    0    0  501 -0.00000000000E+00 -0.00000000000E+00 -0.28875093894E+03  0.28875093894E+03  0.00000000000E+00 0. -1.
          1    1    1    2  502    0  0.23758603763E+02  0.60751570360E+01 -0.21269587433E+03  0.21410491294E+03  0.00000000000E+00 0. -1.
         -1    1    1    2    0  501 -0.23758603763E+02 -0.60751570360E+01 -0.73355275118E+02  0.77345815487E+02  0.00000000000E+00 0.  1.
</event>
<event>
 4    1  0.6740123E+001  0.2028272E+02  0.7546771E-02  0.1529757E+00
          2   -1    0    0  502    0  0.00000000000E+00  0.00000000000E+00  0.20171031805E+01  0.20171031805E+01  0.00000000000E+00 0. -1.
         -2   -1    0    0    0  501 -0.00000000000E+00 -0.00000000000E+00 -0.22348810212E+03  0.22348810212E+03  0.00000000000E+00 0.  1.
          1    1    1    2  502    0  0.38687647784E+01 -0.19910337973E+02 -0.77397719778E+02  0.80011223750E+02  0.00000000000E+00 0. -1.
         -1    1    1    2    0  501 -0.38687647784E+01  0.19910337973E+02 -0.14407327916E+03  0.14549398155E+03  0.00000000000E+00 0.  1.
</event>
<event>
 4    1  0.6740123E+001  0.2484022E+02  0.7546771E-02  0.1470599E+00
          2   -1    0    0  502    0  0.00000000000E+00  0.00000000000E+00  0.14657938968E+04  0.14657938968E+04  0.00000000000E+00 0.  1.
         -2   -1    0    0    0  501 -0.00000000000E+00 -0.00000000000E+00 -0.60611686958E+00  0.60611686958E+00  0.00000000000E+00 0. -1.
          1    1    1    2  502    0 -0.28238187883E+01 -0.24679191524E+02  0.32734903348E+03  0.32829015545E+03  0.00000000000E+00 0. -1.
         -1    1    1    2    0  501  0.28238187883E+01  0.24679191524E+02  0.11378387465E+04  0.11381098582E+04  0.00000000000E+00 0.  1.
</event>
<event>
 4    1  0.6740123E+001  0.3017995E+02  0.7546771E-02  0.1418039E+00
          2   -1    0    0  502    0  0.00000000000E+00  0.00000000000E+00  0.10038747635E+04  0.10038747635E+04  0.00000000000E+00 0.  1.
         -2   -1    0    0    0  501 -0.00000000000E+00 -0.00000000000E+00 -0.11490409998E+01  0.11490409998E+01  0.00000000000E+00 0. -1.
          1    1    1    2  502    0  0.29265975616E+02 -0.73710223970E+01  0.73184722283E+03  0.73246923953E+03  0.00000000000E+00 0.  1.
         -1    1    1    2    0  501 -0.29265975616E+02  0.73710223970E+01  0.27087849968E+03  0.27255456497E+03  0.00000000000E+00 0. -1.
</event>
<event>
 4    1  0.6740123E+001  0.2501188E+02  0.7546771E-02  0.1468671E+00
          2   -1    0    0  502    0  0.00000000000E+00  0.00000000000E+00  0.12791457829E+02  0.12791457829E+02  0.00000000000E+00 0. -1.
         -2   -1    0    0    0  501 -0.00000000000E+00 -0.00000000000E+00 -0.63985370184E+02  0.63985370184E+02  0.00000000000E+00 0.  1.
          1    1    1    2  502    0  0.18467790974E+01  0.24943608128E+02 -0.69617423793E+01  0.25962666204E+02  0.00000000000E+00 0. -1.
         -1    1    1    2    0  501 -0.18467790974E+01 -0.24943608128E+02 -0.44232169976E+02  0.50814161809E+02  0.00000000000E+00 0.  1.
</event>
<event>
 4    1  0.6740123E+001  0.2409691E+02  0.7546771E-02  0.1479165E+00
          2   -1    0    0  502    0  0.00000000000E+00  0.00000000000E+00  0.17288321618E+03  0.17288321618E+03  0.00000000000E+00 0.  1.
         -2   -1    0    0    0  501 -0.00000000000E+00 -0.00000000000E+00 -0.84128453703E+01  0.84128453703E+01  0.00000000000E+00 0. -1.
          1    1    1    2  502    0  0.13394495142E+01 -0.24059652317E+02  0.11974683407E+02  0.26908252216E+02  0.00000000000E+00 0. -1.
         -1    1    1    2    0  501 -0.13394495142E+01  0.24059652317E+02  0.15249568740E+03  0.15438780934E+03  0.00000000000E+00 0.  1.
</event>
<event>
 4    1  0.6740123E+001  0.2521303E+02  0.7546771E-02  0.1466434E+00
          2   -1    0    0  502    0  0.00000000000E+00  0.00000000000E+00  0.37924513962E+02  0.37924513962E+02  0.00000000000E+00 0.  1.
         -2   -1    0    0    0  501 -0.00000000000E+00 -0.00000000000E+00 -0.26917395958E+02  0.26917395958E+02  0.00000000000E+00 0. -1.
          1    1    1    2  502    0  0.11096386676E+02 -0.22639943853E+02 -0.14410245687E+02  0.29040524026E+02  0.00000000000E+00 0. -1.
         -1    1    1    2    0  501 -0.11096386676E+02  0.22639943853E+02  0.25417363691E+02  0.35801385895E+02  0.00000000000E+00 0.  1.
</event>
<event>
 4    1  0.6740123E+001  0.2179487E+02  0.7546771E-02  0.1508212E+00
          2   -1    0    0  502    0  0.00000000000E+00  0.00000000000E+00  0.82996683939E+01  0.82996683939E+01  0.00000000000E+00 0. -1.
         -2   -1    0    0    0  501 -0.00000000000E+00 -0.00000000000E+00 -0.57265087031E+02  0.57265087031E+02  0.00000000000E+00 0.  1.
          1    1    1    2  502    0 -0.21790034468E+02 -0.45931624672E+00 -0.25256295624E+02  0.33360111543E+02  0.00000000000E+00 0.  1.
         -1    1    1    2    0  501  0.21790034468E+02  0.45931624672E+00 -0.23709123013E+02  0.32204643882E+02  0.00000000000E+00 0. -1.
</event>
<event>
 4    1  0.6740123E+001  0.2178179E+02  0.7546771E-02  0.1508389E+00
          2   -1    0    0  502    0  0.00000000000E+00  0.00000000000E+00  0.28356534384E+03  0.28356534384E+03  0.00000000000E+00 0.  1.
         -2   -1    0    0    0  501 -0.00000000000E+00 -0.00000000000E+00 -0.17112248206E+01  0.17112248206E+01  0.00000000000E+00 0. -1.
          1    1    1    2  502    0  0.11800556341E+02 -0.18308288739E+02  0.16220440092E+03  0.16366036247E+03  0.00000000000E+00 0.  1.
         -1    1    1    2    0  501 -0.11800556341E+02  0.18308288739E+02  0.11964971810E+03  0.12161620618E+03  0.00000000000E+00 0. -1.
</event>
<event>
 4    1  0.6740123E+001  0.7175251E+02  0.7546771E-02  0.1224408E+00
          2   -1    0    0  502    0  0.00000000000E+00  0.00000000000E+00  0.17854056295E+04  0.17854056295E+04  0.00000000000E+00 0. -1.
         -2   -1    0    0    0  501 -0.00000000000E+00 -0.00000000000E+00 -0.30698772705E+01  0.30698772705E+01  0.00000000000E+00 0.  1.
          1    1    1    2  502    0  0.69851601857E+02  0.16406597103E+02  0.67089816940E+03  0.67472422249E+03  0.00000000000E+00 0.  1.
         -1    1    1    2    0  501 -0.69851601857E+02 -0.16406597103E+02  0.11114375828E+04  0.11137512843E+04  0.00000000000E+00 0. -1.
</event>
<event>
 4    1  0.6740123E+001  0.2208537E+02  0.7546771E-02  0.1504314E+00
          2   -1    0    0  502    0  0.00000000000E+00  0.00000000000E+00  0.81023395385E+02  0.81023395385E+02  0.00000000000E+00 0.  1.
         -2   -1    0    0    0  501 -0.00000000000E+00 -0.00000000000E+00 -0.63566055215E+01  0.63566055215E+01  0.00000000000E+00 0. -1.
          1    1    1    2  502    0  0.84051421458E+01 -0.20423449234E+02  0.27280125532E+02  0.35099415125E+02  0.00000000000E+00 0.  1.
         -1    1    1    2    0  501 -0.84051421458E+01  0.20423449234E+02  0.47386664332E+02  0.52280585781E+02  0.00000000000E+00 0. -1.
</event>
<event>
 4    1  0.6740123E+001  0.2708710E+02  0.7546771E-02  0.1446735E+00
          2   -1    0    0  502    0  0.00000000000E+00  0.00000000000E+00  0.25335917149E+04  0.25335917149E+04  0.00000000000E+00 0. -1.
         -2   -1    0    0    0  501 -0.00000000000E+00 -0.00000000000E+00 -0.31461417245E+00  0.31461417245E+00  0.00000000000E+00 0.  1.
          1    1    1    2  502    0 -0.26683290893E+02 -0.46597050416E+01  0.90934617740E+03  0.90974951565E+03  0.00000000000E+00 0.  1.
         -1    1    1    2    0  501  0.26683290893E+02  0.46597050416E+01  0.16239309233E+04  0.16241568134E+04  0.00000000000E+00 0. -1.
</event>
<event>
 4    1  0.6740123E+001  0.2684987E+02  0.7546771E-02  0.1449122E+00
          2   -1    0    0  502    0  0.00000000000E+00  0.00000000000E+00  0.68616245582E+01  0.68616245582E+01  0.00000000000E+00 0. -1.
         -2   -1    0    0    0  501 -0.00000000000E+00 -0.00000000000E+00 -0.10562791703E+03  0.10562791703E+03  0.00000000000E+00 0.  1.
          1    1    1    2  502    0 -0.75433013666E+01 -0.25768474975E+02 -0.45276712664E+02  0.52639304780E+02  0.00000000000E+00 0.  1.
         -1    1    1    2    0  501  0.75433013666E+01  0.25768474975E+02 -0.53489579811E+02  0.59850236811E+02  0.00000000000E+00 0. -1.
</event>
<event>
 4    1  0.6740123E+001  0.2048926E+02  0.7546771E-02  0.1526683E+00
          2   -1    0    0  502    0  0.00000000000E+00  0.00000000000E+00  0.17821927711E+02  0.17821927711E+02  0.00000000000E+00 0.  1.
         -2   -1    0    0    0  501 -0.00000000000E+00 -0.00000000000E+00 -0.23811893700E+02  0.23811893700E+02  0.00000000000E+00 0. -1.
          1    1    1    2  502    0 -0.17313011694E+02 -0.10957609426E+02 -0.51538586746E+01  0.21127513755E+02  0.00000000000E+00 0. -1.
         -1    1    1    2    0  501  0.17313011694E+02  0.10957609426E+02 -0.83610731398E+00  0.20506307656E+02  0.00000000000E+00 0.  1.
</event>
<event>
 4    1  0.6740123E+001  0.2797629E+02  0.7546771E-02  0.1438040E+00
          2   -1    0    0  502    0  0.00000000000E+00  0.00000000000E+00  0.37658217422E+03  0.37658217422E+03  0.00000000000E+00 0.  1.
         -2   -1    0    0    0  501 -0.00000000000E+00 -0.00000000000E+00 -0.21519235563E+01  0.21519235563E+01  0.00000000000E+00 0. -1.
          1    1    1    2  502    0 -0.20123802156E+02 -0.19434643004E+02  0.15220233014E+03  0.15475213104E+03  0.00000000000E+00 0. -1.
         -1    1    1    2    0  501  0.20123802156E+02  0.19434643004E+02  0.22222792053E+03  0.22398196674E+03  0.00000000000E+00 0.  1.
</event>
<event>
 4    1  0.6740123E+001  0.3546433E+02  0.7546771E-02  0.1377328E+00
          2   -1    0    0  502    0  0.00000000000E+00  0.00000000000E+00  0.80910601621E+02  0.80910601621E+02  0.00000000000E+00 0.  1.
         -2   -1    0    0    0  501 -0.00000000000E+00 -0.00000000000E+00 -0.18314986577E+02  0.18314986577E+02  0.00000000000E+00 0. -1.
          1    1    1    2  502    0 -0.20701168904E+02  0.28795488334E+02  0.12001916872E+02  0.37440146247E+02  0.00000000000E+00 0. -1.
         -1    1    1    2    0  501  0.20701168904E+02 -0.28795488334E+02  0.50593698172E+02  0.61785441951E+02  0.00000000000E+00 0.  1.
</event>
<event>
 4    1  0.6740123E+001  0.3744471E+02  0.7546771E-02  0.1364147E+00
          2   -1    0    0  502    0  0.00000000000E+00  0.00000000000E+00  0.23999740437E+03  0.23999740437E+03  0.00000000000E+00 0.  1.
         -2   -1    0    0    0  501 -0.00000000000E+00 -0.00000000000E+00 -0.81295981719E+01  0.81295981719E+01  0.00000000000E+00 0. -1.
          1    1    1    2  502    0  0.24135484060E+02 -0.28628388248E+02  0.50125250124E+02  0.62567139175E+02  0.00000000000E+00 0. -1.
         -1    1    1    2    0  501 -0.24135484060E+02  0.28628388248E+02  0.18174255607E+03  0.18555986336E+03  0.00000000000E+00 0.  1.
</event>
<event>
 4    1  0.6740123E+001  0.2827402E+02  0.7546771E-02  0.1435214E+00
          2   -1    0    0  502    0  0.00000000000E+00  0.00000000000E+00  0.34811407420E+03  0.34811407420E+03  0.00000000000E+00 0.  1.
         -2   -1    0    0    0  501 -0.00000000000E+00 -0.00000000000E+00 -0.45442377881E+01  0.45442377881E+01  0.00000000000E+00 0. -1.
          1    1    1    2  502    0  0.22988728872E+02  0.16460214945E+02  0.29579956714E+03  0.29714778184E+03  0.00000000000E+00 0.  1.
         -1    1    1    2    0  501 -0.22988728872E+02 -0.16460214945E+02  0.47770269271E+02  0.55510530149E+02  0.00000000000E+00 0. -1.
</event>
<event>
 4    1  0.6740123E+001  0.2673682E+02  0.7546771E-02  0.1450270E+00
          2   -1    0    0  502    0  0.00000000000E+00  0.00000000000E+00  0.14762959230E+04  0.14762959230E+04  0.00000000000E+00 0.  1.
         -2   -1    0    0    0  501 -0.00000000000E+00 -0.00000000000E+00 -0.61696698487E+00  0.61696698487E+00  0.00000000000E+00 0. -1.
          1    1    1    2  502    0 -0.16474681839E+02  0.21058069848E+02  0.10803707542E+04  0.10807015425E+04  0.00000000000E+00 0.  1.
         -1    1    1    2    0  501  0.16474681839E+02 -0.21058069848E+02  0.39530820174E+03  0.39621134740E+03  0.00000000000E+00 0. -1.
</event>
<event>
 4    1  0.6740123E+001  0.2384409E+02  0.7546771E-02  0.1482162E+00
          2   -1    0    0  502    0  0.00000000000E+00  0.00000000000E+00  0.94249317859E+01  0.94249317859E+01  0.00000000000E+00 0. -1.
         -2   -1    0    0    0  501 -0.00000000000E+00 -0.00000000000E+00 -0.77830301753E+02  0.77830301753E+02  0.00000000000E+00 0.  1.
          1    1    1    2  502    0 -0.23501904577E+02 -0.40250559841E+01 -0.13510985156E+02  0.27405972238E+02  0.00000000000E+00 0. -1.
         -1    1    1    2    0  501  0.23501904577E+02  0.40250559841E+01 -0.54894384812E+02  0.59849261301E+02  0.00000000000E+00 0.  1.
</event>
<event>
 4    1  0.6740123E+001  0.2739439E+02  0.7546771E-02  0.1443686E+00
          2   -1    0    0  502    0  0.00000000000E+00  0.00000000000E+00  0.32404268337E+01  0.32404268337E+01  0.00000000000E+00 0.  1.
         -2   -1    0    0    0  501 -0.00000000000E+00 -0.00000000000E+00 -0.24143053904E+03  0.24143053904E+03  0.00000000000E+00 0. -1.
          1    1    1    2  502    0 -0.64105499609E+01  0.26633769342E+02 -0.94397746555E+02  0.98292356645E+02  0.00000000000E+00 0.  1.
         -1    1    1    2    0  501  0.64105499609E+01 -0.26633769342E+02 -0.14379236565E+03  0.14637860923E+03  0.00000000000E+00 0. -1.
</event>
<event>
 4    1  0.6740123E+001  0.2168874E+02  0.7546771E-02  0.1509654E+00
          2   -1    0    0  502    0  0.00000000000E+00  0.00000000000E+00  0.37272828318E+03  0.37272828318E+03  0.00000000000E+00 0. -1.
         -2   -1    0    0    0  501 -0.00000000000E+00 -0.00000000000E+00 -0.12770841973E+01  0.12770841973E+01  0.00000000000E+00 0.  1.
          1    1    1    2  502    0  0.19642700814E+02 -0.91959594544E+01  0.20601607902E+03  0.20715459489E+03  0.00000000000E+00 0. -1.
         -1    1    1    2    0  501 -0.19642700814E+02  0.91959594544E+01  0.16543511996E+03  0.16685077250E+03  0.00000000000E+00 0.  1.
</event>
<event>
 4    1  0.6740123E+001  0.2316442E+02  0.7546771E-02  0.1490444E+00
          2   -1    0    0  502    0  0.00000000000E+00  0.00000000000E+00  0.97455618265E+03  0.97455618265E+03  0.00000000000E+00 0.  1.
         -2   -1    0    0    0  501 -0.00000000000E+00 -0.00000000000E+00 -0.57051642519E+00  0.57051642519E+00  0.00000000000E+00 0. -1.
          1    1    1    2  502    0 -0.10548728703E+02  0.20623155288E+02  0.57809053090E+03  0.57855445044E+03  0.00000000000E+00 0. -1.
         -1    1    1    2    0  501  0.10548728703E+02 -0.20623155288E+02  0.39589513533E+03  0.39657224864E+03  0.00000000000E+00 0.  1.
</event>
<event>
 4    1  0.6740123E+001  0.5990223E+02  0.7546771E-02  0.1260165E+00
          2   -1    0    0  502    0  0.00000000000E+00  0.00000000000E+00  0.23302405045E+04  0.23302405045E+04  0.00000000000E+00 0.  1.
         -2   -1    0    0    0  501 -0.00000000000E+00 -0.00000000000E+00 -0.16429495534E+01  0.16429495534E+01  0.00000000000E+00 0. -1.
          1    1    1    2  502    0  0.42427279419E+02  0.42287152781E+02  0.14563385891E+04  0.14575700201E+04  0.00000000000E+00 0.  1.
         -1    1    1    2    0  501 -0.42427279419E+02 -0.42287152781E+02  0.87225896576E+03  0.87431343389E+03  0.00000000000E+00 0. -1.
</event>
<event>
 4    1  0.6740123E+001  0.3937039E+02  0.7546771E-02  0.1352215E+00
          2   -1    0    0  502    0  0.00000000000E+00  0.00000000000E+00  0.77637896346E+03  0.77637896346E+03  0.00000000000E+00 0.  1.
         -2   -1    0    0    0  501 -0.00000000000E+00 -0.00000000000E+00 -0.27978104490E+01  0.27978104490E+01  0.00000000000E+00 0. -1.
          1    1    1    2  502    0  0.73418995069E+01 -0.38679765024E+02  0.17829264013E+03  0.18258776858E+03  0.00000000000E+00 0. -1.
         -1    1    1    2    0  501 -0.73418995069E+01  0.38679765024E+02  0.59528851289E+03  0.59658900533E+03  0.00000000000E+00 0.  1.
</event>
<event>
 4    1  0.6740123E+001  0.2727220E+02  0.7546771E-02  0.1444893E+00
          2   -1    0    0  502    0  0.00000000000E+00  0.00000000000E+00  0.13921797349E+04  0.13921797349E+04  0.00000000000E+00 0. -1.
         -2   -1    0    0    0  501 -0.00000000000E+00 -0.00000000000E+00 -0.55895319518E+00  0.55895319518E+00  0.00000000000E+00 0.  1.
          1    1    1    2  502    0  0.20902884846E+02 -0.17516913904E+02  0.54941643143E+03  0.55009289033E+03  0.00000000000E+00 0.  1.
         -1    1    1    2    0  501 -0.20902884846E+02  0.17516913904E+02  0.84220435028E+03  0.84264579777E+03  0.00000000000E+00 0. -1.
</event>
<event>
 4    1  0.6740123E+001  0.3193737E+02  0.7546771E-02  0.1403476E+00
          2   -1    0    0  502    0  0.00000000000E+00  0.00000000000E+00  0.11461451675E+01  0.11461451675E+01  0.00000000000E+00 0.  1.
         -2   -1    0    0    0  501 -0.00000000000E+00 -0.00000000000E+00 -0.10013556274E+04  0.10013556274E+04  0.00000000000E+00 0. -1.
          1    1    1    2  502    0  0.69657936589E+01 -0.31168469477E+02 -0.33290255151E+03  0.33443101617E+03  0.00000000000E+00 0.  1.
         -1    1    1    2    0  501 -0.69657936589E+01  0.31168469477E+02 -0.66730693075E+03  0.66807075643E+03  0.00000000000E+00 0. -1.
</event>
<event>
 4    1  0.6740123E+001  0.2777124E+02  0.7546771E-02  0.1440011E+00
          2   -1    0    0  502    0  0.00000000000E+00  0.00000000000E+00  0.10142839145E+04  0.10142839145E+04  0.00000000000E+00 0.  1.
         -2   -1    0    0    0  501 -0.00000000000E+00 -0.00000000000E+00 -0.84747717041E+00  0.84747717041E+00  0.00000000000E+00 0. -1.
          1    1    1    2  502    0 -0.24419431074E+02 -0.13226230756E+02  0.34400275484E+03  0.34512191633E+03  0.00000000000E+00 0.  1.
         -1    1    1    2    0  501  0.24419431074E+02  0.13226230756E+02  0.66943368245E+03  0.67000947530E+03  0.00000000000E+00 0. -1.
</event>
<event>
 4    1  0.6740123E+001  0.2157019E+02  0.7546771E-02  0.1511277E+00
          2   -1    0    0  502    0  0.00000000000E+00  0.00000000000E+00  0.17541374237E+01  0.17541374237E+01  0.00000000000E+00 0.  1.
         -2   -1    0    0    0  501 -0.00000000000E+00 -0.00000000000E+00 -0.36277632127E+03  0.36277632127E+03  0.00000000000E+00 0. -1.
          1    1    1    2  502    0 -0.21159710330E+02  0.41880713975E+01 -0.86004937439E+02  0.88668610834E+02  0.00000000000E+00 0.  1.
         -1    1    1    2    0  501  0.21159710330E+02 -0.41880713975E+01 -0.27501724641E+03  0.27586184786E+03  0.00000000000E+00 0. -1.
</event>
<event>
 4    1  0.6740123E+001  0.2182524E+02  0.7546771E-02  0.1507801E+00
          2   -1    0    0  502    0  0.00000000000E+00  0.00000000000E+00  0.83277954744E+03  0.83277954744E+03  0.00000000000E+00 0. -1.
         -2   -1    0    0    0  501 -0.00000000000E+00 -0.00000000000E+00 -0.63319610767E+00  0.63319610767E+00  0.00000000000E+00 0.  1.
          1    1    1    2  502    0 -0.21700950700E+02 -0.23258786203E+01  0.28651615181E+03  0.28734621316E+03  0.00000000000E+00 0.  1.
         -1    1    1    2    0  501  0.21700950700E+02  0.23258786203E+01  0.54563019952E+03  0.54606653038E+03  0.00000000000E+00 0. -1.
</event>
<event>
 4    1  0.6740123E+001  0.2486695E+02  0.7546771E-02  0.1470297E+00
          2   -1    0    0  502    0  0.00000000000E+00  0.00000000000E+00  0.41877022917E+02  0.41877022917E+02  0.00000000000E+00 0. -1.
         -2   -1    0    0    0  501 -0.00000000000E+00 -0.00000000000E+00 -0.24293261668E+02  0.24293261668E+02  0.00000000000E+00 0.  1.
          1    1    1    2  502    0  0.83098890951E+01 -0.23437380128E+02 -0.11927142855E+02  0.27579372377E+02  0.00000000000E+00 0.  1.
         -1    1    1    2    0  501 -0.83098890951E+01  0.23437380128E+02  0.29510904104E+02  0.38590912208E+02  0.00000000000E+00 0. -1.
</event>
<event>
 4    1  0.6740123E+001  0.2698380E+02  0.7546771E-02  0.1447771E+00
          2   -1    0    0  502    0  0.00000000000E+00  0.00000000000E+00  0.15435795105E+04  0.15435795105E+04  0.00000000000E+00 0. -1.
         -2   -1    0    0    0  501 -0.00000000000E+00 -0.00000000000E+00 -0.58572635385E+00  0.58572635385E+00  0.00000000000E+00 0.  1.
          1    1    1    2  502    0  0.11619798524E+02 -0.24353766052E+02  0.43085712815E+03  0.43170127463E+03  0.00000000000E+00 0.  1.
         -1    1    1    2    0  501 -0.11619798524E+02  0.24353766052E+02  0.11121366560E+04  0.11124639622E+04  0.00000000000E+00 0. -1.
</event>
<event>
 4    1  0.6740123E+001  0.6154140E+02  0.7546771E-02  0.1254683E+00
          2   -1    0    0  502    0  0.00000000000E+00  0.00000000000E+00  0.10967707164E+04  0.10967707164E+04  0.00000000000E+00 0. -1.
         -2   -1    0    0    0  501 -0.00000000000E+00 -0.00000000000E+00 -0.34948091108E+01  0.34948091108E+01  0.00000000000E+00 0.  1.
          1    1    1    2  502    0  0.37038133067E+02 -0.49147941703E+02  0.60668196507E+03  0.60979533470E+03  0.00000000000E+00 0.  1.
         -1    1    1    2    0  501 -0.37038133067E+02  0.49147941703E+02  0.48659394226E+03  0.49047019086E+03  0.00000000000E+00 0. -1.
</event>
<event>
 4    1  0.6740123E+001  0.2416111E+02  0.7546771E-02  0.1478411E+00
          2   -1    0    0  502    0  0.00000000000E+00  0.00000000000E+00  0.48558564793E+02  0.48558564793E+02  0.00000000000E+00 0.  1.
         -2   -1    0    0    0  501 -0.00000000000E+00 -0.00000000000E+00 -0.13028785603E+02  0.13028785603E+02  0.00000000000E+00 0. -1.
          1    1    1    2  502    0  0.67730986140E+01  0.23192329651E+02  0.92037504700E+01  0.25854748929E+02  0.00000000000E+00 0. -1.
         -1    1    1    2    0  501 -0.67730986140E+01 -0.23192329651E+02  0.26326028720E+02  0.35732601467E+02  0.00000000000E+00 0.  1.
</event>
<event>
 4    1  0.6740123E+001  0.2066773E+02  0.7546771E-02  0.1524062E+00
          2   -1    0    0  502    0  0.00000000000E+00  0.00000000000E+00  0.52795822070E+03  0.52795822070E+03  0.00000000000E+00 0.  1.
         -2   -1    0    0    0  501 -0.00000000000E+00 -0.00000000000E+00 -0.81632769615E+00  0.81632769615E+00  0.00000000000E+00 0. -1.
          1    1    1    2  502    0  0.74124666542E+00 -0.20654436773E+02  0.23864193919E+03  0.23953523821E+03  0.00000000000E+00 0. -1.
         -1    1    1    2    0  501 -0.74124666542E+00  0.20654436773E+02  0.28849995381E+03  0.28923931018E+03  0.00000000000E+00 0.  1.
</event>
<event>
 4    1  0.6740123E+001  0.2021688E+02  0.7546771E-02  0.1530746E+00
          2   -1    0    0  502    0  0.00000000000E+00  0.00000000000E+00  0.45337389813E+03  0.45337389813E+03  0.00000000000E+00 0.  1.
         -2   -1    0    0    0  501 -0.00000000000E+00 -0.00000000000E+00 -0.12190672215E+01  0.12190672215E+01  0.00000000000E+00 0. -1.
          1    1    1    2  502    0 -0.71741272572E+01  0.18901169430E+02  0.34208544969E+03  0.34268232694E+03  0.00000000000E+00 0.  1.
         -1    1    1    2    0  501  0.71741272572E+01 -0.18901169430E+02  0.11006938121E+03  0.11191063840E+03  0.00000000000E+00 0. -1.
</event>
<event>
 4    1  0.6740123E+001  0.2044317E+02  0.7546771E-02  0.1527365E+00
          2   -1    0    0  502    0  0.00000000000E+00  0.00000000000E+00  0.15173472758E+04  0.15173472758E+04  0.00000000000E+00 0. -1.
         -2   -1    0    0    0  501 -0.00000000000E+00 -0.00000000000E+00 -0.39343083152E+00  0.39343083152E+00  0.00000000000E+00 0.  1.
          1    1    1    2  502    0 -0.78423398961E+01 -0.18879111702E+02  0.34287677751E+03  0.34348567322E+03  0.00000000000E+00 0.  1.
         -1    1    1    2    0  501  0.78423398961E+01  0.18879111702E+02  0.11740770675E+04  0.11742550335E+04  0.00000000000E+00 0. -1.
</event>
<event>
 4    1  0.6740123E+001  0.2193391E+02  0.7546771E-02  0.1506337E+00
          2   -1    0    0  502    0  0.00000000000E+00  0.00000000000E+00  0.77966528848E+03  0.77966528848E+03  0.00000000000E+00 0.  1.
         -2   -1    0    0    0  501 -0.00000000000E+00 -0.00000000000E+00 -0.76311953562E+00  0.76311953562E+00  0.00000000000E+00 0. -1.
          1    1    1    2  502    0 -0.15454488097E+02 -0.15564543108E+02  0.21873301754E+03  0.21983000061E+03  0.00000000000E+00 0. -1.
         -1    1    1    2    0  501  0.15454488097E+02  0.15564543108E+02  0.56016915140E+03  0.56059840741E+03  0.00000000000E+00 0.  1.
</event>
<event>
 4    1  0.6740123E+001  0.3720652E+02  0.7546771E-02  0.1365682E+00
          2   -1    0    0  502    0  0.00000000000E+00  0.00000000000E+00  0.37151441258E+03  0.37151441258E+03  0.00000000000E+00 0. -1.
         -2   -1    0    0    0  501 -0.00000000000E+00 -0.00000000000E+00 -0.40736651663E+01  0.40736651663E+01  0.00000000000E+00 0.  1.
          1    1    1    2  502    0 -0.31155862987E+02  0.20338084587E+02  0.12887194968E+03  0.13413539763E+03  0.00000000000E+00 0.  1.
         -1    1    1    2    0  501  0.31155862987E+02 -0.20338084587E+02  0.23856879773E+03  0.24145268011E+03  0.00000000000E+00 0. -1.
</event>
<event>
 4    1  0.6740123E+001  0.2054754E+02  0.7546771E-02  0.1525824E+00
          2   -1    0    0  502    0  0.00000000000E+00  0.00000000000E+00  0.52901880436E+02  0.52901880436E+02  0.00000000000E+00 0. -1.
         -2   -1    0    0    0  501 -0.00000000000E+00 -0.00000000000E+00 -0.10255350374E+02  0.10255350374E+02  0.00000000000E+00 0.  1.
          1    1    1    2  502    0 -0.12517001756E+02 -0.16294971394E+02  0.64515236062E+01  0.21536563852E+02  0.00000000000E+00 0.  1.
         -1    1    1    2    0  501  0.12517001756E+02  0.16294971394E+02  0.36195006456E+02  0.41620666958E+02  0.00000000000E+00 0. -1.
</event>
<event>
 4    1  0.6740123E+001  0.2424886E+02  0.7546771E-02  0.1477385E+00
          2   -1    0    0  502    0  0.00000000000E+00  0.00000000000E+00  0.18114328690E+02  0.18114328690E+02  0.00000000000E+00 0.  1.
         -2   -1    0    0    0  501 -0.00000000000E+00 -0.00000000000E+00 -0.71646116721E+02  0.71646116721E+02  0.00000000000E+00 0. -1.
          1    1    1    2  502    0  0.79381382950E+01  0.22912727547E+02  0.64250718068E+01  0.25085626780E+02  0.00000000000E+00 0.  1.
         -1    1    1    2    0  501 -0.79381382950E+01 -0.22912727547E+02 -0.59956859838E+02  0.64674818630E+02  0.00000000000E+00 0. -1.
</event>
<event>
 4    1  0.6740123E+001  0.3287224E+02  0.7546771E-02  0.1396172E+00
          2   -1    0    0  502    0  0.00000000000E+00  0.00000000000E+00  0.14820409336E+04  0.14820409336E+04  0.00000000000E+00 0. -1.
         -2   -1    0    0    0  501 -0.00000000000E+00 -0.00000000000E+00 -0.39445222433E+01  0.39445222433E+01  0.00000000000E+00 0.  1.
          1    1    1    2  502    0 -0.34587768786E+01  0.32689766598E+02  0.68229612616E+02  0.75735487161E+02  0.00000000000E+00 0.  1.
         -1    1    1    2    0  501  0.34587768786E+01 -0.32689766598E+02  0.14098667987E+04  0.14102499687E+04  0.00000000000E+00 0. -1.
</event>
<event>
 4    1  0.6740123E+001  0.2315733E+02  0.7546771E-02  0.1490532E+00
          2   -1    0    0  502    0  0.00000000000E+00  0.00000000000E+00  0.80387401658E+02  0.80387401658E+02  0.00000000000E+00 0.  1.
         -2   -1    0    0    0  501 -0.00000000000E+00 -0.00000000000E+00 -0.69122932550E+01  0.69122932550E+01  0.00000000000E+00 0. -1.
          1    1    1    2  502    0  0.98442202830E+01 -0.20960757261E+02  0.44893426591E+02  0.50514173942E+02  0.00000000000E+00 0. -1.
         -1    1    1    2    0  501 -0.98442202830E+01  0.20960757261E+02  0.28581681812E+02  0.36785520972E+02  0.00000000000E+00 0.  1.
</event>
<event>
 4    1  0.6740123E+001  0.2062080E+02  0.7546771E-02  0.1524748E+00
          2   -1    0    0  502    0  0.00000000000E+00  0.00000000000E+00  0.41098285799E+03  0.41098285799E+03  0.00000000000E+00 0.  1.
         -2   -1    0    0    0  501 -0.00000000000E+00 -0.00000000000E+00 -0.10967111211E+01  0.10967111211E+01  0.00000000000E+00 0. -1.
          1    1    1    2  502    0 -0.17948642457E+02  0.10152021610E+02  0.25396233250E+03  0.25479812330E+03  0.00000000000E+00 0.  1.
         -1    1    1    2    0  501  0.17948642457E+02 -0.10152021610E+02  0.15592381437E+03  0.15728144581E+03  0.00000000000E+00 0. -1.
</event>
<event>
 4    1  0.6740123E+001  0.2158023E+02  0.7546771E-02  0.1511140E+00
          2   -1    0    0  502    0  0.00000000000E+00  0.00000000000E+00  0.14163859983E+02  0.14163859983E+02  0.00000000000E+00 0. -1.
         -2   -1    0    0    0  501 -0.00000000000E+00 -0.00000000000E+00 -0.61172684016E+02  0.61172684016E+02  0.00000000000E+00 0.  1.
          1    1    1    2  502    0 -0.44712736793E+01  0.21111938164E+02 -0.49121798144E+02  0.53653119893E+02  0.00000000000E+00 0. -1.
         -1    1    1    2    0  501  0.44712736793E+01 -0.21111938164E+02  0.21129741107E+01  0.21683424106E+02  0.00000000000E+00 0.  1.
</event>
<event>
 4    1  0.6740123E+001  0.2013741E+02  0.7546771E-02  0.1531945E+00
          2   -1    0    0  502    0  0.00000000000E+00  0.00000000000E+00  0.94881677960E+03  0.94881677960E+03  0.00000000000E+00 0.  1.
         -2   -1    0    0    0  501 -0.00000000000E+00 -0.00000000000E+00 -0.83167080952E+00  0.83167080952E+00  0.00000000000E+00 0. -1.
          1    1    1    2  502    0 -0.10740239369E+02 -0.17034156757E+02  0.14293884672E+03  0.14435036938E+03  0.00000000000E+00 0. -1.
         -1    1    1    2    0  501  0.10740239369E+02  0.17034156757E+02  0.80504626207E+03  0.80529808103E+03  0.00000000000E+00 0.  1.
</event>
<event>
 4    1  0.6740123E+001  0.3155917E+02  0.7546771E-02  0.1406514E+00
          2   -1    0    0  502    0  0.00000000000E+00  0.00000000000E+00  0.78054327932E+03  0.78054327932E+03  0.00000000000E+00 0.  1.
         -2   -1    0    0    0  501 -0.00000000000E+00 -0.00000000000E+00 -0.13013909122E+01  0.13013909122E+01  0.00000000000E+00 0. -1.
          1    1    1    2  502    0  0.11805823339E+02  0.29267788605E+02  0.44421451196E+03  0.44533415943E+03  0.00000000000E+00 0. -1.
         -1    1    1    2    0  501 -0.11805823339E+02 -0.29267788605E+02  0.33502737645E+03  0.33651051081E+03  0.00000000000E+00 0.  1.
</event>
<event>
 4    1  0.6740123E+001  0.3388601E+02  0.7546771E-02  0.1388569E+00
          2   -1    0    0  502    0  0.00000000000E+00  0.00000000000E+00  0.32414014010E+03  0.32414014010E+03  0.00000000000E+00 0.  1.
         -2   -1    0    0    0  501 -0.00000000000E+00 -0.00000000000E+00 -0.48677292440E+01  0.48677292440E+01  0.00000000000E+00 0. -1.
          1    1    1    2  502    0 -0.29540791063E+02  0.16601306799E+02  0.24547052640E+03  0.24779838792E+03  0.00000000000E+00 0.  1.
         -1    1    1    2    0  501  0.29540791063E+02 -0.16601306799E+02  0.73801884455E+02  0.81209481424E+02  0.00000000000E+00 0. -1.
</event>
<event>
 4    1  0.6740123E+001  0.3016069E+02  0.7546771E-02  0.1418205E+00
          2   -1    0    0  502    0  0.00000000000E+00  0.00000000000E+00  0.58806119715E+03  0.58806119715E+03  0.00000000000E+00 0. -1.
         -2   -1    0    0    0  501 -0.00000000000E+00 -0.00000000000E+00 -0.15634895609E+01  0.15634895609E+01  0.00000000000E+00 0.  1.
          1    1    1    2  502    0 -0.23695762248E+02  0.18659536139E+02  0.32362370526E+03  0.32502610672E+03  0.00000000000E+00 0.  1.
         -1    1    1    2    0  501  0.23695762248E+02 -0.18659536139E+02  0.26287400232E+03  0.26459857999E+03  0.00000000000E+00 0. -1.
</event>
<event>
 4    1  0.6740123E+001  0.2024045E+02  0.7546771E-02  0.1530391E+00
          2   -1    0    0  502    0  0.00000000000E+00  0.00000000000E+00  0.13787787593E+03  0.13787787593E+03  0.00000000000E+00 0.  1.
         -2   -1    0    0    0  501 -0.00000000000E+00 -0.00000000000E+00 -0.51534217413E+01  0.51534217413E+01  0.00000000000E+00 0. -1.
          1    1    1    2  502    0 -0.71115679888E+00 -0.20227954275E+02  0.11289867182E+03  0.11469867470E+03  0.00000000000E+00 0.  1.
         -1    1    1    2    0  501  0.71115679888E+00  0.20227954275E+02  0.19825782366E+02  0.28332622973E+02  0.00000000000E+00 0. -1.
</event>
<event>
 4    1  0.6740123E+001  0.2556557E+02  0.7546771E-02  0.1462575E+00
          2   -1    0    0  502    0  0.00000000000E+00  0.00000000000E+00  0.65785695749E+01  0.65785695749E+01  0.00000000000E+00 0. -1.
         -2   -1    0    0    0  501 -0.00000000000E+00 -0.00000000000E+00 -0.10643019203E+03  0.10643019203E+03  0.00000000000E+00 0.  1.
          1    1    1    2  502    0 -0.25484796898E+02 -0.20306192598E+01 -0.35354753472E+02  0.43629770577E+02  0.00000000000E+00 0. -1.
         -1    1    1    2    0  501  0.25484796898E+02  0.20306192598E+01 -0.64496868985E+02  0.69378991031E+02  0.00000000000E+00 0.  1.
</event>
<event>
 4    1  0.6740123E+001  0.4640449E+02  0.7546771E-02  0.1314562E+00
          2   -1    0    0  502    0  0.00000000000E+00  0.00000000000E+00  0.88884156259E+02  0.88884156259E+02  0.00000000000E+00 0. -1.
         -2   -1    0    0    0  501 -0.00000000000E+00 -0.00000000000E+00 -0.26138458635E+02  0.26138458635E+02  0.00000000000E+00 0.  1.
          1    1    1    2  502    0 -0.11087666719E+02  0.45060410662E+02  0.46926079602E+02  0.65995711293E+02  0.00000000000E+00 0. -1.
         -1    1    1    2    0  501  0.11087666719E+02 -0.45060410662E+02  0.15819618021E+02  0.49026903600E+02  0.00000000000E+00 0.  1.
</event>
<event>
 4    1  0.6740123E+001  0.2276814E+02  0.7546771E-02  0.1495430E+00
          2   -1    0    0  502    0  0.00000000000E+00  0.00000000000E+00  0.36438946999E+02  0.36438946999E+02  0.00000000000E+00 0. -1.
         -2   -1    0    0    0  501 -0.00000000000E+00 -0.00000000000E+00 -0.14631848903E+02  0.14631848903E+02  0.00000000000E+00 0.  1.
          1    1    1    2  502    0  0.88566859445E+01 -0.20974921765E+02  0.66518637583E+01  0.23719939301E+02  0.00000000000E+00 0. -1.
         -1    1    1    2    0  501 -0.88566859445E+01  0.20974921765E+02  0.15155234338E+02  0.27350856601E+02  0.00000000000E+00 0.  1.
</event>
<event>
 4    1  0.6740123E+001  0.2354350E+02  0.7546771E-02  0.1485784E+00
          2   -1    0    0  502    0  0.00000000000E+00  0.00000000000E+00  0.10628685843E+01  0.10628685843E+01  0.00000000000E+00 0.  1.
         -2   -1    0    0    0  501 -0.00000000000E+00 -0.00000000000E+00 -0.15151617889E+04  0.15151617889E+04  0.00000000000E+00 0. -1.
          1    1    1    2  502    0 -0.10136685165E+02 -0.21249561239E+02 -0.13709828267E+04  0.13711849647E+04  0.00000000000E+00 0. -1.
         -1    1    1    2    0  501  0.10136685165E+02  0.21249561239E+02 -0.14311609362E+03  0.14503969282E+03  0.00000000000E+00 0.  1.
</event>
<event>
 4    1  0.6740123E+001  0.2218063E+02  0.7546771E-02  0.1503051E+00
          2   -1    0    0  502    0  0.00000000000E+00  0.00000000000E+00  0.20710644249E+03  0.20710644249E+03  0.00000000000E+00 0.  1.
         -2   -1    0    0    0  501 -0.00000000000E+00 -0.00000000000E+00 -0.11328366915E+02  0.11328366915E+02  0.00000000000E+00 0. -1.
          1    1    1    2  502    0 -0.22180600072E+02  0.39150435423E-01  0.79571654808E+00  0.22194902954E+02  0.00000000000E+00 0. -1.
         -1    1    1    2    0  501  0.22180600072E+02 -0.39150435423E-01  0.19498235903E+03  0.19623990645E+03  0.00000000000E+00 0.  1.
</event>
<event>
 4    1  0.6740123E+001  0.2520053E+02  0.7546771E-02  0.1466572E+00
          2   -1    0    0  502    0  0.00000000000E+00  0.00000000000E+00  0.18104042742E+01  0.18104042742E+01  0.00000000000E+00 0. -1.
         -2   -1    0    0    0  501 -0.00000000000E+00 -0.00000000000E+00 -0.40453642585E+03  0.40453642585E+03  0.00000000000E+00 0.  1.
          1    1    1    2  502    0  0.22304872988E+02  0.11728577402E+02 -0.27542129289E+03  0.27657179080E+03  0.00000000000E+00 0.  1.
         -1    1    1    2    0  501 -0.22304872988E+02 -0.11728577402E+02 -0.12730472869E+03  0.12977503933E+03  0.00000000000E+00 0. -1.
</event>
<event>
 4    1  0.6740123E+001  0.2936048E+02  0.7546771E-02  0.1425236E+00
          2   -1    0    0  502    0  0.00000000000E+00  0.00000000000E+00  0.23869379930E+03  0.23869379930E+03  0.00000000000E+00 0. -1.
         -2   -1    0    0    0  501 -0.00000000000E+00 -0.00000000000E+00 -0.36248142767E+01  0.36248142767E+01  0.00000000000E+00 0.  1.
          1    1    1    2  502    0  0.29087599906E+02  0.39936931471E+01  0.12488279401E+03  0.12828776361E+03  0.00000000000E+00 0. -1.
         -1    1    1    2    0  501 -0.29087599906E+02 -0.39936931471E+01  0.11018619101E+03  0.11403084996E+03  0.00000000000E+00 0.  1.
</event>
<event>
 4    1  0.6740123E+001  0.3772253E+02  0.7546771E-02  0.1362375E+00
          2   -1    0    0  502    0  0.00000000000E+00  0.00000000000E+00  0.28890119271E+03  0.28890119271E+03  0.00000000000E+00 0. -1.
         -2   -1    0    0    0  501 -0.00000000000E+00 -0.00000000000E+00 -0.67561381479E+01  0.67561381479E+01  0.00000000000E+00 0.  1.
          1    1    1    2  502    0  0.26591554898E+02  0.26755902210E+02  0.21802243000E+03  0.22126176596E+03  0.00000000000E+00 0.  1.
         -1    1    1    2    0  501 -0.26591554898E+02 -0.26755902210E+02  0.64122624563E+02  0.74395564894E+02  0.00000000000E+00 0. -1.
</event>
<event>
 4    1  0.6740123E+001  0.2145242E+02  0.7546771E-02  0.1512903E+00
          2   -1    0    0  502    0  0.00000000000E+00  0.00000000000E+00  0.26012581700E+01  0.26012581700E+01  0.00000000000E+00 0.  1.
         -2   -1    0    0    0  501 -0.00000000000E+00 -0.00000000000E+00 -0.19431978795E+03  0.19431978795E+03  0.00000000000E+00 0. -1.
          1    1    1    2  502    0  0.21249011750E+02  0.29471400390E+01 -0.12532492601E+03  0.12714772202E+03  0.00000000000E+00 0. -1.
         -1    1    1    2    0  501 -0.21249011750E+02 -0.29471400390E+01 -0.66393603768E+02  0.69773324101E+02  0.00000000000E+00 0.  1.
</event>
<event>
 4    1  0.6740123E+001  0.2999331E+02  0.7546771E-02  0.1419655E+00
          2   -1    0    0  502    0  0.00000000000E+00  0.00000000000E+00  0.18268430167E+03  0.18268430167E+03  0.00000000000E+00 0.  1.
         -2   -1    0    0    0  501 -0.00000000000E+00 -0.00000000000E+00 -0.66476380668E+01  0.66476380668E+01  0.00000000000E+00 0. -1.
          1    1    1    2  502    0  0.84881047841E+01  0.28767180015E+02  0.13621767575E+03  0.13948065728E+03  0.00000000000E+00 0.  1.
         -1    1    1    2    0  501 -0.84881047841E+01 -0.28767180015E+02  0.39818987855E+02  0.49851282457E+02  0.00000000000E+00 0. -1.
</event>
<event>
 4    1  0.6740123E+001  0.2026720E+02  0.7546771E-02  0.1529990E+00
          2   -1    0    0  502    0  0.00000000000E+00  0.00000000000E+00  0.28154349511E+03  0.28154349511E+03  0.00000000000E+00 0. -1.
         -2   -1    0    0    0  501 -0.00000000000E+00 -0.00000000000E+00 -0.14682175613E+01  0.14682175613E+01  0.00000000000E+00 0.  1.
          1    1    1    2  502    0 -0.14549820850E+02 -0.14108939674E+02  0.15127670251E+03  0.15262830729E+03  0.00000000000E+00 0. -1.
         -1    1    1    2    0  501  0.14549820850E+02  0.14108939674E+02  0.12879857504E+03  0.13038340538E+03  0.00000000000E+00 0.  1.
</event>
<event>
 4    1  0.6740123E+001  0.2369863E+02  0.7546771E-02  0.1483907E+00
          2   -1    0    0  502    0  0.00000000000E+00  0.00000000000E+00  0.10013185889E+04  0.10013185889E+04  0.00000000000E+00 0. -1.
         -2   -1    0    0    0  501 -0.00000000000E+00 -0.00000000000E+00 -0.81261421691E+00  0.81261421691E+00  0.00000000000E+00 0.  1.
          1    1    1    2  502    0  0.12850528990E+02 -0.19912030961E+02  0.77913388425E+03  0.77949421721E+03  0.00000000000E+00 0. -1.
         -1    1    1    2    0  501 -0.12850528990E+02  0.19912030961E+02  0.22137209039E+03  0.22263698587E+03  0.00000000000E+00 0.  1.
</event>
<event>
 4    1  0.6740123E+001  0.2131395E+02  0.7546771E-02  0.1514829E+00
          2   -1    0    0  502    0  0.00000000000E+00  0.00000000000E+00  0.17016320237E+01  0.17016320237E+01  0.00000000000E+00 0.  1.
         -2   -1    0    0    0  501 -0.00000000000E+00 -0.00000000000E+00 -0.29560920861E+03  0.29560920861E+03  0.00000000000E+00 0. -1.
          1    1    1    2  502    0  0.75456444268E+01  0.19933583871E+02 -0.19322417225E+03  0.19439615546E+03  0.00000000000E+00 0. -1.
         -1    1    1    2    0  501 -0.75456444268E+01 -0.19933583871E+02 -0.10068340433E+03  0.10291468517E+03  0.00000000000E+00 0.  1.
</event>
<event>
 4    1  0.6740123E+001  0.2154359E+02  0.7546771E-02  0.1511643E+00
          2   -1    0    0  502    0  0.00000000000E+00  0.00000000000E+00  0.16948739391E+04  0.16948739391E+04  0.00000000000E+00 0.  1.
         -2   -1    0    0    0  501 -0.00000000000E+00 -0.00000000000E+00 -0.79412706127E+00  0.79412706127E+00  0.00000000000E+00 0. -1.
          1    1    1    2  502    0 -0.20418271988E+02  0.68717208426E+01  0.15332969954E+04  0.15334483370E+04  0.00000000000E+00 0.  1.
         -1    1    1    2    0  501  0.20418271988E+02 -0.68717208426E+01  0.16078281667E+03  0.16221972912E+03  0.00000000000E+00 0. -1.
</event>
<event>
 4    1  0.6740123E+001  0.2076344E+02  0.7546771E-02  0.1522669E+00
          2   -1    0    0  502    0  0.00000000000E+00  0.00000000000E+00  0.87722242865E+02  0.87722242865E+02  0.00000000000E+00 0. -1.
         -2   -1    0    0    0  501 -0.00000000000E+00 -0.00000000000E+00 -0.66304909824E+01  0.66304909824E+01  0.00000000000E+00 0.  1.
          1    1    1    2  502    0  0.18947271411E+02 -0.84924182723E+01  0.64545018945E+02  0.67802505357E+02  0.00000000000E+00 0. -1.
         -1    1    1    2    0  501 -0.18947271411E+02  0.84924182723E+01  0.16546732938E+02  0.26550228491E+02  0.00000000000E+00 0.  1.
</event>
<event>
 4    1  0.6740123E+001  0.3069060E+02  0.7546771E-02  0.1413688E+00
          2   -1    0    0  502    0  0.00000000000E+00  0.00000000000E+00  0.24732740806E+04  0.24732740806E+04  0.00000000000E+00 0. -1.
         -2   -1    0    0    0  501 -0.00000000000E+00 -0.00000000000E+00 -0.38702991922E+00  0.38702991922E+00  0.00000000000E+00 0.  1.
          1    1    1    2  502    0  0.61588490235E+01 -0.30066284074E+02  0.10799826346E+04  0.10804186243E+04  0.00000000000E+00 0. -1.
         -1    1    1    2    0  501 -0.61588490235E+01  0.30066284074E+02  0.13929044161E+04  0.13932424862E+04  0.00000000000E+00 0.  1.
</event>
<event>
 4    1  0.6740123E+001  0.2514612E+02  0.7546771E-02  0.1467175E+00
          2   -1    0    0  502    0  0.00000000000E+00  0.00000000000E+00  0.34228760110E+01  0.34228760110E+01  0.00000000000E+00 0.  1.
         -2   -1    0    0    0  501 -0.00000000000E+00 -0.00000000000E+00 -0.19197267003E+03  0.19197267003E+03  0.00000000000E+00 0. -1.
          1    1    1    2  502    0 -0.46606573389E+01  0.24710438222E+02 -0.75305978239E+02  0.79393437024E+02  0.00000000000E+00 0.  1.
         -1    1    1    2    0  501  0.46606573389E+01 -0.24710438222E+02 -0.11324381578E+03  0.11600210902E+03  0.00000000000E+00 0. -1.
</event>
<event>
 4    1  0.6740123E+001  0.3545869E+02  0.7546771E-02  0.1377367E+00
          2   -1    0    0  502    0  0.00000000000E+00  0.00000000000E+00  0.14348390496E+04  0.14348390496E+04  0.00000000000E+00 0. -1.
         -2   -1    0    0    0  501 -0.00000000000E+00 -0.00000000000E+00 -0.12469028338E+01  0.12469028338E+01  0.00000000000E+00 0.  1.
          1    1    1    2  502    0  0.48071953232E+01 -0.35131320857E+02  0.32532380103E+03  0.32725050702E+03  0.00000000000E+00 0.  1.
         -1    1    1    2    0  501 -0.48071953232E+01  0.35131320857E+02  0.11082683457E+04  0.11088354454E+04  0.00000000000E+00 0. -1.
</event>
<event>
 4    1  0.6740123E+001  0.2041233E+02  0.7546771E-02  0.1527823E+00
          2   -1    0    0  502    0  0.00000000000E+00  0.00000000000E+00  0.22907731254E+03  0.22907731254E+03  0.00000000000E+00 0.  1.
         -2   -1    0    0    0  501 -0.00000000000E+00 -0.00000000000E+00 -0.18195166032E+01  0.18195166032E+01  0.00000000000E+00 0. -1.
          1    1    1    2  502    0  0.35777943154E+01  0.20096334399E+02  0.11579481408E+03  0.11758019492E+03  0.00000000000E+00 0.  1.
         -1    1    1    2    0  501 -0.35777943154E+01 -0.20096334399E+02  0.11146298185E+03  0.11331663423E+03  0.00000000000E+00 0. -1.
</event>
<event>
 4    1  0.6740123E+001  0.2358539E+02  0.7546771E-02  0.1485275E+00
          2   -1    0    0  502    0  0.00000000000E+00  0.00000000000E+00  0.47033793137E+01  0.47033793137E+01  0.00000000000E+00 0.  1.
         -2   -1    0    0    0  501 -0.00000000000E+00 -0.00000000000E+00 -0.17461300665E+03  0.17461300665E+03  0.00000000000E+00 0. -1.
          1    1    1    2  502    0 -0.85426708137E+01  0.21983932222E+02 -0.13588440565E+03  0.13791606940E+03  0.00000000000E+00 0. -1.
         -1    1    1    2    0  501  0.85426708137E+01 -0.21983932222E+02 -0.34025221686E+02  0.41400316561E+02  0.00000000000E+00 0.  1.
</event>
<event>
 4    1  0.6740123E+001  0.2062280E+02  0.7546771E-02  0.1524719E+00
          2   -1    0    0  502    0  0.00000000000E+00  0.00000000000E+00  0.17659266885E+04  0.17659266885E+04  0.00000000000E+00 0. -1.
         -2   -1    0    0    0  501 -0.00000000000E+00 -0.00000000000E+00 -0.41027061736E+00  0.41027061736E+00  0.00000000000E+00 0.  1.
          1    1    1    2  502    0  0.13234936545E+02  0.15815702137E+02  0.31520247952E+03  0.31587640474E+03  0.00000000000E+00 0.  1.
         -1    1    1    2    0  501 -0.13234936545E+02 -0.15815702137E+02  0.14503139384E+04  0.14504605544E+04  0.00000000000E+00 0. -1.
</event>
<event>
 4    1  0.6740123E+001  0.2081684E+02  0.7546771E-02  0.1521896E+00
          2   -1    0    0  502    0  0.00000000000E+00  0.00000000000E+00  0.25470425498E+02  0.25470425498E+02  0.00000000000E+00 0.  1.
         -2   -1    0    0    0  501 -0.00000000000E+00 -0.00000000000E+00 -0.35148588847E+02  0.35148588847E+02  0.00000000000E+00 0. -1.
          1    1    1    2  502    0  0.20658025329E+02 -0.25664469442E+01  0.16932248848E+02  0.26833592966E+02  0.00000000000E+00 0.  1.
         -1    1    1    2    0  501 -0.20658025329E+02  0.25664469442E+01 -0.26610412197E+02  0.33785421378E+02  0.00000000000E+00 0. -1.
</event>
<event>
 4    1  0.6740123E+001  0.2575423E+02  0.7546771E-02  0.1460540E+00
          2   -1    0    0  502    0  0.00000000000E+00  0.00000000000E+00  0.11826271596E+02  0.11826271596E+02  0.00000000000E+00 0.  1.
         -2   -1    0    0    0  501 -0.00000000000E+00 -0.00000000000E+00 -0.16841749622E+03  0.16841749622E+03  0.00000000000E+00 0. -1.
          1    1    1    2  502    0 -0.63971904469E+01 -0.24947072045E+02 -0.46937660902E+01  0.26178462318E+02  0.00000000000E+00 0.  1.
         -1    1    1    2    0  501  0.63971904469E+01  0.24947072045E+02 -0.15189745853E+03  0.15406530550E+03  0.00000000000E+00 0. -1.
</event>
<event>
 4    1  0.6740123E+001  0.4252898E+02  0.7546771E-02  0.1334271E+00
          2   -1    0    0  502    0  0.00000000000E+00  0.00000000000E+00  0.20354584919E+04  0.20354584919E+04  0.00000000000E+00 0. -1.
         -2   -1    0    0    0  501 -0.00000000000E+00 -0.00000000000E+00 -0.97740514262E+00  0.97740514262E+00  0.00000000000E+00 0.  1.
          1    1    1    2  502    0  0.59398440164E+01 -0.42112145440E+02  0.71032764630E+03  0.71159966248E+03  0.00000000000E+00 0.  1.
         -1    1    1    2    0  501 -0.59398440164E+01  0.42112145440E+02  0.13241534404E+04  0.13248362345E+04  0.00000000000E+00 0. -1.
</event>
<event>
 4    1  0.6740123E+001  0.2798555E+02  0.7546771E-02  0.1437952E+00
          2   -1    0    0  502    0  0.00000000000E+00  0.00000000000E+00  0.76481108858E+03  0.76481108858E+03  0.00000000000E+00 0. -1.
         -2   -1    0    0    0  501 -0.00000000000E+00 -0.00000000000E+00 -0.15198919332E+01  0.15198919332E+01  0.00000000000E+00 0.  1.
          1    1    1    2  502    0  0.22268157625E+02 -0.16950520423E+02  0.60050215665E+03  0.60115391634E+03  0.00000000000E+00 0. -1.
         -1    1    1    2    0  501 -0.22268157625E+02  0.16950520423E+02  0.16278904000E+03  0.16517706418E+03  0.00000000000E+00 0.  1.
</event>
<event>
 4    1  0.6740123E+001  0.2520602E+02  0.7546771E-02  0.1466512E+00
          2   -1    0    0  502    0  0.00000000000E+00  0.00000000000E+00  0.32089566612E+01  0.32089566612E+01  0.00000000000E+00 0.  1.
         -2   -1    0    0    0  501 -0.00000000000E+00 -0.00000000000E+00 -0.20144092343E+03  0.20144092343E+03  0.00000000000E+00 0. -1.
          1    1    1    2  502    0  0.76569837483E+01  0.24014870581E+02 -0.85724320062E+02  0.89353245376E+02  0.00000000000E+00 0. -1.
         -1    1    1    2    0  501 -0.76569837483E+01 -0.24014870581E+02 -0.11250764671E+03  0.11529663472E+03  0.00000000000E+00 0.  1.
</event>
<event>
 4    1  0.6740123E+001  0.2255785E+02  0.7546771E-02  0.1498126E+00
          2   -1    0    0  502    0  0.00000000000E+00  0.00000000000E+00  0.11780213468E+04  0.11780213468E+04  0.00000000000E+00 0.  1.
         -2   -1    0    0    0  501 -0.00000000000E+00 -0.00000000000E+00 -0.49879289692E+00  0.49879289692E+00  0.00000000000E+00 0. -1.
          1    1    1    2  502    0  0.21415146932E+02 -0.70885751006E+01  0.37306300002E+03  0.37374437575E+03  0.00000000000E+00 0. -1.
         -1    1    1    2    0  501 -0.21415146932E+02  0.70885751006E+01  0.80445955392E+03  0.80477576400E+03  0.00000000000E+00 0.  1.
</event>
<event>
 4    1  0.6740123E+001  0.2869902E+02  0.7546771E-02  0.1431249E+00
          2   -1    0    0  502    0  0.00000000000E+00  0.00000000000E+00  0.14931733932E+04  0.14931733932E+04  0.00000000000E+00 0. -1.
         -2   -1    0    0    0  501 -0.00000000000E+00 -0.00000000000E+00 -0.82090905954E+00  0.82090905954E+00  0.00000000000E+00 0.  1.
          1    1    1    2  502    0 -0.15227807141E+02 -0.24325867779E+02  0.11740317898E+04  0.11743825090E+04  0.00000000000E+00 0. -1.
         -1    1    1    2    0  501  0.15227807141E+02  0.24325867779E+02  0.31832069436E+03  0.31961179329E+03  0.00000000000E+00 0.  1.
</event>
<event>
 4    1  0.6740123E+001  0.2533311E+02  0.7546771E-02  0.1465111E+00
          2   -1    0    0  502    0  0.00000000000E+00  0.00000000000E+00  0.81030279682E+03  0.81030279682E+03  0.00000000000E+00 0. -1.
         -2   -1    0    0    0  501 -0.00000000000E+00 -0.00000000000E+00 -0.80789157162E+00  0.80789157162E+00  0.00000000000E+00 0.  1.
          1    1    1    2  502    0  0.24754633481E+02 -0.53828088071E+01  0.34788257648E+03  0.34880374644E+03  0.00000000000E+00 0.  1.
         -1    1    1    2    0  501 -0.24754633481E+02  0.53828088071E+01  0.46161232876E+03  0.46230694195E+03  0.00000000000E+00 0. -1.
</event>
<event>
 4    1  0.6740123E+001  0.2094040E+02  0.7546771E-02  0.1520117E+00
          2   -1    0    0  502    0  0.00000000000E+00  0.00000000000E+00  0.13221016293E+01  0.13221016293E+01  0.00000000000E+00 0.  1.
         -2   -1    0    0    0  501 -0.00000000000E+00 -0.00000000000E+00 -0.34052857024E+03  0.34052857024E+03  0.00000000000E+00 0. -1.
          1    1    1    2  502    0  0.50369616585E+01 -0.20325586617E+02 -0.14203367037E+03  0.14356902164E+03  0.00000000000E+00 0.  1.
         -1    1    1    2    0  501 -0.50369616585E+01  0.20325586617E+02 -0.19717279823E+03  0.19828165023E+03  0.00000000000E+00 0. -1.
</event>
<event>
 4    1  0.6740123E+001  0.9198173E+02  0.7546771E-02  0.1178478E+00
          2   -1    0    0  502    0  0.00000000000E+00  0.00000000000E+00  0.63958567780E+03  0.63958567780E+03  0.00000000000E+00 0. -1.
         -2   -1    0    0    0  501 -0.00000000000E+00 -0.00000000000E+00 -0.23568788215E+02  0.23568788215E+02  0.00000000000E+00 0.  1.
          1    1    1    2  502    0 -0.48563582371E+02 -0.78116692070E+02  0.52763575310E+03  0.53559324778E+03  0.00000000000E+00 0. -1.
         -1    1    1    2    0  501  0.48563582371E+02  0.78116692070E+02  0.88381136485E+02  0.12756121824E+03  0.00000000000E+00 0.  1.
</event>
<event>
 4    1  0.6740123E+001  0.2474443E+02  0.7546771E-02  0.1471683E+00
          2   -1    0    0  502    0  0.00000000000E+00  0.00000000000E+00  0.13725856930E+03  0.13725856930E+03  0.00000000000E+00 0. -1.
         -2   -1    0    0    0  501 -0.00000000000E+00 -0.00000000000E+00 -0.45788012239E+01  0.45788012239E+01  0.00000000000E+00 0.  1.
          1    1    1    2  502    0 -0.24394081529E+02 -0.41491851866E+01  0.77723373300E+02  0.81567209763E+02  0.00000000000E+00 0. -1.
         -1    1    1    2    0  501  0.24394081529E+02  0.41491851866E+01  0.54956394773E+02  0.60270160758E+02  0.00000000000E+00 0.  1.
</event>
<event>
 4    1  0.6740123E+001  0.2383803E+02  0.7546771E-02  0.1482235E+00
          2   -1    0    0  502    0  0.00000000000E+00  0.00000000000E+00  0.61510466561E+03  0.61510466561E+03  0.00000000000E+00 0. -1.
         -2   -1    0    0    0  501 -0.00000000000E+00 -0.00000000000E+00 -0.22834747859E+01  0.22834747859E+01  0.00000000000E+00 0.  1.
          1    1    1    2  502    0  0.22972751819E+02  0.63643075665E+01  0.68209906563E+02  0.72255401807E+02  0.00000000000E+00 0.  1.
         -1    1    1    2    0  501 -0.22972751819E+02 -0.63643075665E+01  0.54461128426E+03  0.54513273859E+03  0.00000000000E+00 0. -1.
</event>
<event>
 4    1  0.6740123E+001  0.3040996E+02  0.7546771E-02  0.1416067E+00
          2   -1    0    0  502    0  0.00000000000E+00  0.00000000000E+00  0.17827696233E+04  0.17827696233E+04  0.00000000000E+00 0.  1.
         -2   -1    0    0    0  501 -0.00000000000E+00 -0.00000000000E+00 -0.72336344499E+00  0.72336344499E+00  0.00000000000E+00 0. -1.
          1    1    1    2  502    0 -0.61047953714E+01 -0.29790885367E+02  0.13653282506E+04  0.13656668690E+04  0.00000000000E+00 0. -1.
         -1    1    1    2    0  501  0.61047953714E+01  0.29790885367E+02  0.41671800929E+03  0.41782611771E+03  0.00000000000E+00 0.  1.
</event>
<event>
 4    1  0.6740123E+001  0.2438183E+02  0.7546771E-02  0.1475839E+00
          2   -1    0    0  502    0  0.00000000000E+00  0.00000000000E+00  0.15817054615E+04  0.15817054615E+04  0.00000000000E+00 0. -1.
         -2   -1    0    0    0  501 -0.00000000000E+00 -0.00000000000E+00 -0.59734259203E+00  0.59734259203E+00  0.00000000000E+00 0.  1.
          1    1    1    2  502    0  0.15530842430E+02  0.18795392410E+02  0.30879070938E+03  0.30975179748E+03  0.00000000000E+00 0.  1.
         -1    1    1    2    0  501 -0.15530842430E+02 -0.18795392410E+02  0.12723174095E+04  0.12725510066E+04  0.00000000000E+00 0. -1.
</event>
<event>
 4    1  0.6740123E+001  0.2199385E+02  0.7546771E-02  0.1505534E+00
          2   -1    0    0  502    0  0.00000000000E+00  0.00000000000E+00  0.41995810995E+02  0.41995810995E+02  0.00000000000E+00 0.  1.
         -2   -1    0    0    0  501 -0.00000000000E+00 -0.00000000000E+00 -0.11525910368E+02  0.11525910368E+02  0.00000000000E+00 0. -1.
          1    1    1    2  502    0  0.51025759897E+01  0.21393760269E+02  0.14556957121E+02  0.26374879352E+02  0.00000000000E+00 0.  1.
         -1    1    1    2    0  501 -0.51025759897E+01 -0.21393760269E+02  0.15912943505E+02  0.27146842011E+02  0.00000000000E+00 0. -1.
</event>
<event>
 4    1  0.6740123E+001  0.2766941E+02  0.7546771E-02  0.1440997E+00
          2   -1    0    0  502    0  0.00000000000E+00  0.00000000000E+00  0.48330557330E+03  0.48330557330E+03  0.00000000000E+00 0. -1.
         -2   -1    0    0    0  501 -0.00000000000E+00 -0.00000000000E+00 -0.15868253684E+01  0.15868253684E+01  0.00000000000E+00 0.  1.
          1    1    1    2  502    0 -0.94866922322E+01  0.25992280696E+02  0.25093888488E+03  0.25245973923E+03  0.00000000000E+00 0. -1.
         -1    1    1    2    0  501  0.94866922322E+01 -0.25992280696E+02  0.23077986305E+03  0.23243265944E+03  0.00000000000E+00 0.  1.
</event>
<event>
 4    1  0.6740123E+001  0.2540372E+02  0.7546771E-02  0.1464337E+00
          2   -1    0    0  502    0  0.00000000000E+00  0.00000000000E+00  0.86488116028E+03  0.86488116028E+03  0.00000000000E+00 0.  1.
         -2   -1    0    0    0  501 -0.00000000000E+00 -0.00000000000E+00 -0.75882092205E+00  0.75882092205E+00  0.00000000000E+00 0. -1.
          1    1    1    2  502    0  0.71610463189E+01 -0.24373520389E+02  0.37617752054E+03  0.37703431679E+03  0.00000000000E+00 0. -1.
         -1    1    1    2    0  501 -0.71610463189E+01  0.24373520389E+02  0.48794481882E+03  0.48860566441E+03  0.00000000000E+00 0.  1.
</event>
<event>
 4    1  0.6740123E+001  0.3248180E+02  0.7546771E-02  0.1399187E+00
          2   -1    0    0  502    0  0.00000000000E+00  0.00000000000E+00  0.16281248830E+04  0.16281248830E+04  0.00000000000E+00 0. -1.
         -2   -1    0    0    0  501 -0.00000000000E+00 -0.00000000000E+00 -0.65679463527E+00  0.65679463527E+00  0.00000000000E+00 0.  1.
          1    1    1    2  502    0 -0.31026098612E+02 -0.96150022736E+01  0.71963461296E+03  0.72036729745E+03  0.00000000000E+00 0. -1.
         -1    1    1    2    0  501  0.31026098612E+02  0.96150022736E+01  0.90783347537E+03  0.90841438015E+03  0.00000000000E+00 0.  1.
</event>
<event>
 4    1  0.6740123E+001  0.2344388E+02  0.7546771E-02  0.1486998E+00
          2   -1    0    0  502    0  0.00000000000E+00  0.00000000000E+00  0.56788645454E+03  0.56788645454E+03  0.00000000000E+00 0.  1.
         -2   -1    0    0    0  501 -0.00000000000E+00 -0.00000000000E+00 -0.17121637094E+01  0.17121637094E+01  0.00000000000E+00 0. -1.
          1    1    1    2  502    0  0.12325569403E+02  0.19942309511E+02  0.47086797361E+03  0.47145123178E+03  0.00000000000E+00 0.  1.
         -1    1    1    2    0  501 -0.12325569403E+02 -0.19942309511E+02  0.95306317217E+02  0.98147386472E+02  0.00000000000E+00 0. -1.
</event>
<event>
 4    1  0.6740123E+001  0.2920893E+02  0.7546771E-02  0.1426598E+00
          2   -1    0    0  502    0  0.00000000000E+00  0.00000000000E+00  0.12112389004E+04  0.12112389004E+04  0.00000000000E+00 0.  1.
         -2   -1    0    0    0  501 -0.00000000000E+00 -0.00000000000E+00 -0.89495583663E+00  0.89495583663E+00  0.00000000000E+00 0. -1.
          1    1    1    2  502    0 -0.44848988693E+01  0.28862562604E+02  0.88485344009E+03  0.88533540101E+03  0.00000000000E+00 0.  1.
         -1    1    1    2    0  501  0.44848988693E+01 -0.28862562604E+02  0.32549050451E+03  0.32679845527E+03  0.00000000000E+00 0. -1.
</event>
<event>
 4    1  0.6740123E+001  0.2125274E+02  0.7546771E-02  0.1515687E+00
          2   -1    0    0  502    0  0.00000000000E+00  0.00000000000E+00  0.52023024032E+03  0.52023024032E+03  0.00000000000E+00 0. -1.
         -2   -1    0    0    0  501 -0.00000000000E+00 -0.00000000000E+00 -0.87568768033E+00  0.87568768033E+00  0.00000000000E+00 0.  1.
          1    1    1    2  502    0 -0.17994646024E+02  0.11308044983E+02  0.28372323036E+03  0.28451810243E+03  0.00000000000E+00 0.  1.
         -1    1    1    2    0  501  0.17994646024E+02 -0.11308044983E+02  0.23563132228E+03  0.23658782556E+03  0.00000000000E+00 0. -1.
</event>
<event>
 4    1  0.6740123E+001  0.2356653E+02  0.7546771E-02  0.1485504E+00
          2   -1    0    0  502    0  0.00000000000E+00  0.00000000000E+00  0.18559858585E+01  0.18559858585E+01  0.00000000000E+00 0. -1.
         -2   -1    0    0    0  501 -0.00000000000E+00 -0.00000000000E+00 -0.71988552647E+03  0.71988552647E+03  0.00000000000E+00 0.  1.
          1    1    1    2  502    0 -0.22774404564E+02 -0.60587137483E+01 -0.83160867347E+02  0.86435590895E+02  0.00000000000E+00 0. -1.
         -1    1    1    2    0  501  0.22774404564E+02  0.60587137483E+01 -0.63486867326E+03  0.63530592143E+03  0.00000000000E+00 0.  1.
</event>
<event>
 4    1  0.6740123E+001  0.2856190E+02  0.7546771E-02  0.1432519E+00
          2   -1    0    0  502    0  0.00000000000E+00  0.00000000000E+00  0.75715736493E+03  0.75715736493E+03  0.00000000000E+00 0. -1.
         -2   -1    0    0    0  501 -0.00000000000E+00 -0.00000000000E+00 -0.10811883595E+01  0.10811883595E+01  0.00000000000E+00 0.  1.
          1    1    1    2  502    0 -0.38388254216E+01 -0.28302750210E+02  0.35567857272E+03  0.35682352689E+03  0.00000000000E+00 0.  1.
         -1    1    1    2    0  501  0.38388254216E+01  0.28302750210E+02  0.40039760385E+03  0.40141502640E+03  0.00000000000E+00 0. -1.
</event>
<event>
 4    1  0.6740123E+001  0.2104004E+02  0.7546771E-02  0.1518694E+00
          2   -1    0    0  502    0  0.00000000000E+00  0.00000000000E+00  0.12891886305E+02  0.12891886305E+02  0.00000000000E+00 0.  1.
         -2   -1    0    0    0  501 -0.00000000000E+00 -0.00000000000E+00 -0.35962631556E+02  0.35962631556E+02  0.00000000000E+00 0. -1.
          1    1    1    2  502    0  0.20402707517E+02 -0.51393269890E+01 -0.16727080299E+02  0.26878957778E+02  0.00000000000E+00 0. -1.
         -1    1    1    2    0  501 -0.20402707517E+02  0.51393269890E+01 -0.63436649520E+01  0.21975560082E+02  0.00000000000E+00 0.  1.
</event>
<event>
 4    1  0.6740123E+001  0.2680938E+02  0.7546771E-02  0.1449532E+00
          2   -1    0    0  502    0  0.00000000000E+00  0.00000000000E+00  0.17143803822E+04  0.17143803822E+04  0.00000000000E+00 0. -1.
         -2   -1    0    0    0  501 -0.00000000000E+00 -0.00000000000E+00 -0.43418753025E+00  0.43418753025E+00  0.00000000000E+00 0.  1.
          1    1    1    2  502    0  0.16358629636E+02 -0.21240011663E+02  0.10160408459E+04  0.10163944821E+04  0.00000000000E+00 0. -1.
         -1    1    1    2    0  501 -0.16358629636E+02  0.21240011663E+02  0.69790534885E+03  0.69842008764E+03  0.00000000000E+00 0.  1.
</event>
<event>
 4    1  0.6740123E+001  0.2736752E+02  0.7546771E-02  0.1443951E+00
          2   -1    0    0  502    0  0.00000000000E+00  0.00000000000E+00  0.14230851691E+03  0.14230851691E+03  0.00000000000E+00 0. -1.
         -2   -1    0    0    0  501 -0.00000000000E+00 -0.00000000000E+00 -0.86264283613E+01  0.86264283613E+01  0.00000000000E+00 0.  1.
          1    1    1    2  502    0  0.27077761911E+02  0.39718781688E+01  0.19718333179E+02  0.33731197275E+02  0.00000000000E+00 0.  1.
         -1    1    1    2    0  501 -0.27077761911E+02 -0.39718781688E+01  0.11396375537E+03  0.11720374799E+03  0.00000000000E+00 0. -1.
</event>
<event>
 4    1  0.6740123E+001  0.2523396E+02  0.7546771E-02  0.1466203E+00
          2   -1    0    0  502    0  0.00000000000E+00  0.00000000000E+00  0.49466665341E+01  0.49466665341E+01  0.00000000000E+00 0.  1.
         -2   -1    0    0    0  501 -0.00000000000E+00 -0.00000000000E+00 -0.13914162441E+03  0.13914162441E+03  0.00000000000E+00 0. -1.
          1    1    1    2  502    0 -0.66791198343E+01  0.24333973419E+02 -0.86810904059E+02  0.90404015218E+02  0.00000000000E+00 0. -1.
         -1    1    1    2    0  501  0.66791198343E+01 -0.24333973419E+02 -0.47384053821E+02  0.53684275730E+02  0.00000000000E+00 0.  1.
</event>
<event>
 4    1  0.6740123E+001  0.3718987E+02  0.7546771E-02  0.1365789E+00
          2   -1    0    0  502    0  0.00000000000E+00  0.00000000000E+00  0.52691749229E+03  0.52691749229E+03  0.00000000000E+00 0. -1.
         -2   -1    0    0    0  501 -0.00000000000E+00 -0.00000000000E+00 -0.38012914745E+01  0.38012914745E+01  0.00000000000E+00 0.  1.
          1    1    1    2  502    0  0.19343997778E+02  0.31763120723E+02  0.11393589444E+03  0.11985188413E+03  0.00000000000E+00 0.  1.
         -1    1    1    2    0  501 -0.19343997778E+02 -0.31763120723E+02  0.40918030638E+03  0.41086689963E+03  0.00000000000E+00 0. -1.
</event>
<event>
 4    1  0.6740123E+001  0.2408249E+02  0.7546771E-02  0.1479335E+00
          2   -1    0    0  502    0  0.00000000000E+00  0.00000000000E+00  0.16654245648E+03  0.16654245648E+03  0.00000000000E+00 0. -1.
         -2   -1    0    0    0  501 -0.00000000000E+00 -0.00000000000E+00 -0.37548322099E+01  0.37548322099E+01  0.00000000000E+00 0.  1.
          1    1    1    2  502    0  0.89461629834E+01  0.22359174144E+02  0.58457887995E+02  0.63224134390E+02  0.00000000000E+00 0.  1.
         -1    1    1    2    0  501 -0.89461629834E+01 -0.22359174144E+02  0.10432973628E+03  0.10707315430E+03  0.00000000000E+00 0. -1.
</event>
<event>
 4    1  0.6740123E+001  0.2048170E+02  0.7546771E-02  0.1526795E+00
          2   -1    0    0  502    0  0.00000000000E+00  0.00000000000E+00  0.85604989307E+00  0.85604989307E+00  0.00000000000E+00 0. -1.
         -2   -1    0    0    0  501 -0.00000000000E+00 -0.00000000000E+00 -0.51996757158E+03  0.51996757158E+03  0.00000000000E+00 0.  1.
          1    1    1    2  502    0 -0.17666389482E+02 -0.10363338496E+02 -0.19708219225E+03  0.19814361106E+03  0.00000000000E+00 0. -1.
         -1    1    1    2    0  501  0.17666389482E+02  0.10363338496E+02 -0.32202932943E+03  0.32268001041E+03  0.00000000000E+00 0.  1.
</event>
<event>
 4    1  0.6740123E+001  0.3707261E+02  0.7546771E-02  0.1366550E+00
          2   -1    0    0  502    0  0.00000000000E+00  0.00000000000E+00  0.95791618427E+03  0.95791618427E+03  0.00000000000E+00 0.  1.
         -2   -1    0    0    0  501 -0.00000000000E+00 -0.00000000000E+00 -0.25262681256E+01  0.25262681256E+01  0.00000000000E+00 0. -1.
          1    1    1    2  502    0 -0.29314017768E+02 -0.22695089777E+02  0.16203801718E+03  0.16622484095E+03  0.00000000000E+00 0. -1.
         -1    1    1    2    0  501  0.29314017768E+02  0.22695089777E+02  0.79335189897E+03  0.79421761145E+03  0.00000000000E+00 0.  1.
</event>
<event>
 4    1  0.6740123E+001  0.2770721E+02  0.7546771E-02  0.1440630E+00
          2   -1    0    0  502    0  0.00000000000E+00  0.00000000000E+00  0.11615045448E+02  0.11615045448E+02  0.00000000000E+00 0. -1.
         -2   -1    0    0    0  501 -0.00000000000E+00 -0.00000000000E+00 -0.10802947010E+03  0.10802947010E+03  0.00000000000E+00 0.  1.
          1    1    1    2  502    0  0.78534623605E+01  0.26570902118E+02 -0.85479002445E+02  0.89857384613E+02  0.00000000000E+00 0.  1.
         -1    1    1    2    0  501 -0.78534623605E+01 -0.26570902118E+02 -0.10935422202E+02  0.29787130932E+02  0.00000000000E+00 0. -1.
</event>
<event>
 4    1  0.6740123E+001  0.2539391E+02  0.7546771E-02  0.1464445E+00
          2   -1    0    0  502    0  0.00000000000E+00  0.00000000000E+00  0.29281297102E+03  0.29281297102E+03  0.00000000000E+00 0. -1.
         -2   -1    0    0    0  501 -0.00000000000E+00 -0.00000000000E+00 -0.40963680513E+01  0.40963680513E+01  0.00000000000E+00 0.  1.
          1    1    1    2  502    0  0.18973870866E+02 -0.16877293481E+02  0.24530602974E+03  0.24661690745E+03  0.00000000000E+00 0. -1.
         -1    1    1    2    0  501 -0.18973870866E+02  0.16877293481E+02  0.43410573228E+02  0.50292431626E+02  0.00000000000E+00 0.  1.
</event>
<event>
 4    1  0.6740123E+001  0.2590543E+02  0.7546771E-02  0.1458924E+00
          2   -1    0    0  502    0  0.00000000000E+00  0.00000000000E+00  0.12506450838E+02  0.12506450838E+02  0.00000000000E+00 0.  1.
         -2   -1    0    0    0  501 -0.00000000000E+00 -0.00000000000E+00 -0.65747141092E+02  0.65747141092E+02  0.00000000000E+00 0. -1.
          1    1    1    2  502    0  0.16383862967E+02 -0.20066403822E+02 -0.43396958146E+02  0.50540948788E+02  0.00000000000E+00 0. -1.
         -1    1    1    2    0  501 -0.16383862967E+02  0.20066403822E+02 -0.98437321083E+01  0.27712643142E+02  0.00000000000E+00 0.  1.
</event>
<event>
 4    1  0.6740123E+001  0.2226299E+02  0.7546771E-02  0.1501966E+00
          2   -1    0    0  502    0  0.00000000000E+00  0.00000000000E+00  0.19098788369E+04  0.19098788369E+04  0.00000000000E+00 0. -1.
         -2   -1    0    0    0  501 -0.00000000000E+00 -0.00000000000E+00 -0.28435607669E+00  0.28435607669E+00  0.00000000000E+00 0.  1.
          1    1    1    2  502    0  0.20417645174E+02  0.88747106826E+01  0.12370909570E+04  0.12372912659E+04  0.00000000000E+00 0. -1.
         -1    1    1    2    0  501 -0.20417645174E+02 -0.88747106826E+01  0.67250352382E+03  0.67287192710E+03  0.00000000000E+00 0.  1.
</event>
<event>
 4    1  0.6740123E+001  0.2739947E+02  0.7546771E-02  0.1443636E+00
          2   -1    0    0  502    0  0.00000000000E+00  0.00000000000E+00  0.33383061864E+02  0.33383061864E+02  0.00000000000E+00 0. -1.
         -2   -1    0    0    0  501 -0.00000000000E+00 -0.00000000000E+00 -0.24900218164E+02  0.24900218164E+02  0.00000000000E+00 0.  1.
          1    1    1    2  502    0 -0.27073749659E+02 -0.42122432856E+01  0.13310991372E+02  0.30461671087E+02  0.00000000000E+00 0. -1.
         -1    1    1    2    0  501  0.27073749659E+02  0.42122432856E+01 -0.48281476724E+01  0.27821608941E+02  0.00000000000E+00 0.  1.
</event>
<event>
 4    1  0.6740123E+001  0.3547979E+02  0.7546771E-02  0.1377221E+00
          2   -1    0    0  502    0  0.00000000000E+00  0.00000000000E+00  0.39267289091E+03  0.39267289091E+03  0.00000000000E+00 0.  1.
         -2   -1    0    0    0  501 -0.00000000000E+00 -0.00000000000E+00 -0.36492269192E+01  0.36492269192E+01  0.00000000000E+00 0. -1.
          1    1    1    2  502    0  0.13305489395E+02  0.32890417726E+02  0.26359110705E+03  0.26596820739E+03  0.00000000000E+00 0.  1.
         -1    1    1    2    0  501 -0.13305489395E+02 -0.32890417726E+02  0.12543255695E+03  0.13035391044E+03  0.00000000000E+00 0. -1.
</event>
<event>
 4    1  0.6740123E+001  0.2091549E+02  0.7546771E-02  0.1520475E+00
          2   -1    0    0  502    0  0.00000000000E+00  0.00000000000E+00  0.70011736767E+03  0.70011736767E+03  0.00000000000E+00 0.  1.
         -2   -1    0    0    0  501 -0.00000000000E+00 -0.00000000000E+00 -0.63140008762E+00  0.63140008762E+00  0.00000000000E+00 0. -1.
          1    1    1    2  502    0  0.13728602563E+02  0.15779202925E+02  0.38547053319E+03  0.38603754964E+03  0.00000000000E+00 0.  1.
         -1    1    1    2    0  501 -0.13728602563E+02 -0.15779202925E+02  0.31401543439E+03  0.31471121812E+03  0.00000000000E+00 0. -1.
</event>
<event>
 4    1  0.6740123E+001  0.5420850E+02  0.7546771E-02  0.1280889E+00
          2   -1    0    0  502    0  0.00000000000E+00  0.00000000000E+00  0.55471823672E+02  0.55471823672E+02  0.00000000000E+00 0. -1.
         -2   -1    0    0    0  501 -0.00000000000E+00 -0.00000000000E+00 -0.53001598155E+02  0.53001598155E+02  0.00000000000E+00 0.  1.
          1    1    1    2  502    0 -0.27485377112E+02 -0.46723826513E+02  0.24737344783E+01  0.54264917592E+02  0.00000000000E+00 0.  1.
         -1    1    1    2    0  501  0.27485377112E+02  0.46723826513E+02 -0.35089613847E-02  0.54208504235E+02  0.00000000000E+00 0. -1.
</event>
<event>
 4    1  0.6740123E+001  0.2493347E+02  0.7546771E-02  0.1469549E+00
          2   -1    0    0  502    0  0.00000000000E+00  0.00000000000E+00  0.79101548132E+03  0.79101548132E+03  0.00000000000E+00 0.  1.
         -2   -1    0    0    0  501 -0.00000000000E+00 -0.00000000000E+00 -0.84467375031E+00  0.84467375031E+00  0.00000000000E+00 0. -1.
          1    1    1    2  502    0 -0.11687923032E+02 -0.22024318791E+02  0.49950367193E+03  0.50012558066E+03  0.00000000000E+00 0.  1.
         -1    1    1    2    0  501  0.11687923032E+02  0.22024318791E+02  0.29066713564E+03  0.29173457441E+03  0.00000000000E+00 0. -1.
</event>
<event>
 4    1  0.6740123E+001  0.2269956E+02  0.7546771E-02  0.1496306E+00
          2   -1    0    0  502    0  0.00000000000E+00  0.00000000000E+00  0.27715696737E+03  0.27715696737E+03  0.00000000000E+00 0.  1.
         -2   -1    0    0    0  501 -0.00000000000E+00 -0.00000000000E+00 -0.25413745463E+01  0.25413745463E+01  0.00000000000E+00 0. -1.
          1    1    1    2  502    0 -0.21652699577E+02 -0.68139899762E+01  0.64848066054E+02  0.68706197168E+02  0.00000000000E+00 0. -1.
         -1    1    1    2    0  501  0.21652699577E+02  0.68139899762E+01  0.20976752677E+03  0.21099214474E+03  0.00000000000E+00 0.  1.
</event>
<event>
 4    1  0.6740123E+001  0.3366905E+02  0.7546771E-02  0.1390169E+00
          2   -1    0    0  502    0  0.00000000000E+00  0.00000000000E+00  0.29078600621E+04  0.29078600621E+04  0.00000000000E+00 0. -1.
         -2   -1    0    0    0  501 -0.00000000000E+00 -0.00000000000E+00 -0.42843030716E+00  0.42843030716E+00  0.00000000000E+00 0.  1.
          1    1    1    2  502    0  0.26540099752E+02 -0.20717822409E+02  0.10173034536E+04  0.10178604628E+04  0.00000000000E+00 0. -1.
         -1    1    1    2    0  501 -0.26540099752E+02  0.20717822409E+02  0.18901281782E+04  0.18904280296E+04  0.00000000000E+00 0.  1.
</event>
<event>
 4    1  0.6740123E+001  0.2774336E+02  0.7546771E-02  0.1440280E+00
          2   -1    0    0  502    0  0.00000000000E+00  0.00000000000E+00  0.11207275520E+02  0.11207275520E+02  0.00000000000E+00 0.  1.
         -2   -1    0    0    0  501 -0.00000000000E+00 -0.00000000000E+00 -0.69533944743E+02  0.69533944743E+02  0.00000000000E+00 0. -1.
          1    1    1    2  502    0  0.92467962042E+01  0.26157043088E+02 -0.33642219857E+02  0.43606113105E+02  0.00000000000E+00 0. -1.
         -1    1    1    2    0  501 -0.92467962042E+01 -0.26157043088E+02 -0.24684449366E+02  0.37135107158E+02  0.00000000000E+00 0.  1.
</event>
<event>
 4    1  0.6740123E+001  0.2107130E+02  0.7546771E-02  0.1518249E+00
          2   -1    0    0  502    0  0.00000000000E+00  0.00000000000E+00  0.27573159397E+02  0.27573159397E+02  0.00000000000E+00 0. -1.
         -2   -1    0    0    0  501 -0.00000000000E+00 -0.00000000000E+00 -0.16829315569E+02  0.16829315569E+02  0.00000000000E+00 0.  1.
          1    1    1    2  502    0  0.10561432469E+02 -0.18233376464E+02  0.99853393995E+01  0.23317522938E+02  0.00000000000E+00 0. -1.
         -1    1    1    2    0  501 -0.10561432469E+02  0.18233376464E+02  0.75850442785E+00  0.21084952028E+02  0.00000000000E+00 0.  1.
</event>
<event>
 4    1  0.6740123E+001  0.2522467E+02  0.7546771E-02  0.1466306E+00
          2   -1    0    0  502    0  0.00000000000E+00  0.00000000000E+00  0.99750332017E+03  0.99750332017E+03  0.00000000000E+00 0.  1.
         -2   -1    0    0    0  501 -0.00000000000E+00 -0.00000000000E+00 -0.66181794333E+00  0.66181794333E+00  0.00000000000E+00 0. -1.
          1    1    1    2  502    0 -0.16451112396E+02 -0.19121839059E+02  0.40349605977E+03  0.40428375440E+03  0.00000000000E+00 0.  1.
         -1    1    1    2    0  501  0.16451112396E+02  0.19121839059E+02  0.59334544246E+03  0.59388138371E+03  0.00000000000E+00 0. -1.
</event>
<event>
 4    1  0.6740123E+001  0.2281883E+02  0.7546771E-02  0.1494786E+00
          2   -1    0    0  502    0  0.00000000000E+00  0.00000000000E+00  0.89914737795E+03  0.89914737795E+03  0.00000000000E+00 0. -1.
         -2   -1    0    0    0  501 -0.00000000000E+00 -0.00000000000E+00 -0.79705403582E+00  0.79705403582E+00  0.00000000000E+00 0.  1.
          1    1    1    2  502    0  0.18966305281E+02  0.12687728385E+02  0.68447466765E+03  0.68485492613E+03  0.00000000000E+00 0.  1.
         -1    1    1    2    0  501 -0.18966305281E+02 -0.12687728385E+02  0.21387565626E+03  0.21508950585E+03  0.00000000000E+00 0. -1.
</event>
<event>
 4    1  0.6740123E+001  0.2075045E+02  0.7546771E-02  0.1522858E+00
          2   -1    0    0  502    0  0.00000000000E+00  0.00000000000E+00  0.92840207077E+02  0.92840207077E+02  0.00000000000E+00 0. -1.
         -2   -1    0    0    0  501 -0.00000000000E+00 -0.00000000000E+00 -0.54089845843E+01  0.54089845843E+01  0.00000000000E+00 0.  1.
          1    1    1    2  502    0  0.19862604035E+02 -0.60048461651E+01  0.62263707784E+02  0.65630408528E+02  0.00000000000E+00 0. -1.
         -1    1    1    2    0  501 -0.19862604035E+02  0.60048461651E+01  0.25167514709E+02  0.32618783134E+02  0.00000000000E+00 0.  1.
</event>
<event>
 4    1  0.6740123E+001  0.2078823E+02  0.7546771E-02  0.1522310E+00
          2   -1    0    0  502    0  0.00000000000E+00  0.00000000000E+00  0.31667635371E+03  0.31667635371E+03  0.00000000000E+00 0. -1.
         -2   -1    0    0    0  501 -0.00000000000E+00 -0.00000000000E+00 -0.17996823596E+01  0.17996823596E+01  0.00000000000E+00 0.  1.
          1    1    1    2  502    0  0.84409174826E+01 -0.18997402642E+02  0.79147171090E+02  0.81831687546E+02  0.00000000000E+00 0.  1.
         -1    1    1    2    0  501 -0.84409174826E+01  0.18997402642E+02  0.23572950026E+03  0.23664434852E+03  0.00000000000E+00 0. -1.
</event>
<event>
 4    1  0.6740123E+001  0.2245303E+02  0.7546771E-02  0.1499483E+00
          2   -1    0    0  502    0  0.00000000000E+00  0.00000000000E+00  0.13378805077E+04  0.13378805077E+04  0.00000000000E+00 0. -1.
         -2   -1    0    0    0  501 -0.00000000000E+00 -0.00000000000E+00 -0.40251042039E+00  0.40251042039E+00  0.00000000000E+00 0.  1.
          1    1    1    2  502    0 -0.22138725995E+02 -0.37437114020E+01  0.49968520284E+03  0.50018940463E+03  0.00000000000E+00 0.  1.
         -1    1    1    2    0  501  0.22138725995E+02  0.37437114020E+01  0.83779279449E+03  0.83809361354E+03  0.00000000000E+00 0. -1.
</event>
<event>
 4    1  0.6740123E+001  0.4268018E+02  0.7546771E-02  0.1333457E+00
          2   -1    0    0  502    0  0.00000000000E+00  0.00000000000E+00  0.29913383917E+03  0.29913383917E+03  0.00000000000E+00 0.  1.
         -2   -1    0    0    0  501 -0.00000000000E+00 -0.00000000000E+00 -0.64843145212E+01  0.64843145212E+01  0.00000000000E+00 0. -1.
          1    1    1    2  502    0  0.15196332867E+02  0.39883189905E+02  0.10862197261E+03  0.11670617080E+03  0.00000000000E+00 0. -1.
         -1    1    1    2    0  501 -0.15196332867E+02 -0.39883189905E+02  0.18402755203E+03  0.18891198288E+03  0.00000000000E+00 0.  1.
</event>
<event>
 4    1  0.6740123E+001  0.2443696E+02  0.7546771E-02  0.1475202E+00
          2   -1    0    0  502    0  0.00000000000E+00  0.00000000000E+00  0.12700832224E+03  0.12700832224E+03  0.00000000000E+00 0. -1.
         -2   -1    0    0    0  501 -0.00000000000E+00 -0.00000000000E+00 -0.69791068687E+01  0.69791068687E+01  0.00000000000E+00 0.  1.
          1    1    1    2  502    0 -0.21628275352E+02 -0.11374650788E+02  0.21745619485E+02  0.32711419138E+02  0.00000000000E+00 0.  1.
         -1    1    1    2    0  501  0.21628275352E+02  0.11374650788E+02  0.98283595885E+02  0.10127600997E+03  0.00000000000E+00 0. -1.
</event>
<event>
 4    1  0.6740123E+001  0.3139717E+02  0.7546771E-02  0.1407832E+00
          2   -1    0    0  502    0  0.00000000000E+00  0.00000000000E+00  0.90405401309E+02  0.90405401309E+02  0.00000000000E+00 0.  1.
         -2   -1    0    0    0  501 -0.00000000000E+00 -0.00000000000E+00 -0.13342609675E+02  0.13342609675E+02  0.00000000000E+00 0. -1.
          1    1    1    2  502    0  0.15139527599E+02  0.27505940135E+02  0.16354588674E+02  0.35401336265E+02  0.00000000000E+00 0. -1.
         -1    1    1    2    0  501 -0.15139527599E+02 -0.27505940135E+02  0.60708202959E+02  0.68346674719E+02  0.00000000000E+00 0.  1.
</event>
<event>
 4    1  0.6740123E+001  0.2286378E+02  0.7546771E-02  0.1494216E+00
          2   -1    0    0  502    0  0.00000000000E+00  0.00000000000E+00  0.20170142738E+02  0.20170142738E+02  0.00000000000E+00 0. -1.
         -2   -1    0    0    0  501 -0.00000000000E+00 -0.00000000000E+00 -0.25980845597E+02  0.25980845597E+02  0.00000000000E+00 0.  1.
          1    1    1    2  502    0 -0.22854099614E+02 -0.66517461658E+00 -0.40480398300E+01  0.23219365902E+02  0.00000000000E+00 0. -1.
         -1    1    1    2    0  501  0.22854099614E+02  0.66517461658E+00 -0.17626630293E+01  0.22931622433E+02  0.00000000000E+00 0.  1.
</event>
<event>
 4    1  0.6740123E+001  0.2654151E+02  0.7546771E-02  0.1452269E+00
          2   -1    0    0  502    0  0.00000000000E+00  0.00000000000E+00  0.81471895473E+02  0.81471895473E+02  0.00000000000E+00 0. -1.
         -2   -1    0    0    0  501 -0.00000000000E+00 -0.00000000000E+00 -0.12645905813E+02  0.12645905813E+02  0.00000000000E+00 0.  1.
          1    1    1    2  502    0 -0.26294203028E+02  0.36147904535E+01  0.60877340345E+02  0.66411613370E+02  0.00000000000E+00 0. -1.
         -1    1    1    2    0  501  0.26294203028E+02 -0.36147904535E+01  0.79486493155E+01  0.27706187916E+02  0.00000000000E+00 0.  1.
</event>
<event>
 4    1  0.6740123E+001  0.2658518E+02  0.7546771E-02  0.1451820E+00
          2   -1    0    0  502    0  0.00000000000E+00  0.00000000000E+00  0.22653993940E+03  0.22653993940E+03  0.00000000000E+00 0. -1.
         -2   -1    0    0    0  501 -0.00000000000E+00 -0.00000000000E+00 -0.46093247378E+01  0.46093247378E+01  0.00000000000E+00 0.  1.
          1    1    1    2  502    0  0.96949929209E+01  0.24754367144E+02  0.17666446864E+03  0.17865359236E+03  0.00000000000E+00 0. -1.
         -1    1    1    2    0  501 -0.96949929209E+01 -0.24754367144E+02  0.45266146014E+02  0.52495671778E+02  0.00000000000E+00 0.  1.
</event>
<event>
 4    1  0.6740123E+001  0.3532354E+02  0.7546771E-02  0.1378303E+00
          2   -1    0    0  502    0  0.00000000000E+00  0.00000000000E+00  0.32660808968E+03  0.32660808968E+03  0.00000000000E+00 0.  1.
         -2   -1    0    0    0  501 -0.00000000000E+00 -0.00000000000E+00 -0.42322484963E+01  0.42322484963E+01  0.00000000000E+00 0. -1.
          1    1    1    2  502    0 -0.29665193376E+02 -0.19176257627E+02  0.10958128974E+03  0.11513388561E+03  0.00000000000E+00 0. -1.
         -1    1    1    2    0  501  0.29665193376E+02  0.19176257627E+02  0.21279455144E+03  0.21570645256E+03  0.00000000000E+00 0.  1.
</event>
<event>
 4    1  0.6740123E+001  0.3284321E+02  0.7546771E-02  0.1396395E+00
          2   -1    0    0  502    0  0.00000000000E+00  0.00000000000E+00  0.34019612418E+02  0.34019612418E+02  0.00000000000E+00 0.  1.
         -2   -1    0    0    0  501 -0.00000000000E+00 -0.00000000000E+00 -0.36340934318E+02  0.36340934318E+02  0.00000000000E+00 0. -1.
          1    1    1    2  502    0 -0.30623271343E+02  0.11869790461E+02 -0.13722491453E+02  0.35594710913E+02  0.00000000000E+00 0. -1.
         -1    1    1    2    0  501  0.30623271343E+02 -0.11869790461E+02  0.11401169553E+02  0.34765835823E+02  0.00000000000E+00 0.  1.
</event>
<event>
 4    1  0.6740123E+001  0.2031703E+02  0.7546771E-02  0.1529243E+00
          2   -1    0    0  502    0  0.00000000000E+00  0.00000000000E+00  0.80712080737E+03  0.80712080737E+03  0.00000000000E+00 0.  1.
         -2   -1    0    0    0  501 -0.00000000000E+00 -0.00000000000E+00 -0.11315930729E+01  0.11315930729E+01  0.00000000000E+00 0. -1.
          1    1    1    2  502    0 -0.20153064610E+02  0.25759990592E+01  0.70217047430E+03  0.70246434554E+03  0.00000000000E+00 0.  1.
         -1    1    1    2    0  501  0.20153064610E+02 -0.25759990592E+01  0.10381874000E+03  0.10578805490E+03  0.00000000000E+00 0. -1.
</event>
<event>
 4    1  0.6740123E+001  0.3725563E+02  0.7546771E-02  0.1365364E+00
          2   -1    0    0  502    0  0.00000000000E+00  0.00000000000E+00  0.18932640344E+02  0.18932640344E+02  0.00000000000E+00 0.  1.
         -2   -1    0    0    0  501 -0.00000000000E+00 -0.00000000000E+00 -0.82952042801E+02  0.82952042801E+02  0.00000000000E+00 0. -1.
          1    1    1    2  502    0 -0.26286075372E+02 -0.26401220684E+02 -0.49376260582E+02  0.61854646722E+02  0.00000000000E+00 0. -1.
         -1    1    1    2    0  501  0.26286075372E+02  0.26401220684E+02 -0.14643141876E+02  0.40030036423E+02  0.00000000000E+00 0.  1.
</event>
<event>
 4    1  0.6740123E+001  0.3299663E+02  0.7546771E-02  0.1395222E+00
          2   -1    0    0  502    0  0.00000000000E+00  0.00000000000E+00  0.10672456232E+02  0.10672456232E+02  0.00000000000E+00 0.  1.
         -2   -1    0    0    0  501 -0.00000000000E+00 -0.00000000000E+00 -0.11026715886E+03  0.11026715886E+03  0.00000000000E+00 0. -1.
          1    1    1    2  502    0 -0.67641697121E+01 -0.32295874469E+02 -0.66337256128E+02  0.74090546294E+02  0.00000000000E+00 0. -1.
         -1    1    1    2    0  501  0.67641697121E+01  0.32295874469E+02 -0.33257446501E+02  0.46849068799E+02  0.00000000000E+00 0.  1.
</event>
<event>
 4    1  0.6740123E+001  0.3088267E+02  0.7546771E-02  0.1412078E+00
          2   -1    0    0  502    0  0.00000000000E+00  0.00000000000E+00  0.59121233387E+02  0.59121233387E+02  0.00000000000E+00 0.  1.
         -2   -1    0    0    0  501 -0.00000000000E+00 -0.00000000000E+00 -0.26631591168E+02  0.26631591168E+02  0.00000000000E+00 0. -1.
          1    1    1    2  502    0  0.13144586231E+02  0.27945643012E+02 -0.10677202048E+02  0.32676317940E+02  0.00000000000E+00 0. -1.
         -1    1    1    2    0  501 -0.13144586231E+02 -0.27945643012E+02  0.43166844266E+02  0.53076506615E+02  0.00000000000E+00 0.  1.
</event>
<event>
 4    1  0.6740123E+001  0.4610891E+02  0.7546771E-02  0.1315986E+00
          2   -1    0    0  502    0  0.00000000000E+00  0.00000000000E+00  0.71241133052E+03  0.71241133052E+03  0.00000000000E+00 0.  1.
         -2   -1    0    0    0  501 -0.00000000000E+00 -0.00000000000E+00 -0.30255489601E+01  0.30255489601E+01  0.00000000000E+00 0. -1.
          1    1    1    2  502    0  0.70652348844E+01 -0.45564396498E+02  0.31291235634E+03  0.31629128114E+03  0.00000000000E+00 0.  1.
         -1    1    1    2    0  501 -0.70652348844E+01  0.45564396498E+02  0.39647342522E+03  0.39914559835E+03  0.00000000000E+00 0. -1.
</event>
<event>
 4    1  0.6740123E+001  0.2041008E+02  0.7546771E-02  0.1527856E+00
          2   -1    0    0  502    0  0.00000000000E+00  0.00000000000E+00  0.17713723543E+02  0.17713723543E+02  0.00000000000E+00 0. -1.
         -2   -1    0    0    0  501 -0.00000000000E+00 -0.00000000000E+00 -0.23544735548E+02  0.23544735548E+02  0.00000000000E+00 0.  1.
          1    1    1    2  502    0 -0.13405238935E+02 -0.15390614840E+02 -0.22059019275E+01  0.20528941993E+02  0.00000000000E+00 0. -1.
         -1    1    1    2    0  501  0.13405238935E+02  0.15390614840E+02 -0.36251100774E+01  0.20729517098E+02  0.00000000000E+00 0.  1.
</event>
<event>
 4    1  0.6740123E+001  0.2850470E+02  0.7546771E-02  0.1433052E+00
          2   -1    0    0  502    0  0.00000000000E+00  0.00000000000E+00  0.36264556265E+01  0.36264556265E+01  0.00000000000E+00 0. -1.
         -2   -1    0    0    0  501 -0.00000000000E+00 -0.00000000000E+00 -0.24650698282E+03  0.24650698282E+03  0.00000000000E+00 0.  1.
          1    1    1    2  502    0  0.43688864949E+01  0.28167903700E+02 -0.15918658405E+03  0.16171854102E+03  0.00000000000E+00 0.  1.
         -1    1    1    2    0  501 -0.43688864949E+01 -0.28167903700E+02 -0.83693943146E+02  0.88414897429E+02  0.00000000000E+00 0. -1.
</event>
<event>
 4    1  0.6740123E+001  0.2221107E+02  0.7546771E-02  0.1502650E+00
          2   -1    0    0  502    0  0.00000000000E+00  0.00000000000E+00  0.16781731299E+04  0.16781731299E+04  0.00000000000E+00 0. -1.
         -2   -1    0    0    0  501 -0.00000000000E+00 -0.00000000000E+00 -0.46896794559E+00  0.46896794559E+00  0.00000000000E+00 0.  1.
          1    1    1    2  502    0  0.14375149618E+02 -0.16931819002E+02  0.13515645134E+04  0.13517470049E+04  0.00000000000E+00 0. -1.
         -1    1    1    2    0  501 -0.14375149618E+02  0.16931819002E+02  0.32613964854E+03  0.32689509291E+03  0.00000000000E+00 0.  1.
</event>
<event>
 4    1  0.6740123E+001  0.4051626E+02  0.7546771E-02  0.1345487E+00
          2   -1    0    0  502    0  0.00000000000E+00  0.00000000000E+00  0.35075925564E+04  0.35075925564E+04  0.00000000000E+00 0. -1.
         -2   -1    0    0    0  501 -0.00000000000E+00 -0.00000000000E+00 -0.47590866288E+00  0.47590866288E+00  0.00000000000E+00 0.  1.
          1    1    1    2  502    0 -0.14476097294E+02  0.37841910946E+02  0.15275024374E+04  0.15280396801E+04  0.00000000000E+00 0.  1.
         -1    1    1    2    0  501  0.14476097294E+02 -0.37841910946E+02  0.19796142104E+04  0.19800287851E+04  0.00000000000E+00 0. -1.
</event>
<event>
 4    1  0.6740123E+001  0.2711752E+02  0.7546771E-02  0.1446431E+00
          2   -1    0    0  502    0  0.00000000000E+00  0.00000000000E+00  0.29753639694E+02  0.29753639694E+02  0.00000000000E+00 0.  1.
         -2   -1    0    0    0  501 -0.00000000000E+00 -0.00000000000E+00 -0.29506742361E+02  0.29506742361E+02  0.00000000000E+00 0. -1.
          1    1    1    2  502    0 -0.24518251887E+02 -0.11585134696E+02  0.12063944222E+02  0.29679938876E+02  0.00000000000E+00 0.  1.
         -1    1    1    2    0  501  0.24518251887E+02  0.11585134696E+02 -0.11817046889E+02  0.29580443179E+02  0.00000000000E+00 0. -1.
</event>
<event>
 4    1  0.6740123E+001  0.2377209E+02  0.7546771E-02  0.1483024E+00
          2   -1    0    0  502    0  0.00000000000E+00  0.00000000000E+00  0.25589994196E+02  0.25589994196E+02  0.00000000000E+00 0. -1.
         -2   -1    0    0    0  501 -0.00000000000E+00 -0.00000000000E+00 -0.23137163448E+02  0.23137163448E+02  0.00000000000E+00 0.  1.
          1    1    1    2  502    0  0.22099613853E+02  0.87589440302E+01 -0.39732339739E+01  0.24101838544E+02  0.00000000000E+00 0. -1.
         -1    1    1    2    0  501 -0.22099613853E+02 -0.87589440302E+01  0.64260647218E+01  0.24625319100E+02  0.00000000000E+00 0.  1.
</event>
<event>
 4    1  0.6740123E+001  0.2372824E+02  0.7546771E-02  0.1483551E+00
          2   -1    0    0  502    0  0.00000000000E+00  0.00000000000E+00  0.22644736557E+01  0.22644736557E+01  0.00000000000E+00 0. -1.
         -2   -1    0    0    0  501 -0.00000000000E+00 -0.00000000000E+00 -0.38600922584E+03  0.38600922584E+03  0.00000000000E+00 0.  1.
          1    1    1    2  502    0 -0.15654330035E+02  0.17831755240E+02 -0.30768616591E+03  0.30859975087E+03  0.00000000000E+00 0.  1.
         -1    1    1    2    0  501  0.15654330035E+02 -0.17831755240E+02 -0.76058586273E+02  0.79673948626E+02  0.00000000000E+00 0. -1.
</event>
<event>
 4    1  0.6740123E+001  0.4513072E+02  0.7546771E-02  0.1320787E+00
          2   -1    0    0  502    0  0.00000000000E+00  0.00000000000E+00  0.37146957030E+01  0.37146957030E+01  0.00000000000E+00 0.  1.
         -2   -1    0    0    0  501 -0.00000000000E+00 -0.00000000000E+00 -0.59300891184E+03  0.59300891184E+03  0.00000000000E+00 0. -1.
          1    1    1    2  502    0 -0.45130320428E+02 -0.18950880962E+00 -0.37656735481E+03  0.37926211839E+03  0.00000000000E+00 0. -1.
         -1    1    1    2    0  501  0.45130320428E+02  0.18950880962E+00 -0.21272686133E+03  0.21746148916E+03  0.00000000000E+00 0.  1.
</event>
<event>
 4    1  0.6740123E+001  0.2278221E+02  0.7546771E-02  0.1495251E+00
          2   -1    0    0  502    0  0.00000000000E+00  0.00000000000E+00  0.31540354815E+00  0.31540354815E+00  0.00000000000E+00 0.  1.
         -2   -1    0    0    0  501 -0.00000000000E+00 -0.00000000000E+00 -0.19258552404E+04  0.19258552404E+04  0.00000000000E+00 0. -1.
          1    1    1    2  502    0  0.13509644405E+02 -0.18344446895E+02 -0.59538019641E+03  0.59581591746E+03  0.00000000000E+00 0.  1.
         -1    1    1    2    0  501 -0.13509644405E+02  0.18344446895E+02 -0.13301596404E+04  0.13303547265E+04  0.00000000000E+00 0. -1.
</event>
<event>
 4    1  0.6740123E+001  0.2856546E+02  0.7546771E-02  0.1432486E+00
          2   -1    0    0  502    0  0.00000000000E+00  0.00000000000E+00  0.38491033734E+03  0.38491033734E+03  0.00000000000E+00 0. -1.
         -2   -1    0    0    0  501 -0.00000000000E+00 -0.00000000000E+00 -0.23643505311E+01  0.23643505311E+01  0.00000000000E+00 0.  1.
          1    1    1    2  502    0  0.25643742808E+01  0.28450127706E+02  0.12901493974E+03  0.13213947350E+03  0.00000000000E+00 0.  1.
         -1    1    1    2    0  501 -0.25643742808E+01 -0.28450127706E+02  0.25353104706E+03  0.25513521436E+03  0.00000000000E+00 0. -1.
</event>
<event>
 4    1  0.6740123E+001  0.3278849E+02  0.7546771E-02  0.1396815E+00
          2   -1    0    0  502    0  0.00000000000E+00  0.00000000000E+00  0.13753353899E+02  0.13753353899E+02  0.00000000000E+00 0. -1.
         -2   -1    0    0    0  501 -0.00000000000E+00 -0.00000000000E+00 -0.79871166125E+02  0.79871166125E+02  0.00000000000E+00 0.  1.
          1    1    1    2  502    0  0.20750999609E+02  0.25386630965E+02 -0.39892890087E+02  0.51638432355E+02  0.00000000000E+00 0.  1.
         -1    1    1    2    0  501 -0.20750999609E+02 -0.25386630965E+02 -0.26224922139E+02  0.41986087668E+02  0.00000000000E+00 0. -1.
</event>
<event>
 4    1  0.6740123E+001  0.2488941E+02  0.7546771E-02  0.1470044E+00
          2   -1    0    0  502    0  0.00000000000E+00  0.00000000000E+00  0.74247164791E+03  0.74247164791E+03  0.00000000000E+00 0. -1.
         -2   -1    0    0    0  501 -0.00000000000E+00 -0.00000000000E+00 -0.13920528248E+01  0.13920528248E+01  0.00000000000E+00 0.  1.
          1    1    1    2  502    0 -0.10314648338E+01 -0.24868025560E+02  0.13512367459E+03  0.13739683421E+03  0.00000000000E+00 0.  1.
         -1    1    1    2    0  501  0.10314648338E+01  0.24868025560E+02  0.60595592050E+03  0.60646686653E+03  0.00000000000E+00 0. -1.
</event>
<event>
 4    1  0.6740123E+001  0.2313755E+02  0.7546771E-02  0.1490778E+00
          2   -1    0    0  502    0  0.00000000000E+00  0.00000000000E+00  0.19800204100E+04  0.19800204100E+04  0.00000000000E+00 0.  1.
         -2   -1    0    0    0  501 -0.00000000000E+00 -0.00000000000E+00 -0.31285599062E+00  0.31285599062E+00  0.00000000000E+00 0. -1.
          1    1    1    2  502    0 -0.18066398916E+02 -0.14455146487E+02  0.62498348766E+03  0.62541162916E+03  0.00000000000E+00 0. -1.
         -1    1    1    2    0  501  0.18066398916E+02  0.14455146487E+02  0.13547240664E+04  0.13549216368E+04  0.00000000000E+00 0.  1.
</event>
<event>
 4    1  0.6740123E+001  0.4782113E+02  0.7546771E-02  0.1307906E+00
          2   -1    0    0  502    0  0.00000000000E+00  0.00000000000E+00  0.89038197871E+03  0.89038197871E+03  0.00000000000E+00 0.  1.
         -2   -1    0    0    0  501 -0.00000000000E+00 -0.00000000000E+00 -0.11962418961E+02  0.11962418961E+02  0.00000000000E+00 0. -1.
          1    1    1    2  502    0 -0.43469387893E+02  0.19931713087E+02  0.39395368796E+02  0.61958501862E+02  0.00000000000E+00 0. -1.
         -1    1    1    2    0  501  0.43469387893E+02 -0.19931713087E+02  0.83902419096E+03  0.84038589581E+03  0.00000000000E+00 0.  1.
</event>
<event>
 4    1  0.6740123E+001  0.3451354E+02  0.7546771E-02  0.1384016E+00
          2   -1    0    0  502    0  0.00000000000E+00  0.00000000000E+00  0.47287441894E+01  0.47287441894E+01  0.00000000000E+00 0. -1.
         -2   -1    0    0    0  501 -0.00000000000E+00 -0.00000000000E+00 -0.25748032145E+03  0.25748032145E+03  0.00000000000E+00 0.  1.
          1    1    1    2  502    0 -0.21644476385E+02 -0.26883103998E+02 -0.14567147558E+03  0.14970425323E+03  0.00000000000E+00 0.  1.
         -1    1    1    2    0  501  0.21644476385E+02  0.26883103998E+02 -0.10708010168E+03  0.11250481241E+03  0.00000000000E+00 0. -1.
</event>
<event>
 4    1  0.6740123E+001  0.2511191E+02  0.7546771E-02  0.1467555E+00
          2   -1    0    0  502    0  0.00000000000E+00  0.00000000000E+00  0.17575366007E+04  0.17575366007E+04  0.00000000000E+00 0. -1.
         -2   -1    0    0    0  501 -0.00000000000E+00 -0.00000000000E+00 -0.59825453865E+00  0.59825453865E+00  0.00000000000E+00 0.  1.
          1    1    1    2  502    0  0.23754141032E+02 -0.81454733144E+01  0.14346150900E+04  0.14348348561E+04  0.00000000000E+00 0. -1.
         -1    1    1    2    0  501 -0.23754141032E+02  0.81454733144E+01  0.32232325612E+03  0.32329999905E+03  0.00000000000E+00 0.  1.
</event>
<event>
 4    1  0.6740123E+001  0.2257044E+02  0.7546771E-02  0.1497964E+00
          2   -1    0    0  502    0  0.00000000000E+00  0.00000000000E+00  0.17551817823E+04  0.17551817823E+04  0.00000000000E+00 0. -1.
         -2   -1    0    0    0  501 -0.00000000000E+00 -0.00000000000E+00 -0.34374306332E+00  0.34374306332E+00  0.00000000000E+00 0.  1.
          1    1    1    2  502    0  0.73773715380E+01 -0.21330706936E+02  0.12237153319E+04  0.12239234609E+04  0.00000000000E+00 0. -1.
         -1    1    1    2    0  501 -0.73773715380E+01  0.21330706936E+02  0.53112270733E+03  0.53160206443E+03  0.00000000000E+00 0.  1.
</event>
<event>
 4    1  0.6740123E+001  0.2054720E+02  0.7546771E-02  0.1525829E+00
          2   -1    0    0  502    0  0.00000000000E+00  0.00000000000E+00  0.27978102303E+02  0.27978102303E+02  0.00000000000E+00 0. -1.
         -2   -1    0    0    0  501 -0.00000000000E+00 -0.00000000000E+00 -0.19580802484E+02  0.19580802484E+02  0.00000000000E+00 0.  1.
          1    1    1    2  502    0  0.20334707662E+02 -0.29473924297E+01 -0.71894750140E+01  0.21768693319E+02  0.00000000000E+00 0. -1.
         -1    1    1    2    0  501 -0.20334707662E+02  0.29473924297E+01  0.15586774833E+02  0.25790211467E+02  0.00000000000E+00 0.  1.
</event>
<event>
 4    1  0.6740123E+001  0.2787559E+02  0.7546771E-02  0.1439005E+00
          2   -1    0    0  502    0  0.00000000000E+00  0.00000000000E+00  0.30690086112E+02  0.30690086112E+02  0.00000000000E+00 0.  1.
         -2   -1    0    0    0  501 -0.00000000000E+00 -0.00000000000E+00 -0.31613532352E+02  0.31613532352E+02  0.00000000000E+00 0. -1.
          1    1    1    2  502    0 -0.13568707323E+02 -0.24350332339E+02 -0.14361937976E+02  0.31357834202E+02  0.00000000000E+00 0. -1.
         -1    1    1    2    0  501  0.13568707323E+02  0.24350332339E+02  0.13438491736E+02  0.30945784261E+02  0.00000000000E+00 0.  1.
</event>
<event>
 4    1  0.6740123E+001  0.3207978E+02  0.7546771E-02  0.1402344E+00
          2   -1    0    0  502    0  0.00000000000E+00  0.00000000000E+00  0.11158206591E+04  0.11158206591E+04  0.00000000000E+00 0. -1.
         -2   -1    0    0    0  501 -0.00000000000E+00 -0.00000000000E+00 -0.14745488707E+01  0.14745488707E+01  0.00000000000E+00 0.  1.
          1    1    1    2  502    0  0.56367135682E+01 -0.31580682137E+02  0.89905729012E+03  0.89962943645E+03  0.00000000000E+00 0. -1.
         -1    1    1    2    0  501 -0.56367135682E+01  0.31580682137E+02  0.21528882011E+03  0.21766577152E+03  0.00000000000E+00 0.  1.
</event>
<event>
 4    1  0.6740123E+001  0.2094741E+02  0.7546771E-02  0.1520017E+00
          2   -1    0    0  502    0  0.00000000000E+00  0.00000000000E+00  0.82829442683E+02  0.82829442683E+02  0.00000000000E+00 0. -1.
         -2   -1    0    0    0  501 -0.00000000000E+00 -0.00000000000E+00 -0.87580567804E+01  0.87580567804E+01  0.00000000000E+00 0.  1.
          1    1    1    2  502    0 -0.17133784442E+02  0.12051038109E+02  0.65821038147E+02  0.69073896311E+02  0.00000000000E+00 0. -1.
         -1    1    1    2    0  501  0.17133784442E+02 -0.12051038109E+02  0.82503477553E+01  0.22513603152E+02  0.00000000000E+00 0.  1.
</event>
<event>
 4    1  0.6740123E+001  0.3360189E+02  0.7546771E-02  0.1390668E+00
          2   -1    0    0  502    0  0.00000000000E+00  0.00000000000E+00  0.59768968665E+03  0.59768968665E+03  0.00000000000E+00 0. -1.
         -2   -1    0    0    0  501 -0.00000000000E+00 -0.00000000000E+00 -0.37698743842E+01  0.37698743842E+01  0.00000000000E+00 0.  1.
          1    1    1    2  502    0 -0.14580504408E+01 -0.33570238830E+02  0.84545955329E+02  0.90978598631E+02  0.00000000000E+00 0.  1.
         -1    1    1    2    0  501  0.14580504408E+01  0.33570238830E+02  0.50937385693E+03  0.51048096240E+03  0.00000000000E+00 0. -1.
</event>
<event>
 4    1  0.6740123E+001  0.3555642E+02  0.7546771E-02  0.1376693E+00
          2   -1    0    0  502    0  0.00000000000E+00  0.00000000000E+00  0.53192937047E+03  0.53192937047E+03  0.00000000000E+00 0. -1.
         -2   -1    0    0    0  501 -0.00000000000E+00 -0.00000000000E+00 -0.24774998986E+01  0.24774998986E+01  0.00000000000E+00 0.  1.
          1    1    1    2  502    0  0.23993274656E+02  0.26240844905E+02  0.21084022980E+03  0.21381735588E+03  0.00000000000E+00 0. -1.
         -1    1    1    2    0  501 -0.23993274656E+02 -0.26240844905E+02  0.31861164077E+03  0.32058951450E+03  0.00000000000E+00 0.  1.
</event>
<event>
 4    1  0.6740123E+001  0.3332082E+02  0.7546771E-02  0.1392769E+00
          2   -1    0    0  502    0  0.00000000000E+00  0.00000000000E+00  0.54553209361E+02  0.54553209361E+02  0.00000000000E+00 0.  1.
         -2   -1    0    0    0  501 -0.00000000000E+00 -0.00000000000E+00 -0.24964640713E+02  0.24964640713E+02  0.00000000000E+00 0. -1.
          1    1    1    2  502    0  0.23825019672E+02  0.23294758540E+02  0.31884116381E+02  0.46118046524E+02  0.00000000000E+00 0.  1.
         -1    1    1    2    0  501 -0.23825019672E+02 -0.23294758540E+02 -0.22955477324E+01  0.33399803550E+02  0.00000000000E+00 0. -1.
</event>
<event>
 4    1  0.6740123E+001  0.6219609E+02  0.7546771E-02  0.1252548E+00
          2   -1    0    0  502    0  0.00000000000E+00  0.00000000000E+00  0.25429998872E+03  0.25429998872E+03  0.00000000000E+00 0.  1.
         -2   -1    0    0    0  501 -0.00000000000E+00 -0.00000000000E+00 -0.48314510603E+02  0.48314510603E+02  0.00000000000E+00 0. -1.
          1    1    1    2  502    0 -0.29719321260E+02  0.54636207512E+02 -0.22250102563E+02  0.66056190410E+02  0.00000000000E+00 0. -1.
         -1    1    1    2    0  501  0.29719321260E+02 -0.54636207512E+02  0.22823558068E+03  0.23655830892E+03  0.00000000000E+00 0.  1.
</event>
<event>
 4    1  0.6740123E+001  0.2904863E+02  0.7546771E-02  0.1428048E+00
          2   -1    0    0  502    0  0.00000000000E+00  0.00000000000E+00  0.73783731748E+02  0.73783731748E+02  0.00000000000E+00 0. -1.
         -2   -1    0    0    0  501 -0.00000000000E+00 -0.00000000000E+00 -0.12151218871E+02  0.12151218871E+02  0.00000000000E+00 0.  1.
          1    1    1    2  502    0 -0.14245786026E+02 -0.25315612588E+02  0.41237464741E+02  0.50441561817E+02  0.00000000000E+00 0. -1.
         -1    1    1    2    0  501  0.14245786026E+02  0.25315612588E+02  0.20395048136E+02  0.35493388802E+02  0.00000000000E+00 0.  1.
</event>
<event>
 4    1  0.6740123E+001  0.2011406E+02  0.7546771E-02  0.1532299E+00
          2   -1    0    0  502    0  0.00000000000E+00  0.00000000000E+00  0.11028708698E+02  0.11028708698E+02  0.00000000000E+00 0. -1.
         -2   -1    0    0    0  501 -0.00000000000E+00 -0.00000000000E+00 -0.81208131624E+02  0.81208131624E+02  0.00000000000E+00 0.  1.
          1    1    1    2  502    0  0.60249873105E+01  0.19190488626E+02 -0.69238334614E+02  0.72100778816E+02  0.00000000000E+00 0.  1.
         -1    1    1    2    0  501 -0.60249873105E+01 -0.19190488626E+02 -0.94108831190E+00  0.20136061507E+02  0.00000000000E+00 0. -1.
</event>
<event>
 4    1  0.6740123E+001  0.2940822E+02  0.7546771E-02  0.1424810E+00
          2   -1    0    0  502    0  0.00000000000E+00  0.00000000000E+00  0.81251662649E+03  0.81251662649E+03  0.00000000000E+00 0. -1.
         -2   -1    0    0    0  501 -0.00000000000E+00 -0.00000000000E+00 -0.18163102000E+01  0.18163102000E+01  0.00000000000E+00 0.  1.
          1    1    1    2  502    0  0.29152651957E+02 -0.38686584659E+01  0.14337527872E+03  0.14636022063E+03  0.00000000000E+00 0.  1.
         -1    1    1    2    0  501 -0.29152651957E+02  0.38686584659E+01  0.66732503757E+03  0.66797271606E+03  0.00000000000E+00 0. -1.
</event>
<event>
 4    1  0.6740123E+001  0.2224961E+02  0.7546771E-02  0.1502142E+00
          2   -1    0    0  502    0  0.00000000000E+00  0.00000000000E+00  0.11321908621E+03  0.11321908621E+03  0.00000000000E+00 0. -1.
         -2   -1    0    0    0  501 -0.00000000000E+00 -0.00000000000E+00 -0.44150165008E+01  0.44150165008E+01  0.00000000000E+00 0.  1.
          1    1    1    2  502    0 -0.20345759914E+02 -0.90052806350E+01  0.60177149236E+02  0.64158665167E+02  0.00000000000E+00 0.  1.
         -1    1    1    2    0  501  0.20345759914E+02  0.90052806350E+01  0.48626920469E+02  0.53475437540E+02  0.00000000000E+00 0. -1.
</event>
<event>
 4    1  0.6740123E+001  0.3749404E+02  0.7546771E-02  0.1363831E+00
          2   -1    0    0  502    0  0.00000000000E+00  0.00000000000E+00  0.44818628203E+03  0.44818628203E+03  0.00000000000E+00 0.  1.
         -2   -1    0    0    0  501 -0.00000000000E+00 -0.00000000000E+00 -0.37833179747E+01  0.37833179747E+01  0.00000000000E+00 0. -1.
          1    1    1    2  502    0  0.28010460310E+02 -0.24924222812E+02  0.12877198038E+03  0.13411944564E+03  0.00000000000E+00 0. -1.
         -1    1    1    2    0  501 -0.28010460310E+02  0.24924222812E+02  0.31563098368E+03  0.31785015436E+03  0.00000000000E+00 0.  1.
</event>
<event>
 4    1  0.6740123E+001  0.2598144E+02  0.7546771E-02  0.1458117E+00
          2   -1    0    0  502    0  0.00000000000E+00  0.00000000000E+00  0.21071491609E+03  0.21071491609E+03  0.00000000000E+00 0. -1.
         -2   -1    0    0    0  501 -0.00000000000E+00 -0.00000000000E+00 -0.10692284745E+02  0.10692284745E+02  0.00000000000E+00 0.  1.
          1    1    1    2  502    0 -0.25980703145E+02 -0.19561735104E+00  0.73644375304E+01  0.27005002170E+02  0.00000000000E+00 0.  1.
         -1    1    1    2    0  501  0.25980703145E+02  0.19561735104E+00  0.19265819382E+03  0.19440219867E+03  0.00000000000E+00 0. -1.
</event>
<event>
 4    1  0.6740123E+001  0.2576760E+02  0.7546771E-02  0.1460397E+00
          2   -1    0    0  502    0  0.00000000000E+00  0.00000000000E+00  0.41744013829E+03  0.41744013829E+03  0.00000000000E+00 0. -1.
         -2   -1    0    0    0  501 -0.00000000000E+00 -0.00000000000E+00 -0.16676408804E+01  0.16676408804E+01  0.00000000000E+00 0.  1.
          1    1    1    2  502    0 -0.21351995010E+02  0.14424330422E+02  0.16283765250E+03  0.16486379248E+03  0.00000000000E+00 0.  1.
         -1    1    1    2    0  501  0.21351995010E+02 -0.14424330422E+02  0.25293484490E+03  0.25424398669E+03  0.00000000000E+00 0. -1.
</event>
<event>
 4    1  0.6740123E+001  0.2901134E+02  0.7546771E-02  0.1428387E+00
          2   -1    0    0  502    0  0.00000000000E+00  0.00000000000E+00  0.27913674791E+03  0.27913674791E+03  0.00000000000E+00 0. -1.
         -2   -1    0    0    0  501 -0.00000000000E+00 -0.00000000000E+00 -0.30227183335E+01  0.30227183335E+01  0.00000000000E+00 0.  1.
          1    1    1    2  502    0 -0.13034894927E+02 -0.25918126331E+02  0.13102877830E+03  0.13420208084E+03  0.00000000000E+00 0. -1.
         -1    1    1    2    0  501  0.13034894927E+02  0.25918126331E+02  0.14508525128E+03  0.14795738541E+03  0.00000000000E+00 0.  1.
</event>
<event>
 4    1  0.6740123E+001  0.2065020E+02  0.7546771E-02  0.1524318E+00
          2   -1    0    0  502    0  0.00000000000E+00  0.00000000000E+00  0.54509532333E+00  0.54509532333E+00  0.00000000000E+00 0.  1.
         -2   -1    0    0    0  501 -0.00000000000E+00 -0.00000000000E+00 -0.88155931283E+03  0.88155931283E+03  0.00000000000E+00 0. -1.
          1    1    1    2  502    0  0.82737096656E+01 -0.18920270801E+02 -0.29251504311E+03  0.29324304146E+03  0.00000000000E+00 0.  1.
         -1    1    1    2    0  501 -0.82737096656E+01  0.18920270801E+02 -0.58849917439E+03  0.58886136669E+03  0.00000000000E+00 0. -1.
</event>
<event>
 4    1  0.6740123E+001  0.2114637E+02  0.7546771E-02  0.1517185E+00
          2   -1    0    0  502    0  0.00000000000E+00  0.00000000000E+00  0.55140689388E+01  0.55140689388E+01  0.00000000000E+00 0.  1.
         -2   -1    0    0    0  501 -0.00000000000E+00 -0.00000000000E+00 -0.88160661862E+02  0.88160661862E+02  0.00000000000E+00 0. -1.
          1    1    1    2  502    0 -0.82700911027E+01  0.19462129789E+02 -0.28064597661E+02  0.35139586574E+02  0.00000000000E+00 0.  1.
         -1    1    1    2    0  501  0.82700911027E+01 -0.19462129789E+02 -0.54581995262E+02  0.58535144226E+02  0.00000000000E+00 0. -1.
</event>
<event>
 4    1  0.6740123E+001  0.3615397E+02  0.7546771E-02  0.1372627E+00
          2   -1    0    0  502    0  0.00000000000E+00  0.00000000000E+00  0.10275992255E+01  0.10275992255E+01  0.00000000000E+00 0.  1.
         -2   -1    0    0    0  501 -0.00000000000E+00 -0.00000000000E+00 -0.12916704282E+04  0.12916704282E+04  0.00000000000E+00 0. -1.
          1    1    1    2  502    0 -0.30296854548E+02 -0.19728416700E+02 -0.56556614339E+03  0.56672054168E+03  0.00000000000E+00 0.  1.
         -1    1    1    2    0  501  0.30296854548E+02  0.19728416700E+02 -0.72507668557E+03  0.72597748572E+03  0.00000000000E+00 0. -1.
</event>
<event>
 4    1  0.6740123E+001  0.3571490E+02  0.7546771E-02  0.1375606E+00
          2   -1    0    0  502    0  0.00000000000E+00  0.00000000000E+00  0.10815097862E+04  0.10815097862E+04  0.00000000000E+00 0.  1.
         -2   -1    0    0    0  501 -0.00000000000E+00 -0.00000000000E+00 -0.11914884713E+01  0.11914884713E+01  0.00000000000E+00 0. -1.
          1    1    1    2  502    0  0.22180124150E+02 -0.27992789335E+02  0.59464223394E+03  0.59571380759E+03  0.00000000000E+00 0. -1.
         -1    1    1    2    0  501 -0.22180124150E+02  0.27992789335E+02  0.48567606380E+03  0.48698746710E+03  0.00000000000E+00 0.  1.
</event>
<event>
 4    1  0.6740123E+001  0.3324234E+02  0.7546771E-02  0.1393360E+00
          2   -1    0    0  502    0  0.00000000000E+00  0.00000000000E+00  0.13071558178E+04  0.13071558178E+04  0.00000000000E+00 0. -1.
         -2   -1    0    0    0  501 -0.00000000000E+00 -0.00000000000E+00 -0.85943301314E+00  0.85943301314E+00  0.00000000000E+00 0.  1.
          1    1    1    2  502    0  0.28547715625E+02  0.17031761131E+02  0.73675629583E+03  0.73750585923E+03  0.00000000000E+00 0.  1.
         -1    1    1    2    0  501 -0.28547715625E+02 -0.17031761131E+02  0.56954008896E+03  0.57050939158E+03  0.00000000000E+00 0. -1.
</event>
<event>
 4    1  0.6740123E+001  0.3699926E+02  0.7546771E-02  0.1367028E+00
          2   -1    0    0  502    0  0.00000000000E+00  0.00000000000E+00  0.22845368252E+02  0.22845368252E+02  0.00000000000E+00 0. -1.
         -2   -1    0    0    0  501 -0.00000000000E+00 -0.00000000000E+00 -0.65122130933E+02  0.65122130933E+02  0.00000000000E+00 0.  1.
          1    1    1    2  502    0  0.75089936607E+01  0.36229271940E+02 -0.33567089619E+02  0.49956927814E+02  0.00000000000E+00 0.  1.
         -1    1    1    2    0  501 -0.75089936607E+01 -0.36229271940E+02 -0.87096730619E+01  0.38010571371E+02  0.00000000000E+00 0. -1.
</event>
<event>
 4    1  0.6740123E+001  0.2387836E+02  0.7546771E-02  0.1481754E+00
          2   -1    0    0  502    0  0.00000000000E+00  0.00000000000E+00  0.12983747072E+04  0.12983747072E+04  0.00000000000E+00 0. -1.
         -2   -1    0    0    0  501 -0.00000000000E+00 -0.00000000000E+00 -0.41239053519E+01  0.41239053519E+01  0.00000000000E+00 0.  1.
          1    1    1    2  502    0  0.93052045400E+01 -0.21990664750E+02  0.12627238104E+04  0.12629495625E+04  0.00000000000E+00 0. -1.
         -1    1    1    2    0  501 -0.93052045400E+01  0.21990664750E+02  0.31526991484E+02  0.39549050049E+02  0.00000000000E+00 0.  1.
</event>
<event>
 4    1  0.6740123E+001  0.1053580E+03  0.7546771E-02  0.1154834E+00
          2   -1    0    0  502    0  0.00000000000E+00  0.00000000000E+00  0.28306141509E+03  0.28306141509E+03  0.00000000000E+00 0.  1.
         -2   -1    0    0    0  501 -0.00000000000E+00 -0.00000000000E+00 -0.40176895082E+02  0.40176895082E+02  0.00000000000E+00 0. -1.
          1    1    1    2  502    0  0.26506568365E+02  0.10196917156E+03  0.96437467411E+02  0.14283030223E+03  0.00000000000E+00 0. -1.
         -1    1    1    2    0  501 -0.26506568365E+02 -0.10196917156E+03  0.14644705259E+03  0.18040800794E+03  0.00000000000E+00 0.  1.
</event>
<event>
 4    1  0.6740123E+001  0.3044024E+02  0.7546771E-02  0.1415809E+00
          2   -1    0    0  502    0  0.00000000000E+00  0.00000000000E+00  0.53451900933E+01  0.53451900933E+01  0.00000000000E+00 0. -1.
         -2   -1    0    0    0  501 -0.00000000000E+00 -0.00000000000E+00 -0.25537547545E+03  0.25537547545E+03  0.00000000000E+00 0.  1.
          1    1    1    2  502    0  0.27781311753E+02  0.12442146114E+02 -0.19889406419E+03  0.20120998248E+03  0.00000000000E+00 0.  1.
         -1    1    1    2    0  501 -0.27781311753E+02 -0.12442146114E+02 -0.51136221174E+02  0.59510683063E+02  0.00000000000E+00 0. -1.
</event>
<event>
 4    1  0.6740123E+001  0.2291223E+02  0.7546771E-02  0.1493603E+00
          2   -1    0    0  502    0  0.00000000000E+00  0.00000000000E+00  0.29416033768E+03  0.29416033768E+03  0.00000000000E+00 0.  1.
         -2   -1    0    0    0  501 -0.00000000000E+00 -0.00000000000E+00 -0.19363931020E+01  0.19363931020E+01  0.00000000000E+00 0. -1.
          1    1    1    2  502    0 -0.14473678573E+02 -0.17761841360E+02  0.10466667325E+03  0.10714514860E+03  0.00000000000E+00 0. -1.
         -1    1    1    2    0  501  0.14473678573E+02  0.17761841360E+02  0.18755727134E+03  0.18895158219E+03  0.00000000000E+00 0.  1.
</event>
<event>
 4    1  0.6740123E+001  0.2066451E+02  0.7546771E-02  0.1524109E+00
          2   -1    0    0  502    0  0.00000000000E+00  0.00000000000E+00  0.48760840315E+02  0.48760840315E+02  0.00000000000E+00 0. -1.
         -2   -1    0    0    0  501 -0.00000000000E+00 -0.00000000000E+00 -0.90189122462E+01  0.90189122462E+01  0.00000000000E+00 0.  1.
          1    1    1    2  502    0  0.12139546128E+02 -0.16722837445E+02  0.24789680400E+02  0.32273055739E+02  0.00000000000E+00 0. -1.
         -1    1    1    2    0  501 -0.12139546128E+02  0.16722837445E+02  0.14952247669E+02  0.25506696822E+02  0.00000000000E+00 0.  1.
</event>
<event>
 4    1  0.6740123E+001  0.2192997E+02  0.7546771E-02  0.1506390E+00
          2   -1    0    0  502    0  0.00000000000E+00  0.00000000000E+00  0.21280604023E+03  0.21280604023E+03  0.00000000000E+00 0. -1.
         -2   -1    0    0    0  501 -0.00000000000E+00 -0.00000000000E+00 -0.33116208062E+01  0.33116208062E+01  0.00000000000E+00 0.  1.
          1    1    1    2  502    0 -0.19880586200E+02  0.92566632836E+01  0.16564298107E+03  0.16708836195E+03  0.00000000000E+00 0. -1.
         -1    1    1    2    0  501  0.19880586200E+02 -0.92566632836E+01  0.43851438355E+02  0.49029299083E+02  0.00000000000E+00 0.  1.
</event>
<event>
 4    1  0.6740123E+001  0.2893178E+02  0.7546771E-02  0.1429112E+00
          2   -1    0    0  502    0  0.00000000000E+00  0.00000000000E+00  0.16258403358E+02  0.16258403358E+02  0.00000000000E+00 0.  1.
         -2   -1    0    0    0  501 -0.00000000000E+00 -0.00000000000E+00 -0.74438349563E+02  0.74438349563E+02  0.00000000000E+00 0. -1.
          1    1    1    2  502    0 -0.27789120129E+02 -0.80506510315E+01 -0.39076636607E+01  0.29194486035E+02  0.00000000000E+00 0.  1.
         -1    1    1    2    0  501  0.27789120129E+02  0.80506510315E+01 -0.54272282544E+02  0.61502266886E+02  0.00000000000E+00 0. -1.
</event>
<event>
 4    1  0.6740123E+001  0.3582967E+02  0.7546771E-02  0.1374822E+00
          2   -1    0    0  502    0  0.00000000000E+00  0.00000000000E+00  0.24136976972E+02  0.24136976972E+02  0.00000000000E+00 0. -1.
         -2   -1    0    0    0  501 -0.00000000000E+00 -0.00000000000E+00 -0.72178090472E+02  0.72178090472E+02  0.00000000000E+00 0.  1.
          1    1    1    2  502    0  0.31566173384E+02  0.16951166788E+02  0.68190876766E+00  0.35836159911E+02  0.00000000000E+00 0. -1.
         -1    1    1    2    0  501 -0.31566173384E+02 -0.16951166788E+02 -0.48723022268E+02  0.60478907534E+02  0.00000000000E+00 0.  1.
</event>
<event>
 4    1  0.6740123E+001  0.2696747E+02  0.7546771E-02  0.1447935E+00
          2   -1    0    0  502    0  0.00000000000E+00  0.00000000000E+00  0.24764313534E+04  0.24764313534E+04  0.00000000000E+00 0. -1.
         -2   -1    0    0    0  501 -0.00000000000E+00 -0.00000000000E+00 -0.35231935679E+00  0.35231935679E+00  0.00000000000E+00 0.  1.
          1    1    1    2  502    0  0.25993118977E+02  0.71834712349E+01  0.17433229551E+04  0.17435315226E+04  0.00000000000E+00 0. -1.
         -1    1    1    2    0  501 -0.25993118977E+02 -0.71834712349E+01  0.73275607889E+03  0.73325215012E+03  0.00000000000E+00 0.  1.
</event>
<event>
 4    1  0.6740123E+001  0.2169758E+02  0.7546771E-02  0.1509534E+00
          2   -1    0    0  502    0  0.00000000000E+00  0.00000000000E+00  0.19253466160E+04  0.19253466160E+04  0.00000000000E+00 0. -1.
         -2   -1    0    0    0  501 -0.00000000000E+00 -0.00000000000E+00 -0.33692411998E+00  0.33692411998E+00  0.00000000000E+00 0.  1.
          1    1    1    2  502    0 -0.12034705471E+02  0.18054114545E+02  0.14667424502E+04  0.14669029281E+04  0.00000000000E+00 0.  1.
         -1    1    1    2    0  501  0.12034705471E+02 -0.18054114545E+02  0.45826724169E+03  0.45878061206E+03  0.00000000000E+00 0. -1.
</event>
<event>
 4    1  0.6740123E+001  0.2947107E+02  0.7546771E-02  0.1424249E+00
          2   -1    0    0  502    0  0.00000000000E+00  0.00000000000E+00  0.75295801409E+03  0.75295801409E+03  0.00000000000E+00 0. -1.
         -2   -1    0    0    0  501 -0.00000000000E+00 -0.00000000000E+00 -0.53468375761E+01  0.53468375761E+01  0.00000000000E+00 0.  1.
          1    1    1    2  502    0  0.12937922593E+02 -0.26479315485E+02  0.38033354262E+02  0.48115278509E+02  0.00000000000E+00 0.  1.
         -1    1    1    2    0  501 -0.12937922593E+02  0.26479315485E+02  0.70957782226E+03  0.71018957316E+03  0.00000000000E+00 0. -1.
</event>
<event>
 4    1  0.6740123E+001  0.2527122E+02  0.7546771E-02  0.1465792E+00
          2   -1    0    0  502    0  0.00000000000E+00  0.00000000000E+00  0.15487961951E+02  0.15487961951E+02  0.00000000000E+00 0.  1.
         -2   -1    0    0    0  501 -0.00000000000E+00 -0.00000000000E+00 -0.42119889064E+02  0.42119889064E+02  0.00000000000E+00 0. -1.
          1    1    1    2  502    0 -0.13059148072E+02 -0.21635459429E+02 -0.17492700441E+02  0.30734817744E+02  0.00000000000E+00 0.  1.
         -1    1    1    2    0  501  0.13059148072E+02  0.21635459429E+02 -0.91392266719E+01  0.26873033271E+02  0.00000000000E+00 0. -1.
</event>
<event>
 4    1  0.6740123E+001  0.5829809E+02  0.7546771E-02  0.1265727E+00
          2   -1    0    0  502    0  0.00000000000E+00  0.00000000000E+00  0.85554688994E+02  0.85554688994E+02  0.00000000000E+00 0.  1.
         -2   -1    0    0    0  501 -0.00000000000E+00 -0.00000000000E+00 -0.39963221608E+02  0.39963221608E+02  0.00000000000E+00 0. -1.
          1    1    1    2  502    0  0.17162661860E+02  0.55714543354E+02  0.27640339282E+02  0.64518645824E+02  0.00000000000E+00 0.  1.
         -1    1    1    2    0  501 -0.17162661860E+02 -0.55714543354E+02  0.17951128104E+02  0.60999264778E+02  0.00000000000E+00 0. -1.
</event>
<event>
 4    1  0.6740123E+001  0.2112275E+02  0.7546771E-02  0.1517519E+00
          2   -1    0    0  502    0  0.00000000000E+00  0.00000000000E+00  0.37381968713E+01  0.37381968713E+01  0.00000000000E+00 0.  1.
         -2   -1    0    0    0  501 -0.00000000000E+00 -0.00000000000E+00 -0.12698614930E+03  0.12698614930E+03  0.00000000000E+00 0. -1.
          1    1    1    2  502    0  0.21076520417E+02  0.13966545735E+01 -0.45600398202E+02  0.50255016398E+02  0.00000000000E+00 0.  1.
         -1    1    1    2    0  501 -0.21076520417E+02 -0.13966545735E+01 -0.77647554229E+02  0.80469329776E+02  0.00000000000E+00 0. -1.
</event>
<event>
 4    1  0.6740123E+001  0.3130182E+02  0.7546771E-02  0.1408611E+00
          2   -1    0    0  502    0  0.00000000000E+00  0.00000000000E+00  0.12564219909E+04  0.12564219909E+04  0.00000000000E+00 0.  1.
         -2   -1    0    0    0  501 -0.00000000000E+00 -0.00000000000E+00 -0.11545666849E+01  0.11545666849E+01  0.00000000000E+00 0. -1.
          1    1    1    2  502    0  0.26631875123E+02  0.16448313119E+02  0.26941007204E+03  0.27122240080E+03  0.00000000000E+00 0. -1.
         -1    1    1    2    0  501 -0.26631875123E+02 -0.16448313119E+02  0.98585735222E+03  0.98635415683E+03  0.00000000000E+00 0.  1.
</event>
<event>
 4    1  0.6740123E+001  0.2338760E+02  0.7546771E-02  0.1487688E+00
          2   -1    0    0  502    0  0.00000000000E+00  0.00000000000E+00  0.13026258135E+03  0.13026258135E+03  0.00000000000E+00 0. -1.
         -2   -1    0    0    0  501 -0.00000000000E+00 -0.00000000000E+00 -0.52078241118E+01  0.52078241118E+01  0.00000000000E+00 0.  1.
          1    1    1    2  502    0 -0.53684639577E+01  0.22763115970E+02  0.92338752166E+02  0.95254527480E+02  0.00000000000E+00 0. -1.
         -1    1    1    2    0  501  0.53684639577E+01 -0.22763115970E+02  0.32716005071E+02  0.40215877980E+02  0.00000000000E+00 0.  1.
</event>
<event>
 4    1  0.6740123E+001  0.2030685E+02  0.7546771E-02  0.1529396E+00
          2   -1    0    0  502    0  0.00000000000E+00  0.00000000000E+00  0.21957116419E+03  0.21957116419E+03  0.00000000000E+00 0.  1.
         -2   -1    0    0    0  501 -0.00000000000E+00 -0.00000000000E+00 -0.35954207229E+01  0.35954207229E+01  0.00000000000E+00 0. -1.
          1    1    1    2  502    0  0.13061041565E+01 -0.20264800771E+02  0.30870017081E+02  0.36950318171E+02  0.00000000000E+00 0. -1.
         -1    1    1    2    0  501 -0.13061041565E+01  0.20264800771E+02  0.18510572638E+03  0.18621626674E+03  0.00000000000E+00 0.  1.
</event>
<event>
 4    1  0.6740123E+001  0.2001920E+02  0.7546771E-02  0.1533742E+00
          2   -1    0    0  502    0  0.00000000000E+00  0.00000000000E+00  0.35573565188E+02  0.35573565188E+02  0.00000000000E+00 0. -1.
         -2   -1    0    0    0  501 -0.00000000000E+00 -0.00000000000E+00 -0.13425463205E+02  0.13425463205E+02  0.00000000000E+00 0.  1.
          1    1    1    2  502    0  0.15040826276E+02  0.13211434899E+02  0.20900013829E+02  0.28940957917E+02  0.00000000000E+00 0.  1.
         -1    1    1    2    0  501 -0.15040826276E+02 -0.13211434899E+02  0.12480881544E+01  0.20058070475E+02  0.00000000000E+00 0. -1.
</event>
<event>
 4    1  0.6740123E+001  0.2068518E+02  0.7546771E-02  0.1523807E+00
          2   -1    0    0  502    0  0.00000000000E+00  0.00000000000E+00  0.23641580982E+03  0.23641580982E+03  0.00000000000E+00 0. -1.
         -2   -1    0    0    0  501 -0.00000000000E+00 -0.00000000000E+00 -0.35404257995E+01  0.35404257995E+01  0.00000000000E+00 0.  1.
          1    1    1    2  502    0  0.35267797524E+01  0.20382312609E+02  0.32555499385E+02  0.38571198879E+02  0.00000000000E+00 0.  1.
         -1    1    1    2    0  501 -0.35267797524E+01 -0.20382312609E+02  0.20031988464E+03  0.20138503674E+03  0.00000000000E+00 0. -1.
</event>
<event>
 4    1  0.6740123E+001  0.2244686E+02  0.7546771E-02  0.1499563E+00
          2   -1    0    0  502    0  0.00000000000E+00  0.00000000000E+00  0.12036739403E+04  0.12036739403E+04  0.00000000000E+00 0.  1.
         -2   -1    0    0    0  501 -0.00000000000E+00 -0.00000000000E+00 -0.52632285883E+00  0.52632285883E+00  0.00000000000E+00 0. -1.
          1    1    1    2  502    0 -0.12863171521E+02 -0.18395666508E+02  0.32918444217E+03  0.32994887285E+03  0.00000000000E+00 0. -1.
         -1    1    1    2    0  501  0.12863171521E+02  0.18395666508E+02  0.87396317526E+03  0.87425139030E+03  0.00000000000E+00 0.  1.
</event>
<event>
 4    1  0.6740123E+001  0.2352578E+02  0.7546771E-02  0.1485999E+00
          2   -1    0    0  502    0  0.00000000000E+00  0.00000000000E+00  0.51885886772E+01  0.51885886772E+01  0.00000000000E+00 0.  1.
         -2   -1    0    0    0  501 -0.00000000000E+00 -0.00000000000E+00 -0.18076698698E+03  0.18076698698E+03  0.00000000000E+00 0. -1.
          1    1    1    2  502    0  0.14054948321E+02  0.18865861059E+02 -0.28261040711E+02  0.36771574727E+02  0.00000000000E+00 0.  1.
         -1    1    1    2    0  501 -0.14054948321E+02 -0.18865861059E+02 -0.14731735759E+03  0.14918400093E+03  0.00000000000E+00 0. -1.
</event>
<event>
 4    1  0.6740123E+001  0.2441755E+02  0.7546771E-02  0.1475426E+00
          2   -1    0    0  502    0  0.00000000000E+00  0.00000000000E+00  0.20452189982E+01  0.20452189982E+01  0.00000000000E+00 0. -1.
         -2   -1    0    0    0  501 -0.00000000000E+00 -0.00000000000E+00 -0.36334542841E+03  0.36334542841E+03  0.00000000000E+00 0.  1.
          1    1    1    2  502    0  0.12607112058E+02  0.20911175579E+02 -0.99420353164E+02  0.10237491471E+03  0.00000000000E+00 0. -1.
         -1    1    1    2    0  501 -0.12607112058E+02 -0.20911175579E+02 -0.26187985625E+03  0.26301573270E+03  0.00000000000E+00 0.  1.
</event>
<event>
 4    1  0.6740123E+001  0.2081892E+02  0.7546771E-02  0.1521866E+00
          2   -1    0    0  502    0  0.00000000000E+00  0.00000000000E+00  0.21891053850E+02  0.21891053850E+02  0.00000000000E+00 0. -1.
         -2   -1    0    0    0  501 -0.00000000000E+00 -0.00000000000E+00 -0.19814097247E+02  0.19814097247E+02  0.00000000000E+00 0.  1.
          1    1    1    2  502    0 -0.14396794612E+02  0.15038606568E+02  0.46848443130E+00  0.20824189306E+02  0.00000000000E+00 0. -1.
         -1    1    1    2    0  501  0.14396794612E+02 -0.15038606568E+02  0.16084721718E+01  0.20880961791E+02  0.00000000000E+00 0.  1.
</event>
<event>
 4    1  0.6740123E+001  0.2260397E+02  0.7546771E-02  0.1497532E+00
          2   -1    0    0  502    0  0.00000000000E+00  0.00000000000E+00  0.38994116945E+03  0.38994116945E+03  0.00000000000E+00 0. -1.
         -2   -1    0    0    0  501 -0.00000000000E+00 -0.00000000000E+00 -0.15630382644E+01  0.15630382644E+01  0.00000000000E+00 0.  1.
          1    1    1    2  502    0 -0.22601444050E+02  0.33792656954E+00  0.11547395369E+03  0.11766551512E+03  0.00000000000E+00 0. -1.
         -1    1    1    2    0  501  0.22601444050E+02 -0.33792656954E+00  0.27290417750E+03  0.27383869260E+03  0.00000000000E+00 0.  1.
</event>
<event>
 4    1  0.6740123E+001  0.2747100E+02  0.7546771E-02  0.1442933E+00
          2   -1    0    0  502    0  0.00000000000E+00  0.00000000000E+00  0.95435784204E+01  0.95435784204E+01  0.00000000000E+00 0. -1.
         -2   -1    0    0    0  501 -0.00000000000E+00 -0.00000000000E+00 -0.14733342711E+03  0.14733342711E+03  0.00000000000E+00 0.  1.
          1    1    1    2  502    0 -0.27004655253E+02 -0.50403033493E+01 -0.15505211117E+02  0.31544692660E+02  0.00000000000E+00 0. -1.
         -1    1    1    2    0  501  0.27004655253E+02  0.50403033493E+01 -0.12228463757E+03  0.12533231287E+03  0.00000000000E+00 0.  1.
</event>
<event>
 4    1  0.6740123E+001  0.3095778E+02  0.7546771E-02  0.1411452E+00
          2   -1    0    0  502    0  0.00000000000E+00  0.00000000000E+00  0.94655617735E+02  0.94655617735E+02  0.00000000000E+00 0.  1.
         -2   -1    0    0    0  501 -0.00000000000E+00 -0.00000000000E+00 -0.11924390003E+02  0.11924390003E+02  0.00000000000E+00 0. -1.
          1    1    1    2  502    0  0.29899538537E+02  0.80250742764E+01  0.20664424433E+02  0.37220997555E+02  0.00000000000E+00 0.  1.
         -1    1    1    2    0  501 -0.29899538537E+02 -0.80250742764E+01  0.62066803299E+02  0.69359010183E+02  0.00000000000E+00 0. -1.
</event>
<event>
 4    1  0.6740123E+001  0.2333266E+02  0.7546771E-02  0.1488363E+00
          2   -1    0    0  502    0  0.00000000000E+00  0.00000000000E+00  0.99927880625E+03  0.99927880625E+03  0.00000000000E+00 0.  1.
         -2   -1    0    0    0  501 -0.00000000000E+00 -0.00000000000E+00 -0.54546514159E+00  0.54546514159E+00  0.00000000000E+00 0. -1.
          1    1    1    2  502    0  0.23251981166E+02  0.19386651102E+01  0.51674517184E+03  0.51727167492E+03  0.00000000000E+00 0.  1.
         -1    1    1    2    0  501 -0.23251981166E+02 -0.19386651102E+01  0.48198816926E+03  0.48255259647E+03  0.00000000000E+00 0. -1.
</event>
<event>
 4    1  0.6740123E+001  0.2128151E+02  0.7546771E-02  0.1515283E+00
          2   -1    0    0  502    0  0.00000000000E+00  0.00000000000E+00  0.26216594521E+01  0.26216594521E+01  0.00000000000E+00 0.  1.
         -2   -1    0    0    0  501 -0.00000000000E+00 -0.00000000000E+00 -0.17286263149E+03  0.17286263149E+03  0.00000000000E+00 0. -1.
          1    1    1    2  502    0  0.16622601628E+02  0.13288789514E+02 -0.82923456741E+02  0.85610761529E+02  0.00000000000E+00 0. -1.
         -1    1    1    2    0  501 -0.16622601628E+02 -0.13288789514E+02 -0.87317515301E+02  0.89873529417E+02  0.00000000000E+00 0.  1.
</event>
<event>
 4    1  0.6740123E+001  0.2002897E+02  0.7546771E-02  0.1533593E+00
          2   -1    0    0  502    0  0.00000000000E+00  0.00000000000E+00  0.70020620579E+03  0.70020620579E+03  0.00000000000E+00 0. -1.
         -2   -1    0    0    0  501 -0.00000000000E+00 -0.00000000000E+00 -0.25591198888E+01  0.25591198888E+01  0.00000000000E+00 0.  1.
          1    1    1    2  502    0  0.19963129278E+02  0.16227017851E+01  0.65838499310E+03  0.65868957698E+03  0.00000000000E+00 0. -1.
         -1    1    1    2    0  501 -0.19963129278E+02 -0.16227017851E+01  0.39262092803E+02  0.44075748694E+02  0.00000000000E+00 0.  1.
</event>
<event>
 4    1  0.6740123E+001  0.2074844E+02  0.7546771E-02  0.1522887E+00
          2   -1    0    0  502    0  0.00000000000E+00  0.00000000000E+00  0.52221203339E+03  0.52221203339E+03  0.00000000000E+00 0. -1.
         -2   -1    0    0    0  501 -0.00000000000E+00 -0.00000000000E+00 -0.10545470144E+01  0.10545470144E+01  0.00000000000E+00 0.  1.
          1    1    1    2  502    0 -0.20713019484E+02 -0.12118230940E+01  0.38281156310E+03  0.38337343483E+03  0.00000000000E+00 0.  1.
         -1    1    1    2    0  501  0.20713019484E+02  0.12118230940E+01  0.13834592328E+03  0.13989314558E+03  0.00000000000E+00 0. -1.
</event>
<event>
 4    1  0.6740123E+001  0.3216128E+02  0.7546771E-02  0.1401700E+00
          2   -1    0    0  502    0  0.00000000000E+00  0.00000000000E+00  0.68134584420E+01  0.68134584420E+01  0.00000000000E+00 0. -1.
         -2   -1    0    0    0  501 -0.00000000000E+00 -0.00000000000E+00 -0.15975882461E+03  0.15975882461E+03  0.00000000000E+00 0.  1.
          1    1    1    2  502    0 -0.24079239091E+02 -0.21319898417E+02 -0.95050942014E+02  0.10034455342E+03  0.00000000000E+00 0.  1.
         -1    1    1    2    0  501  0.24079239091E+02  0.21319898417E+02 -0.57894424149E+02  0.66227729625E+02  0.00000000000E+00 0. -1.
</event>
<event>
 4    1  0.6740123E+001  0.3826026E+02  0.7546771E-02  0.1358994E+00
          2   -1    0    0  502    0  0.00000000000E+00  0.00000000000E+00  0.71974062667E+02  0.71974062667E+02  0.00000000000E+00 0.  1.
         -2   -1    0    0    0  501 -0.00000000000E+00 -0.00000000000E+00 -0.23627309784E+02  0.23627309784E+02  0.00000000000E+00 0. -1.
          1    1    1    2  502    0  0.12646718385E+02  0.36109670092E+02  0.42007154462E+02  0.56819440212E+02  0.00000000000E+00 0. -1.
         -1    1    1    2    0  501 -0.12646718385E+02 -0.36109670092E+02  0.63395984206E+01  0.38781932239E+02  0.00000000000E+00 0.  1.
</event>
<event>
 4    1  0.6740123E+001  0.6010933E+02  0.7546771E-02  0.1259462E+00
          2   -1    0    0  502    0  0.00000000000E+00  0.00000000000E+00  0.27073281000E+04  0.27073281000E+04  0.00000000000E+00 0.  1.
         -2   -1    0    0    0  501 -0.00000000000E+00 -0.00000000000E+00 -0.14245439433E+01  0.14245439433E+01  0.00000000000E+00 0. -1.
          1    1    1    2  502    0 -0.23317482404E+01  0.60064081826E+02  0.16933200004E+04  0.16943865423E+04  0.00000000000E+00 0.  1.
         -1    1    1    2    0  501  0.23317482404E+01 -0.60064081826E+02  0.10125835557E+04  0.10143661017E+04  0.00000000000E+00 0. -1.
</event>
<event>
 4    1  0.6740123E+001  0.2756536E+02  0.7546771E-02  0.1442010E+00
          2   -1    0    0  502    0  0.00000000000E+00  0.00000000000E+00  0.18250389325E+04  0.18250389325E+04  0.00000000000E+00 0.  1.
         -2   -1    0    0    0  501 -0.00000000000E+00 -0.00000000000E+00 -0.10132344608E+01  0.10132344608E+01  0.00000000000E+00 0. -1.
          1    1    1    2  502    0  0.16762076792E+02 -0.21883371720E+02  0.16127812297E+04  0.16130167836E+04  0.00000000000E+00 0.  1.
         -1    1    1    2    0  501 -0.16762076792E+02  0.21883371720E+02  0.21124446826E+03  0.21303538332E+03  0.00000000000E+00 0. -1.
</event>
<event>
 4    1  0.6740123E+001  0.3483503E+02  0.7546771E-02  0.1381727E+00
          2   -1    0    0  502    0  0.00000000000E+00  0.00000000000E+00  0.18161743882E+04  0.18161743882E+04  0.00000000000E+00 0.  1.
         -2   -1    0    0    0  501 -0.00000000000E+00 -0.00000000000E+00 -0.11246722995E+01  0.11246722995E+01  0.00000000000E+00 0. -1.
          1    1    1    2  502    0  0.27106693348E+01 -0.34729408562E+02  0.32861130577E+03  0.33045252280E+03  0.00000000000E+00 0. -1.
         -1    1    1    2    0  501 -0.27106693348E+01  0.34729408562E+02  0.14864384101E+04  0.14868465377E+04  0.00000000000E+00 0.  1.
</event>
<event>
 4    1  0.6740123E+001  0.2000997E+02  0.7546771E-02  0.1533883E+00
          2   -1    0    0  502    0  0.00000000000E+00  0.00000000000E+00  0.15524615801E+04  0.15524615801E+04  0.00000000000E+00 0. -1.
         -2   -1    0    0    0  501 -0.00000000000E+00 -0.00000000000E+00 -0.26614863650E+00  0.26614863650E+00  0.00000000000E+00 0.  1.
          1    1    1    2  502    0 -0.24676502035E+01  0.19857234585E+02  0.63952369685E+03  0.63983666501E+03  0.00000000000E+00 0.  1.
         -1    1    1    2    0  501  0.24676502035E+01 -0.19857234585E+02  0.91267173458E+03  0.91289106369E+03  0.00000000000E+00 0. -1.
</event>
<event>
 4    1  0.6740123E+001  0.2171406E+02  0.7546771E-02  0.1509309E+00
          2   -1    0    0  502    0  0.00000000000E+00  0.00000000000E+00  0.13070816649E+04  0.13070816649E+04  0.00000000000E+00 0. -1.
         -2   -1    0    0    0  501 -0.00000000000E+00 -0.00000000000E+00 -0.57185705515E+00  0.57185705515E+00  0.00000000000E+00 0.  1.
          1    1    1    2  502    0  0.12238986335E+02 -0.17936214700E+02  0.10505317405E+04  0.10507561270E+04  0.00000000000E+00 0. -1.
         -1    1    1    2    0  501 -0.12238986335E+02  0.17936214700E+02  0.25597806732E+03  0.25689739495E+03  0.00000000000E+00 0.  1.
</event>
<event>
 4    1  0.6740123E+001  0.2930422E+02  0.7546771E-02  0.1425741E+00
          2   -1    0    0  502    0  0.00000000000E+00  0.00000000000E+00  0.15453747587E+04  0.15453747587E+04  0.00000000000E+00 0.  1.
         -2   -1    0    0    0  501 -0.00000000000E+00 -0.00000000000E+00 -0.58403547372E+00  0.58403547372E+00  0.00000000000E+00 0. -1.
          1    1    1    2  502    0 -0.27249630328E+02  0.10779383692E+02  0.94270876198E+03  0.94316411477E+03  0.00000000000E+00 0.  1.
         -1    1    1    2    0  501  0.27249630328E+02 -0.10779383692E+02  0.60208196127E+03  0.60279467944E+03  0.00000000000E+00 0. -1.
</event>
<event>
 4    1  0.6740123E+001  0.2146674E+02  0.7546771E-02  0.1512704E+00
          2   -1    0    0  502    0  0.00000000000E+00  0.00000000000E+00  0.55474451374E+00  0.55474451374E+00  0.00000000000E+00 0.  1.
         -2   -1    0    0    0  501 -0.00000000000E+00 -0.00000000000E+00 -0.11995108467E+04  0.11995108467E+04  0.00000000000E+00 0. -1.
          1    1    1    2  502    0  0.17483669838E+02  0.12455614264E+02 -0.26675699071E+03  0.26761934372E+03  0.00000000000E+00 0.  1.
         -1    1    1    2    0  501 -0.17483669838E+02 -0.12455614264E+02 -0.93219911144E+03  0.93244624746E+03  0.00000000000E+00 0. -1.
</event>
<event>
 4    1  0.6740123E+001  0.2100700E+02  0.7546771E-02  0.1519165E+00
          2   -1    0    0  502    0  0.00000000000E+00  0.00000000000E+00  0.27255693765E+02  0.27255693765E+02  0.00000000000E+00 0.  1.
         -2   -1    0    0    0  501 -0.00000000000E+00 -0.00000000000E+00 -0.19737070959E+02  0.19737070959E+02  0.00000000000E+00 0. -1.
          1    1    1    2  502    0 -0.11392658378E+02  0.17649406908E+02  0.13718855208E+02  0.25089862840E+02  0.00000000000E+00 0.  1.
         -1    1    1    2    0  501  0.11392658378E+02 -0.17649406908E+02 -0.62002324024E+01  0.21902901884E+02  0.00000000000E+00 0. -1.
</event>
<event>
 4    1  0.6740123E+001  0.2021052E+02  0.7546771E-02  0.1530842E+00
          2   -1    0    0  502    0  0.00000000000E+00  0.00000000000E+00  0.91137111628E+01  0.91137111628E+01  0.00000000000E+00 0.  1.
         -2   -1    0    0    0  501 -0.00000000000E+00 -0.00000000000E+00 -0.12088419252E+03  0.12088419252E+03  0.00000000000E+00 0. -1.
          1    1    1    2  502    0  0.18530256165E+02  0.80681208728E+01 -0.10744553041E+03  0.10932980826E+03  0.00000000000E+00 0. -1.
         -1    1    1    2    0  501 -0.18530256165E+02 -0.80681208728E+01 -0.43249509477E+01  0.20668095429E+02  0.00000000000E+00 0.  1.
</event>
<event>
 4    1  0.6740123E+001  0.2239871E+02  0.7546771E-02  0.1500190E+00
          2   -1    0    0  502    0  0.00000000000E+00  0.00000000000E+00  0.45302547376E+02  0.45302547376E+02  0.00000000000E+00 0.  1.
         -2   -1    0    0    0  501 -0.00000000000E+00 -0.00000000000E+00 -0.12993643222E+02  0.12993643222E+02  0.00000000000E+00 0. -1.
          1    1    1    2  502    0  0.22381316647E+02  0.88252664517E+00  0.49523226799E+01  0.22939653181E+02  0.00000000000E+00 0. -1.
         -1    1    1    2    0  501 -0.22381316647E+02 -0.88252664517E+00  0.27356581474E+02  0.35356537417E+02  0.00000000000E+00 0.  1.
</event>
<event>
 4    1  0.6740123E+001  0.2525696E+02  0.7546771E-02  0.1465949E+00
          2   -1    0    0  502    0  0.00000000000E+00  0.00000000000E+00  0.20251318288E+02  0.20251318288E+02  0.00000000000E+00 0.  1.
         -2   -1    0    0    0  501 -0.00000000000E+00 -0.00000000000E+00 -0.37763394311E+02  0.37763394311E+02  0.00000000000E+00 0. -1.
          1    1    1    2  502    0  0.17410144184E+02  0.18297570257E+02 -0.20569617298E+02  0.32573353429E+02  0.00000000000E+00 0. -1.
         -1    1    1    2    0  501 -0.17410144184E+02 -0.18297570257E+02  0.30575412753E+01  0.25441359171E+02  0.00000000000E+00 0.  1.
</event>
<event>
 4    1  0.6740123E+001  0.5524653E+02  0.7546771E-02  0.1276899E+00
          2   -1    0    0  502    0  0.00000000000E+00  0.00000000000E+00  0.10802418518E+04  0.10802418518E+04  0.00000000000E+00 0. -1.
         -2   -1    0    0    0  501 -0.00000000000E+00 -0.00000000000E+00 -0.64661770051E+01  0.64661770051E+01  0.00000000000E+00 0.  1.
          1    1    1    2  502    0 -0.42019020251E+02 -0.35868945713E+02  0.12917668449E+03  0.14049482249E+03  0.00000000000E+00 0.  1.
         -1    1    1    2    0  501  0.42019020251E+02  0.35868945713E+02  0.94459899026E+03  0.94621320627E+03  0.00000000000E+00 0. -1.
</event>
<event>
 4    1  0.6740123E+001  0.4298487E+02  0.7546771E-02  0.1331830E+00
          2   -1    0    0  502    0  0.00000000000E+00  0.00000000000E+00  0.38934225501E+03  0.38934225501E+03  0.00000000000E+00 0. -1.
         -2   -1    0    0    0  501 -0.00000000000E+00 -0.00000000000E+00 -0.50463225406E+01  0.50463225406E+01  0.00000000000E+00 0.  1.
          1    1    1    2  502    0 -0.29865044168E+02  0.30915657611E+02  0.14401719974E+03  0.15029521805E+03  0.00000000000E+00 0.  1.
         -1    1    1    2    0  501  0.29865044168E+02 -0.30915657611E+02  0.24027873273E+03  0.24409335949E+03  0.00000000000E+00 0. -1.
</event>
<event>
 4    1  0.6740123E+001  0.2049318E+02  0.7546771E-02  0.1526625E+00
          2   -1    0    0  502    0  0.00000000000E+00  0.00000000000E+00  0.78653143215E+03  0.78653143215E+03  0.00000000000E+00 0. -1.
         -2   -1    0    0    0  501 -0.00000000000E+00 -0.00000000000E+00 -0.85209787529E+00  0.85209787529E+00  0.00000000000E+00 0.  1.
          1    1    1    2  502    0 -0.43506894699E+01 -0.20026032142E+02  0.15227914155E+03  0.15365190339E+03  0.00000000000E+00 0.  1.
         -1    1    1    2    0  501  0.43506894699E+01  0.20026032142E+02  0.63340019272E+03  0.63373162664E+03  0.00000000000E+00 0. -1.
</event>
<event>
 4    1  0.6740123E+001  0.2204266E+02  0.7546771E-02  0.1504883E+00
          2   -1    0    0  502    0  0.00000000000E+00  0.00000000000E+00  0.33821910465E+01  0.33821910465E+01  0.00000000000E+00 0. -1.
         -2   -1    0    0    0  501 -0.00000000000E+00 -0.00000000000E+00 -0.15050040435E+03  0.15050040435E+03  0.00000000000E+00 0.  1.
          1    1    1    2  502    0 -0.18027459404E+02  0.12684221038E+02 -0.57153380136E+02  0.61256735277E+02  0.00000000000E+00 0. -1.
         -1    1    1    2    0  501  0.18027459404E+02 -0.12684221038E+02 -0.89964833171E+02  0.92625860123E+02  0.00000000000E+00 0.  1.
</event>
<event>
 4    1  0.6740123E+001  0.2607688E+02  0.7546771E-02  0.1457108E+00
          2   -1    0    0  502    0  0.00000000000E+00  0.00000000000E+00  0.22840299846E+03  0.22840299846E+03  0.00000000000E+00 0.  1.
         -2   -1    0    0    0  501 -0.00000000000E+00 -0.00000000000E+00 -0.31629618806E+01  0.31629618806E+01  0.00000000000E+00 0. -1.
          1    1    1    2  502    0 -0.39631320606E+01 -0.25773963991E+02  0.14067853048E+03  0.14307498933E+03  0.00000000000E+00 0.  1.
         -1    1    1    2    0  501  0.39631320606E+01  0.25773963991E+02  0.84561506102E+02  0.88490971007E+02  0.00000000000E+00 0. -1.
</event>
<event>
 4    1  0.6740123E+001  0.3221091E+02  0.7546771E-02  0.1401309E+00
          2   -1    0    0  502    0  0.00000000000E+00  0.00000000000E+00  0.39023447508E+03  0.39023447508E+03  0.00000000000E+00 0. -1.
         -2   -1    0    0    0  501 -0.00000000000E+00 -0.00000000000E+00 -0.26945451968E+01  0.26945451968E+01  0.00000000000E+00 0.  1.
          1    1    1    2  502    0 -0.59178055443E+01 -0.31662628737E+02  0.17113125959E+03  0.17413629859E+03  0.00000000000E+00 0. -1.
         -1    1    1    2    0  501  0.59178055443E+01  0.31662628737E+02  0.21640867030E+03  0.21879272168E+03  0.00000000000E+00 0.  1.
</event>
<event>
 4    1  0.6740123E+001  0.2090235E+02  0.7546771E-02  0.1520664E+00
          2   -1    0    0  502    0  0.00000000000E+00  0.00000000000E+00  0.21098553986E+03  0.21098553986E+03  0.00000000000E+00 0. -1.
         -2   -1    0    0    0  501 -0.00000000000E+00 -0.00000000000E+00 -0.41905450739E+01  0.41905450739E+01  0.00000000000E+00 0.  1.
          1    1    1    2  502    0  0.13925060082E+02  0.15588486762E+02  0.17991677736E+03  0.18112690301E+03  0.00000000000E+00 0. -1.
         -1    1    1    2    0  501 -0.13925060082E+02 -0.15588486762E+02  0.26878217427E+02  0.34049181927E+02  0.00000000000E+00 0.  1.
</event>
<event>
 4    1  0.6740123E+001  0.2039943E+02  0.7546771E-02  0.1528015E+00
          2   -1    0    0  502    0  0.00000000000E+00  0.00000000000E+00  0.26605824718E+02  0.26605824718E+02  0.00000000000E+00 0.  1.
         -2   -1    0    0    0  501 -0.00000000000E+00 -0.00000000000E+00 -0.20531548334E+02  0.20531548334E+02  0.00000000000E+00 0. -1.
          1    1    1    2  502    0 -0.19791249736E+02  0.49440115715E+01 -0.84658709262E+01  0.22086371070E+02  0.00000000000E+00 0. -1.
         -1    1    1    2    0  501  0.19791249736E+02 -0.49440115715E+01  0.14540147309E+02  0.25051001982E+02  0.00000000000E+00 0.  1.
</event>
<event>
 4    1  0.6740123E+001  0.2365856E+02  0.7546771E-02  0.1484390E+00
          2   -1    0    0  502    0  0.00000000000E+00  0.00000000000E+00  0.35883909252E+03  0.35883909252E+03  0.00000000000E+00 0. -1.
         -2   -1    0    0    0  501 -0.00000000000E+00 -0.00000000000E+00 -0.19340854312E+01  0.19340854312E+01  0.00000000000E+00 0.  1.
          1    1    1    2  502    0  0.89215937722E+01 -0.21911933792E+02  0.25780324085E+03  0.25888653629E+03  0.00000000000E+00 0.  1.
         -1    1    1    2    0  501 -0.89215937722E+01  0.21911933792E+02  0.99101766240E+02  0.10188664167E+03  0.00000000000E+00 0. -1.
</event>
<event>
 4    1  0.6740123E+001  0.2184074E+02  0.7546771E-02  0.1507592E+00
          2   -1    0    0  502    0  0.00000000000E+00  0.00000000000E+00  0.17678425794E+04  0.17678425794E+04  0.00000000000E+00 0. -1.
         -2   -1    0    0    0  501 -0.00000000000E+00 -0.00000000000E+00 -0.30489708734E+00  0.30489708734E+00  0.00000000000E+00 0.  1.
          1    1    1    2  502    0  0.20885834933E+02  0.63874777381E+01  0.11835871593E+04  0.11837886558E+04  0.00000000000E+00 0.  1.
         -1    1    1    2    0  501 -0.20885834933E+02 -0.63874777381E+01  0.58395052308E+03  0.58435882074E+03  0.00000000000E+00 0. -1.
</event>
<event>
 4    1  0.6740123E+001  0.6887223E+02  0.7546771E-02  0.1232343E+00
          2   -1    0    0  502    0  0.00000000000E+00  0.00000000000E+00  0.14278698401E+02  0.14278698401E+02  0.00000000000E+00 0. -1.
         -2   -1    0    0    0  501 -0.00000000000E+00 -0.00000000000E+00 -0.33386236625E+03  0.33386236625E+03  0.00000000000E+00 0.  1.
          1    1    1    2  502    0  0.51078271404E+01 -0.68682556999E+02 -0.14750880240E+03  0.16279505619E+03  0.00000000000E+00 0. -1.
         -1    1    1    2    0  501 -0.51078271404E+01  0.68682556999E+02 -0.17207486545E+03  0.18534600846E+03  0.00000000000E+00 0.  1.
</event>
<event>
 4    1  0.6740123E+001  0.2469313E+02  0.7546771E-02  0.1472266E+00
          2   -1    0    0  502    0  0.00000000000E+00  0.00000000000E+00  0.12527648857E+04  0.12527648857E+04  0.00000000000E+00 0.  1.
         -2   -1    0    0    0  501 -0.00000000000E+00 -0.00000000000E+00 -0.54451206595E+00  0.54451206595E+00  0.00000000000E+00 0. -1.
          1    1    1    2  502    0  0.14959593256E+02  0.19645893500E+02  0.83025772623E+03  0.83062485065E+03  0.00000000000E+00 0. -1.
         -1    1    1    2    0  501 -0.14959593256E+02 -0.19645893500E+02  0.42196264742E+03  0.42268454713E+03  0.00000000000E+00 0.  1.
</event>
<event>
 4    1  0.6740123E+001  0.3603683E+02  0.7546771E-02  0.1373417E+00
          2   -1    0    0  502    0  0.00000000000E+00  0.00000000000E+00  0.28686619703E+02  0.28686619703E+02  0.00000000000E+00 0. -1.
         -2   -1    0    0    0  501 -0.00000000000E+00 -0.00000000000E+00 -0.51646720572E+02  0.51646720572E+02  0.00000000000E+00 0.  1.
          1    1    1    2  502    0 -0.12477865451E+02 -0.33807629896E+02  0.26333493303E+01  0.36132914276E+02  0.00000000000E+00 0. -1.
         -1    1    1    2    0  501  0.12477865451E+02  0.33807629896E+02 -0.25593450199E+02  0.44200425999E+02  0.00000000000E+00 0.  1.
</event>
<event>
 4    1  0.6740123E+001  0.3789059E+02  0.7546771E-02  0.1361311E+00
          2   -1    0    0  502    0  0.00000000000E+00  0.00000000000E+00  0.10603933615E+03  0.10603933615E+03  0.00000000000E+00 0.  1.
         -2   -1    0    0    0  501 -0.00000000000E+00 -0.00000000000E+00 -0.26320229119E+02  0.26320229119E+02  0.00000000000E+00 0. -1.
          1    1    1    2  502    0  0.37502648327E+02  0.54081332953E+01 -0.62575489389E+01  0.38403820852E+02  0.00000000000E+00 0. -1.
         -1    1    1    2    0  501 -0.37502648327E+02 -0.54081332953E+01  0.85976655972E+02  0.93955744420E+02  0.00000000000E+00 0.  1.
</event>
<event>
 4    1  0.6740123E+001  0.2496991E+02  0.7546771E-02  0.1469140E+00
          2   -1    0    0  502    0  0.00000000000E+00  0.00000000000E+00  0.17063586633E+03  0.17063586633E+03  0.00000000000E+00 0.  1.
         -2   -1    0    0    0  501 -0.00000000000E+00 -0.00000000000E+00 -0.59978199834E+01  0.59978199834E+01  0.00000000000E+00 0. -1.
          1    1    1    2  502    0 -0.13777464187E+02 -0.20824929738E+02  0.13752840438E+03  0.13977681578E+03  0.00000000000E+00 0.  1.
         -1    1    1    2    0  501  0.13777464187E+02  0.20824929738E+02  0.27109641966E+02  0.36856870533E+02  0.00000000000E+00 0. -1.
</event>
<event>
 4    1  0.6740123E+001  0.3117643E+02  0.7546771E-02  0.1409641E+00
          2   -1    0    0  502    0  0.00000000000E+00  0.00000000000E+00  0.61689577530E+03  0.61689577530E+03  0.00000000000E+00 0. -1.
         -2   -1    0    0    0  501 -0.00000000000E+00 -0.00000000000E+00 -0.54439906049E+01  0.54439906049E+01  0.00000000000E+00 0.  1.
          1    1    1    2  502    0 -0.41236798949E+01  0.30902506806E+02  0.56802998272E+03  0.56888490131E+03  0.00000000000E+00 0. -1.
         -1    1    1    2    0  501  0.41236798949E+01 -0.30902506806E+02  0.43421801979E+02  0.53454864604E+02  0.00000000000E+00 0.  1.
</event>
<event>
 4    1  0.6740123E+001  0.4428374E+02  0.7546771E-02  0.1325060E+00
          2   -1    0    0  502    0  0.00000000000E+00  0.00000000000E+00  0.61964800522E+03  0.61964800522E+03  0.00000000000E+00 0.  1.
         -2   -1    0    0    0  501 -0.00000000000E+00 -0.00000000000E+00 -0.31836131781E+01  0.31836131781E+01  0.00000000000E+00 0. -1.
          1    1    1    2  502    0 -0.78242515339E+01  0.43587051855E+02  0.28428056428E+03  0.28770903571E+03  0.00000000000E+00 0. -1.
         -1    1    1    2    0  501  0.78242515339E+01 -0.43587051855E+02  0.33218382776E+03  0.33512258269E+03  0.00000000000E+00 0.  1.
</event>
<event>
 4    1  0.6740123E+001  0.3626946E+02  0.7546771E-02  0.1371852E+00
          2   -1    0    0  502    0  0.00000000000E+00  0.00000000000E+00  0.48750195130E+04  0.48750195130E+04  0.00000000000E+00 0.  1.
         -2   -1    0    0    0  501 -0.00000000000E+00 -0.00000000000E+00 -0.26984609771E+00  0.26984609771E+00  0.00000000000E+00 0. -1.
          1    1    1    2  502    0  0.34036514642E+02  0.12529550610E+02  0.24492127623E+04  0.24494812980E+04  0.00000000000E+00 0.  1.
         -1    1    1    2    0  501 -0.34036514642E+02 -0.12529550610E+02  0.24255369046E+04  0.24258080611E+04  0.00000000000E+00 0. -1.
</event>
<event>
 4    1  0.6740123E+001  0.2399993E+02  0.7546771E-02  0.1480310E+00
          2   -1    0    0  502    0  0.00000000000E+00  0.00000000000E+00  0.13713727593E+04  0.13713727593E+04  0.00000000000E+00 0.  1.
         -2   -1    0    0    0  501 -0.00000000000E+00 -0.00000000000E+00 -0.47830088118E+00  0.47830088118E+00  0.00000000000E+00 0. -1.
          1    1    1    2  502    0  0.64276196896E+01  0.23123198297E+02  0.44600016637E+03  0.44664543544E+03  0.00000000000E+00 0. -1.
         -1    1    1    2    0  501 -0.64276196896E+01 -0.23123198297E+02  0.92489429200E+03  0.92520562470E+03  0.00000000000E+00 0.  1.
</event>
<event>
 4    1  0.6740123E+001  0.2715600E+02  0.7546771E-02  0.1446047E+00
          2   -1    0    0  502    0  0.00000000000E+00  0.00000000000E+00  0.12118223122E+04  0.12118223122E+04  0.00000000000E+00 0.  1.
         -2   -1    0    0    0  501 -0.00000000000E+00 -0.00000000000E+00 -0.78226677491E+00  0.78226677491E+00  0.00000000000E+00 0. -1.
          1    1    1    2  502    0  0.14710500002E+02 -0.22826510800E+02  0.31980116960E+03  0.32095207817E+03  0.00000000000E+00 0. -1.
         -1    1    1    2    0  501 -0.14710500002E+02  0.22826510800E+02  0.89123887587E+03  0.89165250084E+03  0.00000000000E+00 0.  1.
</event>
<event>
 4    1  0.6740123E+001  0.3699325E+02  0.7546771E-02  0.1367067E+00
          2   -1    0    0  502    0  0.00000000000E+00  0.00000000000E+00  0.10772715014E+02  0.10772715014E+02  0.00000000000E+00 0.  1.
         -2   -1    0    0    0  501 -0.00000000000E+00 -0.00000000000E+00 -0.13992182563E+03  0.13992182563E+03  0.00000000000E+00 0. -1.
          1    1    1    2  502    0  0.21594606833E+02  0.30036198737E+02 -0.41707203713E+02  0.55749359820E+02  0.00000000000E+00 0.  1.
         -1    1    1    2    0  501 -0.21594606833E+02 -0.30036198737E+02 -0.87441906909E+02  0.94945180829E+02  0.00000000000E+00 0. -1.
</event>
<event>
 4    1  0.6740123E+001  0.2089829E+02  0.7546771E-02  0.1520722E+00
          2   -1    0    0  502    0  0.00000000000E+00  0.00000000000E+00  0.64675598362E+02  0.64675598362E+02  0.00000000000E+00 0. -1.
         -2   -1    0    0    0  501 -0.00000000000E+00 -0.00000000000E+00 -0.70021682822E+01  0.70021682822E+01  0.00000000000E+00 0.  1.
          1    1    1    2  502    0 -0.16995133571E+02 -0.12161571372E+02  0.35600645842E+02  0.41281283504E+02  0.00000000000E+00 0. -1.
         -1    1    1    2    0  501  0.16995133571E+02  0.12161571372E+02  0.22072784238E+02  0.30396483141E+02  0.00000000000E+00 0.  1.
</event>
<event>
 4    1  0.6740123E+001  0.2014849E+02  0.7546771E-02  0.1531778E+00
          2   -1    0    0  502    0  0.00000000000E+00  0.00000000000E+00  0.10656687752E+04  0.10656687752E+04  0.00000000000E+00 0. -1.
         -2   -1    0    0    0  501 -0.00000000000E+00 -0.00000000000E+00 -0.38962991032E+00  0.38962991032E+00  0.00000000000E+00 0.  1.
          1    1    1    2  502    0 -0.14393883495E+02  0.14098852368E+02  0.45306032688E+03  0.45350812706E+03  0.00000000000E+00 0. -1.
         -1    1    1    2    0  501  0.14393883495E+02 -0.14098852368E+02  0.61221881846E+03  0.61255027810E+03  0.00000000000E+00 0.  1.
</event>
<event>
 4    1  0.6740123E+001  0.2654532E+02  0.7546771E-02  0.1452230E+00
          2   -1    0    0  502    0  0.00000000000E+00  0.00000000000E+00  0.88460219446E+02  0.88460219446E+02  0.00000000000E+00 0. -1.
         -2   -1    0    0    0  501 -0.00000000000E+00 -0.00000000000E+00 -0.79709793771E+01  0.79709793771E+01  0.00000000000E+00 0.  1.
          1    1    1    2  502    0  0.25978431890E+02  0.54566429176E+01  0.39012164335E+02  0.47186892687E+02  0.00000000000E+00 0.  1.
         -1    1    1    2    0  501 -0.25978431890E+02 -0.54566429176E+01  0.41477075734E+02  0.49244306136E+02  0.00000000000E+00 0. -1.
</event>
<event>
 4    1  0.6740123E+001  0.2173025E+02  0.7546771E-02  0.1509089E+00
          2   -1    0    0  502    0  0.00000000000E+00  0.00000000000E+00  0.13721769906E+04  0.13721769906E+04  0.00000000000E+00 0. -1.
         -2   -1    0    0    0  501 -0.00000000000E+00 -0.00000000000E+00 -0.38243145508E+00  0.38243145508E+00  0.00000000000E+00 0.  1.
          1    1    1    2  502    0  0.15918921211E+01 -0.21671866153E+02  0.90309031490E+03  0.90335171488E+03  0.00000000000E+00 0. -1.
         -1    1    1    2    0  501 -0.15918921211E+01  0.21671866153E+02  0.46870424422E+03  0.46920770716E+03  0.00000000000E+00 0.  1.
</event>
<event>
 4    1  0.6740123E+001  0.2286564E+02  0.7546771E-02  0.1494192E+00
          2   -1    0    0  502    0  0.00000000000E+00  0.00000000000E+00  0.31673537649E+02  0.31673537649E+02  0.00000000000E+00 0.  1.
         -2   -1    0    0    0  501 -0.00000000000E+00 -0.00000000000E+00 -0.23497838696E+02  0.23497838696E+02  0.00000000000E+00 0. -1.
          1    1    1    2  502    0  0.22259300593E+02 -0.52307882120E+01 -0.10958530695E+02  0.25356005269E+02  0.00000000000E+00 0.  1.
         -1    1    1    2    0  501 -0.22259300593E+02  0.52307882120E+01  0.19134229648E+02  0.29815371076E+02  0.00000000000E+00 0. -1.
</event>
<event>
 4    1  0.6740123E+001  0.3150657E+02  0.7546771E-02  0.1406941E+00
          2   -1    0    0  502    0  0.00000000000E+00  0.00000000000E+00  0.57266698079E+03  0.57266698079E+03  0.00000000000E+00 0. -1.
         -2   -1    0    0    0  501 -0.00000000000E+00 -0.00000000000E+00 -0.18248901735E+01  0.18248901735E+01  0.00000000000E+00 0.  1.
          1    1    1    2  502    0  0.18923438491E+02 -0.25190617802E+02  0.34973587520E+03  0.35115216951E+03  0.00000000000E+00 0. -1.
         -1    1    1    2    0  501 -0.18923438491E+02  0.25190617802E+02  0.22110621541E+03  0.22333970145E+03  0.00000000000E+00 0.  1.
</event>
<event>
 4    1  0.6740123E+001  0.2563147E+02  0.7546771E-02  0.1461862E+00
          2   -1    0    0  502    0  0.00000000000E+00  0.00000000000E+00  0.38049067357E+03  0.38049067357E+03  0.00000000000E+00 0. -1.
         -2   -1    0    0    0  501 -0.00000000000E+00 -0.00000000000E+00 -0.20283380911E+01  0.20283380911E+01  0.00000000000E+00 0.  1.
          1    1    1    2  502    0 -0.22993874441E+02  0.11324936835E+02  0.11546872693E+03  0.11827932767E+03  0.00000000000E+00 0.  1.
         -1    1    1    2    0  501  0.22993874441E+02 -0.11324936835E+02  0.26299360855E+03  0.26423968399E+03  0.00000000000E+00 0. -1.
</event>
<event>
 4    1  0.6740123E+001  0.2072392E+02  0.7546771E-02  0.1523243E+00
          2   -1    0    0  502    0  0.00000000000E+00  0.00000000000E+00  0.39344126712E+01  0.39344126712E+01  0.00000000000E+00 0.  1.
         -2   -1    0    0    0  501 -0.00000000000E+00 -0.00000000000E+00 -0.27396002041E+03  0.27396002041E+03  0.00000000000E+00 0. -1.
          1    1    1    2  502    0  0.10643358711E+02  0.17782009559E+02 -0.27246067127E+02  0.34231989754E+02  0.00000000000E+00 0.  1.
         -1    1    1    2    0  501 -0.10643358711E+02 -0.17782009559E+02 -0.24277954062E+03  0.24366244333E+03  0.00000000000E+00 0. -1.
</event>
<event>
 4    1  0.6740123E+001  0.3778578E+02  0.7546771E-02  0.1361973E+00
          2   -1    0    0  502    0  0.00000000000E+00  0.00000000000E+00  0.30836982500E+03  0.30836982500E+03  0.00000000000E+00 0.  1.
         -2   -1    0    0    0  501 -0.00000000000E+00 -0.00000000000E+00 -0.51450275417E+01  0.51450275417E+01  0.00000000000E+00 0. -1.
          1    1    1    2  502    0  0.76383164442E+01 -0.37005696114E+02  0.20120667330E+03  0.20472393803E+03  0.00000000000E+00 0.  1.
         -1    1    1    2    0  501 -0.76383164442E+01  0.37005696114E+02  0.10201812415E+03  0.10879091451E+03  0.00000000000E+00 0. -1.
</event>
<event>
 4    1  0.6740123E+001  0.2014044E+02  0.7546771E-02  0.1531900E+00
          2   -1    0    0  502    0  0.00000000000E+00  0.00000000000E+00  0.16059475912E+04  0.16059475912E+04  0.00000000000E+00 0.  1.
         -2   -1    0    0    0  501 -0.00000000000E+00 -0.00000000000E+00 -0.59194605358E+00  0.59194605358E+00  0.00000000000E+00 0. -1.
          1    1    1    2  502    0  0.44649825675E+01 -0.19639276402E+02  0.14108853152E+04  0.14110290606E+04  0.00000000000E+00 0.  1.
         -1    1    1    2    0  501 -0.44649825675E+01  0.19639276402E+02  0.19447032999E+03  0.19551047668E+03  0.00000000000E+00 0. -1.
</event>
<event>
 4    1  0.6740123E+001  0.2631351E+02  0.7546771E-02  0.1454629E+00
          2   -1    0    0  502    0  0.00000000000E+00  0.00000000000E+00  0.57195227437E+03  0.57195227437E+03  0.00000000000E+00 0.  1.
         -2   -1    0    0    0  501 -0.00000000000E+00 -0.00000000000E+00 -0.15757465697E+01  0.15757465697E+01  0.00000000000E+00 0. -1.
          1    1    1    2  502    0  0.18484026542E+02  0.18728098216E+02  0.14714355160E+03  0.14947784343E+03  0.00000000000E+00 0. -1.
         -1    1    1    2    0  501 -0.18484026542E+02 -0.18728098216E+02  0.42323297620E+03  0.42405017751E+03  0.00000000000E+00 0.  1.
</event>
<event>
 4    1  0.6740123E+001  0.2809438E+02  0.7546771E-02  0.1436914E+00
          2   -1    0    0  502    0  0.00000000000E+00  0.00000000000E+00  0.14574781751E+03  0.14574781751E+03  0.00000000000E+00 0. -1.
         -2   -1    0    0    0  501 -0.00000000000E+00 -0.00000000000E+00 -0.60267104750E+01  0.60267104750E+01  0.00000000000E+00 0.  1.
          1    1    1    2  502    0  0.27487204346E+02 -0.58092947233E+01  0.45693069914E+02  0.53639080399E+02  0.00000000000E+00 0.  1.
         -1    1    1    2    0  501 -0.27487204346E+02  0.58092947233E+01  0.94028037119E+02  0.98135447584E+02  0.00000000000E+00 0. -1.
</event>
<event>
 4    1  0.6740123E+001  0.4602432E+02  0.7546771E-02  0.1316395E+00
          2   -1    0    0  502    0  0.00000000000E+00  0.00000000000E+00  0.27486404381E+03  0.27486404381E+03  0.00000000000E+00 0.  1.
         -2   -1    0    0    0  501 -0.00000000000E+00 -0.00000000000E+00 -0.26521864922E+02  0.26521864922E+02  0.00000000000E+00 0. -1.
          1    1    1    2  502    0  0.42483580819E+02  0.17702646998E+02 -0.27539478934E+01  0.46106643544E+02  0.00000000000E+00 0. -1.
         -1    1    1    2    0  501 -0.42483580819E+02 -0.17702646998E+02  0.25109612679E+03  0.25527926519E+03  0.00000000000E+00 0.  1.
</event>
<event>
 4    1  0.6740123E+001  0.2375451E+02  0.7546771E-02  0.1483235E+00
          2   -1    0    0  502    0  0.00000000000E+00  0.00000000000E+00  0.12338276301E+04  0.12338276301E+04  0.00000000000E+00 0.  1.
         -2   -1    0    0    0  501 -0.00000000000E+00 -0.00000000000E+00 -0.13471494797E+01  0.13471494797E+01  0.00000000000E+00 0. -1.
          1    1    1    2  502    0 -0.23094093584E+02  0.55623472634E+01  0.11181659116E+04  0.11184182057E+04  0.00000000000E+00 0.  1.
         -1    1    1    2    0  501  0.23094093584E+02 -0.55623472634E+01  0.11431456904E+03  0.11675657395E+03  0.00000000000E+00 0. -1.
</event>
<event>
 4    1  0.6740123E+001  0.2666463E+02  0.7546771E-02  0.1451006E+00
          2   -1    0    0  502    0  0.00000000000E+00  0.00000000000E+00  0.37897816161E+01  0.37897816161E+01  0.00000000000E+00 0. -1.
         -2   -1    0    0    0  501 -0.00000000000E+00 -0.00000000000E+00 -0.23200649607E+03  0.23200649607E+03  0.00000000000E+00 0.  1.
          1    1    1    2  502    0 -0.79588730865E+01  0.25449144724E+02 -0.62534569105E+02  0.67982166493E+02  0.00000000000E+00 0. -1.
         -1    1    1    2    0  501  0.79588730865E+01 -0.25449144724E+02 -0.16568214535E+03  0.16781411119E+03  0.00000000000E+00 0.  1.
</event>
<event>
 4    1  0.6740123E+001  0.2322627E+02  0.7546771E-02  0.1489676E+00
          2   -1    0    0  502    0  0.00000000000E+00  0.00000000000E+00  0.20503823796E+02  0.20503823796E+02  0.00000000000E+00 0.  1.
         -2   -1    0    0    0  501 -0.00000000000E+00 -0.00000000000E+00 -0.30231508820E+02  0.30231508820E+02  0.00000000000E+00 0. -1.
          1    1    1    2  502    0 -0.20923483920E+01  0.23131832338E+02  0.42723752084E+01  0.23615943323E+02  0.00000000000E+00 0.  1.
         -1    1    1    2    0  501  0.20923483920E+01 -0.23131832338E+02 -0.14000060232E+02  0.27119389293E+02  0.00000000000E+00 0. -1.
</event>
<event>
 4    1  0.6740123E+001  0.2299618E+02  0.7546771E-02  0.1492546E+00
          2   -1    0    0  502    0  0.00000000000E+00  0.00000000000E+00  0.15537506999E+02  0.15537506999E+02  0.00000000000E+00 0. -1.
         -2   -1    0    0    0  501 -0.00000000000E+00 -0.00000000000E+00 -0.36404965882E+02  0.36404965882E+02  0.00000000000E+00 0.  1.
          1    1    1    2  502    0  0.98880988704E+01 -0.20761735689E+02 -0.38077027719E+01  0.23309285028E+02  0.00000000000E+00 0. -1.
         -1    1    1    2    0  501 -0.98880988704E+01  0.20761735689E+02 -0.17059756111E+02  0.28633187854E+02  0.00000000000E+00 0.  1.
</event>
<event>
 4    1  0.6740123E+001  0.2214524E+02  0.7546771E-02  0.1503520E+00
          2   -1    0    0  502    0  0.00000000000E+00  0.00000000000E+00  0.10759131602E+02  0.10759131602E+02  0.00000000000E+00 0. -1.
         -2   -1    0    0    0  501 -0.00000000000E+00 -0.00000000000E+00 -0.54804114980E+02  0.54804114980E+02  0.00000000000E+00 0.  1.
          1    1    1    2  502    0  0.19461582513E+02 -0.10566855526E+02 -0.85743138487E+01  0.23747220629E+02  0.00000000000E+00 0.  1.
         -1    1    1    2    0  501 -0.19461582513E+02  0.10566855526E+02 -0.35470669530E+02  0.41816025953E+02  0.00000000000E+00 0. -1.
</event>
<event>
 4    1  0.6740123E+001  0.6856898E+02  0.7546771E-02  0.1233204E+00
          2   -1    0    0  502    0  0.00000000000E+00  0.00000000000E+00  0.27465969171E+04  0.27465969171E+04  0.00000000000E+00 0.  1.
         -2   -1    0    0    0  501 -0.00000000000E+00 -0.00000000000E+00 -0.21340122202E+01  0.21340122202E+01  0.00000000000E+00 0. -1.
          1    1    1    2  502    0 -0.62580369849E+01 -0.68282813706E+02  0.19835308962E+04  0.19847157283E+04  0.00000000000E+00 0.  1.
         -1    1    1    2    0  501  0.62580369849E+01  0.68282813706E+02  0.76093200864E+03  0.76401520106E+03  0.00000000000E+00 0. -1.
</event>
<event>
 4    1  0.6740123E+001  0.2292612E+02  0.7546771E-02  0.1493428E+00
          2   -1    0    0  502    0  0.00000000000E+00  0.00000000000E+00  0.16998149619E+04  0.16998149619E+04  0.00000000000E+00 0. -1.
         -2   -1    0    0    0  501 -0.00000000000E+00 -0.00000000000E+00 -0.35042671909E+00  0.35042671909E+00  0.00000000000E+00 0.  1.
          1    1    1    2  502    0  0.22633546800E+02 -0.36509460868E+01  0.55820620737E+03  0.55867680890E+03  0.00000000000E+00 0.  1.
         -1    1    1    2    0  501 -0.22633546800E+02  0.36509460868E+01  0.11412583278E+04  0.11414885797E+04  0.00000000000E+00 0. -1.
</event>
<event>
 4    1  0.6740123E+001  0.2462448E+02  0.7546771E-02  0.1473048E+00
          2   -1    0    0  502    0  0.00000000000E+00  0.00000000000E+00  0.10821180788E+03  0.10821180788E+03  0.00000000000E+00 0. -1.
         -2   -1    0    0    0  501 -0.00000000000E+00 -0.00000000000E+00 -0.57135465197E+01  0.57135465197E+01  0.00000000000E+00 0.  1.
          1    1    1    2  502    0  0.28803302092E+01 -0.24455439275E+02  0.59154581389E+02  0.64075184834E+02  0.00000000000E+00 0.  1.
         -1    1    1    2    0  501 -0.28803302092E+01  0.24455439275E+02  0.43343679970E+02  0.49850169564E+02  0.00000000000E+00 0. -1.
</event>
<event>
 4    1  0.6740123E+001  0.3839783E+02  0.7546771E-02  0.1358139E+00
          2   -1    0    0  502    0  0.00000000000E+00  0.00000000000E+00  0.16158046704E+03  0.16158046704E+03  0.00000000000E+00 0.  1.
         -2   -1    0    0    0  501 -0.00000000000E+00 -0.00000000000E+00 -0.10856499839E+02  0.10856499839E+02  0.00000000000E+00 0. -1.
          1    1    1    2  502    0  0.34427964158E+02  0.17003196466E+02  0.40927886559E+02  0.56120275341E+02  0.00000000000E+00 0.  1.
         -1    1    1    2    0  501 -0.34427964158E+02 -0.17003196466E+02  0.10979608064E+03  0.11631669154E+03  0.00000000000E+00 0. -1.
</event>
<event>
 4    1  0.6740123E+001  0.2466853E+02  0.7546771E-02  0.1472546E+00
          2   -1    0    0  502    0  0.00000000000E+00  0.00000000000E+00  0.73969909946E+02  0.73969909946E+02  0.00000000000E+00 0.  1.
         -2   -1    0    0    0  501 -0.00000000000E+00 -0.00000000000E+00 -0.85130339130E+01  0.85130339130E+01  0.00000000000E+00 0. -1.
          1    1    1    2  502    0  0.20680403600E+02 -0.13448312040E+02  0.25166257577E+02  0.35240271143E+02  0.00000000000E+00 0. -1.
         -1    1    1    2    0  501 -0.20680403600E+02  0.13448312040E+02  0.40290618456E+02  0.47242672716E+02  0.00000000000E+00 0.  1.
</event>
<event>
 4    1  0.6740123E+001  0.4007453E+02  0.7546771E-02  0.1348050E+00
          2   -1    0    0  502    0  0.00000000000E+00  0.00000000000E+00  0.32088847113E+02  0.32088847113E+02  0.00000000000E+00 0.  1.
         -2   -1    0    0    0  501 -0.00000000000E+00 -0.00000000000E+00 -0.50906658812E+02  0.50906658812E+02  0.00000000000E+00 0. -1.
          1    1    1    2  502    0  0.23713162287E+02 -0.32305634615E+02 -0.40179961830E+01  0.40275456383E+02  0.00000000000E+00 0. -1.
         -1    1    1    2    0  501 -0.23713162287E+02  0.32305634615E+02 -0.14799815516E+02  0.42720049542E+02  0.00000000000E+00 0.  1.
</event>
<event>
 4    1  0.6740123E+001  0.2870197E+02  0.7546771E-02  0.1431222E+00
          2   -1    0    0  502    0  0.00000000000E+00  0.00000000000E+00  0.13772827502E+04  0.13772827502E+04  0.00000000000E+00 0. -1.
         -2   -1    0    0    0  501 -0.00000000000E+00 -0.00000000000E+00 -0.13408350715E+01  0.13408350715E+01  0.00000000000E+00 0.  1.
          1    1    1    2  502    0  0.66708464389E+01  0.27915993882E+02  0.12009910325E+04  0.12013339515E+04  0.00000000000E+00 0. -1.
         -1    1    1    2    0  501 -0.66708464389E+01 -0.27915993882E+02  0.17495088264E+03  0.17728963377E+03  0.00000000000E+00 0.  1.
</event>
<event>
 4    1  0.6740123E+001  0.2307048E+02  0.7546771E-02  0.1491615E+00
          2   -1    0    0  502    0  0.00000000000E+00  0.00000000000E+00  0.44406329392E+03  0.44406329392E+03  0.00000000000E+00 0.  1.
         -2   -1    0    0    0  501 -0.00000000000E+00 -0.00000000000E+00 -0.15392450158E+01  0.15392450158E+01  0.00000000000E+00 0. -1.
          1    1    1    2  502    0 -0.17210846348E+02 -0.15363391441E+02  0.32607744686E+03  0.32689256397E+03  0.00000000000E+00 0.  1.
         -1    1    1    2    0  501  0.17210846348E+02  0.15363391441E+02  0.11644660204E+03  0.11870997497E+03  0.00000000000E+00 0. -1.
</event>
<event>
 4    1  0.6740123E+001  0.2072911E+02  0.7546771E-02  0.1523168E+00
          2   -1    0    0  502    0  0.00000000000E+00  0.00000000000E+00  0.21911136284E+02  0.21911136284E+02  0.00000000000E+00 0. -1.
         -2   -1    0    0    0  501 -0.00000000000E+00 -0.00000000000E+00 -0.24860782203E+02  0.24860782203E+02  0.00000000000E+00 0.  1.
          1    1    1    2  502    0  0.92994136410E+01 -0.18526110896E+02 -0.12221516963E+02  0.24063693729E+02  0.00000000000E+00 0.  1.
         -1    1    1    2    0  501 -0.92994136410E+01  0.18526110896E+02  0.92718710437E+01  0.22708224758E+02  0.00000000000E+00 0. -1.
</event>
<event>
 4    1  0.6740123E+001  0.3308549E+02  0.7546771E-02  0.1394546E+00
          2   -1    0    0  502    0  0.00000000000E+00  0.00000000000E+00  0.14806554925E+02  0.14806554925E+02  0.00000000000E+00 0.  1.
         -2   -1    0    0    0  501 -0.00000000000E+00 -0.00000000000E+00 -0.83070190688E+02  0.83070190688E+02  0.00000000000E+00 0. -1.
          1    1    1    2  502    0 -0.29276657761E+02  0.15411908481E+02 -0.17898662952E+02  0.37616641904E+02  0.00000000000E+00 0.  1.
         -1    1    1    2    0  501  0.29276657761E+02 -0.15411908481E+02 -0.50364972811E+02  0.60260103708E+02  0.00000000000E+00 0. -1.
</event>
<event>
 4    1  0.6740123E+001  0.2665113E+02  0.7546771E-02  0.1451144E+00
          2   -1    0    0  502    0  0.00000000000E+00  0.00000000000E+00  0.79034639428E+03  0.79034639428E+03  0.00000000000E+00 0.  1.
         -2   -1    0    0    0  501 -0.00000000000E+00 -0.00000000000E+00 -0.92831545530E+00  0.92831545530E+00  0.00000000000E+00 0. -1.
          1    1    1    2  502    0 -0.25705726816E+02 -0.70355045918E+01  0.46537714394E+03  0.46613964519E+03  0.00000000000E+00 0.  1.
         -1    1    1    2    0  501  0.25705726816E+02  0.70355045918E+01  0.32404093488E+03  0.32513506454E+03  0.00000000000E+00 0. -1.
</event>
<event>
 4    1  0.6740123E+001  0.2004166E+02  0.7546771E-02  0.1533400E+00
          2   -1    0    0  502    0  0.00000000000E+00  0.00000000000E+00  0.28314303511E+03  0.28314303511E+03  0.00000000000E+00 0. -1.
         -2   -1    0    0    0  501 -0.00000000000E+00 -0.00000000000E+00 -0.14413857938E+01  0.14413857938E+01  0.00000000000E+00 0.  1.
          1    1    1    2  502    0  0.42949408956E+01 -0.19576042461E+02  0.15873962196E+03  0.15999979855E+03  0.00000000000E+00 0. -1.
         -1    1    1    2    0  501 -0.42949408956E+01  0.19576042461E+02  0.12296202735E+03  0.12458462235E+03  0.00000000000E+00 0.  1.
</event>
<event>
 4    1  0.6740123E+001  0.2490320E+02  0.7546771E-02  0.1469889E+00
          2   -1    0    0  502    0  0.00000000000E+00  0.00000000000E+00  0.11749872986E+01  0.11749872986E+01  0.00000000000E+00 0. -1.
         -2   -1    0    0    0  501 -0.00000000000E+00 -0.00000000000E+00 -0.59008104445E+03  0.59008104445E+03  0.00000000000E+00 0.  1.
          1    1    1    2  502    0 -0.12890013153E+02 -0.21307677185E+02 -0.39048908443E+03  0.39128237196E+03  0.00000000000E+00 0.  1.
         -1    1    1    2    0  501  0.12890013153E+02  0.21307677185E+02 -0.19841697273E+03  0.19997365979E+03  0.00000000000E+00 0. -1.
</event>
<event>
 4    1  0.6740123E+001  0.2953845E+02  0.7546771E-02  0.1423650E+00
          2   -1    0    0  502    0  0.00000000000E+00  0.00000000000E+00  0.78574367086E+01  0.78574367086E+01  0.00000000000E+00 0.  1.
         -2   -1    0    0    0  501 -0.00000000000E+00 -0.00000000000E+00 -0.11438263656E+03  0.11438263656E+03  0.00000000000E+00 0. -1.
          1    1    1    2  502    0 -0.26936001195E+02 -0.12123192753E+02 -0.63704953216E+02  0.70219947501E+02  0.00000000000E+00 0. -1.
         -1    1    1    2    0  501  0.26936001195E+02  0.12123192753E+02 -0.42820246638E+02  0.52020125769E+02  0.00000000000E+00 0.  1.
</event>
<event>
 4    1  0.6740123E+001  0.2188091E+02  0.7546771E-02  0.1507050E+00
          2   -1    0    0  502    0  0.00000000000E+00  0.00000000000E+00  0.10005734884E+02  0.10005734884E+02  0.00000000000E+00 0.  1.
         -2   -1    0    0    0  501 -0.00000000000E+00 -0.00000000000E+00 -0.47935072886E+02  0.47935072886E+02  0.00000000000E+00 0. -1.
          1    1    1    2  502    0  0.62470510122E+01  0.20970179660E+02 -0.20185367297E+02  0.29769500066E+02  0.00000000000E+00 0. -1.
         -1    1    1    2    0  501 -0.62470510122E+01 -0.20970179660E+02 -0.17743970705E+02  0.28171307703E+02  0.00000000000E+00 0.  1.
</event>
<event>
 4    1  0.6740123E+001  0.2298831E+02  0.7546771E-02  0.1492645E+00
          2   -1    0    0  502    0  0.00000000000E+00  0.00000000000E+00  0.54546075662E+00  0.54546075662E+00  0.00000000000E+00 0. -1.
         -2   -1    0    0    0  501 -0.00000000000E+00 -0.00000000000E+00 -0.96978362323E+03  0.96978362323E+03  0.00000000000E+00 0.  1.
          1    1    1    2  502    0 -0.70487715923E+01  0.21880973887E+02 -0.49978236227E+03  0.50031077526E+03  0.00000000000E+00 0.  1.
         -1    1    1    2    0  501  0.70487715923E+01 -0.21880973887E+02 -0.46945580020E+03  0.47001830873E+03  0.00000000000E+00 0. -1.
</event>
<event>
 4    1  0.6740123E+001  0.2103384E+02  0.7546771E-02  0.1518782E+00
          2   -1    0    0  502    0  0.00000000000E+00  0.00000000000E+00  0.14609825597E+04  0.14609825597E+04  0.00000000000E+00 0. -1.
         -2   -1    0    0    0  501 -0.00000000000E+00 -0.00000000000E+00 -0.30682837504E+00  0.30682837504E+00  0.00000000000E+00 0.  1.
          1    1    1    2  502    0  0.91846553061E+01 -0.18922595161E+02  0.64688242728E+03  0.64722430210E+03  0.00000000000E+00 0.  1.
         -1    1    1    2    0  501 -0.91846553061E+01  0.18922595161E+02  0.81379330402E+03  0.81406508596E+03  0.00000000000E+00 0. -1.
</event>
<event>
 4    1  0.6740123E+001  0.4064890E+02  0.7546771E-02  0.1344725E+00
          2   -1    0    0  502    0  0.00000000000E+00  0.00000000000E+00  0.15672161883E+03  0.15672161883E+03  0.00000000000E+00 0. -1.
         -2   -1    0    0    0  501 -0.00000000000E+00 -0.00000000000E+00 -0.11155456530E+02  0.11155456530E+02  0.00000000000E+00 0.  1.
          1    1    1    2  502    0 -0.38173915535E+02 -0.13967282945E+02  0.53117020874E+02  0.66886102642E+02  0.00000000000E+00 0.  1.
         -1    1    1    2    0  501  0.38173915535E+02  0.13967282945E+02  0.92449141428E+02  0.10099097272E+03  0.00000000000E+00 0. -1.
</event>
<event>
 4    1  0.6740123E+001  0.2736653E+02  0.7546771E-02  0.1443961E+00
          2   -1    0    0  502    0  0.00000000000E+00  0.00000000000E+00  0.32004591850E+03  0.32004591850E+03  0.00000000000E+00 0.  1.
         -2   -1    0    0    0  501 -0.00000000000E+00 -0.00000000000E+00 -0.80066260894E+01  0.80066260894E+01  0.00000000000E+00 0. -1.
          1    1    1    2  502    0 -0.25275040656E+02 -0.10492832619E+02  0.29400994435E+03  0.29528084021E+03  0.00000000000E+00 0.  1.
         -1    1    1    2    0  501  0.25275040656E+02  0.10492832619E+02  0.18029348056E+02  0.32771704378E+02  0.00000000000E+00 0. -1.
</event>
<event>
 4    1  0.6740123E+001  0.4165956E+02  0.7546771E-02  0.1339026E+00
          2   -1    0    0  502    0  0.00000000000E+00  0.00000000000E+00  0.24214131469E+02  0.24214131469E+02  0.00000000000E+00 0. -1.
         -2   -1    0    0    0  501 -0.00000000000E+00 -0.00000000000E+00 -0.10053170184E+03  0.10053170184E+03  0.00000000000E+00 0.  1.
          1    1    1    2  502    0  0.38868173663E+02  0.14992792987E+02 -0.71576513751E+02  0.82817365849E+02  0.00000000000E+00 0.  1.
         -1    1    1    2    0  501 -0.38868173663E+02 -0.14992792987E+02 -0.47410566174E+01  0.41928467458E+02  0.00000000000E+00 0. -1.
</event>
<event>
 4    1  0.6740123E+001  0.2065892E+02  0.7546771E-02  0.1524191E+00
          2   -1    0    0  502    0  0.00000000000E+00  0.00000000000E+00  0.49620312566E+03  0.49620312566E+03  0.00000000000E+00 0.  1.
         -2   -1    0    0    0  501 -0.00000000000E+00 -0.00000000000E+00 -0.15392837591E+01  0.15392837591E+01  0.00000000000E+00 0. -1.
          1    1    1    2  502    0 -0.90745442147E+01 -0.18559192305E+02  0.82019814721E+02  0.84581564058E+02  0.00000000000E+00 0. -1.
         -1    1    1    2    0  501  0.90745442147E+01  0.18559192305E+02  0.41264402718E+03  0.41316084536E+03  0.00000000000E+00 0.  1.
</event>
<event>
 4    1  0.6740123E+001  0.2102257E+02  0.7546771E-02  0.1518943E+00
          2   -1    0    0  502    0  0.00000000000E+00  0.00000000000E+00  0.51189806481E+02  0.51189806481E+02  0.00000000000E+00 0. -1.
         -2   -1    0    0    0  501 -0.00000000000E+00 -0.00000000000E+00 -0.87759701891E+01  0.87759701891E+01  0.00000000000E+00 0.  1.
          1    1    1    2  502    0  0.14219144361E+02  0.15484329344E+02  0.25026786306E+02  0.32684683789E+02  0.00000000000E+00 0.  1.
         -1    1    1    2    0  501 -0.14219144361E+02 -0.15484329344E+02  0.17387049987E+02  0.27281092882E+02  0.00000000000E+00 0. -1.
</event>
<event>
 4    1  0.6740123E+001  0.2060655E+02  0.7546771E-02  0.1524957E+00
          2   -1    0    0  502    0  0.00000000000E+00  0.00000000000E+00  0.23681334659E+03  0.23681334659E+03  0.00000000000E+00 0. -1.
         -2   -1    0    0    0  501 -0.00000000000E+00 -0.00000000000E+00 -0.24198393264E+01  0.24198393264E+01  0.00000000000E+00 0.  1.
          1    1    1    2  502    0  0.13964047818E+02 -0.15153724823E+02  0.17807212765E+03  0.17926046037E+03  0.00000000000E+00 0. -1.
         -1    1    1    2    0  501 -0.13964047818E+02  0.15153724823E+02  0.56321379611E+02  0.59972725540E+02  0.00000000000E+00 0.  1.
</event>
<event>
 4    1  0.6740123E+001  0.3948475E+02  0.7546771E-02  0.1351532E+00
          2   -1    0    0  502    0  0.00000000000E+00  0.00000000000E+00  0.67940428828E+03  0.67940428828E+03  0.00000000000E+00 0.  1.
         -2   -1    0    0    0  501 -0.00000000000E+00 -0.00000000000E+00 -0.24081441656E+01  0.24081441656E+01  0.00000000000E+00 0. -1.
          1    1    1    2  502    0  0.17051269200E+02 -0.35613192256E+02  0.26451386072E+03  0.26744462559E+03  0.00000000000E+00 0.  1.
         -1    1    1    2    0  501 -0.17051269200E+02  0.35613192256E+02  0.41248228340E+03  0.41436780686E+03  0.00000000000E+00 0. -1.
</event>
<event>
 4    1  0.6740123E+001  0.3003621E+02  0.7546771E-02  0.1419282E+00
          2   -1    0    0  502    0  0.00000000000E+00  0.00000000000E+00  0.14587506131E+02  0.14587506131E+02  0.00000000000E+00 0.  1.
         -2   -1    0    0    0  501 -0.00000000000E+00 -0.00000000000E+00 -0.93388921692E+02  0.93388921692E+02  0.00000000000E+00 0. -1.
          1    1    1    2  502    0 -0.25523252584E+02  0.15834687188E+02 -0.80241949187E+01  0.31089571321E+02  0.00000000000E+00 0.  1.
         -1    1    1    2    0  501  0.25523252584E+02 -0.15834687188E+02 -0.70777220642E+02  0.76886856501E+02  0.00000000000E+00 0. -1.
</event>
<event>
 4    1  0.6740123E+001  0.2649846E+02  0.7546771E-02  0.1452712E+00
          2   -1    0    0  502    0  0.00000000000E+00  0.00000000000E+00  0.10300171602E+04  0.10300171602E+04  0.00000000000E+00 0.  1.
         -2   -1    0    0    0  501 -0.00000000000E+00 -0.00000000000E+00 -0.68212705351E+00  0.68212705351E+00  0.00000000000E+00 0. -1.
          1    1    1    2  502    0  0.22253056098E+02 -0.14386448036E+02  0.50185657946E+03  0.50255566333E+03  0.00000000000E+00 0.  1.
         -1    1    1    2    0  501 -0.22253056098E+02  0.14386448036E+02  0.52747845368E+03  0.52814362393E+03  0.00000000000E+00 0. -1.
</event>
<event>
 4    1  0.6740123E+001  0.4717857E+02  0.7546771E-02  0.1310892E+00
          2   -1    0    0  502    0  0.00000000000E+00  0.00000000000E+00  0.51523826236E+02  0.51523826236E+02  0.00000000000E+00 0.  1.
         -2   -1    0    0    0  501 -0.00000000000E+00 -0.00000000000E+00 -0.44629709844E+02  0.44629709844E+02  0.00000000000E+00 0. -1.
          1    1    1    2  502    0 -0.39214705059E+02  0.26230212768E+02 -0.51585776807E+01  0.47459752195E+02  0.00000000000E+00 0.  1.
         -1    1    1    2    0  501  0.39214705059E+02 -0.26230212768E+02  0.12052694073E+02  0.48693783886E+02  0.00000000000E+00 0. -1.
</event>
<event>
 4    1  0.6740123E+001  0.3472986E+02  0.7546771E-02  0.1382472E+00
          2   -1    0    0  502    0  0.00000000000E+00  0.00000000000E+00  0.29824007079E+03  0.29824007079E+03  0.00000000000E+00 0.  1.
         -2   -1    0    0    0  501 -0.00000000000E+00 -0.00000000000E+00 -0.61313592705E+01  0.61313592705E+01  0.00000000000E+00 0. -1.
          1    1    1    2  502    0  0.33442650305E+02 -0.93676324892E+01  0.57263956226E+02  0.66972562147E+02  0.00000000000E+00 0. -1.
         -1    1    1    2    0  501 -0.33442650305E+02  0.93676324892E+01  0.23484475529E+03  0.23739886791E+03  0.00000000000E+00 0.  1.
</event>
<event>
 4    1  0.6740123E+001  0.2237805E+02  0.7546771E-02  0.1500459E+00
          2   -1    0    0  502    0  0.00000000000E+00  0.00000000000E+00  0.76003419878E+01  0.76003419878E+01  0.00000000000E+00 0. -1.
         -2   -1    0    0    0  501 -0.00000000000E+00 -0.00000000000E+00 -0.29086263197E+03  0.29086263197E+03  0.00000000000E+00 0.  1.
          1    1    1    2  502    0  0.21857009462E+02 -0.48008497231E+01 -0.10386209338E+02  0.24670840381E+02  0.00000000000E+00 0. -1.
         -1    1    1    2    0  501 -0.21857009462E+02  0.48008497231E+01 -0.27287608064E+03  0.27379213357E+03  0.00000000000E+00 0.  1.
</event>
<event>
 4    1  0.6740123E+001  0.2091133E+02  0.7546771E-02  0.1520535E+00
          2   -1    0    0  502    0  0.00000000000E+00  0.00000000000E+00  0.40635104116E+03  0.40635104116E+03  0.00000000000E+00 0. -1.
         -2   -1    0    0    0  501 -0.00000000000E+00 -0.00000000000E+00 -0.10917474550E+01  0.10917474550E+01  0.00000000000E+00 0.  1.
          1    1    1    2  502    0  0.20642711668E+02  0.33409711616E+01  0.22700103776E+03  0.22796217839E+03  0.00000000000E+00 0. -1.
         -1    1    1    2    0  501 -0.20642711668E+02 -0.33409711616E+01  0.17825825595E+03  0.17948061023E+03  0.00000000000E+00 0.  1.
</event>
<event>
 4    1  0.6740123E+001  0.2573410E+02  0.7546771E-02  0.1460756E+00
          2   -1    0    0  502    0  0.00000000000E+00  0.00000000000E+00  0.12852612380E+02  0.12852612380E+02  0.00000000000E+00 0. -1.
         -2   -1    0    0    0  501 -0.00000000000E+00 -0.00000000000E+00 -0.61867461459E+02  0.61867461459E+02  0.00000000000E+00 0.  1.
          1    1    1    2  502    0 -0.20060936078E+00  0.25733319328E+02 -0.39781913150E+02  0.47379790856E+02  0.00000000000E+00 0.  1.
         -1    1    1    2    0  501  0.20060936078E+00 -0.25733319328E+02 -0.92329359292E+01  0.27340282983E+02  0.00000000000E+00 0. -1.
</event>
<event>
 4    1  0.6740123E+001  0.2159951E+02  0.7546771E-02  0.1510875E+00
          2   -1    0    0  502    0  0.00000000000E+00  0.00000000000E+00  0.61697560091E+03  0.61697560091E+03  0.00000000000E+00 0.  1.
         -2   -1    0    0    0  501 -0.00000000000E+00 -0.00000000000E+00 -0.10013071726E+01  0.10013071726E+01  0.00000000000E+00 0. -1.
          1    1    1    2  502    0  0.18044656126E+02 -0.11871361872E+02  0.15510295236E+03  0.15659969566E+03  0.00000000000E+00 0. -1.
         -1    1    1    2    0  501 -0.18044656126E+02  0.11871361872E+02  0.46087134138E+03  0.46137721243E+03  0.00000000000E+00 0.  1.
</event>
<event>
 4    1  0.6740123E+001  0.3951824E+02  0.7546771E-02  0.1351332E+00
          2   -1    0    0  502    0  0.00000000000E+00  0.00000000000E+00  0.40077451309E+02  0.40077451309E+02  0.00000000000E+00 0. -1.
         -2   -1    0    0    0  501 -0.00000000000E+00 -0.00000000000E+00 -0.39017480104E+02  0.39017480104E+02  0.00000000000E+00 0.  1.
          1    1    1    2  502    0  0.14487461357E+02 -0.36766901816E+02 -0.89476627491E+00  0.39528372246E+02  0.00000000000E+00 0. -1.
         -1    1    1    2    0  501 -0.14487461357E+02  0.36766901816E+02  0.19547374805E+01  0.39566559167E+02  0.00000000000E+00 0.  1.
</event>
<event>
 4    1  0.6740123E+001  0.4218194E+02  0.7546771E-02  0.1336153E+00
          2   -1    0    0  502    0  0.00000000000E+00  0.00000000000E+00  0.69678708479E+03  0.69678708479E+03  0.00000000000E+00 0.  1.
         -2   -1    0    0    0  501 -0.00000000000E+00 -0.00000000000E+00 -0.29545093262E+01  0.29545093262E+01  0.00000000000E+00 0. -1.
          1    1    1    2  502    0 -0.33418452164E+02  0.25739516363E+02  0.47579701449E+03  0.47766318117E+03  0.00000000000E+00 0.  1.
         -1    1    1    2    0  501  0.33418452164E+02 -0.25739516363E+02  0.21803556098E+03  0.22207841295E+03  0.00000000000E+00 0. -1.
</event>
<event>
 4    1  0.6740123E+001  0.2639704E+02  0.7546771E-02  0.1453761E+00
          2   -1    0    0  502    0  0.00000000000E+00  0.00000000000E+00  0.39917933933E+01  0.39917933933E+01  0.00000000000E+00 0.  1.
         -2   -1    0    0    0  501 -0.00000000000E+00 -0.00000000000E+00 -0.17467428313E+03  0.17467428313E+03  0.00000000000E+00 0. -1.
          1    1    1    2  502    0 -0.93891781107E+01 -0.24670776145E+02 -0.83047249798E+02  0.87141548989E+02  0.00000000000E+00 0.  1.
         -1    1    1    2    0  501  0.93891781107E+01  0.24670776145E+02 -0.87635239938E+02  0.91524527533E+02  0.00000000000E+00 0. -1.
</event>
<event>
 4    1  0.6740123E+001  0.2014100E+02  0.7546771E-02  0.1531891E+00
          2   -1    0    0  502    0  0.00000000000E+00  0.00000000000E+00  0.57913416902E+03  0.57913416902E+03  0.00000000000E+00 0. -1.
         -2   -1    0    0    0  501 -0.00000000000E+00 -0.00000000000E+00 -0.11628926084E+01  0.11628926084E+01  0.00000000000E+00 0.  1.
          1    1    1    2  502    0  0.19525853042E+02 -0.49397360845E+01  0.10601765006E+03  0.10791386405E+03  0.00000000000E+00 0.  1.
         -1    1    1    2    0  501 -0.19525853042E+02  0.49397360845E+01  0.47195362636E+03  0.47238319758E+03  0.00000000000E+00 0. -1.
</event>
<event>
 4    1  0.6740123E+001  0.2454962E+02  0.7546771E-02  0.1473905E+00
          2   -1    0    0  502    0  0.00000000000E+00  0.00000000000E+00  0.26869922178E+01  0.26869922178E+01  0.00000000000E+00 0.  1.
         -2   -1    0    0    0  501 -0.00000000000E+00 -0.00000000000E+00 -0.23514192178E+03  0.23514192178E+03  0.00000000000E+00 0. -1.
          1    1    1    2  502    0 -0.17360959019E+02  0.17357448417E+02 -0.14176539335E+03  0.14387533029E+03  0.00000000000E+00 0. -1.
         -1    1    1    2    0  501  0.17360959019E+02 -0.17357448417E+02 -0.90689536206E+02  0.93953583704E+02  0.00000000000E+00 0.  1.
</event>
<event>
 4    1  0.6740123E+001  0.2274727E+02  0.7546771E-02  0.1495696E+00
          2   -1    0    0  502    0  0.00000000000E+00  0.00000000000E+00  0.41797060972E+01  0.41797060972E+01  0.00000000000E+00 0.  1.
         -2   -1    0    0    0  501 -0.00000000000E+00 -0.00000000000E+00 -0.15865387509E+03  0.15865387509E+03  0.00000000000E+00 0. -1.
          1    1    1    2  502    0 -0.20023884162E+02 -0.10792690819E+02 -0.11539883924E+03  0.11761942956E+03  0.00000000000E+00 0. -1.
         -1    1    1    2    0  501  0.20023884162E+02  0.10792690819E+02 -0.39075329750E+02  0.45214151625E+02  0.00000000000E+00 0.  1.
</event>
<event>
 4    1  0.6740123E+001  0.2416449E+02  0.7546771E-02  0.1478371E+00
          2   -1    0    0  502    0  0.00000000000E+00  0.00000000000E+00  0.11803213809E+02  0.11803213809E+02  0.00000000000E+00 0. -1.
         -2   -1    0    0    0  501 -0.00000000000E+00 -0.00000000000E+00 -0.70820127025E+02  0.70820127025E+02  0.00000000000E+00 0.  1.
          1    1    1    2  502    0  0.18203919862E+02 -0.15891507280E+02 -0.68265597400E+01  0.25110249299E+02  0.00000000000E+00 0. -1.
         -1    1    1    2    0  501 -0.18203919862E+02  0.15891507280E+02 -0.52190353476E+02  0.57513091535E+02  0.00000000000E+00 0.  1.
</event>
<event>
 4    1  0.6740123E+001  0.3291960E+02  0.7546771E-02  0.1395810E+00
          2   -1    0    0  502    0  0.00000000000E+00  0.00000000000E+00  0.73636542804E+03  0.73636542804E+03  0.00000000000E+00 0. -1.
         -2   -1    0    0    0  501 -0.00000000000E+00 -0.00000000000E+00 -0.16346812406E+01  0.16346812406E+01  0.00000000000E+00 0.  1.
          1    1    1    2  502    0 -0.23363139402E+02 -0.23191891706E+02  0.25084690657E+03  0.25299776809E+03  0.00000000000E+00 0. -1.
         -1    1    1    2    0  501  0.23363139402E+02  0.23191891706E+02  0.48388384023E+03  0.48500234119E+03  0.00000000000E+00 0.  1.
</event>
<event>
 4    1  0.6740123E+001  0.2225589E+02  0.7546771E-02  0.1502059E+00
          2   -1    0    0  502    0  0.00000000000E+00  0.00000000000E+00  0.21326349682E+03  0.21326349682E+03  0.00000000000E+00 0.  1.
         -2   -1    0    0    0  501 -0.00000000000E+00 -0.00000000000E+00 -0.25943498097E+01  0.25943498097E+01  0.00000000000E+00 0. -1.
          1    1    1    2  502    0  0.21341913105E+02 -0.63124943448E+01  0.14026563561E+03  0.14202032733E+03  0.00000000000E+00 0.  1.
         -1    1    1    2    0  501 -0.21341913105E+02  0.63124943448E+01  0.70403511395E+02  0.73837519301E+02  0.00000000000E+00 0. -1.
</event>
<event>
 4    1  0.6740123E+001  0.2959738E+02  0.7546771E-02  0.1423128E+00
          2   -1    0    0  502    0  0.00000000000E+00  0.00000000000E+00  0.18445207497E+02  0.18445207497E+02  0.00000000000E+00 0. -1.
         -2   -1    0    0    0  501 -0.00000000000E+00 -0.00000000000E+00 -0.47565466770E+02  0.47565466770E+02  0.00000000000E+00 0.  1.
          1    1    1    2  502    0 -0.27049741078E+02  0.12013173355E+02 -0.13265409457E+02  0.32434178185E+02  0.00000000000E+00 0. -1.
         -1    1    1    2    0  501  0.27049741078E+02 -0.12013173355E+02 -0.15854849816E+02  0.33576496082E+02  0.00000000000E+00 0.  1.
</event>
<event>
 4    1  0.6740123E+001  0.2491518E+02  0.7546771E-02  0.1469755E+00
          2   -1    0    0  502    0  0.00000000000E+00  0.00000000000E+00  0.51654269365E+02  0.51654269365E+02  0.00000000000E+00 0.  1.
         -2   -1    0    0    0  501 -0.00000000000E+00 -0.00000000000E+00 -0.12207007131E+02  0.12207007131E+02  0.00000000000E+00 0. -1.
          1    1    1    2  502    0 -0.23016286666E+02 -0.95402682713E+01  0.15747397593E+02  0.29474509352E+02  0.00000000000E+00 0. -1.
         -1    1    1    2    0  501  0.23016286666E+02  0.95402682713E+01  0.23699864642E+02  0.34386767144E+02  0.00000000000E+00 0.  1.
</event>
<event>
 4    1  0.6740123E+001  0.2990563E+02  0.7546771E-02  0.1420418E+00
          2   -1    0    0  502    0  0.00000000000E+00  0.00000000000E+00  0.42518467856E+03  0.42518467856E+03  0.00000000000E+00 0.  1.
         -2   -1    0    0    0  501 -0.00000000000E+00 -0.00000000000E+00 -0.24663608426E+01  0.24663608426E+01  0.00000000000E+00 0. -1.
          1    1    1    2  502    0 -0.26799178202E+02  0.13272190194E+02  0.29338337219E+03  0.29490362843E+03  0.00000000000E+00 0.  1.
         -1    1    1    2    0  501  0.26799178202E+02 -0.13272190194E+02  0.12933494553E+03  0.13274741097E+03  0.00000000000E+00 0. -1.
</event>
<event>
 4    1  0.6740123E+001  0.5568914E+02  0.7546771E-02  0.1275227E+00
          2   -1    0    0  502    0  0.00000000000E+00  0.00000000000E+00  0.30188056437E+03  0.30188056437E+03  0.00000000000E+00 0.  1.
         -2   -1    0    0    0  501 -0.00000000000E+00 -0.00000000000E+00 -0.13579819292E+02  0.13579819292E+02  0.00000000000E+00 0. -1.
          1    1    1    2  502    0 -0.24653475348E+02  0.49934822189E+02  0.66318095190E+02  0.86598903361E+02  0.00000000000E+00 0. -1.
         -1    1    1    2    0  501  0.24653475348E+02 -0.49934822189E+02  0.22198264989E+03  0.22886148030E+03  0.00000000000E+00 0.  1.
</event>
<event>
 4    1  0.6740123E+001  0.2444141E+02  0.7546771E-02  0.1475150E+00
          2   -1    0    0  502    0  0.00000000000E+00  0.00000000000E+00  0.10811890618E+04  0.10811890618E+04  0.00000000000E+00 0. -1.
         -2   -1    0    0    0  501 -0.00000000000E+00 -0.00000000000E+00 -0.68689526025E+00  0.68689526025E+00  0.00000000000E+00 0.  1.
          1    1    1    2  502    0 -0.13853310490E+02 -0.20136246497E+02  0.77950321372E+03  0.77988630122E+03  0.00000000000E+00 0. -1.
         -1    1    1    2    0  501  0.13853310490E+02  0.20136246497E+02  0.30099895283E+03  0.30198965585E+03  0.00000000000E+00 0.  1.
</event>
<event>
 4    1  0.6740123E+001  0.2409306E+02  0.7546771E-02  0.1479210E+00
          2   -1    0    0  502    0  0.00000000000E+00  0.00000000000E+00  0.43646748282E+02  0.43646748282E+02  0.00000000000E+00 0. -1.
         -2   -1    0    0    0  501 -0.00000000000E+00 -0.00000000000E+00 -0.13985534472E+02  0.13985534472E+02  0.00000000000E+00 0.  1.
          1    1    1    2  502    0 -0.24086295663E+02 -0.57104251092E+00  0.21213237667E+02  0.32101046411E+02  0.00000000000E+00 0. -1.
         -1    1    1    2    0  501  0.24086295663E+02  0.57104251092E+00  0.84479761417E+01  0.25531236343E+02  0.00000000000E+00 0.  1.
</event>
<event>
 4    1  0.6740123E+001  0.2432652E+02  0.7546771E-02  0.1476481E+00
          2   -1    0    0  502    0  0.00000000000E+00  0.00000000000E+00  0.23682843665E+03  0.23682843665E+03  0.00000000000E+00 0.  1.
         -2   -1    0    0    0  501 -0.00000000000E+00 -0.00000000000E+00 -0.54715616589E+01  0.54715616589E+01  0.00000000000E+00 0. -1.
          1    1    1    2  502    0  0.76185206708E+01  0.23102763768E+02  0.26378721422E+02  0.35883373514E+02  0.00000000000E+00 0. -1.
         -1    1    1    2    0  501 -0.76185206708E+01 -0.23102763768E+02  0.20497815357E+03  0.20641662480E+03  0.00000000000E+00 0.  1.
</event>
<event>
 4    1  0.6740123E+001  0.2235082E+02  0.7546771E-02  0.1500815E+00
          2   -1    0    0  502    0  0.00000000000E+00  0.00000000000E+00  0.84561670006E+01  0.84561670006E+01  0.00000000000E+00 0. -1.
         -2   -1    0    0    0  501 -0.00000000000E+00 -0.00000000000E+00 -0.13260804269E+03  0.13260804269E+03  0.00000000000E+00 0.  1.
          1    1    1    2  502    0 -0.19481459783E+02  0.10955911514E+02 -0.95541783430E+01  0.24307233413E+02  0.00000000000E+00 0. -1.
         -1    1    1    2    0  501  0.19481459783E+02 -0.10955911514E+02 -0.11459769735E+03  0.11675697628E+03  0.00000000000E+00 0.  1.
</event>
<event>
 4    1  0.6740123E+001  0.3667467E+02  0.7546771E-02  0.1369157E+00
          2   -1    0    0  502    0  0.00000000000E+00  0.00000000000E+00  0.32962059037E+03  0.32962059037E+03  0.00000000000E+00 0.  1.
         -2   -1    0    0    0  501 -0.00000000000E+00 -0.00000000000E+00 -0.40997356398E+01  0.40997356398E+01  0.00000000000E+00 0. -1.
          1    1    1    2  502    0  0.26186620276E+02  0.25676681551E+02  0.17417710890E+03  0.17799633794E+03  0.00000000000E+00 0. -1.
         -1    1    1    2    0  501 -0.26186620276E+02 -0.25676681551E+02  0.15134374583E+03  0.15572398807E+03  0.00000000000E+00 0.  1.
</event>
<event>
 4    1  0.6740123E+001  0.2993072E+02  0.7546771E-02  0.1420200E+00
          2   -1    0    0  502    0  0.00000000000E+00  0.00000000000E+00  0.57592432224E+03  0.57592432224E+03  0.00000000000E+00 0. -1.
         -2   -1    0    0    0  501 -0.00000000000E+00 -0.00000000000E+00 -0.22331603378E+01  0.22331603378E+01  0.00000000000E+00 0.  1.
          1    1    1    2  502    0 -0.29895445258E+02 -0.14526131996E+01  0.12760136924E+03  0.13106470602E+03  0.00000000000E+00 0.  1.
         -1    1    1    2    0  501  0.29895445258E+02  0.14526131996E+01  0.44608979267E+03  0.44709277656E+03  0.00000000000E+00 0. -1.
</event>
<event>
 4    1  0.6740123E+001  0.2370887E+02  0.7546771E-02  0.1483784E+00
          2   -1    0    0  502    0  0.00000000000E+00  0.00000000000E+00  0.58279947328E+01  0.58279947328E+01  0.00000000000E+00 0. -1.
         -2   -1    0    0    0  501 -0.00000000000E+00 -0.00000000000E+00 -0.10115753230E+03  0.10115753230E+03  0.00000000000E+00 0.  1.
          1    1    1    2  502    0  0.73818701908E+00  0.23697373337E+02 -0.59204347515E+02  0.63775114173E+02  0.00000000000E+00 0.  1.
         -1    1    1    2    0  501 -0.73818701908E+00 -0.23697373337E+02 -0.36125190052E+02  0.43210412859E+02  0.00000000000E+00 0. -1.
</event>
<event>
 4    1  0.6740123E+001  0.2151094E+02  0.7546771E-02  0.1512093E+00
          2   -1    0    0  502    0  0.00000000000E+00  0.00000000000E+00  0.89736922746E+01  0.89736922746E+01  0.00000000000E+00 0. -1.
         -2   -1    0    0    0  501 -0.00000000000E+00 -0.00000000000E+00 -0.55897434159E+02  0.55897434159E+02  0.00000000000E+00 0.  1.
          1    1    1    2  502    0  0.21381153497E+02 -0.23594261625E+01 -0.14430884377E+02  0.25903108705E+02  0.00000000000E+00 0. -1.
         -1    1    1    2    0  501 -0.21381153497E+02  0.23594261625E+01 -0.32492857508E+02  0.38968017729E+02  0.00000000000E+00 0.  1.
</event>
<event>
 4    1  0.6740123E+001  0.3147426E+02  0.7546771E-02  0.1407204E+00
          2   -1    0    0  502    0  0.00000000000E+00  0.00000000000E+00  0.16970581908E+03  0.16970581908E+03  0.00000000000E+00 0.  1.
         -2   -1    0    0    0  501 -0.00000000000E+00 -0.00000000000E+00 -0.58985312747E+01  0.58985312747E+01  0.00000000000E+00 0. -1.
          1    1    1    2  502    0  0.19327541247E+02  0.24840994216E+02  0.90847279152E+02  0.96144978931E+02  0.00000000000E+00 0.  1.
         -1    1    1    2    0  501 -0.19327541247E+02 -0.24840994216E+02  0.72960008651E+02  0.79459371422E+02  0.00000000000E+00 0. -1.
</event>
<event>
 4    1  0.6740123E+001  0.5778423E+02  0.7546771E-02  0.1267553E+00
          2   -1    0    0  502    0  0.00000000000E+00  0.00000000000E+00  0.28666003424E+04  0.28666003424E+04  0.00000000000E+00 0. -1.
         -2   -1    0    0    0  501 -0.00000000000E+00 -0.00000000000E+00 -0.11675186855E+01  0.11675186855E+01  0.00000000000E+00 0.  1.
          1    1    1    2  502    0 -0.18049229699E+02 -0.54893006855E+02  0.15019056961E+04  0.15030168784E+04  0.00000000000E+00 0. -1.
         -1    1    1    2    0  501  0.18049229699E+02  0.54893006855E+02  0.13635271276E+04  0.13647509827E+04  0.00000000000E+00 0.  1.
</event>
<event>
 4    1  0.6740123E+001  0.2801569E+02  0.7546771E-02  0.1437664E+00
          2   -1    0    0  502    0  0.00000000000E+00  0.00000000000E+00  0.13634060555E+04  0.13634060555E+04  0.00000000000E+00 0.  1.
         -2   -1    0    0    0  501 -0.00000000000E+00 -0.00000000000E+00 -0.58045003940E+00  0.58045003940E+00  0.00000000000E+00 0. -1.
          1    1    1    2  502    0 -0.19388917529E+02  0.20222484805E+02  0.61955729991E+03  0.62019039567E+03  0.00000000000E+00 0. -1.
         -1    1    1    2    0  501  0.19388917529E+02 -0.20222484805E+02  0.74326830553E+03  0.74379610985E+03  0.00000000000E+00 0.  1.
</event>
<event>
 4    1  0.6740123E+001  0.2282431E+02  0.7546771E-02  0.1494716E+00
          2   -1    0    0  502    0  0.00000000000E+00  0.00000000000E+00  0.11165383625E+04  0.11165383625E+04  0.00000000000E+00 0. -1.
         -2   -1    0    0    0  501 -0.00000000000E+00 -0.00000000000E+00 -0.50508320781E+00  0.50508320781E+00  0.00000000000E+00 0.  1.
          1    1    1    2  502    0 -0.27927621052E+01  0.22652806485E+02  0.40379906570E+03  0.40444361118E+03  0.00000000000E+00 0. -1.
         -1    1    1    2    0  501  0.27927621052E+01 -0.22652806485E+02  0.71223421355E+03  0.71259983449E+03  0.00000000000E+00 0.  1.
</event>
<event>
 4    1  0.6740123E+001  0.2849134E+02  0.7546771E-02  0.1433176E+00
          2   -1    0    0  502    0  0.00000000000E+00  0.00000000000E+00  0.14783954387E+04  0.14783954387E+04  0.00000000000E+00 0. -1.
         -2   -1    0    0    0  501 -0.00000000000E+00 -0.00000000000E+00 -0.11110962053E+01  0.11110962053E+01  0.00000000000E+00 0.  1.
          1    1    1    2  502    0  0.27296795428E+02 -0.81634252840E+01  0.12647632379E+04  0.12650841097E+04  0.00000000000E+00 0. -1.
         -1    1    1    2    0  501 -0.27296795428E+02  0.81634252840E+01  0.21252110461E+03  0.21442242526E+03  0.00000000000E+00 0.  1.
</event>
<event>
 4    1  0.6740123E+001  0.2667289E+02  0.7546771E-02  0.1450922E+00
          2   -1    0    0  502    0  0.00000000000E+00  0.00000000000E+00  0.13272598449E+02  0.13272598449E+02  0.00000000000E+00 0. -1.
         -2   -1    0    0    0  501 -0.00000000000E+00 -0.00000000000E+00 -0.63004934748E+02  0.63004934748E+02  0.00000000000E+00 0.  1.
          1    1    1    2  502    0 -0.15266765935E+01 -0.26629158521E+02 -0.10132788934E+02  0.28532722207E+02  0.00000000000E+00 0. -1.
         -1    1    1    2    0  501  0.15266765935E+01  0.26629158521E+02 -0.39599547365E+02  0.47744810990E+02  0.00000000000E+00 0.  1.
</event>
<event>
 4    1  0.6740123E+001  0.2317258E+02  0.7546771E-02  0.1490342E+00
          2   -1    0    0  502    0  0.00000000000E+00  0.00000000000E+00  0.16380721690E+04  0.16380721690E+04  0.00000000000E+00 0. -1.
         -2   -1    0    0    0  501 -0.00000000000E+00 -0.00000000000E+00 -0.40606164009E+00  0.40606164009E+00  0.00000000000E+00 0.  1.
          1    1    1    2  502    0 -0.42015325681E+01  0.22788498708E+02  0.45918742571E+03  0.45977174824E+03  0.00000000000E+00 0. -1.
         -1    1    1    2    0  501  0.42015325681E+01 -0.22788498708E+02  0.11784786816E+04  0.11787064824E+04  0.00000000000E+00 0.  1.
</event>
<event>
 4    1  0.6740123E+001  0.3119760E+02  0.7546771E-02  0.1409467E+00
          2   -1    0    0  502    0  0.00000000000E+00  0.00000000000E+00  0.74193073165E+03  0.74193073165E+03  0.00000000000E+00 0. -1.
         -2   -1    0    0    0  501 -0.00000000000E+00 -0.00000000000E+00 -0.97346996968E+01  0.97346996968E+01  0.00000000000E+00 0.  1.
          1    1    1    2  502    0  0.12725746598E+02 -0.28484134556E+02  0.71569141221E+03  0.71637105473E+03  0.00000000000E+00 0. -1.
         -1    1    1    2    0  501 -0.12725746598E+02  0.28484134556E+02  0.16504619747E+02  0.35294376618E+02  0.00000000000E+00 0.  1.
</event>
<event>
 4    1  0.6740123E+001  0.8928167E+02  0.7546771E-02  0.1183800E+00
          2   -1    0    0  502    0  0.00000000000E+00  0.00000000000E+00  0.97077205318E+02  0.97077205318E+02  0.00000000000E+00 0. -1.
         -2   -1    0    0    0  501 -0.00000000000E+00 -0.00000000000E+00 -0.82243950122E+02  0.82243950122E+02  0.00000000000E+00 0.  1.
          1    1    1    2  502    0 -0.18063477700E+02  0.87435277523E+02  0.11006057611E+02  0.89957491552E+02  0.00000000000E+00 0.  1.
         -1    1    1    2    0  501  0.18063477700E+02 -0.87435277523E+02  0.38271975851E+01  0.89363663888E+02  0.00000000000E+00 0. -1.
</event>
<event>
 4    1  0.6740123E+001  0.2123228E+02  0.7546771E-02  0.1515974E+00
          2   -1    0    0  502    0  0.00000000000E+00  0.00000000000E+00  0.13215004231E+04  0.13215004231E+04  0.00000000000E+00 0. -1.
         -2   -1    0    0    0  501 -0.00000000000E+00 -0.00000000000E+00 -0.34113590662E+00  0.34113590662E+00  0.00000000000E+00 0.  1.
          1    1    1    2  502    0  0.11818227138E+02  0.17639144756E+02  0.66171251680E+03  0.66205306798E+03  0.00000000000E+00 0.  1.
         -1    1    1    2    0  501 -0.11818227138E+02 -0.17639144756E+02  0.65944677040E+03  0.65978849104E+03  0.00000000000E+00 0. -1.
</event>
<event>
 4    1  0.6740123E+001  0.2263715E+02  0.7546771E-02  0.1497105E+00
          2   -1    0    0  502    0  0.00000000000E+00  0.00000000000E+00  0.10057829640E+03  0.10057829640E+03  0.00000000000E+00 0.  1.
         -2   -1    0    0    0  501 -0.00000000000E+00 -0.00000000000E+00 -0.56167308789E+01  0.56167308789E+01  0.00000000000E+00 0. -1.
          1    1    1    2  502    0  0.63277208916E+01  0.21734777317E+02  0.31297010996E+02  0.38625684382E+02  0.00000000000E+00 0. -1.
         -1    1    1    2    0  501 -0.63277208916E+01 -0.21734777317E+02  0.63664554530E+02  0.67569342902E+02  0.00000000000E+00 0.  1.
</event>
<event>
 4    1  0.6740123E+001  0.2101423E+02  0.7546771E-02  0.1519062E+00
          2   -1    0    0  502    0  0.00000000000E+00  0.00000000000E+00  0.44882749182E+03  0.44882749182E+03  0.00000000000E+00 0.  1.
         -2   -1    0    0    0  501 -0.00000000000E+00 -0.00000000000E+00 -0.22938046933E+01  0.22938046933E+01  0.00000000000E+00 0. -1.
          1    1    1    2  502    0 -0.11677312715E+02 -0.17471070448E+02  0.39372046519E+03  0.39428086772E+03  0.00000000000E+00 0.  1.
         -1    1    1    2    0  501  0.11677312715E+02  0.17471070448E+02  0.52813221929E+02  0.56840428793E+02  0.00000000000E+00 0. -1.
</event>
<event>
 4    1  0.6740123E+001  0.2717901E+02  0.7546771E-02  0.1445818E+00
          2   -1    0    0  502    0  0.00000000000E+00  0.00000000000E+00  0.33246251531E+02  0.33246251531E+02  0.00000000000E+00 0. -1.
         -2   -1    0    0    0  501 -0.00000000000E+00 -0.00000000000E+00 -0.33371161787E+02  0.33371161787E+02  0.00000000000E+00 0.  1.
          1    1    1    2  502    0  0.16494747100E+02  0.21601428809E+02 -0.19317816295E+02  0.33344811214E+02  0.00000000000E+00 0.  1.
         -1    1    1    2    0  501 -0.16494747100E+02 -0.21601428809E+02  0.19192906040E+02  0.33272602104E+02  0.00000000000E+00 0. -1.
</event>
<event>
 4    1  0.6740123E+001  0.3693657E+02  0.7546771E-02  0.1367437E+00
          2   -1    0    0  502    0  0.00000000000E+00  0.00000000000E+00  0.32115068497E+02  0.32115068497E+02  0.00000000000E+00 0. -1.
         -2   -1    0    0    0  501 -0.00000000000E+00 -0.00000000000E+00 -0.80660535317E+02  0.80660535317E+02  0.00000000000E+00 0.  1.
          1    1    1    2  502    0 -0.35507041172E+02  0.10176461524E+02  0.14521270104E+02  0.39688507497E+02  0.00000000000E+00 0. -1.
         -1    1    1    2    0  501  0.35507041172E+02 -0.10176461524E+02 -0.63066736923E+02  0.73087096317E+02  0.00000000000E+00 0.  1.
</event>
<event>
 4    1  0.6740123E+001  0.2206769E+02  0.7546771E-02  0.1504549E+00
          2   -1    0    0  502    0  0.00000000000E+00  0.00000000000E+00  0.12703738511E+03  0.12703738511E+03  0.00000000000E+00 0. -1.
         -2   -1    0    0    0  501 -0.00000000000E+00 -0.00000000000E+00 -0.49552444341E+01  0.49552444341E+01  0.00000000000E+00 0.  1.
          1    1    1    2  502    0  0.21930381808E+02  0.24578834991E+01  0.92443042811E+02  0.95040512423E+02  0.00000000000E+00 0. -1.
         -1    1    1    2    0  501 -0.21930381808E+02 -0.24578834991E+01  0.29639097870E+02  0.36952117126E+02  0.00000000000E+00 0.  1.
</event>
<event>
 4    1  0.6740123E+001  0.2301723E+02  0.7546771E-02  0.1492282E+00
          2   -1    0    0  502    0  0.00000000000E+00  0.00000000000E+00  0.26609847216E+03  0.26609847216E+03  0.00000000000E+00 0.  1.
         -2   -1    0    0    0  501 -0.00000000000E+00 -0.00000000000E+00 -0.22666923097E+01  0.22666923097E+01  0.00000000000E+00 0. -1.
          1    1    1    2  502    0  0.11856383461E+02 -0.19728635436E+02  0.85116592198E+02  0.88173846192E+02  0.00000000000E+00 0. -1.
         -1    1    1    2    0  501 -0.11856383461E+02  0.19728635436E+02  0.17871518765E+03  0.18019131827E+03  0.00000000000E+00 0.  1.
</event>
<event>
 4    1  0.6740123E+001  0.2525088E+02  0.7546771E-02  0.1466016E+00
          2   -1    0    0  502    0  0.00000000000E+00  0.00000000000E+00  0.15936458729E+04  0.15936458729E+04  0.00000000000E+00 0.  1.
         -2   -1    0    0    0  501 -0.00000000000E+00 -0.00000000000E+00 -0.40536823544E+00  0.40536823544E+00  0.00000000000E+00 0. -1.
          1    1    1    2  502    0 -0.25412048135E+01 -0.25122682383E+02  0.88754031487E+03  0.88789944105E+03  0.00000000000E+00 0. -1.
         -1    1    1    2    0  501  0.25412048135E+01  0.25122682383E+02  0.70570018978E+03  0.70615180008E+03  0.00000000000E+00 0.  1.
</event>
<event>
 4    1  0.6740123E+001  0.4276397E+02  0.7546771E-02  0.1333008E+00
          2   -1    0    0  502    0  0.00000000000E+00  0.00000000000E+00  0.14157736392E+04  0.14157736392E+04  0.00000000000E+00 0.  1.
         -2   -1    0    0    0  501 -0.00000000000E+00 -0.00000000000E+00 -0.13906658540E+02  0.13906658540E+02  0.00000000000E+00 0. -1.
          1    1    1    2  502    0  0.42747582121E+02 -0.11839629120E+01  0.13817662138E+04  0.13824278018E+04  0.00000000000E+00 0.  1.
         -1    1    1    2    0  501 -0.42747582121E+02  0.11839629120E+01  0.20100766854E+02  0.47252495949E+02  0.00000000000E+00 0. -1.
</event>
<event>
 4    1  0.6740123E+001  0.2253690E+02  0.7546771E-02  0.1498397E+00
          2   -1    0    0  502    0  0.00000000000E+00  0.00000000000E+00  0.58272422193E+02  0.58272422193E+02  0.00000000000E+00 0.  1.
         -2   -1    0    0    0  501 -0.00000000000E+00 -0.00000000000E+00 -0.88065321152E+01  0.88065321152E+01  0.00000000000E+00 0. -1.
          1    1    1    2  502    0 -0.86790467003E+01  0.20798701402E+02  0.28130511083E+02  0.36044937029E+02  0.00000000000E+00 0.  1.
         -1    1    1    2    0  501  0.86790467003E+01 -0.20798701402E+02  0.21335378995E+02  0.31034017280E+02  0.00000000000E+00 0. -1.
</event>
<event>
 4    1  0.6740123E+001  0.2290143E+02  0.7546771E-02  0.1493740E+00
          2   -1    0    0  502    0  0.00000000000E+00  0.00000000000E+00  0.24609032680E+02  0.24609032680E+02  0.00000000000E+00 0. -1.
         -2   -1    0    0    0  501 -0.00000000000E+00 -0.00000000000E+00 -0.28397585348E+02  0.28397585348E+02  0.00000000000E+00 0.  1.
          1    1    1    2  502    0  0.21904946699E+02  0.66819640490E+01  0.11344192566E+02  0.25557113265E+02  0.00000000000E+00 0. -1.
         -1    1    1    2    0  501 -0.21904946699E+02 -0.66819640490E+01 -0.15132745235E+02  0.27449504764E+02  0.00000000000E+00 0.  1.
</event>
<event>
 4    1  0.6740123E+001  0.3719408E+02  0.7546771E-02  0.1365762E+00
          2   -1    0    0  502    0  0.00000000000E+00  0.00000000000E+00  0.29310688655E+04  0.29310688655E+04  0.00000000000E+00 0. -1.
         -2   -1    0    0    0  501 -0.00000000000E+00 -0.00000000000E+00 -0.58085357311E+00  0.58085357311E+00  0.00000000000E+00 0.  1.
          1    1    1    2  502    0 -0.34924302326E+02  0.12794239867E+02  0.20998648822E+04  0.21001942584E+04  0.00000000000E+00 0. -1.
         -1    1    1    2    0  501  0.34924302326E+02 -0.12794239867E+02  0.83062312971E+03  0.83145546067E+03  0.00000000000E+00 0.  1.
</event>
<event>
 4    1  0.6740123E+001  0.2341476E+02  0.7546771E-02  0.1487355E+00
          2   -1    0    0  502    0  0.00000000000E+00  0.00000000000E+00  0.15561257009E+02  0.15561257009E+02  0.00000000000E+00 0.  1.
         -2   -1    0    0    0  501 -0.00000000000E+00 -0.00000000000E+00 -0.10910899297E+03  0.10910899297E+03  0.00000000000E+00 0. -1.
          1    1    1    2  502    0  0.23434482379E+01 -0.23297195630E+02  0.45190915166E+01  0.23846871115E+02  0.00000000000E+00 0.  1.
         -1    1    1    2    0  501 -0.23434482379E+01  0.23297195630E+02 -0.98066827474E+02  0.10082337886E+03  0.00000000000E+00 0. -1.
</event>
<event>
 4    1  0.6740123E+001  0.2693531E+02  0.7546771E-02  0.1448259E+00
          2   -1    0    0  502    0  0.00000000000E+00  0.00000000000E+00  0.32469533923E+03  0.32469533923E+03  0.00000000000E+00 0. -1.
         -2   -1    0    0    0  501 -0.00000000000E+00 -0.00000000000E+00 -0.22552340051E+01  0.22552340051E+01  0.00000000000E+00 0.  1.
          1    1    1    2  502    0 -0.30092107782E+01 -0.26766683807E+02  0.17691916038E+03  0.17895781632E+03  0.00000000000E+00 0. -1.
         -1    1    1    2    0  501  0.30092107782E+01  0.26766683807E+02  0.14552094484E+03  0.14799275692E+03  0.00000000000E+00 0.  1.
</event>
<event>
 4    1  0.6740123E+001  0.2089718E+02  0.7546771E-02  0.1520738E+00
          2   -1    0    0  502    0  0.00000000000E+00  0.00000000000E+00  0.17057902126E+02  0.17057902126E+02  0.00000000000E+00 0. -1.
         -2   -1    0    0    0  501 -0.00000000000E+00 -0.00000000000E+00 -0.26353380131E+02  0.26353380131E+02  0.00000000000E+00 0.  1.
          1    1    1    2  502    0  0.15662229932E+02  0.13834259716E+02 -0.83162877328E+01  0.22491172268E+02  0.00000000000E+00 0. -1.
         -1    1    1    2    0  501 -0.15662229932E+02 -0.13834259716E+02 -0.97919027217E+00  0.20920109988E+02  0.00000000000E+00 0.  1.
</event>
<event>
 4    1  0.6740123E+001  0.2064021E+02  0.7546771E-02  0.1524464E+00
          2   -1    0    0  502    0  0.00000000000E+00  0.00000000000E+00  0.81792636991E+02  0.81792636991E+02  0.00000000000E+00 0.  1.
         -2   -1    0    0    0  501 -0.00000000000E+00 -0.00000000000E+00 -0.52531469164E+01  0.52531469164E+01  0.00000000000E+00 0. -1.
          1    1    1    2  502    0 -0.18077176204E+02  0.99616204969E+01  0.34258027058E+02  0.39995382238E+02  0.00000000000E+00 0. -1.
         -1    1    1    2    0  501  0.18077176204E+02 -0.99616204969E+01  0.42281463016E+02  0.47050401669E+02  0.00000000000E+00 0.  1.
</event>
<event>
 4    1  0.6740123E+001  0.4396934E+02  0.7546771E-02  0.1326674E+00
          2   -1    0    0  502    0  0.00000000000E+00  0.00000000000E+00  0.28522931877E+03  0.28522931877E+03  0.00000000000E+00 0.  1.
         -2   -1    0    0    0  501 -0.00000000000E+00 -0.00000000000E+00 -0.70221116768E+01  0.70221116768E+01  0.00000000000E+00 0. -1.
          1    1    1    2  502    0  0.24433706290E+02  0.36555397929E+02  0.16634494107E+03  0.17205796274E+03  0.00000000000E+00 0. -1.
         -1    1    1    2    0  501 -0.24433706290E+02 -0.36555397929E+02  0.11186226602E+03  0.12019346771E+03  0.00000000000E+00 0.  1.
</event>
<event>
 4    1  0.6740123E+001  0.2573494E+02  0.7546771E-02  0.1460747E+00
          2   -1    0    0  502    0  0.00000000000E+00  0.00000000000E+00  0.44012617360E+03  0.44012617360E+03  0.00000000000E+00 0.  1.
         -2   -1    0    0    0  501 -0.00000000000E+00 -0.00000000000E+00 -0.16498391842E+01  0.16498391842E+01  0.00000000000E+00 0. -1.
          1    1    1    2  502    0  0.25614397869E+02 -0.24879251165E+01  0.15373775134E+03  0.15587682103E+03  0.00000000000E+00 0. -1.
         -1    1    1    2    0  501 -0.25614397869E+02  0.24879251165E+01  0.28473858308E+03  0.28589919175E+03  0.00000000000E+00 0.  1.
</event>
<event>
 4    1  0.6740123E+001  0.3553143E+02  0.7546771E-02  0.1376865E+00
          2   -1    0    0  502    0  0.00000000000E+00  0.00000000000E+00  0.11632441095E+03  0.11632441095E+03  0.00000000000E+00 0.  1.
         -2   -1    0    0    0  501 -0.00000000000E+00 -0.00000000000E+00 -0.12388565172E+02  0.12388565172E+02  0.00000000000E+00 0. -1.
          1    1    1    2  502    0  0.34376554316E+02 -0.89852688730E+01  0.29311085412E+02  0.46061071105E+02  0.00000000000E+00 0. -1.
         -1    1    1    2    0  501 -0.34376554316E+02  0.89852688730E+01  0.74624760369E+02  0.82651905021E+02  0.00000000000E+00 0.  1.
</event>
<event>
 4    1  0.6740123E+001  0.2139171E+02  0.7546771E-02  0.1513745E+00
          2   -1    0    0  502    0  0.00000000000E+00  0.00000000000E+00  0.15770842588E+04  0.15770842588E+04  0.00000000000E+00 0.  1.
         -2   -1    0    0    0  501 -0.00000000000E+00 -0.00000000000E+00 -0.31365410082E+00  0.31365410082E+00  0.00000000000E+00 0. -1.
          1    1    1    2  502    0  0.18207038210E+02 -0.11229818496E+02  0.10042467999E+04  0.10044746090E+04  0.00000000000E+00 0.  1.
         -1    1    1    2    0  501 -0.18207038210E+02  0.11229818496E+02  0.57252380481E+03  0.57292330389E+03  0.00000000000E+00 0. -1.
</event>
<event>
 4    1  0.6740123E+001  0.2311554E+02  0.7546771E-02  0.1491052E+00
          2   -1    0    0  502    0  0.00000000000E+00  0.00000000000E+00  0.18205392849E+02  0.18205392849E+02  0.00000000000E+00 0.  1.
         -2   -1    0    0    0  501 -0.00000000000E+00 -0.00000000000E+00 -0.35680279717E+02  0.35680279717E+02  0.00000000000E+00 0. -1.
          1    1    1    2  502    0  0.18847706728E+02 -0.13382528205E+02  0.26111217816E+01  0.23262546443E+02  0.00000000000E+00 0.  1.
         -1    1    1    2    0  501 -0.18847706728E+02  0.13382528205E+02 -0.20086008650E+02  0.30623126123E+02  0.00000000000E+00 0. -1.
</event>
<event>
 4    1  0.6740123E+001  0.5026865E+02  0.7546771E-02  0.1297012E+00
          2   -1    0    0  502    0  0.00000000000E+00  0.00000000000E+00  0.14156014239E+03  0.14156014239E+03  0.00000000000E+00 0. -1.
         -2   -1    0    0    0  501 -0.00000000000E+00 -0.00000000000E+00 -0.22164835063E+02  0.22164835063E+02  0.00000000000E+00 0.  1.
          1    1    1    2  502    0 -0.38485806632E+02  0.32338527380E+02  0.95813941435E+02  0.10820004177E+03  0.00000000000E+00 0. -1.
         -1    1    1    2    0  501  0.38485806632E+02 -0.32338527380E+02  0.23581365888E+02  0.55524935681E+02  0.00000000000E+00 0.  1.
</event>
<event>
 4    1  0.6740123E+001  0.2733717E+02  0.7546771E-02  0.1444250E+00
          2   -1    0    0  502    0  0.00000000000E+00  0.00000000000E+00  0.15398152387E+02  0.15398152387E+02  0.00000000000E+00 0.  1.
         -2   -1    0    0    0  501 -0.00000000000E+00 -0.00000000000E+00 -0.48777541240E+02  0.48777541240E+02  0.00000000000E+00 0. -1.
          1    1    1    2  502    0 -0.94017264843E+01 -0.25669605697E+02 -0.18960904973E+02  0.33269160419E+02  0.00000000000E+00 0. -1.
         -1    1    1    2    0  501  0.94017264843E+01  0.25669605697E+02 -0.14418483880E+02  0.30906533208E+02  0.00000000000E+00 0.  1.
</event>
<event>
 4    1  0.6740123E+001  0.2049262E+02  0.7546771E-02  0.1526634E+00
          2   -1    0    0  502    0  0.00000000000E+00  0.00000000000E+00  0.11127741005E+02  0.11127741005E+02  0.00000000000E+00 0.  1.
         -2   -1    0    0    0  501 -0.00000000000E+00 -0.00000000000E+00 -0.55804776928E+02  0.55804776928E+02  0.00000000000E+00 0. -1.
          1    1    1    2  502    0  0.11812770037E+02 -0.16745323812E+02 -0.32969631838E+01  0.20756140580E+02  0.00000000000E+00 0.  1.
         -1    1    1    2    0  501 -0.11812770037E+02  0.16745323812E+02 -0.41380072740E+02  0.46176377353E+02  0.00000000000E+00 0. -1.
</event>
<event>
 4    1  0.6740123E+001  0.3787600E+02  0.7546771E-02  0.1361403E+00
          2   -1    0    0  502    0  0.00000000000E+00  0.00000000000E+00  0.54164513791E+01  0.54164513791E+01  0.00000000000E+00 0. -1.
         -2   -1    0    0    0  501 -0.00000000000E+00 -0.00000000000E+00 -0.35085860192E+03  0.35085860192E+03  0.00000000000E+00 0.  1.
          1    1    1    2  502    0 -0.34535503269E+02  0.15552827182E+02 -0.84526949209E+02  0.92625032049E+02  0.00000000000E+00 0. -1.
         -1    1    1    2    0  501  0.34535503269E+02 -0.15552827182E+02 -0.26091520133E+03  0.26365002125E+03  0.00000000000E+00 0.  1.
</event>
<event>
 4    1  0.6740123E+001  0.4353547E+02  0.7546771E-02  0.1328927E+00
          2   -1    0    0  502    0  0.00000000000E+00  0.00000000000E+00  0.85322536064E+03  0.85322536064E+03  0.00000000000E+00 0. -1.
         -2   -1    0    0    0  501 -0.00000000000E+00 -0.00000000000E+00 -0.23239613381E+01  0.23239613381E+01  0.00000000000E+00 0.  1.
          1    1    1    2  502    0 -0.43406197765E+02  0.33524301730E+01  0.33557605922E+03  0.33838828040E+03  0.00000000000E+00 0.  1.
         -1    1    1    2    0  501  0.43406197765E+02 -0.33524301730E+01  0.51532534008E+03  0.51716104158E+03  0.00000000000E+00 0. -1.
</event>
<event>
 4    1  0.6740123E+001  0.2716347E+02  0.7546771E-02  0.1445973E+00
          2   -1    0    0  502    0  0.00000000000E+00  0.00000000000E+00  0.21681156824E+04  0.21681156824E+04  0.00000000000E+00 0.  1.
         -2   -1    0    0    0  501 -0.00000000000E+00 -0.00000000000E+00 -0.87718589188E+00  0.87718589188E+00  0.00000000000E+00 0. -1.
          1    1    1    2  502    0 -0.28724155420E+01  0.27011167548E+02  0.23519110901E+03  0.23675453892E+03  0.00000000000E+00 0. -1.
         -1    1    1    2    0  501  0.28724155420E+01 -0.27011167548E+02  0.19320473875E+04  0.19322383294E+04  0.00000000000E+00 0.  1.
</event>
<event>
 4    1  0.6740123E+001  0.2105433E+02  0.7546771E-02  0.1518490E+00
          2   -1    0    0  502    0  0.00000000000E+00  0.00000000000E+00  0.98234372446E+01  0.98234372446E+01  0.00000000000E+00 0. -1.
         -2   -1    0    0    0  501 -0.00000000000E+00 -0.00000000000E+00 -0.56692605492E+02  0.56692605492E+02  0.00000000000E+00 0.  1.
          1    1    1    2  502    0 -0.21047140848E+02 -0.55034371014E+00 -0.38457364831E+02  0.43843516349E+02  0.00000000000E+00 0.  1.
         -1    1    1    2    0  501  0.21047140848E+02  0.55034371014E+00 -0.84118034168E+01  0.22672526388E+02  0.00000000000E+00 0. -1.
</event>
<event>
 4    1  0.6740123E+001  0.2906164E+02  0.7546771E-02  0.1427930E+00
          2   -1    0    0  502    0  0.00000000000E+00  0.00000000000E+00  0.67407633831E+03  0.67407633831E+03  0.00000000000E+00 0. -1.
         -2   -1    0    0    0  501 -0.00000000000E+00 -0.00000000000E+00 -0.15344518836E+01  0.15344518836E+01  0.00000000000E+00 0.  1.
          1    1    1    2  502    0 -0.28016043223E+02 -0.77252898806E+01  0.19158161210E+03  0.19377330280E+03  0.00000000000E+00 0. -1.
         -1    1    1    2    0  501  0.28016043223E+02  0.77252898806E+01  0.48096027432E+03  0.48183748739E+03  0.00000000000E+00 0.  1.
</event>
<event>
 4    1  0.6740123E+001  0.2905528E+02  0.7546771E-02  0.1427987E+00
          2   -1    0    0  502    0  0.00000000000E+00  0.00000000000E+00  0.22687662915E+03  0.22687662915E+03  0.00000000000E+00 0.  1.
         -2   -1    0    0    0  501 -0.00000000000E+00 -0.00000000000E+00 -0.37327475179E+01  0.37327475179E+01  0.00000000000E+00 0. -1.
          1    1    1    2  502    0  0.94568947753E+01 -0.27473198891E+02  0.11803855615E+03  0.12156196055E+03  0.00000000000E+00 0. -1.
         -1    1    1    2    0  501 -0.94568947753E+01  0.27473198891E+02  0.10510532548E+03  0.10904741611E+03  0.00000000000E+00 0.  1.
</event>
<event>
 4    1  0.6740123E+001  0.2107483E+02  0.7546771E-02  0.1518199E+00
          2   -1    0    0  502    0  0.00000000000E+00  0.00000000000E+00  0.85229439005E+03  0.85229439005E+03  0.00000000000E+00 0. -1.
         -2   -1    0    0    0  501 -0.00000000000E+00 -0.00000000000E+00 -0.90559147077E+00  0.90559147077E+00  0.00000000000E+00 0.  1.
          1    1    1    2  502    0  0.84337315312E+01 -0.19313738053E+02  0.70365696199E+03  0.70397249127E+03  0.00000000000E+00 0. -1.
         -1    1    1    2    0  501 -0.84337315312E+01  0.19313738053E+02  0.14773183659E+03  0.14922749025E+03  0.00000000000E+00 0.  1.
</event>
<event>
 4    1  0.6740123E+001  0.2537573E+02  0.7546771E-02  0.1464644E+00
          2   -1    0    0  502    0  0.00000000000E+00  0.00000000000E+00  0.22996777816E+03  0.22996777816E+03  0.00000000000E+00 0.  1.
         -2   -1    0    0    0  501 -0.00000000000E+00 -0.00000000000E+00 -0.29161981707E+01  0.29161981707E+01  0.00000000000E+00 0. -1.
          1    1    1    2  502    0 -0.12064583845E+02 -0.22324279986E+02  0.13676146987E+03  0.13909574868E+03  0.00000000000E+00 0. -1.
         -1    1    1    2    0  501  0.12064583845E+02  0.22324279986E+02  0.90290110118E+02  0.93788227648E+02  0.00000000000E+00 0.  1.
</event>
<event>
 4    1  0.6740123E+001  0.2642771E+02  0.7546771E-02  0.1453443E+00
          2   -1    0    0  502    0  0.00000000000E+00  0.00000000000E+00  0.65927589166E+01  0.65927589166E+01  0.00000000000E+00 0. -1.
         -2   -1    0    0    0  501 -0.00000000000E+00 -0.00000000000E+00 -0.18769336508E+03  0.18769336508E+03  0.00000000000E+00 0.  1.
          1    1    1    2  502    0 -0.59496442961E+01  0.25749286951E+02 -0.26437418434E+02  0.37381293975E+02  0.00000000000E+00 0. -1.
         -1    1    1    2    0  501  0.59496442961E+01 -0.25749286951E+02 -0.15466318773E+03  0.15690483002E+03  0.00000000000E+00 0.  1.
</event>
<event>
 4    1  0.6740123E+001  0.2056279E+02  0.7546771E-02  0.1525600E+00
          2   -1    0    0  502    0  0.00000000000E+00  0.00000000000E+00  0.50969824045E+03  0.50969824045E+03  0.00000000000E+00 0.  1.
         -2   -1    0    0    0  501 -0.00000000000E+00 -0.00000000000E+00 -0.82981717659E+00  0.82981717659E+00  0.00000000000E+00 0. -1.
          1    1    1    2  502    0  0.20241699721E+02  0.36196361844E+01  0.24999041829E+03  0.25083468143E+03  0.00000000000E+00 0.  1.
         -1    1    1    2    0  501 -0.20241699721E+02 -0.36196361844E+01  0.25887800498E+03  0.25969337619E+03  0.00000000000E+00 0. -1.
</event>
<event>
 4    1  0.6740123E+001  0.2190793E+02  0.7546771E-02  0.1506686E+00
          2   -1    0    0  502    0  0.00000000000E+00  0.00000000000E+00  0.18644751540E+02  0.18644751540E+02  0.00000000000E+00 0. -1.
         -2   -1    0    0    0  501 -0.00000000000E+00 -0.00000000000E+00 -0.34457203632E+02  0.34457203632E+02  0.00000000000E+00 0.  1.
          1    1    1    2  502    0 -0.20270774859E+02 -0.83098226635E+01 -0.21259063489E+02  0.30527123129E+02  0.00000000000E+00 0.  1.
         -1    1    1    2    0  501  0.20270774859E+02  0.83098226635E+01  0.54466113976E+01  0.22574832044E+02  0.00000000000E+00 0. -1.
</event>
<event>
 4    1  0.6740123E+001  0.5199324E+02  0.7546771E-02  0.1289754E+00
          2   -1    0    0  502    0  0.00000000000E+00  0.00000000000E+00  0.81498221475E+01  0.81498221475E+01  0.00000000000E+00 0. -1.
         -2   -1    0    0    0  501 -0.00000000000E+00 -0.00000000000E+00 -0.35751940461E+03  0.35751940461E+03  0.00000000000E+00 0.  1.
          1    1    1    2  502    0  0.44396851681E+02  0.27059500346E+02 -0.12555095243E+03  0.13589090718E+03  0.00000000000E+00 0. -1.
         -1    1    1    2    0  501 -0.44396851681E+02 -0.27059500346E+02 -0.22381863003E+03  0.22977831958E+03  0.00000000000E+00 0.  1.
</event>
<event>
 4    1  0.6740123E+001  0.4407847E+02  0.7546771E-02  0.1326112E+00
          2   -1    0    0  502    0  0.00000000000E+00  0.00000000000E+00  0.17787195927E+03  0.17787195927E+03  0.00000000000E+00 0.  1.
         -2   -1    0    0    0  501 -0.00000000000E+00 -0.00000000000E+00 -0.10926873757E+02  0.10926873757E+02  0.00000000000E+00 0. -1.
          1    1    1    2  502    0 -0.94372120390E+01  0.43056368349E+02  0.85228652507E+02  0.95952253932E+02  0.00000000000E+00 0.  1.
         -1    1    1    2    0  501  0.94372120390E+01 -0.43056368349E+02  0.81716433003E+02  0.92846579093E+02  0.00000000000E+00 0. -1.
</event>
<event>
 4    1  0.6740123E+001  0.2615647E+02  0.7546771E-02  0.1456271E+00
          2   -1    0    0  502    0  0.00000000000E+00  0.00000000000E+00  0.31492803933E+03  0.31492803933E+03  0.00000000000E+00 0.  1.
         -2   -1    0    0    0  501 -0.00000000000E+00 -0.00000000000E+00 -0.35134248820E+01  0.35134248820E+01  0.00000000000E+00 0. -1.
          1    1    1    2  502    0 -0.24904486699E+02 -0.79954797800E+01  0.57340903377E+02  0.63024918522E+02  0.00000000000E+00 0. -1.
         -1    1    1    2    0  501  0.24904486699E+02  0.79954797800E+01  0.25407371107E+03  0.25541654569E+03  0.00000000000E+00 0.  1.
</event>
<event>
 4    1  0.6740123E+001  0.2136401E+02  0.7546771E-02  0.1514131E+00
          2   -1    0    0  502    0  0.00000000000E+00  0.00000000000E+00  0.22590810250E+02  0.22590810250E+02  0.00000000000E+00 0. -1.
         -2   -1    0    0    0  501 -0.00000000000E+00 -0.00000000000E+00 -0.37238725311E+02  0.37238725311E+02  0.00000000000E+00 0.  1.
          1    1    1    2  502    0  0.17906474151E+02 -0.11652427426E+02 -0.27556849925E+02  0.34868336055E+02  0.00000000000E+00 0.  1.
         -1    1    1    2    0  501 -0.17906474151E+02  0.11652427426E+02  0.12908934865E+02  0.24961199506E+02  0.00000000000E+00 0. -1.
</event>
<event>
 4    1  0.6740123E+001  0.4035021E+02  0.7546771E-02  0.1346446E+00
          2   -1    0    0  502    0  0.00000000000E+00  0.00000000000E+00  0.59195274716E+02  0.59195274716E+02  0.00000000000E+00 0. -1.
         -2   -1    0    0    0  501 -0.00000000000E+00 -0.00000000000E+00 -0.32298163169E+02  0.32298163169E+02  0.00000000000E+00 0.  1.
          1    1    1    2  502    0  0.17708014013E+02 -0.36256934702E+02 -0.41753748798E+01  0.40565660720E+02  0.00000000000E+00 0.  1.
         -1    1    1    2    0  501 -0.17708014013E+02  0.36256934702E+02  0.31072486426E+02  0.50927777165E+02  0.00000000000E+00 0. -1.
</event>
<event>
 4    1  0.6740123E+001  0.3173732E+02  0.7546771E-02  0.1405077E+00
          2   -1    0    0  502    0  0.00000000000E+00  0.00000000000E+00  0.24483036241E+04  0.24483036241E+04  0.00000000000E+00 0.  1.
         -2   -1    0    0    0  501 -0.00000000000E+00 -0.00000000000E+00 -0.89908993687E+00  0.89908993687E+00  0.00000000000E+00 0. -1.
          1    1    1    2  502    0 -0.82875860514E+01 -0.30636144719E+02  0.32179796693E+03  0.32335922589E+03  0.00000000000E+00 0. -1.
         -1    1    1    2    0  501  0.82875860514E+01  0.30636144719E+02  0.21256065672E+04  0.21258434881E+04  0.00000000000E+00 0.  1.
</event>
<event>
 4    1  0.6740123E+001  0.2751678E+02  0.7546771E-02  0.1442485E+00
          2   -1    0    0  502    0  0.00000000000E+00  0.00000000000E+00  0.12671484864E+04  0.12671484864E+04  0.00000000000E+00 0.  1.
         -2   -1    0    0    0  501 -0.00000000000E+00 -0.00000000000E+00 -0.97488780554E+00  0.97488780554E+00  0.00000000000E+00 0. -1.
          1    1    1    2  502    0  0.30467763039E+01 -0.27347579827E+02  0.23860713028E+03  0.24018854175E+03  0.00000000000E+00 0. -1.
         -1    1    1    2    0  501 -0.30467763039E+01  0.27347579827E+02  0.10275664683E+04  0.10279348325E+04  0.00000000000E+00 0.  1.
</event>
<event>
 4    1  0.6740123E+001  0.2085676E+02  0.7546771E-02  0.1521320E+00
          2   -1    0    0  502    0  0.00000000000E+00  0.00000000000E+00  0.79376562152E+03  0.79376562152E+03  0.00000000000E+00 0. -1.
         -2   -1    0    0    0  501 -0.00000000000E+00 -0.00000000000E+00 -0.63084303045E+00  0.63084303045E+00  0.00000000000E+00 0.  1.
          1    1    1    2  502    0 -0.18512862232E+02 -0.96061643286E+01  0.25265253841E+03  0.25351195165E+03  0.00000000000E+00 0.  1.
         -1    1    1    2    0  501  0.18512862232E+02  0.96061643286E+01  0.54048224008E+03  0.54088451291E+03  0.00000000000E+00 0. -1.
</event>
<event>
 4    1  0.6740123E+001  0.3214024E+02  0.7546771E-02  0.1401866E+00
          2   -1    0    0  502    0  0.00000000000E+00  0.00000000000E+00  0.20904169877E+03  0.20904169877E+03  0.00000000000E+00 0.  1.
         -2   -1    0    0    0  501 -0.00000000000E+00 -0.00000000000E+00 -0.91668239509E+01  0.91668239509E+01  0.00000000000E+00 0. -1.
          1    1    1    2  502    0  0.92687211492E+01  0.30774759918E+02  0.25864687691E+02  0.41255025259E+02  0.00000000000E+00 0. -1.
         -1    1    1    2    0  501 -0.92687211492E+01 -0.30774759918E+02  0.17401018713E+03  0.17695349746E+03  0.00000000000E+00 0.  1.
</event>
<event>
 4    1  0.6740123E+001  0.2102691E+02  0.7546771E-02  0.1518881E+00
          2   -1    0    0  502    0  0.00000000000E+00  0.00000000000E+00  0.12398787534E+03  0.12398787534E+03  0.00000000000E+00 0.  1.
         -2   -1    0    0    0  501 -0.00000000000E+00 -0.00000000000E+00 -0.35719249771E+01  0.35719249771E+01  0.00000000000E+00 0. -1.
          1    1    1    2  502    0 -0.18745432594E+02  0.95257383159E+01  0.57593031483E+02  0.61311403581E+02  0.00000000000E+00 0. -1.
         -1    1    1    2    0  501  0.18745432594E+02 -0.95257383159E+01  0.62822918880E+02  0.66248396737E+02  0.00000000000E+00 0.  1.
</event>
<event>
 4    1  0.6740123E+001  0.2285144E+02  0.7546771E-02  0.1494372E+00
          2   -1    0    0  502    0  0.00000000000E+00  0.00000000000E+00  0.16282178943E+04  0.16282178943E+04  0.00000000000E+00 0.  1.
         -2   -1    0    0    0  501 -0.00000000000E+00 -0.00000000000E+00 -0.78562071425E+00  0.78562071425E+00  0.00000000000E+00 0. -1.
          1    1    1    2  502    0 -0.21227607895E+02 -0.84603069414E+01  0.18714604530E+03  0.18853601884E+03  0.00000000000E+00 0. -1.
         -1    1    1    2    0  501  0.21227607895E+02  0.84603069414E+01  0.14402862283E+04  0.14404674962E+04  0.00000000000E+00 0.  1.
</event>
<event>
 4    1  0.6740123E+001  0.2413006E+02  0.7546771E-02  0.1478775E+00
          2   -1    0    0  502    0  0.00000000000E+00  0.00000000000E+00  0.68158464625E+03  0.68158464625E+03  0.00000000000E+00 0.  1.
         -2   -1    0    0    0  501 -0.00000000000E+00 -0.00000000000E+00 -0.85433493526E+00  0.85433493526E+00  0.00000000000E+00 0. -1.
          1    1    1    2  502    0  0.16967167925E+02 -0.17157365784E+02  0.33748154577E+03  0.33834310060E+03  0.00000000000E+00 0.  1.
         -1    1    1    2    0  501 -0.16967167925E+02  0.17157365784E+02  0.34324876555E+03  0.34409588059E+03  0.00000000000E+00 0. -1.
</event>
<event>
 4    1  0.6740123E+001  0.2635147E+02  0.7546771E-02  0.1454234E+00
          2   -1    0    0  502    0  0.00000000000E+00  0.00000000000E+00  0.19348535077E+02  0.19348535077E+02  0.00000000000E+00 0.  1.
         -2   -1    0    0    0  501 -0.00000000000E+00 -0.00000000000E+00 -0.57535424952E+02  0.57535424952E+02  0.00000000000E+00 0. -1.
          1    1    1    2  502    0 -0.12647830643E+02 -0.23117793388E+02 -0.42672747787E+02  0.50153398636E+02  0.00000000000E+00 0. -1.
         -1    1    1    2    0  501  0.12647830643E+02  0.23117793388E+02  0.44858579114E+01  0.26730561392E+02  0.00000000000E+00 0.  1.
</event>
<event>
 4    1  0.6740123E+001  0.2089680E+02  0.7546771E-02  0.1520743E+00
          2   -1    0    0  502    0  0.00000000000E+00  0.00000000000E+00  0.32318050439E+02  0.32318050439E+02  0.00000000000E+00 0.  1.
         -2   -1    0    0    0  501 -0.00000000000E+00 -0.00000000000E+00 -0.43813150534E+02  0.43813150534E+02  0.00000000000E+00 0. -1.
          1    1    1    2  502    0  0.14109627993E+02 -0.15414104197E+02  0.25908824465E+02  0.33285783683E+02  0.00000000000E+00 0.  1.
         -1    1    1    2    0  501 -0.14109627993E+02  0.15414104197E+02 -0.37403924559E+02  0.42845417289E+02  0.00000000000E+00 0. -1.
</event>
<event>
 4    1  0.6740123E+001  0.2513298E+02  0.7546771E-02  0.1467321E+00
          2   -1    0    0  502    0  0.00000000000E+00  0.00000000000E+00  0.14443493561E+04  0.14443493561E+04  0.00000000000E+00 0. -1.
         -2   -1    0    0    0  501 -0.00000000000E+00 -0.00000000000E+00 -0.60198375281E+00  0.60198375281E+00  0.00000000000E+00 0.  1.
          1    1    1    2  502    0 -0.22156838680E+02  0.11863433451E+02  0.10997139296E+04  0.11000010880E+04  0.00000000000E+00 0. -1.
         -1    1    1    2    0  501  0.22156838680E+02 -0.11863433451E+02  0.34403344280E+03  0.34495025194E+03  0.00000000000E+00 0.  1.
</event>
<event>
 4    1  0.6740123E+001  0.2275623E+02  0.7546771E-02  0.1495582E+00
          2   -1    0    0  502    0  0.00000000000E+00  0.00000000000E+00  0.52474427271E+03  0.52474427271E+03  0.00000000000E+00 0. -1.
         -2   -1    0    0    0  501 -0.00000000000E+00 -0.00000000000E+00 -0.99567093109E+00  0.99567093109E+00  0.00000000000E+00 0.  1.
          1    1    1    2  502    0  0.20825549918E+02 -0.91729282590E+01  0.28661058072E+03  0.28751255820E+03  0.00000000000E+00 0. -1.
         -1    1    1    2    0  501 -0.20825549918E+02  0.91729282590E+01  0.23713802106E+03  0.23822738544E+03  0.00000000000E+00 0.  1.
</event>
<event>
 4    1  0.6740123E+001  0.2271857E+02  0.7546771E-02  0.1496063E+00
          2   -1    0    0  502    0  0.00000000000E+00  0.00000000000E+00  0.14251836213E+03  0.14251836213E+03  0.00000000000E+00 0. -1.
         -2   -1    0    0    0  501 -0.00000000000E+00 -0.00000000000E+00 -0.37795959029E+01  0.37795959029E+01  0.00000000000E+00 0.  1.
          1    1    1    2  502    0 -0.22713108726E+02 -0.49805550503E+00  0.84328840197E+02  0.87335483374E+02  0.00000000000E+00 0. -1.
         -1    1    1    2    0  501  0.22713108726E+02  0.49805550503E+00  0.54409926033E+02  0.58962474661E+02  0.00000000000E+00 0.  1.
</event>
<event>
 4    1  0.6740123E+001  0.2067894E+02  0.7546771E-02  0.1523899E+00
          2   -1    0    0  502    0  0.00000000000E+00  0.00000000000E+00  0.14871886219E+02  0.14871886219E+02  0.00000000000E+00 0.  1.
         -2   -1    0    0    0  501 -0.00000000000E+00 -0.00000000000E+00 -0.29050602321E+02  0.29050602321E+02  0.00000000000E+00 0. -1.
          1    1    1    2  502    0 -0.19425066253E+02  0.70912145995E+01 -0.48683761330E+01  0.21244284163E+02  0.00000000000E+00 0.  1.
         -1    1    1    2    0  501  0.19425066253E+02 -0.70912145995E+01 -0.93103399695E+01  0.22678204377E+02  0.00000000000E+00 0. -1.
</event>
<event>
 4    1  0.6740123E+001  0.6581039E+02  0.7546771E-02  0.1241274E+00
          2   -1    0    0  502    0  0.00000000000E+00  0.00000000000E+00  0.24853696223E+04  0.24853696223E+04  0.00000000000E+00 0.  1.
         -2   -1    0    0    0  501 -0.00000000000E+00 -0.00000000000E+00 -0.17483764731E+01  0.17483764731E+01  0.00000000000E+00 0. -1.
          1    1    1    2  502    0 -0.34163019209E+02 -0.56248513087E+02  0.13132849394E+04  0.13149328269E+04  0.00000000000E+00 0. -1.
         -1    1    1    2    0  501  0.34163019209E+02  0.56248513087E+02  0.11703363063E+04  0.11721851718E+04  0.00000000000E+00 0.  1.
</event>
<event>
 4    1  0.6740123E+001  0.2488624E+02  0.7546771E-02  0.1470080E+00
          2   -1    0    0  502    0  0.00000000000E+00  0.00000000000E+00  0.79270022127E+01  0.79270022127E+01  0.00000000000E+00 0. -1.
         -2   -1    0    0    0  501 -0.00000000000E+00 -0.00000000000E+00 -0.11224693291E+03  0.11224693291E+03  0.00000000000E+00 0.  1.
          1    1    1    2  502    0  0.12659081571E+02 -0.21425977403E+02 -0.19032551468E+02  0.31329903754E+02  0.00000000000E+00 0. -1.
         -1    1    1    2    0  501 -0.12659081571E+02  0.21425977403E+02 -0.85287379228E+02  0.88844031366E+02  0.00000000000E+00 0.  1.
</event>
<event>
 4    1  0.6740123E+001  0.2687717E+02  0.7546771E-02  0.1448846E+00
          2   -1    0    0  502    0  0.00000000000E+00  0.00000000000E+00  0.40260737127E+02  0.40260737127E+02  0.00000000000E+00 0. -1.
         -2   -1    0    0    0  501 -0.00000000000E+00 -0.00000000000E+00 -0.18508167647E+02  0.18508167647E+02  0.00000000000E+00 0.  1.
          1    1    1    2  502    0 -0.21410045717E+02  0.16247837264E+02  0.16012916599E+02  0.31285711937E+02  0.00000000000E+00 0. -1.
         -1    1    1    2    0  501  0.21410045717E+02 -0.16247837264E+02  0.57396528805E+01  0.27483192838E+02  0.00000000000E+00 0.  1.
</event>
<event>
 4    1  0.6740123E+001  0.2778232E+02  0.7546771E-02  0.1439904E+00
          2   -1    0    0  502    0  0.00000000000E+00  0.00000000000E+00  0.22511154361E+03  0.22511154361E+03  0.00000000000E+00 0. -1.
         -2   -1    0    0    0  501 -0.00000000000E+00 -0.00000000000E+00 -0.51335564853E+01  0.51335564853E+01  0.00000000000E+00 0.  1.
          1    1    1    2  502    0 -0.31239878265E+01 -0.27606119542E+02  0.43647473677E+02  0.51739337979E+02  0.00000000000E+00 0.  1.
         -1    1    1    2    0  501  0.31239878265E+01  0.27606119542E+02  0.17633051344E+03  0.17850576211E+03  0.00000000000E+00 0. -1.
</event>
<event>
 4    1  0.6740123E+001  0.2133598E+02  0.7546771E-02  0.1514522E+00
          2   -1    0    0  502    0  0.00000000000E+00  0.00000000000E+00  0.18598663771E+04  0.18598663771E+04  0.00000000000E+00 0. -1.
         -2   -1    0    0    0  501 -0.00000000000E+00 -0.00000000000E+00 -0.25087907061E+00  0.25087907061E+00  0.00000000000E+00 0.  1.
          1    1    1    2  502    0  0.42852022917E+01  0.20901221889E+02  0.78457622023E+03  0.78486627485E+03  0.00000000000E+00 0. -1.
         -1    1    1    2    0  501 -0.42852022917E+01 -0.20901221889E+02  0.10750392778E+04  0.10752509814E+04  0.00000000000E+00 0.  1.
</event>
<event>
 4    1  0.6740123E+001  0.2255102E+02  0.7546771E-02  0.1498214E+00
          2   -1    0    0  502    0  0.00000000000E+00  0.00000000000E+00  0.10530658710E+02  0.10530658710E+02  0.00000000000E+00 0. -1.
         -2   -1    0    0    0  501 -0.00000000000E+00 -0.00000000000E+00 -0.54565488144E+02  0.54565488144E+02  0.00000000000E+00 0.  1.
          1    1    1    2  502    0 -0.81584714373E+01  0.21023503469E+02 -0.10981332126E+02  0.25082623658E+02  0.00000000000E+00 0.  1.
         -1    1    1    2    0  501  0.81584714373E+01 -0.21023503469E+02 -0.33053497308E+02  0.40013523196E+02  0.00000000000E+00 0. -1.
</event>
<event>
 4    1  0.6740123E+001  0.6481632E+02  0.7546771E-02  0.1244292E+00
          2   -1    0    0  502    0  0.00000000000E+00  0.00000000000E+00  0.45930039033E+03  0.45930039033E+03  0.00000000000E+00 0.  1.
         -2   -1    0    0    0  501 -0.00000000000E+00 -0.00000000000E+00 -0.11737428423E+02  0.11737428423E+02  0.00000000000E+00 0. -1.
          1    1    1    2  502    0  0.57457006106E+02 -0.29997460616E+02  0.11313514135E+03  0.13038679152E+03  0.00000000000E+00 0. -1.
         -1    1    1    2    0  501 -0.57457006106E+02  0.29997460616E+02  0.33442782056E+03  0.34065102724E+03  0.00000000000E+00 0.  1.
</event>
<event>
 4    1  0.6740123E+001  0.2326362E+02  0.7546771E-02  0.1489214E+00
          2   -1    0    0  502    0  0.00000000000E+00  0.00000000000E+00  0.91701352191E+02  0.91701352191E+02  0.00000000000E+00 0.  1.
         -2   -1    0    0    0  501 -0.00000000000E+00 -0.00000000000E+00 -0.61191715497E+01  0.61191715497E+01  0.00000000000E+00 0. -1.
          1    1    1    2  502    0 -0.14708005566E+02 -0.18024162254E+02  0.52011141056E+02  0.56976790420E+02  0.00000000000E+00 0.  1.
         -1    1    1    2    0  501  0.14708005566E+02  0.18024162254E+02  0.33571039586E+02  0.40843733321E+02  0.00000000000E+00 0. -1.
</event>
<event>
 4    1  0.6740123E+001  0.2295470E+02  0.7546771E-02  0.1493068E+00
          2   -1    0    0  502    0  0.00000000000E+00  0.00000000000E+00  0.13417486980E+03  0.13417486980E+03  0.00000000000E+00 0.  1.
         -2   -1    0    0    0  501 -0.00000000000E+00 -0.00000000000E+00 -0.47317173523E+01  0.47317173523E+01  0.00000000000E+00 0. -1.
          1    1    1    2  502    0  0.20331928155E+02 -0.10655083048E+02  0.93361919153E+02  0.96142425834E+02  0.00000000000E+00 0.  1.
         -1    1    1    2    0  501 -0.20331928155E+02  0.10655083048E+02  0.36081233297E+02  0.42764161320E+02  0.00000000000E+00 0. -1.
</event>
<event>
 4    1  0.6740123E+001  0.2879834E+02  0.7546771E-02  0.1430334E+00
          2   -1    0    0  502    0  0.00000000000E+00  0.00000000000E+00  0.14978219293E+04  0.14978219293E+04  0.00000000000E+00 0.  1.
         -2   -1    0    0    0  501 -0.00000000000E+00 -0.00000000000E+00 -0.80118306962E+00  0.80118306962E+00  0.00000000000E+00 0. -1.
          1    1    1    2  502    0  0.80926638977E+01  0.27637898086E+02  0.33205455456E+03  0.33330102283E+03  0.00000000000E+00 0. -1.
         -1    1    1    2    0  501 -0.80926638977E+01 -0.27637898086E+02  0.11649661917E+04  0.11653220896E+04  0.00000000000E+00 0.  1.
</event>
<event>
 4    1  0.6740123E+001  0.2332712E+02  0.7546771E-02  0.1488431E+00
          2   -1    0    0  502    0  0.00000000000E+00  0.00000000000E+00  0.98066600568E+03  0.98066600568E+03  0.00000000000E+00 0.  1.
         -2   -1    0    0    0  501 -0.00000000000E+00 -0.00000000000E+00 -0.56352191553E+00  0.56352191553E+00  0.00000000000E+00 0. -1.
          1    1    1    2  502    0 -0.52913826103E+01 -0.22719060705E+02  0.42930404357E+03  0.42993733994E+03  0.00000000000E+00 0. -1.
         -1    1    1    2    0  501  0.52913826103E+01  0.22719060705E+02  0.55079844019E+03  0.55129218765E+03  0.00000000000E+00 0.  1.
</event>
<event>
 4    1  0.6740123E+001  0.3117313E+02  0.7546771E-02  0.1409669E+00
          2   -1    0    0  502    0  0.00000000000E+00  0.00000000000E+00  0.84169925776E+03  0.84169925776E+03  0.00000000000E+00 0. -1.
         -2   -1    0    0    0  501 -0.00000000000E+00 -0.00000000000E+00 -0.11805987346E+01  0.11805987346E+01  0.00000000000E+00 0.  1.
          1    1    1    2  502    0  0.10726633505E+02 -0.29269494025E+02  0.48288828185E+03  0.48389343527E+03  0.00000000000E+00 0. -1.
         -1    1    1    2    0  501 -0.10726633505E+02  0.29269494025E+02  0.35763037718E+03  0.35898642123E+03  0.00000000000E+00 0.  1.
</event>
<event>
 4    1  0.6740123E+001  0.2442076E+02  0.7546771E-02  0.1475389E+00
          2   -1    0    0  502    0  0.00000000000E+00  0.00000000000E+00  0.13117959993E+03  0.13117959993E+03  0.00000000000E+00 0.  1.
         -2   -1    0    0    0  501 -0.00000000000E+00 -0.00000000000E+00 -0.52600936437E+01  0.52600936437E+01  0.00000000000E+00 0. -1.
          1    1    1    2  502    0 -0.21009739954E+02 -0.12448461523E+02  0.37828165193E+02  0.45026030794E+02  0.00000000000E+00 0. -1.
         -1    1    1    2    0  501  0.21009739954E+02  0.12448461523E+02  0.88091341097E+02  0.91413662784E+02  0.00000000000E+00 0.  1.
</event>
<event>
 4    1  0.6740123E+001  0.2788719E+02  0.7546771E-02  0.1438894E+00
          2   -1    0    0  502    0  0.00000000000E+00  0.00000000000E+00  0.33602826567E+03  0.33602826567E+03  0.00000000000E+00 0. -1.
         -2   -1    0    0    0  501 -0.00000000000E+00 -0.00000000000E+00 -0.23634007415E+01  0.23634007415E+01  0.00000000000E+00 0.  1.
          1    1    1    2  502    0 -0.14621427474E+02 -0.23746777332E+02  0.19120105532E+03  0.19322406458E+03  0.00000000000E+00 0. -1.
         -1    1    1    2    0  501  0.14621427474E+02  0.23746777332E+02  0.14246380960E+03  0.14516760183E+03  0.00000000000E+00 0.  1.
</event>
<event>
 4    1  0.6740123E+001  0.2118926E+02  0.7546771E-02  0.1516580E+00
          2   -1    0    0  502    0  0.00000000000E+00  0.00000000000E+00  0.13497921902E+04  0.13497921902E+04  0.00000000000E+00 0.  1.
         -2   -1    0    0    0  501 -0.00000000000E+00 -0.00000000000E+00 -0.64904180052E+00  0.64904180052E+00  0.00000000000E+00 0. -1.
          1    1    1    2  502    0 -0.16552015662E+02  0.13229347850E+02  0.11460197082E+04  0.11462155803E+04  0.00000000000E+00 0.  1.
         -1    1    1    2    0  501  0.16552015662E+02 -0.13229347850E+02  0.20312344023E+03  0.20422565176E+03  0.00000000000E+00 0. -1.
</event>
<event>
 4    1  0.6740123E+001  0.2163849E+02  0.7546771E-02  0.1510341E+00
          2   -1    0    0  502    0  0.00000000000E+00  0.00000000000E+00  0.17597437069E+03  0.17597437069E+03  0.00000000000E+00 0. -1.
         -2   -1    0    0    0  501 -0.00000000000E+00 -0.00000000000E+00 -0.27093347763E+01  0.27093347763E+01  0.00000000000E+00 0.  1.
          1    1    1    2  502    0 -0.15266564484E+02  0.15334812477E+02  0.74669052263E+02  0.77741184906E+02  0.00000000000E+00 0.  1.
         -1    1    1    2    0  501  0.15266564484E+02 -0.15334812477E+02  0.98595983650E+02  0.10094252056E+03  0.00000000000E+00 0. -1.
</event>
<event>
 4    1  0.6740123E+001  0.2237269E+02  0.7546771E-02  0.1500529E+00
          2   -1    0    0  502    0  0.00000000000E+00  0.00000000000E+00  0.44369045981E+01  0.44369045981E+01  0.00000000000E+00 0. -1.
         -2   -1    0    0    0  501 -0.00000000000E+00 -0.00000000000E+00 -0.25409227279E+03  0.25409227279E+03  0.00000000000E+00 0.  1.
          1    1    1    2  502    0  0.21423469830E+02  0.64476557060E+01 -0.28439417143E+02  0.36184772641E+02  0.00000000000E+00 0. -1.
         -1    1    1    2    0  501 -0.21423469830E+02 -0.64476557060E+01 -0.22121595105E+03  0.22234440474E+03  0.00000000000E+00 0.  1.
</event>
<event>
 4    1  0.6740123E+001  0.2174686E+02  0.7546771E-02  0.1508863E+00
          2   -1    0    0  502    0  0.00000000000E+00  0.00000000000E+00  0.90485341635E+03  0.90485341635E+03  0.00000000000E+00 0.  1.
         -2   -1    0    0    0  501 -0.00000000000E+00 -0.00000000000E+00 -0.57021520428E+00  0.57021520428E+00  0.00000000000E+00 0. -1.
          1    1    1    2  502    0  0.13631913007E+02  0.16943933466E+02  0.32139649406E+03  0.32213138985E+03  0.00000000000E+00 0.  1.
         -1    1    1    2    0  501 -0.13631913007E+02 -0.16943933466E+02  0.58288670709E+03  0.58329224170E+03  0.00000000000E+00 0. -1.
</event>
<event>
 4    1  0.6740123E+001  0.4950203E+02  0.7546771E-02  0.1300346E+00
          2   -1    0    0  502    0  0.00000000000E+00  0.00000000000E+00  0.87681560672E+03  0.87681560672E+03  0.00000000000E+00 0. -1.
         -2   -1    0    0    0  501 -0.00000000000E+00 -0.00000000000E+00 -0.28030936572E+01  0.28030936572E+01  0.00000000000E+00 0.  1.
          1    1    1    2  502    0  0.30503501006E+02  0.38987016985E+02  0.46104951311E+03  0.46369936878E+03  0.00000000000E+00 0.  1.
         -1    1    1    2    0  501 -0.30503501006E+02 -0.38987016985E+02  0.41296299995E+03  0.41591933160E+03  0.00000000000E+00 0. -1.
</event>
<event>
 4    1  0.6740123E+001  0.3435028E+02  0.7546771E-02  0.1385189E+00
          2   -1    0    0  502    0  0.00000000000E+00  0.00000000000E+00  0.92111579039E+03  0.92111579039E+03  0.00000000000E+00 0. -1.
         -2   -1    0    0    0  501 -0.00000000000E+00 -0.00000000000E+00 -0.31957181226E+01  0.31957181226E+01  0.00000000000E+00 0.  1.
          1    1    1    2  502    0 -0.31227802139E+02  0.14309647970E+02  0.81669179762E+03  0.81741386944E+03  0.00000000000E+00 0. -1.
         -1    1    1    2    0  501  0.31227802139E+02 -0.14309647970E+02  0.10122827465E+03  0.10689763908E+03  0.00000000000E+00 0.  1.
</event>
<event>
 4    1  0.6740123E+001  0.2411719E+02  0.7546771E-02  0.1478927E+00
          2   -1    0    0  502    0  0.00000000000E+00  0.00000000000E+00  0.55267268973E+03  0.55267268973E+03  0.00000000000E+00 0. -1.
         -2   -1    0    0    0  501 -0.00000000000E+00 -0.00000000000E+00 -0.13663832582E+01  0.13663832582E+01  0.00000000000E+00 0.  1.
          1    1    1    2  502    0  0.13501444823E+02 -0.19983739698E+02  0.14286182581E+03  0.14488319481E+03  0.00000000000E+00 0.  1.
         -1    1    1    2    0  501 -0.13501444823E+02  0.19983739698E+02  0.40844448067E+03  0.40915587818E+03  0.00000000000E+00 0. -1.
</event>
<event>
 4    1  0.6740123E+001  0.2979560E+02  0.7546771E-02  0.1421381E+00
          2   -1    0    0  502    0  0.00000000000E+00  0.00000000000E+00  0.43601449379E+03  0.43601449379E+03  0.00000000000E+00 0.  1.
         -2   -1    0    0    0  501 -0.00000000000E+00 -0.00000000000E+00 -0.32755348631E+01  0.32755348631E+01  0.00000000000E+00 0. -1.
          1    1    1    2  502    0 -0.26396825655E+02 -0.13819747038E+02  0.81259137264E+02  0.86549553446E+02  0.00000000000E+00 0. -1.
         -1    1    1    2    0  501  0.26396825655E+02  0.13819747038E+02  0.35147982167E+03  0.35274047521E+03  0.00000000000E+00 0.  1.
</event>
<event>
 4    1  0.6740123E+001  0.2377384E+02  0.7546771E-02  0.1483003E+00
          2   -1    0    0  502    0  0.00000000000E+00  0.00000000000E+00  0.12785101855E+03  0.12785101855E+03  0.00000000000E+00 0.  1.
         -2   -1    0    0    0  501 -0.00000000000E+00 -0.00000000000E+00 -0.55654720687E+01  0.55654720687E+01  0.00000000000E+00 0. -1.
          1    1    1    2  502    0 -0.14605772695E+02  0.18758119228E+02  0.91396658013E+02  0.94438047041E+02  0.00000000000E+00 0.  1.
         -1    1    1    2    0  501  0.14605772695E+02 -0.18758119228E+02  0.30888888473E+02  0.38978443582E+02  0.00000000000E+00 0. -1.
</event>
<event>
 4    1  0.6740123E+001  0.2084080E+02  0.7546771E-02  0.1521550E+00
          2   -1    0    0  502    0  0.00000000000E+00  0.00000000000E+00  0.31003623371E+02  0.31003623371E+02  0.00000000000E+00 0. -1.
         -2   -1    0    0    0  501 -0.00000000000E+00 -0.00000000000E+00 -0.17897496929E+02  0.17897496929E+02  0.00000000000E+00 0.  1.
          1    1    1    2  502    0 -0.15450169258E+02  0.13986825937E+02  0.17949441257E+02  0.27504935400E+02  0.00000000000E+00 0. -1.
         -1    1    1    2    0  501  0.15450169258E+02 -0.13986825937E+02 -0.48433148149E+01  0.21396184901E+02  0.00000000000E+00 0.  1.
</event>
<event>
 4    1  0.6740123E+001  0.2043828E+02  0.7546771E-02  0.1527438E+00
          2   -1    0    0  502    0  0.00000000000E+00  0.00000000000E+00  0.23836561925E+02  0.23836561925E+02  0.00000000000E+00 0.  1.
         -2   -1    0    0    0  501 -0.00000000000E+00 -0.00000000000E+00 -0.32369660364E+02  0.32369660364E+02  0.00000000000E+00 0. -1.
          1    1    1    2  502    0 -0.14607239704E+02  0.14295167481E+02 -0.23298272861E+02  0.30992463332E+02  0.00000000000E+00 0. -1.
         -1    1    1    2    0  501  0.14607239704E+02 -0.14295167481E+02  0.14765174422E+02  0.25213758958E+02  0.00000000000E+00 0.  1.
</event>
<event>
 4    1  0.6740123E+001  0.2014235E+02  0.7546771E-02  0.1531871E+00
          2   -1    0    0  502    0  0.00000000000E+00  0.00000000000E+00  0.22973976827E+02  0.22973976827E+02  0.00000000000E+00 0. -1.
         -2   -1    0    0    0  501 -0.00000000000E+00 -0.00000000000E+00 -0.17990466673E+02  0.17990466673E+02  0.00000000000E+00 0.  1.
          1    1    1    2  502    0  0.30312555916E+01  0.19912958647E+02  0.52688528742E+01  0.20820068280E+02  0.00000000000E+00 0. -1.
         -1    1    1    2    0  501 -0.30312555916E+01 -0.19912958647E+02 -0.28534271954E+00  0.20144375220E+02  0.00000000000E+00 0.  1.
</event>
<event>
 4    1  0.6740123E+001  0.2828469E+02  0.7546771E-02  0.1435113E+00
          2   -1    0    0  502    0  0.00000000000E+00  0.00000000000E+00  0.34364162631E+02  0.34364162631E+02  0.00000000000E+00 0. -1.
         -2   -1    0    0    0  501 -0.00000000000E+00 -0.00000000000E+00 -0.41774222155E+02  0.41774222155E+02  0.00000000000E+00 0.  1.
          1    1    1    2  502    0  0.27509981032E+02 -0.65745514424E+01  0.21624586056E+02  0.35604023721E+02  0.00000000000E+00 0. -1.
         -1    1    1    2    0  501 -0.27509981032E+02  0.65745514424E+01 -0.29034645579E+02  0.40534361065E+02  0.00000000000E+00 0.  1.
</event>
<event>
 4    1  0.6740123E+001  0.2140726E+02  0.7546771E-02  0.1513529E+00
          2   -1    0    0  502    0  0.00000000000E+00  0.00000000000E+00  0.70652975165E+02  0.70652975165E+02  0.00000000000E+00 0. -1.
         -2   -1    0    0    0  501 -0.00000000000E+00 -0.00000000000E+00 -0.67034764690E+01  0.67034764690E+01  0.00000000000E+00 0.  1.
          1    1    1    2  502    0  0.10773062026E+02 -0.18498968024E+02  0.38937865950E+02  0.44434537109E+02  0.00000000000E+00 0.  1.
         -1    1    1    2    0  501 -0.10773062026E+02  0.18498968024E+02  0.25011632746E+02  0.32921914525E+02  0.00000000000E+00 0. -1.
</event>
<event>
 4    1  0.6740123E+001  0.2040360E+02  0.7546771E-02  0.1527953E+00
          2   -1    0    0  502    0  0.00000000000E+00  0.00000000000E+00  0.56172374126E+03  0.56172374126E+03  0.00000000000E+00 0.  1.
         -2   -1    0    0    0  501 -0.00000000000E+00 -0.00000000000E+00 -0.74651315547E+00  0.74651315547E+00  0.00000000000E+00 0. -1.
          1    1    1    2  502    0 -0.63819489349E+01 -0.19379819932E+02  0.25659238615E+03  0.25740232968E+03  0.00000000000E+00 0. -1.
         -1    1    1    2    0  501  0.63819489349E+01  0.19379819932E+02  0.30438484195E+03  0.30506792474E+03  0.00000000000E+00 0.  1.
</event>
<event>
 4    1  0.6740123E+001  0.2002987E+02  0.7546771E-02  0.1533579E+00
          2   -1    0    0  502    0  0.00000000000E+00  0.00000000000E+00  0.23091025832E+04  0.23091025832E+04  0.00000000000E+00 0. -1.
         -2   -1    0    0    0  501 -0.00000000000E+00 -0.00000000000E+00 -0.17688194470E+00  0.17688194470E+00  0.00000000000E+00 0.  1.
          1    1    1    2  502    0 -0.40999513022E+01 -0.19605769591E+02  0.13082198818E+04  0.13083732093E+04  0.00000000000E+00 0.  1.
         -1    1    1    2    0  501  0.40999513022E+01  0.19605769591E+02  0.10007058195E+04  0.10009062558E+04  0.00000000000E+00 0. -1.
</event>
<event>
 4    1  0.6740123E+001  0.2542295E+02  0.7546771E-02  0.1464127E+00
          2   -1    0    0  502    0  0.00000000000E+00  0.00000000000E+00  0.58468591790E+03  0.58468591790E+03  0.00000000000E+00 0. -1.
         -2   -1    0    0    0  501 -0.00000000000E+00 -0.00000000000E+00 -0.11139794734E+01  0.11139794734E+01  0.00000000000E+00 0.  1.
          1    1    1    2  502    0  0.25374432829E+02 -0.15698234075E+01  0.26611821152E+03  0.26732981257E+03  0.00000000000E+00 0. -1.
         -1    1    1    2    0  501 -0.25374432829E+02  0.15698234075E+01  0.31745372691E+03  0.31847008480E+03  0.00000000000E+00 0.  1.
</event>
<event>
 4    1  0.6740123E+001  0.3317412E+02  0.7546771E-02  0.1393875E+00
          2   -1    0    0  502    0  0.00000000000E+00  0.00000000000E+00  0.22935361044E+03  0.22935361044E+03  0.00000000000E+00 0. -1.
         -2   -1    0    0    0  501 -0.00000000000E+00 -0.00000000000E+00 -0.14739516192E+02  0.14739516192E+02  0.00000000000E+00 0.  1.
          1    1    1    2  502    0 -0.11847352914E+01 -0.33152955112E+02  0.70759903982E+01  0.33920372499E+02  0.00000000000E+00 0.  1.
         -1    1    1    2    0  501  0.11847352914E+01  0.33152955112E+02  0.20753810385E+03  0.21017275413E+03  0.00000000000E+00 0. -1.
</event>
<event>
 4    1  0.6740123E+001  0.2185179E+02  0.7546771E-02  0.1507443E+00
          2   -1    0    0  502    0  0.00000000000E+00  0.00000000000E+00  0.44396740765E+00  0.44396740765E+00  0.00000000000E+00 0.  1.
         -2   -1    0    0    0  501 -0.00000000000E+00 -0.00000000000E+00 -0.12539604895E+04  0.12539604895E+04  0.00000000000E+00 0. -1.
          1    1    1    2  502    0  0.21016569170E+02  0.59836765701E+01 -0.86334989307E+03  0.86362638822E+03  0.00000000000E+00 0. -1.
         -1    1    1    2    0  501 -0.21016569170E+02 -0.59836765701E+01 -0.39016662900E+03  0.39077806867E+03  0.00000000000E+00 0.  1.
</event>
<event>
 4    1  0.6740123E+001  0.2340424E+02  0.7546771E-02  0.1487484E+00
          2   -1    0    0  502    0  0.00000000000E+00  0.00000000000E+00  0.42370562219E+03  0.42370562219E+03  0.00000000000E+00 0. -1.
         -2   -1    0    0    0  501 -0.00000000000E+00 -0.00000000000E+00 -0.14962745513E+01  0.14962745513E+01  0.00000000000E+00 0.  1.
          1    1    1    2  502    0 -0.14847539916E+02 -0.18091682372E+02  0.28950814569E+03  0.29045262064E+03  0.00000000000E+00 0. -1.
         -1    1    1    2    0  501  0.14847539916E+02  0.18091682372E+02  0.13270120194E+03  0.13474927610E+03  0.00000000000E+00 0.  1.
</event>
<event>
 4    1  0.6740123E+001  0.2709582E+02  0.7546771E-02  0.1446648E+00
          2   -1    0    0  502    0  0.00000000000E+00  0.00000000000E+00  0.17300993031E+04  0.17300993031E+04  0.00000000000E+00 0. -1.
         -2   -1    0    0    0  501 -0.00000000000E+00 -0.00000000000E+00 -0.49290116623E+00  0.49290116623E+00  0.00000000000E+00 0.  1.
          1    1    1    2  502    0 -0.16416837838E+02  0.21556224620E+02  0.11874767890E+04  0.11877858847E+04  0.00000000000E+00 0. -1.
         -1    1    1    2    0  501  0.16416837838E+02 -0.21556224620E+02  0.54212961292E+03  0.54280631960E+03  0.00000000000E+00 0.  1.
</event>
<event>
 4    1  0.6740123E+001  0.2030781E+02  0.7546771E-02  0.1529381E+00
          2   -1    0    0  502    0  0.00000000000E+00  0.00000000000E+00  0.48182792847E+01  0.48182792847E+01  0.00000000000E+00 0.  1.
         -2   -1    0    0    0  501 -0.00000000000E+00 -0.00000000000E+00 -0.85666659749E+02  0.85666659749E+02  0.00000000000E+00 0. -1.
          1    1    1    2  502    0 -0.15791560986E+02  0.12768474074E+02 -0.39090738041E+02  0.44051028695E+02  0.00000000000E+00 0.  1.
         -1    1    1    2    0  501  0.15791560986E+02 -0.12768474074E+02 -0.41757642423E+02  0.46433910338E+02  0.00000000000E+00 0. -1.
</event>
<event>
 4    1 -0.6740123E+001  0.1124803E+03  0.7546771E-02  0.1143780E+00
          2   -1    0    0  502    0  0.00000000000E+00  0.00000000000E+00  0.37500063029E+01  0.37500063029E+01  0.00000000000E+00 0.  1.
         -2   -1    0    0    0  501 -0.00000000000E+00 -0.00000000000E+00 -0.42469861320E+04  0.42469861320E+04  0.00000000000E+00 0. -1.
          1    1    1    2  502    0 -0.91388550067E+02 -0.65573961016E+02 -0.11579122462E+04  0.11633626182E+04  0.00000000000E+00 0. -1.
         -1    1    1    2    0  501  0.91388550067E+02  0.65573961016E+02 -0.30853238794E+04  0.30873735201E+04  0.00000000000E+00 0.  1.
</event>
<event>
 4    1  0.6740123E+001  0.4009317E+02  0.7546771E-02  0.1347941E+00
          2   -1    0    0  502    0  0.00000000000E+00  0.00000000000E+00  0.74739218763E+01  0.74739218763E+01  0.00000000000E+00 0.  1.
         -2   -1    0    0    0  501 -0.00000000000E+00 -0.00000000000E+00 -0.24515664975E+03  0.24515664975E+03  0.00000000000E+00 0. -1.
          1    1    1    2  502    0 -0.35119110522E+02  0.19341933412E+02 -0.16308762968E+03  0.16794355381E+03  0.00000000000E+00 0. -1.
         -1    1    1    2    0  501  0.35119110522E+02 -0.19341933412E+02 -0.74595098194E+02  0.84687017816E+02  0.00000000000E+00 0.  1.
</event>
<event>
 4    1  0.6740123E+001  0.2056802E+02  0.7546771E-02  0.1525523E+00
          2   -1    0    0  502    0  0.00000000000E+00  0.00000000000E+00  0.45911056178E+03  0.45911056178E+03  0.00000000000E+00 0. -1.
         -2   -1    0    0    0  501 -0.00000000000E+00 -0.00000000000E+00 -0.11944664778E+01  0.11944664778E+01  0.00000000000E+00 0.  1.
          1    1    1    2  502    0 -0.10722946270E+01  0.20540052258E+02  0.11892329663E+03  0.12068883148E+03  0.00000000000E+00 0.  1.
         -1    1    1    2    0  501  0.10722946270E+01 -0.20540052258E+02  0.33899279867E+03  0.33961619677E+03  0.00000000000E+00 0. -1.
</event>
<event>
 4    1  0.6740123E+001  0.2601395E+02  0.7546771E-02  0.1457773E+00
          2   -1    0    0  502    0  0.00000000000E+00  0.00000000000E+00  0.43524387779E+01  0.43524387779E+01  0.00000000000E+00 0.  1.
         -2   -1    0    0    0  501 -0.00000000000E+00 -0.00000000000E+00 -0.16747782994E+03  0.16747782994E+03  0.00000000000E+00 0. -1.
          1    1    1    2  502    0  0.21664778941E+02  0.14400096032E+02 -0.10455635697E+03  0.10774394273E+03  0.00000000000E+00 0. -1.
         -1    1    1    2    0  501 -0.21664778941E+02 -0.14400096032E+02 -0.58569034188E+02  0.64086325984E+02  0.00000000000E+00 0.  1.
</event>
<event>
 4    1  0.6740123E+001  0.2019069E+02  0.7546771E-02  0.1531140E+00
          2   -1    0    0  502    0  0.00000000000E+00  0.00000000000E+00  0.12758006945E+04  0.12758006945E+04  0.00000000000E+00 0.  1.
         -2   -1    0    0    0  501 -0.00000000000E+00 -0.00000000000E+00 -0.36794275922E+00  0.36794275922E+00  0.00000000000E+00 0. -1.
          1    1    1    2  502    0  0.11610060721E+02  0.16518787492E+02  0.40627427987E+03  0.40677568061E+03  0.00000000000E+00 0. -1.
         -1    1    1    2    0  501 -0.11610060721E+02 -0.16518787492E+02  0.86915847185E+03  0.86939295663E+03  0.00000000000E+00 0.  1.
</event>
<event>
 4    1  0.6740123E+001  0.2290996E+02  0.7546771E-02  0.1493632E+00
          2   -1    0    0  502    0  0.00000000000E+00  0.00000000000E+00  0.35343081010E+03  0.35343081010E+03  0.00000000000E+00 0.  1.
         -2   -1    0    0    0  501 -0.00000000000E+00 -0.00000000000E+00 -0.21487611456E+01  0.21487611456E+01  0.00000000000E+00 0. -1.
          1    1    1    2  502    0 -0.18097181865E+02  0.14048431152E+02  0.27445050174E+03  0.27540505499E+03  0.00000000000E+00 0. -1.
         -1    1    1    2    0  501  0.18097181865E+02 -0.14048431152E+02  0.76831547215E+02  0.80174516255E+02  0.00000000000E+00 0.  1.
</event>
<event>
 4    1  0.6740123E+001  0.2636530E+02  0.7546771E-02  0.1454090E+00
          2   -1    0    0  502    0  0.00000000000E+00  0.00000000000E+00  0.43409026997E+03  0.43409026997E+03  0.00000000000E+00 0. -1.
         -2   -1    0    0    0  501 -0.00000000000E+00 -0.00000000000E+00 -0.18890926290E+01  0.18890926290E+01  0.00000000000E+00 0.  1.
          1    1    1    2  502    0 -0.20021209663E+02 -0.17154604113E+02  0.13102333616E+03  0.13364970594E+03  0.00000000000E+00 0.  1.
         -1    1    1    2    0  501  0.20021209663E+02  0.17154604113E+02  0.30117784118E+03  0.30232965666E+03  0.00000000000E+00 0. -1.
</event>
<event>
 4    1  0.6740123E+001  0.2413790E+02  0.7546771E-02  0.1478683E+00
          2   -1    0    0  502    0  0.00000000000E+00  0.00000000000E+00  0.79742643779E+03  0.79742643779E+03  0.00000000000E+00 0. -1.
         -2   -1    0    0    0  501 -0.00000000000E+00 -0.00000000000E+00 -0.10681815309E+01  0.10681815309E+01  0.00000000000E+00 0.  1.
          1    1    1    2  502    0  0.93262378496E+00  0.24119874584E+02  0.62260754319E+03  0.62307526911E+03  0.00000000000E+00 0. -1.
         -1    1    1    2    0  501 -0.93262378496E+00 -0.24119874584E+02  0.17375071307E+03  0.17541935021E+03  0.00000000000E+00 0.  1.
</event>
<event>
 4    1  0.6740123E+001  0.2188817E+02  0.7546771E-02  0.1506952E+00
          2   -1    0    0  502    0  0.00000000000E+00  0.00000000000E+00  0.47430424577E+03  0.47430424577E+03  0.00000000000E+00 0. -1.
         -2   -1    0    0    0  501 -0.00000000000E+00 -0.00000000000E+00 -0.11444375271E+01  0.11444375271E+01  0.00000000000E+00 0.  1.
          1    1    1    2  502    0 -0.20040287592E+02  0.88022014823E+01  0.15513086508E+03  0.15666740944E+03  0.00000000000E+00 0.  1.
         -1    1    1    2    0  501  0.20040287592E+02 -0.88022014823E+01  0.31802894316E+03  0.31878127386E+03  0.00000000000E+00 0. -1.
</event>
<event>
 4    1  0.6740123E+001  0.2012656E+02  0.7546771E-02  0.1532110E+00
          2   -1    0    0  502    0  0.00000000000E+00  0.00000000000E+00  0.27002401231E+02  0.27002401231E+02  0.00000000000E+00 0.  1.
         -2   -1    0    0    0  501 -0.00000000000E+00 -0.00000000000E+00 -0.15201670905E+02  0.15201670905E+02  0.00000000000E+00 0. -1.
          1    1    1    2  502    0  0.28529835231E+01  0.19923330409E+02  0.83213679758E+01  0.21778975517E+02  0.00000000000E+00 0.  1.
         -1    1    1    2    0  501 -0.28529835231E+01 -0.19923330409E+02  0.34793623505E+01  0.20425096620E+02  0.00000000000E+00 0. -1.
</event>
<event>
 4    1  0.6740123E+001  0.2189446E+02  0.7546771E-02  0.1506867E+00
          2   -1    0    0  502    0  0.00000000000E+00  0.00000000000E+00  0.94831282417E+03  0.94831282417E+03  0.00000000000E+00 0. -1.
         -2   -1    0    0    0  501 -0.00000000000E+00 -0.00000000000E+00 -0.10609777657E+01  0.10609777657E+01  0.00000000000E+00 0.  1.
          1    1    1    2  502    0 -0.14978283069E+02 -0.15969297133E+02  0.81709638262E+03  0.81738966589E+03  0.00000000000E+00 0. -1.
         -1    1    1    2    0  501  0.14978283069E+02  0.15969297133E+02  0.13015546379E+03  0.13198413605E+03  0.00000000000E+00 0.  1.
</event>
<event>
 4    1  0.6740123E+001  0.2180521E+02  0.7546771E-02  0.1508072E+00
          2   -1    0    0  502    0  0.00000000000E+00  0.00000000000E+00  0.70710768448E+01  0.70710768448E+01  0.00000000000E+00 0. -1.
         -2   -1    0    0    0  501 -0.00000000000E+00 -0.00000000000E+00 -0.68089765131E+02  0.68089765131E+02  0.00000000000E+00 0.  1.
          1    1    1    2  502    0 -0.88168901553E+01 -0.19943158755E+02 -0.26313845840E+02  0.34174341487E+02  0.00000000000E+00 0.  1.
         -1    1    1    2    0  501  0.88168901553E+01  0.19943158755E+02 -0.34704842446E+02  0.40986500489E+02  0.00000000000E+00 0. -1.
</event>
<event>
 4    1  0.6740123E+001  0.4112400E+02  0.7546771E-02  0.1342022E+00
          2   -1    0    0  502    0  0.00000000000E+00  0.00000000000E+00  0.49262037107E+01  0.49262037107E+01  0.00000000000E+00 0.  1.
         -2   -1    0    0    0  501 -0.00000000000E+00 -0.00000000000E+00 -0.38694067539E+03  0.38694067539E+03  0.00000000000E+00 0. -1.
          1    1    1    2  502    0 -0.35723405186E+02  0.20372078053E+02 -0.25680549689E+03  0.26007738555E+03  0.00000000000E+00 0. -1.
         -1    1    1    2    0  501  0.35723405186E+02 -0.20372078053E+02 -0.12520897479E+03  0.13178949355E+03  0.00000000000E+00 0.  1.
</event>
<event>
 4    1  0.6740123E+001  0.2137435E+02  0.7546771E-02  0.1513987E+00
          2   -1    0    0  502    0  0.00000000000E+00  0.00000000000E+00  0.52570418242E+03  0.52570418242E+03  0.00000000000E+00 0. -1.
         -2   -1    0    0    0  501 -0.00000000000E+00 -0.00000000000E+00 -0.89096210331E+00  0.89096210331E+00  0.00000000000E+00 0.  1.
          1    1    1    2  502    0 -0.19215238365E+02 -0.93614934791E+01  0.30369846956E+03  0.30444970579E+03  0.00000000000E+00 0.  1.
         -1    1    1    2    0  501  0.19215238365E+02  0.93614934791E+01  0.22111475075E+03  0.22214543872E+03  0.00000000000E+00 0. -1.
</event>
<event>
 4    1  0.6740123E+001  0.2928864E+02  0.7546771E-02  0.1425880E+00
          2   -1    0    0  502    0  0.00000000000E+00  0.00000000000E+00  0.22391929772E+03  0.22391929772E+03  0.00000000000E+00 0. -1.
         -2   -1    0    0    0  501 -0.00000000000E+00 -0.00000000000E+00 -0.49422973024E+01  0.49422973024E+01  0.00000000000E+00 0.  1.
          1    1    1    2  502    0 -0.29154265596E+02 -0.28024013027E+01  0.16375133763E+03  0.16635000821E+03  0.00000000000E+00 0.  1.
         -1    1    1    2    0  501  0.29154265596E+02  0.28024013027E+01  0.55225662783E+02  0.62511586809E+02  0.00000000000E+00 0. -1.
</event>
<event>
 4    1  0.6740123E+001  0.4943174E+02  0.7546771E-02  0.1300655E+00
          2   -1    0    0  502    0  0.00000000000E+00  0.00000000000E+00  0.88454541093E+03  0.88454541093E+03  0.00000000000E+00 0.  1.
         -2   -1    0    0    0  501 -0.00000000000E+00 -0.00000000000E+00 -0.27816356493E+01  0.27816356493E+01  0.00000000000E+00 0. -1.
          1    1    1    2  502    0  0.20207501472E+02  0.45112681985E+02  0.40401917718E+03  0.40703193084E+03  0.00000000000E+00 0. -1.
         -1    1    1    2    0  501 -0.20207501472E+02 -0.45112681985E+02  0.47774459810E+03  0.48029511575E+03  0.00000000000E+00 0.  1.
</event>
<event>
 4    1  0.6740123E+001  0.2576514E+02  0.7546771E-02  0.1460423E+00
          2   -1    0    0  502    0  0.00000000000E+00  0.00000000000E+00  0.35212763485E+01  0.35212763485E+01  0.00000000000E+00 0.  1.
         -2   -1    0    0    0  501 -0.00000000000E+00 -0.00000000000E+00 -0.19144043764E+03  0.19144043764E+03  0.00000000000E+00 0. -1.
          1    1    1    2  502    0 -0.25305969797E+02  0.48425597172E+01 -0.81926300315E+02  0.85882251806E+02  0.00000000000E+00 0. -1.
         -1    1    1    2    0  501  0.25305969797E+02 -0.48425597172E+01 -0.10599286097E+03  0.10907946218E+03  0.00000000000E+00 0.  1.
</event>
<event>
 4    1  0.6740123E+001  0.2159468E+02  0.7546771E-02  0.1510941E+00
          2   -1    0    0  502    0  0.00000000000E+00  0.00000000000E+00  0.68464812061E+03  0.68464812061E+03  0.00000000000E+00 0.  1.
         -2   -1    0    0    0  501 -0.00000000000E+00 -0.00000000000E+00 -0.10057179091E+01  0.10057179091E+01  0.00000000000E+00 0. -1.
          1    1    1    2  502    0 -0.21413920062E+02  0.27882377913E+01  0.14705794337E+03  0.14863501926E+03  0.00000000000E+00 0. -1.
         -1    1    1    2    0  501  0.21413920062E+02 -0.27882377913E+01  0.53658445932E+03  0.53701881925E+03  0.00000000000E+00 0.  1.
</event>
<event>
 4    1  0.6740123E+001  0.3751623E+02  0.7546771E-02  0.1363689E+00
          2   -1    0    0  502    0  0.00000000000E+00  0.00000000000E+00  0.18095046217E+04  0.18095046217E+04  0.00000000000E+00 0. -1.
         -2   -1    0    0    0  501 -0.00000000000E+00 -0.00000000000E+00 -0.15165191948E+01  0.15165191948E+01  0.00000000000E+00 0.  1.
          1    1    1    2  502    0  0.36948468411E+02 -0.65021675902E+01  0.27201365602E+03  0.27458859511E+03  0.00000000000E+00 0.  1.
         -1    1    1    2    0  501 -0.36948468411E+02  0.65021675902E+01  0.15359744465E+04  0.15364325458E+04  0.00000000000E+00 0. -1.
</event>
<event>
 4    1  0.6740123E+001  0.7084410E+02  0.7546771E-02  0.1226864E+00
          2   -1    0    0  502    0  0.00000000000E+00  0.00000000000E+00  0.13765427235E+03  0.13765427235E+03  0.00000000000E+00 0. -1.
         -2   -1    0    0    0  501 -0.00000000000E+00 -0.00000000000E+00 -0.36526370246E+02  0.36526370246E+02  0.00000000000E+00 0.  1.
          1    1    1    2  502    0  0.64422106718E+02  0.29473343632E+02  0.54274093412E+02  0.89244400578E+02  0.00000000000E+00 0.  1.
         -1    1    1    2    0  501 -0.64422106718E+02 -0.29473343632E+02  0.46853808689E+02  0.84936242014E+02  0.00000000000E+00 0. -1.
</event>
<event>
 4    1  0.6740123E+001  0.2763979E+02  0.7546771E-02  0.1441285E+00
          2   -1    0    0  502    0  0.00000000000E+00  0.00000000000E+00  0.28978284426E+01  0.28978284426E+01  0.00000000000E+00 0. -1.
         -2   -1    0    0    0  501 -0.00000000000E+00 -0.00000000000E+00 -0.36149814853E+03  0.36149814853E+03  0.00000000000E+00 0.  1.
          1    1    1    2  502    0  0.39973122009E+01  0.27349218174E+02 -0.27410016752E+03  0.27549021775E+03  0.00000000000E+00 0.  1.
         -1    1    1    2    0  501 -0.39973122009E+01 -0.27349218174E+02 -0.84500152562E+02  0.88905759220E+02  0.00000000000E+00 0. -1.
</event>
<event>
 4    1  0.6740123E+001  0.2396845E+02  0.7546771E-02  0.1480683E+00
          2   -1    0    0  502    0  0.00000000000E+00  0.00000000000E+00  0.76673676227E+02  0.76673676227E+02  0.00000000000E+00 0. -1.
         -2   -1    0    0    0  501 -0.00000000000E+00 -0.00000000000E+00 -0.14561221981E+02  0.14561221981E+02  0.00000000000E+00 0.  1.
          1    1    1    2  502    0 -0.15427720747E+02  0.18343179174E+02 -0.72706071513E+00  0.23979478871E+02  0.00000000000E+00 0.  1.
         -1    1    1    2    0  501  0.15427720747E+02 -0.18343179174E+02  0.62839514961E+02  0.67255419337E+02  0.00000000000E+00 0. -1.
</event>
<event>
 4    1  0.6740123E+001  0.2771421E+02  0.7546771E-02  0.1440563E+00
          2   -1    0    0  502    0  0.00000000000E+00  0.00000000000E+00  0.39629277670E+03  0.39629277670E+03  0.00000000000E+00 0.  1.
         -2   -1    0    0    0  501 -0.00000000000E+00 -0.00000000000E+00 -0.21548440844E+01  0.21548440844E+01  0.00000000000E+00 0. -1.
          1    1    1    2  502    0  0.15650466401E+02 -0.22872261516E+02  0.13389323632E+03  0.13673140158E+03  0.00000000000E+00 0.  1.
         -1    1    1    2    0  501 -0.15650466401E+02  0.22872261516E+02  0.26024469629E+03  0.26171621920E+03  0.00000000000E+00 0. -1.
</event>
<event>
 4    1  0.6740123E+001  0.4653332E+02  0.7546771E-02  0.1313945E+00
          2   -1    0    0  502    0  0.00000000000E+00  0.00000000000E+00  0.10424157221E+03  0.10424157221E+03  0.00000000000E+00 0. -1.
         -2   -1    0    0    0  501 -0.00000000000E+00 -0.00000000000E+00 -0.31719578687E+02  0.31719578687E+02  0.00000000000E+00 0.  1.
          1    1    1    2  502    0 -0.30904539199E+02  0.34788782575E+02 -0.36756683893E+01  0.46678265545E+02  0.00000000000E+00 0.  1.
         -1    1    1    2    0  501  0.30904539199E+02 -0.34788782575E+02  0.76197661917E+02  0.89282885357E+02  0.00000000000E+00 0. -1.
</event>
<event>
 4    1  0.6740123E+001  0.2586883E+02  0.7546771E-02  0.1459314E+00
          2   -1    0    0  502    0  0.00000000000E+00  0.00000000000E+00  0.33854526925E+03  0.33854526925E+03  0.00000000000E+00 0. -1.
         -2   -1    0    0    0  501 -0.00000000000E+00 -0.00000000000E+00 -0.30840667461E+01  0.30840667461E+01  0.00000000000E+00 0.  1.
          1    1    1    2  502    0  0.25849563629E+02  0.99831423905E+00  0.65374811994E+02  0.70306917258E+02  0.00000000000E+00 0.  1.
         -1    1    1    2    0  501 -0.25849563629E+02 -0.99831423905E+00  0.27008639051E+03  0.27132241873E+03  0.00000000000E+00 0. -1.
</event>
<event>
 4    1  0.6740123E+001  0.2636884E+02  0.7546771E-02  0.1454053E+00
          2   -1    0    0  502    0  0.00000000000E+00  0.00000000000E+00  0.19277627110E+01  0.19277627110E+01  0.00000000000E+00 0. -1.
         -2   -1    0    0    0  501 -0.00000000000E+00 -0.00000000000E+00 -0.39496270272E+03  0.39496270272E+03  0.00000000000E+00 0.  1.
          1    1    1    2  502    0  0.26358817160E+02 -0.72690973896E+00 -0.25497852999E+03  0.25633838260E+03  0.00000000000E+00 0.  1.
         -1    1    1    2    0  501 -0.26358817160E+02  0.72690973896E+00 -0.13805641002E+03  0.14055208283E+03  0.00000000000E+00 0. -1.
</event>
<event>
 4    1  0.6740123E+001  0.2078286E+02  0.7546771E-02  0.1522388E+00
          2   -1    0    0  502    0  0.00000000000E+00  0.00000000000E+00  0.46325508947E+01  0.46325508947E+01  0.00000000000E+00 0. -1.
         -2   -1    0    0    0  501 -0.00000000000E+00 -0.00000000000E+00 -0.93239533162E+02  0.93239533162E+02  0.00000000000E+00 0.  1.
          1    1    1    2  502    0 -0.20557740178E+02 -0.30506701746E+01 -0.44534351430E+02  0.49145047838E+02  0.00000000000E+00 0. -1.
         -1    1    1    2    0  501  0.20557740178E+02  0.30506701746E+01 -0.44072630837E+02  0.48727036219E+02  0.00000000000E+00 0.  1.
</event>
<event>
 4    1  0.6740123E+001  0.3118224E+02  0.7546771E-02  0.1409594E+00
          2   -1    0    0  502    0  0.00000000000E+00  0.00000000000E+00  0.24083380292E+03  0.24083380292E+03  0.00000000000E+00 0. -1.
         -2   -1    0    0    0  501 -0.00000000000E+00 -0.00000000000E+00 -0.60610132410E+01  0.60610132410E+01  0.00000000000E+00 0.  1.
          1    1    1    2  502    0  0.70520820727E+01 -0.30374330133E+02  0.18871731724E+03  0.19127612925E+03  0.00000000000E+00 0. -1.
         -1    1    1    2    0  501 -0.70520820727E+01  0.30374330133E+02  0.46055472433E+02  0.55618686910E+02  0.00000000000E+00 0.  1.
</event>
<event>
 4    1  0.6740123E+001  0.2041424E+02  0.7546771E-02  0.1527795E+00
          2   -1    0    0  502    0  0.00000000000E+00  0.00000000000E+00  0.42260023914E+03  0.42260023914E+03  0.00000000000E+00 0.  1.
         -2   -1    0    0    0  501 -0.00000000000E+00 -0.00000000000E+00 -0.11224254975E+01  0.11224254975E+01  0.00000000000E+00 0. -1.
          1    1    1    2  502    0  0.12781870450E+02 -0.15917443898E+02  0.13691374247E+03  0.13842728816E+03  0.00000000000E+00 0. -1.
         -1    1    1    2    0  501 -0.12781870450E+02  0.15917443898E+02  0.28456407117E+03  0.28529537647E+03  0.00000000000E+00 0.  1.
</event>
<event>
 4    1  0.6740123E+001  0.2137521E+02  0.7546771E-02  0.1513975E+00
          2   -1    0    0  502    0  0.00000000000E+00  0.00000000000E+00  0.92925748851E+00  0.92925748851E+00  0.00000000000E+00 0. -1.
         -2   -1    0    0    0  501 -0.00000000000E+00 -0.00000000000E+00 -0.61710831906E+03  0.61710831906E+03  0.00000000000E+00 0.  1.
          1    1    1    2  502    0 -0.68406940973E+01  0.20251037376E+02 -0.44740448033E+03  0.44791480064E+03  0.00000000000E+00 0. -1.
         -1    1    1    2    0  501  0.68406940973E+01 -0.20251037376E+02 -0.16877458124E+03  0.17012277591E+03  0.00000000000E+00 0.  1.
</event>
<event>
 4    1  0.6740123E+001  0.2192661E+02  0.7546771E-02  0.1506435E+00
          2   -1    0    0  502    0  0.00000000000E+00  0.00000000000E+00  0.16119186012E+01  0.16119186012E+01  0.00000000000E+00 0. -1.
         -2   -1    0    0    0  501 -0.00000000000E+00 -0.00000000000E+00 -0.31642099899E+03  0.31642099899E+03  0.00000000000E+00 0.  1.
          1    1    1    2  502    0  0.18572222392E+02 -0.11655422413E+02 -0.11931210948E+03  0.12131016357E+03  0.00000000000E+00 0. -1.
         -1    1    1    2    0  501 -0.18572222392E+02  0.11655422413E+02 -0.19549697091E+03  0.19672275403E+03  0.00000000000E+00 0.  1.
</event>
<event>
 4    1  0.6740123E+001  0.2072140E+02  0.7546771E-02  0.1523280E+00
          2   -1    0    0  502    0  0.00000000000E+00  0.00000000000E+00  0.20687867114E+02  0.20687867114E+02  0.00000000000E+00 0. -1.
         -2   -1    0    0    0  501 -0.00000000000E+00 -0.00000000000E+00 -0.32995890034E+02  0.32995890034E+02  0.00000000000E+00 0.  1.
          1    1    1    2  502    0 -0.15610381959E+02 -0.13626895709E+02  0.10194936049E+02  0.23093571240E+02  0.00000000000E+00 0. -1.
         -1    1    1    2    0  501  0.15610381959E+02  0.13626895709E+02 -0.22502958969E+02  0.30590185908E+02  0.00000000000E+00 0.  1.
</event>
<event>
 4    1  0.6740123E+001  0.2764937E+02  0.7546771E-02  0.1441192E+00
          2   -1    0    0  502    0  0.00000000000E+00  0.00000000000E+00  0.79060987185E+03  0.79060987185E+03  0.00000000000E+00 0.  1.
         -2   -1    0    0    0  501 -0.00000000000E+00 -0.00000000000E+00 -0.12322719001E+01  0.12322719001E+01  0.00000000000E+00 0. -1.
          1    1    1    2  502    0  0.26326581105E+02 -0.84497837070E+01  0.57839936271E+03  0.57905985053E+03  0.00000000000E+00 0.  1.
         -1    1    1    2    0  501 -0.26326581105E+02  0.84497837070E+01  0.21097823724E+03  0.21278229322E+03  0.00000000000E+00 0. -1.
</event>
<event>
 4    1  0.6740123E+001  0.3309051E+02  0.7546771E-02  0.1394508E+00
          2   -1    0    0  502    0  0.00000000000E+00  0.00000000000E+00  0.19399298179E+03  0.19399298179E+03  0.00000000000E+00 0. -1.
         -2   -1    0    0    0  501 -0.00000000000E+00 -0.00000000000E+00 -0.78564323266E+01  0.78564323266E+01  0.00000000000E+00 0.  1.
          1    1    1    2  502    0 -0.59790100369E+01 -0.32545866608E+02  0.14662037313E+03  0.15030806968E+03  0.00000000000E+00 0. -1.
         -1    1    1    2    0  501  0.59790100369E+01  0.32545866608E+02  0.39516176335E+02  0.51541344437E+02  0.00000000000E+00 0.  1.
</event>
<event>
 4    1  0.6740123E+001  0.2153003E+02  0.7546771E-02  0.1511830E+00
          2   -1    0    0  502    0  0.00000000000E+00  0.00000000000E+00  0.86594973500E+03  0.86594973500E+03  0.00000000000E+00 0. -1.
         -2   -1    0    0    0  501 -0.00000000000E+00 -0.00000000000E+00 -0.53697162256E+00  0.53697162256E+00  0.00000000000E+00 0.  1.
          1    1    1    2  502    0  0.19688123738E+02  0.87132069478E+01  0.45688494882E+03  0.45739195298E+03  0.00000000000E+00 0. -1.
         -1    1    1    2    0  501 -0.19688123738E+02 -0.87132069478E+01  0.40852781456E+03  0.40909475365E+03  0.00000000000E+00 0.  1.
</event>
<event>
 4    1  0.6740123E+001  0.2513326E+02  0.7546771E-02  0.1467318E+00
          2   -1    0    0  502    0  0.00000000000E+00  0.00000000000E+00  0.20112270195E+04  0.20112270195E+04  0.00000000000E+00 0.  1.
         -2   -1    0    0    0  501 -0.00000000000E+00 -0.00000000000E+00 -0.31515464871E+00  0.31515464871E+00  0.00000000000E+00 0. -1.
          1    1    1    2  502    0  0.18495517141E+02 -0.17017539521E+02  0.94665150098E+03  0.94698508178E+03  0.00000000000E+00 0.  1.
         -1    1    1    2    0  501 -0.18495517141E+02  0.17017539521E+02  0.10642603638E+04  0.10645570923E+04  0.00000000000E+00 0. -1.
</event>
<event>
 4    1  0.6740123E+001  0.2689877E+02  0.7546771E-02  0.1448628E+00
          2   -1    0    0  502    0  0.00000000000E+00  0.00000000000E+00  0.29485520730E+02  0.29485520730E+02  0.00000000000E+00 0. -1.
         -2   -1    0    0    0  501 -0.00000000000E+00 -0.00000000000E+00 -0.25263453433E+02  0.25263453433E+02  0.00000000000E+00 0.  1.
          1    1    1    2  502    0  0.11067848946E+02 -0.24516254526E+02 -0.25246824750E+01  0.27016995352E+02  0.00000000000E+00 0.  1.
         -1    1    1    2    0  501 -0.11067848946E+02  0.24516254526E+02  0.67467497726E+01  0.27731978811E+02  0.00000000000E+00 0. -1.
</event>
<event>
 4    1  0.6740123E+001  0.2145813E+02  0.7546771E-02  0.1512823E+00
          2   -1    0    0  502    0  0.00000000000E+00  0.00000000000E+00  0.98325046566E+01  0.98325046566E+01  0.00000000000E+00 0.  1.
         -2   -1    0    0    0  501 -0.00000000000E+00 -0.00000000000E+00 -0.53752723152E+02  0.53752723152E+02  0.00000000000E+00 0. -1.
          1    1    1    2  502    0  0.77219669171E+01 -0.20020548413E+02 -0.33369977458E+02  0.39673751113E+02  0.00000000000E+00 0.  1.
         -1    1    1    2    0  501 -0.77219669171E+01  0.20020548413E+02 -0.10550241037E+02  0.23911476696E+02  0.00000000000E+00 0. -1.
</event>
<event>
 4    1  0.6740123E+001  0.2135557E+02  0.7546771E-02  0.1514248E+00
          2   -1    0    0  502    0  0.00000000000E+00  0.00000000000E+00  0.39860442959E+03  0.39860442959E+03  0.00000000000E+00 0.  1.
         -2   -1    0    0    0  501 -0.00000000000E+00 -0.00000000000E+00 -0.11519865641E+01  0.11519865641E+01  0.00000000000E+00 0. -1.
          1    1    1    2  502    0 -0.21161847024E+02 -0.28699308782E+01  0.18223275205E+03  0.18347979778E+03  0.00000000000E+00 0. -1.
         -1    1    1    2    0  501  0.21161847024E+02  0.28699308782E+01  0.21521969098E+03  0.21627661838E+03  0.00000000000E+00 0.  1.
</event>
<event>
 4    1  0.6740123E+001  0.2002516E+02  0.7546771E-02  0.1533651E+00
          2   -1    0    0  502    0  0.00000000000E+00  0.00000000000E+00  0.31264640583E+02  0.31264640583E+02  0.00000000000E+00 0. -1.
         -2   -1    0    0    0  501 -0.00000000000E+00 -0.00000000000E+00 -0.15238974661E+02  0.15238974661E+02  0.00000000000E+00 0.  1.
          1    1    1    2  502    0 -0.20010481872E+02 -0.76660156606E+00  0.17264834676E+02  0.26440150890E+02  0.00000000000E+00 0.  1.
         -1    1    1    2    0  501  0.20010481872E+02  0.76660156606E+00 -0.12391687538E+01  0.20063464354E+02  0.00000000000E+00 0. -1.
</event>
<event>
 4    1  0.6740123E+001  0.3210340E+02  0.7546771E-02  0.1402157E+00
          2   -1    0    0  502    0  0.00000000000E+00  0.00000000000E+00  0.65630749759E+02  0.65630749759E+02  0.00000000000E+00 0.  1.
         -2   -1    0    0    0  501 -0.00000000000E+00 -0.00000000000E+00 -0.17358962788E+02  0.17358962788E+02  0.00000000000E+00 0. -1.
          1    1    1    2  502    0 -0.32101487250E+02  0.35045441570E+00  0.36950357263E+02  0.48948515849E+02  0.00000000000E+00 0. -1.
         -1    1    1    2    0  501  0.32101487250E+02 -0.35045441570E+00  0.11321429707E+02  0.34041196697E+02  0.00000000000E+00 0.  1.
</event>
<event>
 4    1  0.6740123E+001  0.3011855E+02  0.7546771E-02  0.1418569E+00
          2   -1    0    0  502    0  0.00000000000E+00  0.00000000000E+00  0.68053736967E+03  0.68053736967E+03  0.00000000000E+00 0. -1.
         -2   -1    0    0    0  501 -0.00000000000E+00 -0.00000000000E+00 -0.16388015517E+01  0.16388015517E+01  0.00000000000E+00 0.  1.
          1    1    1    2  502    0  0.29790379982E+02  0.44340215769E+01  0.48680042199E+03  0.48773125606E+03  0.00000000000E+00 0. -1.
         -1    1    1    2    0  501 -0.29790379982E+02 -0.44340215769E+01  0.19209814612E+03  0.19444491516E+03  0.00000000000E+00 0.  1.
</event>
<event>
 4    1  0.6740123E+001  0.2975184E+02  0.7546771E-02  0.1421765E+00
          2   -1    0    0  502    0  0.00000000000E+00  0.00000000000E+00  0.10277708955E+04  0.10277708955E+04  0.00000000000E+00 0. -1.
         -2   -1    0    0    0  501 -0.00000000000E+00 -0.00000000000E+00 -0.99646196760E+00  0.99646196760E+00  0.00000000000E+00 0.  1.
          1    1    1    2  502    0 -0.29237834570E+02  0.55064646869E+01  0.70286462904E+03  0.70349403614E+03  0.00000000000E+00 0.  1.
         -1    1    1    2    0  501  0.29237834570E+02 -0.55064646869E+01  0.32390980450E+03  0.32527332134E+03  0.00000000000E+00 0. -1.
</event>
<event>
 4    1  0.6740123E+001  0.2893225E+02  0.7546771E-02  0.1429108E+00
          2   -1    0    0  502    0  0.00000000000E+00  0.00000000000E+00  0.21291455321E+03  0.21291455321E+03  0.00000000000E+00 0.  1.
         -2   -1    0    0    0  501 -0.00000000000E+00 -0.00000000000E+00 -0.52563504437E+01  0.52563504437E+01  0.00000000000E+00 0. -1.
          1    1    1    2  502    0 -0.24560310868E+02 -0.15292685229E+02  0.49063617138E+02  0.56958876553E+02  0.00000000000E+00 0. -1.
         -1    1    1    2    0  501  0.24560310868E+02  0.15292685229E+02  0.15859458563E+03  0.16121202711E+03  0.00000000000E+00 0.  1.
</event>
<event>
 4    1  0.6740123E+001  0.2149598E+02  0.7546771E-02  0.1512300E+00
          2   -1    0    0  502    0  0.00000000000E+00  0.00000000000E+00  0.40970694212E+03  0.40970694212E+03  0.00000000000E+00 0.  1.
         -2   -1    0    0    0  501 -0.00000000000E+00 -0.00000000000E+00 -0.13935255151E+01  0.13935255151E+01  0.00000000000E+00 0. -1.
          1    1    1    2  502    0 -0.21448345633E+02  0.14302037010E+01  0.11440181293E+03  0.11640383075E+03  0.00000000000E+00 0. -1.
         -1    1    1    2    0  501  0.21448345633E+02 -0.14302037010E+01  0.29391160368E+03  0.29469663688E+03  0.00000000000E+00 0.  1.
</event>
<event>
 4    1  0.6740123E+001  0.5451498E+02  0.7546771E-02  0.1279700E+00
          2   -1    0    0  502    0  0.00000000000E+00  0.00000000000E+00  0.25658469346E+02  0.25658469346E+02  0.00000000000E+00 0.  1.
         -2   -1    0    0    0  501 -0.00000000000E+00 -0.00000000000E+00 -0.13979566226E+03  0.13979566226E+03  0.00000000000E+00 0. -1.
          1    1    1    2  502    0  0.11010870013E+02  0.53391417554E+02 -0.91325187114E+02  0.10635869747E+03  0.00000000000E+00 0. -1.
         -1    1    1    2    0  501 -0.11010870013E+02 -0.53391417554E+02 -0.22812005805E+02  0.59095434136E+02  0.00000000000E+00 0.  1.
</event>
<event>
 4    1  0.6740123E+001  0.2119803E+02  0.7546771E-02  0.1516456E+00
          2   -1    0    0  502    0  0.00000000000E+00  0.00000000000E+00  0.34074915233E+03  0.34074915233E+03  0.00000000000E+00 0.  1.
         -2   -1    0    0    0  501 -0.00000000000E+00 -0.00000000000E+00 -0.23128857867E+01  0.23128857867E+01  0.00000000000E+00 0. -1.
          1    1    1    2  502    0 -0.19710602845E+02  0.78005474654E+01  0.56759546959E+02  0.60588799099E+02  0.00000000000E+00 0. -1.
         -1    1    1    2    0  501  0.19710602845E+02 -0.78005474654E+01  0.28167671958E+03  0.28247323901E+03  0.00000000000E+00 0.  1.
</event>
<event>
 4    1  0.6740123E+001  0.2722209E+02  0.7546771E-02  0.1445390E+00
          2   -1    0    0  502    0  0.00000000000E+00  0.00000000000E+00  0.94743389099E+03  0.94743389099E+03  0.00000000000E+00 0.  1.
         -2   -1    0    0    0  501 -0.00000000000E+00 -0.00000000000E+00 -0.22753192359E+01  0.22753192359E+01  0.00000000000E+00 0. -1.
          1    1    1    2  502    0  0.16057694393E+02 -0.21981649221E+02  0.87905207475E+02  0.92023735812E+02  0.00000000000E+00 0. -1.
         -1    1    1    2    0  501 -0.16057694393E+02  0.21981649221E+02  0.85725336427E+03  0.85768547441E+03  0.00000000000E+00 0.  1.
</event>
<event>
 4    1  0.6740123E+001  0.2256536E+02  0.7546771E-02  0.1498029E+00
          2   -1    0    0  502    0  0.00000000000E+00  0.00000000000E+00  0.10570062292E+02  0.10570062292E+02  0.00000000000E+00 0. -1.
         -2   -1    0    0    0  501 -0.00000000000E+00 -0.00000000000E+00 -0.80630554722E+02  0.80630554722E+02  0.00000000000E+00 0.  1.
          1    1    1    2  502    0 -0.22506011299E+02  0.16354759670E+01 -0.63961916319E+02  0.67825674088E+02  0.00000000000E+00 0.  1.
         -1    1    1    2    0  501  0.22506011299E+02 -0.16354759670E+01 -0.60985761113E+01  0.23374942926E+02  0.00000000000E+00 0. -1.
</event>
<event>
 4    1  0.6740123E+001  0.2656509E+02  0.7546771E-02  0.1452026E+00
          2   -1    0    0  502    0  0.00000000000E+00  0.00000000000E+00  0.58585660811E+03  0.58585660811E+03  0.00000000000E+00 0.  1.
         -2   -1    0    0    0  501 -0.00000000000E+00 -0.00000000000E+00 -0.12051652717E+01  0.12051652717E+01  0.00000000000E+00 0. -1.
          1    1    1    2  502    0 -0.28123252235E-02  0.26565089048E+02  0.28578967834E+03  0.28702167899E+03  0.00000000000E+00 0.  1.
         -1    1    1    2    0  501  0.28123252235E-02 -0.26565089048E+02  0.29886176450E+03  0.30004009440E+03  0.00000000000E+00 0. -1.
</event>
<event>
 4    1  0.6740123E+001  0.8254624E+02  0.7546771E-02  0.1198057E+00
          2   -1    0    0  502    0  0.00000000000E+00  0.00000000000E+00  0.88434841225E+03  0.88434841225E+03  0.00000000000E+00 0.  1.
         -2   -1    0    0    0  501 -0.00000000000E+00 -0.00000000000E+00 -0.12640816989E+02  0.12640816989E+02  0.00000000000E+00 0. -1.
          1    1    1    2  502    0 -0.16016529259E+02  0.80977483975E+02  0.15560077904E+03  0.17614052503E+03  0.00000000000E+00 0. -1.
         -1    1    1    2    0  501  0.16016529259E+02 -0.80977483975E+02  0.71610681622E+03  0.72084870420E+03  0.00000000000E+00 0.  1.
</event>
<event>
 4    1  0.6740123E+001  0.2531725E+02  0.7546771E-02  0.1465285E+00
          2   -1    0    0  502    0  0.00000000000E+00  0.00000000000E+00  0.52359650256E+03  0.52359650256E+03  0.00000000000E+00 0.  1.
         -2   -1    0    0    0  501 -0.00000000000E+00 -0.00000000000E+00 -0.30149460871E+01  0.30149460871E+01  0.00000000000E+00 0. -1.
          1    1    1    2  502    0  0.13359242178E+00 -0.25316893414E+02  0.57362268575E+02  0.62700819732E+02  0.00000000000E+00 0. -1.
         -1    1    1    2    0  501 -0.13359242178E+00  0.25316893414E+02  0.46321928790E+03  0.46391062891E+03  0.00000000000E+00 0.  1.
</event>
<event>
 4    1  0.6740123E+001  0.6739933E+02  0.7546771E-02  0.1236572E+00
          2   -1    0    0  502    0  0.00000000000E+00  0.00000000000E+00  0.33528764384E+04  0.33528764384E+04  0.00000000000E+00 0. -1.
         -2   -1    0    0    0  501 -0.00000000000E+00 -0.00000000000E+00 -0.13820787306E+01  0.13820787306E+01  0.00000000000E+00 0.  1.
          1    1    1    2  502    0 -0.58156972955E+02 -0.34065174170E+02  0.19111190098E+04  0.19123071247E+04  0.00000000000E+00 0. -1.
         -1    1    1    2    0  501  0.58156972955E+02  0.34065174170E+02  0.14403753499E+04  0.14419513925E+04  0.00000000000E+00 0.  1.
</event>
<event>
 4    1  0.6740123E+001  0.2281663E+02  0.7546771E-02  0.1494814E+00
          2   -1    0    0  502    0  0.00000000000E+00  0.00000000000E+00  0.12510291747E+04  0.12510291747E+04  0.00000000000E+00 0.  1.
         -2   -1    0    0    0  501 -0.00000000000E+00 -0.00000000000E+00 -0.94261670175E+00  0.94261670175E+00  0.00000000000E+00 0. -1.
          1    1    1    2  502    0 -0.90754199705E+01 -0.20934072307E+02  0.10928733075E+04  0.10931114604E+04  0.00000000000E+00 0.  1.
         -1    1    1    2    0  501  0.90754199705E+01  0.20934072307E+02  0.15721325051E+03  0.15886033100E+03  0.00000000000E+00 0. -1.
</event>
<event>
 4    1  0.6740123E+001  0.2752459E+02  0.7546771E-02  0.1442409E+00
          2   -1    0    0  502    0  0.00000000000E+00  0.00000000000E+00  0.93824871275E+02  0.93824871275E+02  0.00000000000E+00 0. -1.
         -2   -1    0    0    0  501 -0.00000000000E+00 -0.00000000000E+00 -0.28704125197E+02  0.28704125197E+02  0.00000000000E+00 0.  1.
          1    1    1    2  502    0  0.40575168299E+01  0.27223875777E+02 -0.19377101589E+02  0.33661178249E+02  0.00000000000E+00 0.  1.
         -1    1    1    2    0  501 -0.40575168299E+01 -0.27223875777E+02  0.84497847667E+02  0.88867818222E+02  0.00000000000E+00 0. -1.
</event>
<event>
 4    1  0.6740123E+001  0.3194796E+02  0.7546771E-02  0.1403391E+00
          2   -1    0    0  502    0  0.00000000000E+00  0.00000000000E+00  0.10461225786E+04  0.10461225786E+04  0.00000000000E+00 0. -1.
         -2   -1    0    0    0  501 -0.00000000000E+00 -0.00000000000E+00 -0.10135149218E+01  0.10135149218E+01  0.00000000000E+00 0.  1.
          1    1    1    2  502    0 -0.30079384250E+02 -0.10765829885E+02  0.62372428998E+03  0.62454196205E+03  0.00000000000E+00 0. -1.
         -1    1    1    2    0  501  0.30079384250E+02  0.10765829885E+02  0.42138477371E+03  0.42259413148E+03  0.00000000000E+00 0.  1.
</event>
<event>
 4    1  0.6740123E+001  0.3445438E+02  0.7546771E-02  0.1384440E+00
          2   -1    0    0  502    0  0.00000000000E+00  0.00000000000E+00  0.44841578795E+01  0.44841578795E+01  0.00000000000E+00 0. -1.
         -2   -1    0    0    0  501 -0.00000000000E+00 -0.00000000000E+00 -0.26564972281E+03  0.26564972281E+03  0.00000000000E+00 0.  1.
          1    1    1    2  502    0 -0.35324761454E+00 -0.34452568843E+02 -0.13851744407E+03  0.14273817497E+03  0.00000000000E+00 0. -1.
         -1    1    1    2    0  501  0.35324761454E+00  0.34452568843E+02 -0.12264812087E+03  0.12739570572E+03  0.00000000000E+00 0.  1.
</event>
<event>
 4    1  0.6740123E+001  0.8242448E+02  0.7546771E-02  0.1198328E+00
          2   -1    0    0  502    0  0.00000000000E+00  0.00000000000E+00  0.81321852086E+02  0.81321852086E+02  0.00000000000E+00 0. -1.
         -2   -1    0    0    0  501 -0.00000000000E+00 -0.00000000000E+00 -0.10267783416E+03  0.10267783416E+03  0.00000000000E+00 0.  1.
          1    1    1    2  502    0  0.44993151294E+02 -0.69060918969E+02  0.29038591745E+02  0.87390125316E+02  0.00000000000E+00 0. -1.
         -1    1    1    2    0  501 -0.44993151294E+02  0.69060918969E+02 -0.50394573817E+02  0.96609560927E+02  0.00000000000E+00 0.  1.
</event>
<event>
 4    1  0.6740123E+001  0.2076470E+02  0.7546771E-02  0.1522651E+00
          2   -1    0    0  502    0  0.00000000000E+00  0.00000000000E+00  0.16253452550E+02  0.16253452550E+02  0.00000000000E+00 0.  1.
         -2   -1    0    0    0  501 -0.00000000000E+00 -0.00000000000E+00 -0.38239380511E+02  0.38239380511E+02  0.00000000000E+00 0. -1.
          1    1    1    2  502    0  0.13220362762E+02 -0.16012330176E+02  0.40854872571E+01  0.21162795547E+02  0.00000000000E+00 0.  1.
         -1    1    1    2    0  501 -0.13220362762E+02  0.16012330176E+02 -0.26071415218E+02  0.33330037514E+02  0.00000000000E+00 0. -1.
</event>
<event>
 4    1  0.6740123E+001  0.3029354E+02  0.7546771E-02  0.1417062E+00
          2   -1    0    0  502    0  0.00000000000E+00  0.00000000000E+00  0.16113474282E+02  0.16113474282E+02  0.00000000000E+00 0.  1.
         -2   -1    0    0    0  501 -0.00000000000E+00 -0.00000000000E+00 -0.61422166788E+02  0.61422166788E+02  0.00000000000E+00 0. -1.
          1    1    1    2  502    0 -0.30233931765E+01  0.30142294035E+02 -0.12196120906E+02  0.32656456653E+02  0.00000000000E+00 0. -1.
         -1    1    1    2    0  501  0.30233931765E+01 -0.30142294035E+02 -0.33112571600E+02  0.44879184417E+02  0.00000000000E+00 0.  1.
</event>
<event>
 4    1  0.6740123E+001  0.3997678E+02  0.7546771E-02  0.1348622E+00
          2   -1    0    0  502    0  0.00000000000E+00  0.00000000000E+00  0.19337766556E+03  0.19337766556E+03  0.00000000000E+00 0. -1.
         -2   -1    0    0    0  501 -0.00000000000E+00 -0.00000000000E+00 -0.12261322034E+03  0.12261322034E+03  0.00000000000E+00 0.  1.
          1    1    1    2  502    0 -0.39129356677E+02 -0.81875614457E+01  0.18796019206E+03  0.19216445175E+03  0.00000000000E+00 0. -1.
         -1    1    1    2    0  501  0.39129356677E+02  0.81875614457E+01 -0.11719574684E+03  0.12382643415E+03  0.00000000000E+00 0.  1.
</event>
<event>
 4    1  0.6740123E+001  0.2608548E+02  0.7546771E-02  0.1457017E+00
          2   -1    0    0  502    0  0.00000000000E+00  0.00000000000E+00  0.64522360934E+03  0.64522360934E+03  0.00000000000E+00 0.  1.
         -2   -1    0    0    0  501 -0.00000000000E+00 -0.00000000000E+00 -0.36774140107E+01  0.36774140107E+01  0.00000000000E+00 0. -1.
          1    1    1    2  502    0  0.20787173144E+02 -0.15758988756E+02  0.59477969210E+03  0.59535143775E+03  0.00000000000E+00 0.  1.
         -1    1    1    2    0  501 -0.20787173144E+02  0.15758988756E+02  0.46766503232E+02  0.53549585605E+02  0.00000000000E+00 0. -1.
</event>
<event>
 4    1  0.6740123E+001  0.2627448E+02  0.7546771E-02  0.1455035E+00
          2   -1    0    0  502    0  0.00000000000E+00  0.00000000000E+00  0.34621373366E+03  0.34621373366E+03  0.00000000000E+00 0.  1.
         -2   -1    0    0    0  501 -0.00000000000E+00 -0.00000000000E+00 -0.49772194584E+01  0.49772194584E+01  0.00000000000E+00 0. -1.
          1    1    1    2  502    0  0.16133089046E+02 -0.20738165209E+02  0.34673338970E+02  0.43503890559E+02  0.00000000000E+00 0. -1.
         -1    1    1    2    0  501 -0.16133089046E+02  0.20738165209E+02  0.30656317523E+03  0.30768706256E+03  0.00000000000E+00 0.  1.
</event>
<event>
 4    1  0.6740123E+001  0.3406475E+02  0.7546771E-02  0.1387260E+00
          2   -1    0    0  502    0  0.00000000000E+00  0.00000000000E+00  0.29745045405E+04  0.29745045405E+04  0.00000000000E+00 0.  1.
         -2   -1    0    0    0  501 -0.00000000000E+00 -0.00000000000E+00 -0.43303843245E+00  0.43303843245E+00  0.00000000000E+00 0. -1.
          1    1    1    2  502    0 -0.18788334363E+02 -0.28414887136E+02  0.10187429954E+04  0.10193123653E+04  0.00000000000E+00 0. -1.
         -1    1    1    2    0  501  0.18788334363E+02  0.28414887136E+02  0.19553285066E+04  0.19556252136E+04  0.00000000000E+00 0.  1.
</event>
<event>
 4    1  0.6740123E+001  0.4339090E+02  0.7546771E-02  0.1329684E+00
          2   -1    0    0  502    0  0.00000000000E+00  0.00000000000E+00  0.62294919282E+02  0.62294919282E+02  0.00000000000E+00 0.  1.
         -2   -1    0    0    0  501 -0.00000000000E+00 -0.00000000000E+00 -0.38378291481E+02  0.38378291481E+02  0.00000000000E+00 0. -1.
          1    1    1    2  502    0  0.41683912960E+02  0.12050780134E+02 -0.11244881038E+02  0.44824293090E+02  0.00000000000E+00 0. -1.
         -1    1    1    2    0  501 -0.41683912960E+02 -0.12050780134E+02  0.35161508838E+02  0.55848917673E+02  0.00000000000E+00 0.  1.
</event>
<event>
 4    1  0.6740123E+001  0.3566526E+02  0.7546771E-02  0.1375946E+00
          2   -1    0    0  502    0  0.00000000000E+00  0.00000000000E+00  0.16525549959E+01  0.16525549959E+01  0.00000000000E+00 0.  1.
         -2   -1    0    0    0  501 -0.00000000000E+00 -0.00000000000E+00 -0.83483777287E+03  0.83483777287E+03  0.00000000000E+00 0. -1.
          1    1    1    2  502    0 -0.29406348356E+02 -0.20181124824E+02 -0.29978623223E+03  0.30190030831E+03  0.00000000000E+00 0.  1.
         -1    1    1    2    0  501  0.29406348356E+02  0.20181124824E+02 -0.53339898564E+03  0.53459001955E+03  0.00000000000E+00 0. -1.
</event>
<event>
 4    1  0.6740123E+001  0.2165632E+02  0.7546771E-02  0.1510097E+00
          2   -1    0    0  502    0  0.00000000000E+00  0.00000000000E+00  0.48531404989E+03  0.48531404989E+03  0.00000000000E+00 0.  1.
         -2   -1    0    0    0  501 -0.00000000000E+00 -0.00000000000E+00 -0.97033542691E+00  0.97033542691E+00  0.00000000000E+00 0. -1.
          1    1    1    2  502    0  0.21479141906E+02  0.27645252406E+01  0.22664143849E+03  0.22767375294E+03  0.00000000000E+00 0.  1.
         -1    1    1    2    0  501 -0.21479141906E+02 -0.27645252406E+01  0.25770227598E+03  0.25861063238E+03  0.00000000000E+00 0. -1.
</event>
<event>
 4    1  0.6740123E+001  0.5906790E+02  0.7546771E-02  0.1263033E+00
          2   -1    0    0  502    0  0.00000000000E+00  0.00000000000E+00  0.70299486890E+02  0.70299486890E+02  0.00000000000E+00 0. -1.
         -2   -1    0    0    0  501 -0.00000000000E+00 -0.00000000000E+00 -0.55233477138E+02  0.55233477138E+02  0.00000000000E+00 0.  1.
          1    1    1    2  502    0  0.28637920958E+02 -0.51661264892E+02 -0.12457604334E+02  0.60367281807E+02  0.00000000000E+00 0. -1.
         -1    1    1    2    0  501 -0.28637920958E+02  0.51661264892E+02  0.27523614086E+02  0.65165682221E+02  0.00000000000E+00 0.  1.
</event>
<event>
 4    1  0.6740123E+001  0.2647784E+02  0.7546771E-02  0.1452925E+00
          2   -1    0    0  502    0  0.00000000000E+00  0.00000000000E+00  0.14109937725E+03  0.14109937725E+03  0.00000000000E+00 0. -1.
         -2   -1    0    0    0  501 -0.00000000000E+00 -0.00000000000E+00 -0.49688198275E+01  0.49688198275E+01  0.00000000000E+00 0.  1.
          1    1    1    2  502    0 -0.23809706344E+02 -0.11583353358E+02  0.67663743087E+02  0.72659881088E+02  0.00000000000E+00 0. -1.
         -1    1    1    2    0  501  0.23809706344E+02  0.11583353358E+02  0.68466814338E+02  0.73408315992E+02  0.00000000000E+00 0.  1.
</event>
<event>
 4    1  0.6740123E+001  0.2155872E+02  0.7546771E-02  0.1511435E+00
          2   -1    0    0  502    0  0.00000000000E+00  0.00000000000E+00  0.10243099702E+04  0.10243099702E+04  0.00000000000E+00 0.  1.
         -2   -1    0    0    0  501 -0.00000000000E+00 -0.00000000000E+00 -0.52702427398E+00  0.52702427398E+00  0.00000000000E+00 0. -1.
          1    1    1    2  502    0 -0.16870818840E+02  0.13422145452E+02  0.70296099607E+03  0.70329150465E+03  0.00000000000E+00 0.  1.
         -1    1    1    2    0  501  0.16870818840E+02 -0.13422145452E+02  0.32082194986E+03  0.32154548983E+03  0.00000000000E+00 0. -1.
</event>
<event>
 4    1  0.6740123E+001  0.3082911E+02  0.7546771E-02  0.1412525E+00
          2   -1    0    0  502    0  0.00000000000E+00  0.00000000000E+00  0.86611353728E+02  0.86611353728E+02  0.00000000000E+00 0. -1.
         -2   -1    0    0    0  501 -0.00000000000E+00 -0.00000000000E+00 -0.11202683937E+02  0.11202683937E+02  0.00000000000E+00 0.  1.
          1    1    1    2  502    0 -0.55652117104E+01 -0.30322634391E+02  0.30709814297E+02  0.43514669158E+02  0.00000000000E+00 0.  1.
         -1    1    1    2    0  501  0.55652117104E+01  0.30322634391E+02  0.44698855493E+02  0.54299368506E+02  0.00000000000E+00 0. -1.
</event>
<event>
 4    1  0.6740123E+001  0.2453076E+02  0.7546771E-02  0.1474122E+00
          2   -1    0    0  502    0  0.00000000000E+00  0.00000000000E+00  0.20284674500E+04  0.20284674500E+04  0.00000000000E+00 0. -1.
         -2   -1    0    0    0  501 -0.00000000000E+00 -0.00000000000E+00 -0.29822093316E+00  0.29822093316E+00  0.00000000000E+00 0.  1.
          1    1    1    2  502    0  0.70915523989E+01 -0.23483354476E+02  0.94061438155E+03  0.94093420218E+03  0.00000000000E+00 0.  1.
         -1    1    1    2    0  501 -0.70915523989E+01  0.23483354476E+02  0.10875548475E+04  0.10878314688E+04  0.00000000000E+00 0. -1.
</event>
<event>
 4    1  0.6740123E+001  0.2209519E+02  0.7546771E-02  0.1504184E+00
          2   -1    0    0  502    0  0.00000000000E+00  0.00000000000E+00  0.12944111437E+02  0.12944111437E+02  0.00000000000E+00 0. -1.
         -2   -1    0    0    0  501 -0.00000000000E+00 -0.00000000000E+00 -0.38525747792E+02  0.38525747792E+02  0.00000000000E+00 0.  1.
          1    1    1    2  502    0 -0.20140603095E+02 -0.90858902019E+01 -0.16522293776E+02  0.27589553918E+02  0.00000000000E+00 0.  1.
         -1    1    1    2    0  501  0.20140603095E+02  0.90858902019E+01 -0.90593425793E+01  0.23880305311E+02  0.00000000000E+00 0. -1.
</event>
<event>
 4    1  0.6740123E+001  0.2106692E+02  0.7546771E-02  0.1518311E+00
          2   -1    0    0  502    0  0.00000000000E+00  0.00000000000E+00  0.40467825188E+02  0.40467825188E+02  0.00000000000E+00 0.  1.
         -2   -1    0    0    0  501 -0.00000000000E+00 -0.00000000000E+00 -0.31788320612E+02  0.31788320612E+02  0.00000000000E+00 0. -1.
          1    1    1    2  502    0  0.10439571168E+02  0.18298372375E+02 -0.24899347409E+02  0.32615833259E+02  0.00000000000E+00 0. -1.
         -1    1    1    2    0  501 -0.10439571168E+02 -0.18298372375E+02  0.33578851985E+02  0.39640312541E+02  0.00000000000E+00 0.  1.
</event>
<event>
 4    1  0.6740123E+001  0.3898267E+02  0.7546771E-02  0.1354553E+00
          2   -1    0    0  502    0  0.00000000000E+00  0.00000000000E+00  0.59884916061E+01  0.59884916061E+01  0.00000000000E+00 0.  1.
         -2   -1    0    0    0  501 -0.00000000000E+00 -0.00000000000E+00 -0.25451875097E+03  0.25451875097E+03  0.00000000000E+00 0. -1.
          1    1    1    2  502    0 -0.38540978779E+02 -0.58516033712E+01 -0.13137013581E+03  0.13703197032E+03  0.00000000000E+00 0.  1.
         -1    1    1    2    0  501  0.38540978779E+02  0.58516033712E+01 -0.11716012355E+03  0.12347527225E+03  0.00000000000E+00 0. -1.
</event>
<event>
 4    1  0.6740123E+001  0.2372572E+02  0.7546771E-02  0.1483581E+00
          2   -1    0    0  502    0  0.00000000000E+00  0.00000000000E+00  0.92137975239E+03  0.92137975239E+03  0.00000000000E+00 0. -1.
         -2   -1    0    0    0  501 -0.00000000000E+00 -0.00000000000E+00 -0.61216444202E+00  0.61216444202E+00  0.00000000000E+00 0.  1.
          1    1    1    2  502    0  0.20110015463E+02  0.12589568634E+02  0.43978671946E+03  0.44042623511E+03  0.00000000000E+00 0.  1.
         -1    1    1    2    0  501 -0.20110015463E+02 -0.12589568634E+02  0.48098086849E+03  0.48156568172E+03  0.00000000000E+00 0. -1.
</event>
<event>
 4    1  0.6740123E+001  0.3629309E+02  0.7546771E-02  0.1371693E+00
          2   -1    0    0  502    0  0.00000000000E+00  0.00000000000E+00  0.59943813677E+01  0.59943813677E+01  0.00000000000E+00 0. -1.
         -2   -1    0    0    0  501 -0.00000000000E+00 -0.00000000000E+00 -0.22030927916E+03  0.22030927916E+03  0.00000000000E+00 0.  1.
          1    1    1    2  502    0 -0.12742236135E+01  0.36270715193E+02 -0.11292355747E+03  0.11861247092E+03  0.00000000000E+00 0. -1.
         -1    1    1    2    0  501  0.12742236135E+01 -0.36270715193E+02 -0.10139134032E+03  0.10769118961E+03  0.00000000000E+00 0.  1.
</event>
<event>
 4    1  0.6740123E+001  0.2632561E+02  0.7546771E-02  0.1454503E+00
          2   -1    0    0  502    0  0.00000000000E+00  0.00000000000E+00  0.51022132454E+01  0.51022132454E+01  0.00000000000E+00 0.  1.
         -2   -1    0    0    0  501 -0.00000000000E+00 -0.00000000000E+00 -0.13797245372E+03  0.13797245372E+03  0.00000000000E+00 0. -1.
          1    1    1    2  502    0  0.24524230794E+02 -0.95707813178E+01 -0.57522399428E+02  0.63260289179E+02  0.00000000000E+00 0.  1.
         -1    1    1    2    0  501 -0.24524230794E+02  0.95707813178E+01 -0.75347841047E+02  0.79814377787E+02  0.00000000000E+00 0. -1.
</event>
<event>
 4    1  0.6740123E+001  0.2031921E+02  0.7546771E-02  0.1529211E+00
          2   -1    0    0  502    0  0.00000000000E+00  0.00000000000E+00  0.27179901235E+02  0.27179901235E+02  0.00000000000E+00 0.  1.
         -2   -1    0    0    0  501 -0.00000000000E+00 -0.00000000000E+00 -0.17301187778E+02  0.17301187778E+02  0.00000000000E+00 0. -1.
          1    1    1    2  502    0 -0.16271039533E+02 -0.12170601749E+02  0.12707947078E+02  0.23965854739E+02  0.00000000000E+00 0.  1.
         -1    1    1    2    0  501  0.16271039533E+02  0.12170601749E+02 -0.28292336217E+01  0.20515234274E+02  0.00000000000E+00 0. -1.
</event>
<event>
 4    1  0.6740123E+001  0.2347040E+02  0.7546771E-02  0.1486674E+00
          2   -1    0    0  502    0  0.00000000000E+00  0.00000000000E+00  0.30846985576E+03  0.30846985576E+03  0.00000000000E+00 0. -1.
         -2   -1    0    0    0  501 -0.00000000000E+00 -0.00000000000E+00 -0.20120013961E+01  0.20120013961E+01  0.00000000000E+00 0.  1.
          1    1    1    2  502    0  0.12696990968E+02  0.19739457415E+02  0.20528333397E+03  0.20662068378E+03  0.00000000000E+00 0. -1.
         -1    1    1    2    0  501 -0.12696990968E+02 -0.19739457415E+02  0.10117452039E+03  0.10386117337E+03  0.00000000000E+00 0.  1.
</event>
<event>
 4    1  0.6740123E+001  0.2035199E+02  0.7546771E-02  0.1528721E+00
          2   -1    0    0  502    0  0.00000000000E+00  0.00000000000E+00  0.10836260594E+04  0.10836260594E+04  0.00000000000E+00 0. -1.
         -2   -1    0    0    0  501 -0.00000000000E+00 -0.00000000000E+00 -0.38260904401E+00  0.38260904401E+00  0.00000000000E+00 0.  1.
          1    1    1    2  502    0  0.19101936096E+02 -0.70227734535E+01  0.52474835731E+03  0.52514287752E+03  0.00000000000E+00 0. -1.
         -1    1    1    2    0  501 -0.19101936096E+02  0.70227734535E+01  0.55849509307E+03  0.55886579095E+03  0.00000000000E+00 0.  1.
</event>
<event>
 4    1  0.6740123E+001  0.5005547E+02  0.7546771E-02  0.1297932E+00
          2   -1    0    0  502    0  0.00000000000E+00  0.00000000000E+00  0.69643701628E+03  0.69643701628E+03  0.00000000000E+00 0.  1.
         -2   -1    0    0    0  501 -0.00000000000E+00 -0.00000000000E+00 -0.63313187764E+01  0.63313187764E+01  0.00000000000E+00 0. -1.
          1    1    1    2  502    0  0.50055450291E+02  0.45087674150E-01  0.57594358308E+03  0.57811466080E+03  0.00000000000E+00 0.  1.
         -1    1    1    2    0  501 -0.50055450291E+02 -0.45087674150E-01  0.11416211442E+03  0.12465367426E+03  0.00000000000E+00 0. -1.
</event>
<event>
 4    1  0.6740123E+001  0.2144946E+02  0.7546771E-02  0.1512944E+00
          2   -1    0    0  502    0  0.00000000000E+00  0.00000000000E+00  0.26215726615E+01  0.26215726615E+01  0.00000000000E+00 0.  1.
         -2   -1    0    0    0  501 -0.00000000000E+00 -0.00000000000E+00 -0.18002436935E+03  0.18002436935E+03  0.00000000000E+00 0. -1.
          1    1    1    2  502    0  0.18234545762E+02  0.11295153769E+02 -0.74219727380E+02  0.77257019682E+02  0.00000000000E+00 0. -1.
         -1    1    1    2    0  501 -0.18234545762E+02 -0.11295153769E+02 -0.10318306930E+03  0.10538892233E+03  0.00000000000E+00 0.  1.
</event>
<event>
 4    1  0.6740123E+001  0.2150381E+02  0.7546771E-02  0.1512192E+00
          2   -1    0    0  502    0  0.00000000000E+00  0.00000000000E+00  0.25204184489E+03  0.25204184489E+03  0.00000000000E+00 0. -1.
         -2   -1    0    0    0  501 -0.00000000000E+00 -0.00000000000E+00 -0.22006808527E+01  0.22006808527E+01  0.00000000000E+00 0.  1.
          1    1    1    2  502    0  0.24656484202E+01 -0.21361981289E+02  0.73078012598E+02  0.76176174701E+02  0.00000000000E+00 0.  1.
         -1    1    1    2    0  501 -0.24656484202E+01  0.21361981289E+02  0.17676315144E+03  0.17806635104E+03  0.00000000000E+00 0. -1.
</event>
<event>
 4    1  0.6740123E+001  0.2155815E+02  0.7546771E-02  0.1511443E+00
          2   -1    0    0  502    0  0.00000000000E+00  0.00000000000E+00  0.43500152200E+03  0.43500152200E+03  0.00000000000E+00 0.  1.
         -2   -1    0    0    0  501 -0.00000000000E+00 -0.00000000000E+00 -0.20059652985E+01  0.20059652985E+01  0.00000000000E+00 0. -1.
          1    1    1    2  502    0  0.14186258333E+02 -0.16232808480E+02  0.36587996220E+03  0.36651453005E+03  0.00000000000E+00 0.  1.
         -1    1    1    2    0  501 -0.14186258333E+02  0.16232808480E+02  0.67115594495E+02  0.70492957244E+02  0.00000000000E+00 0. -1.
</event>
<event>
 4    1  0.6740123E+001  0.2214866E+02  0.7546771E-02  0.1503474E+00
          2   -1    0    0  502    0  0.00000000000E+00  0.00000000000E+00  0.23993247984E+01  0.23993247984E+01  0.00000000000E+00 0.  1.
         -2   -1    0    0    0  501 -0.00000000000E+00 -0.00000000000E+00 -0.27280091094E+03  0.27280091094E+03  0.00000000000E+00 0. -1.
          1    1    1    2  502    0  0.75184339599E+01 -0.20833532521E+02 -0.66329175830E+02  0.69929410785E+02  0.00000000000E+00 0.  1.
         -1    1    1    2    0  501 -0.75184339599E+01  0.20833532521E+02 -0.20407241031E+03  0.20527082495E+03  0.00000000000E+00 0. -1.
</event>
<event>
 4    1  0.6740123E+001  0.2550534E+02  0.7546771E-02  0.1463229E+00
          2   -1    0    0  502    0  0.00000000000E+00  0.00000000000E+00  0.19493972568E+01  0.19493972568E+01  0.00000000000E+00 0. -1.
         -2   -1    0    0    0  501 -0.00000000000E+00 -0.00000000000E+00 -0.47215774476E+03  0.47215774476E+03  0.00000000000E+00 0.  1.
          1    1    1    2  502    0 -0.20263107478E+02  0.15489641609E+02 -0.10673681518E+03  0.10974183448E+03  0.00000000000E+00 0. -1.
         -1    1    1    2    0  501  0.20263107478E+02 -0.15489641609E+02 -0.36347153233E+03  0.36436530753E+03  0.00000000000E+00 0.  1.
</event>
<event>
 4    1  0.6740123E+001  0.3024478E+02  0.7546771E-02  0.1417481E+00
          2   -1    0    0  502    0  0.00000000000E+00  0.00000000000E+00  0.86012400707E+03  0.86012400707E+03  0.00000000000E+00 0.  1.
         -2   -1    0    0    0  501 -0.00000000000E+00 -0.00000000000E+00 -0.10834642861E+01  0.10834642861E+01  0.00000000000E+00 0. -1.
          1    1    1    2  502    0 -0.30231355475E+02 -0.90089565174E+00  0.48796419892E+03  0.48890060942E+03  0.00000000000E+00 0.  1.
         -1    1    1    2    0  501  0.30231355475E+02  0.90089565174E+00  0.37107634386E+03  0.37230686193E+03  0.00000000000E+00 0. -1.
</event>
<event>
 4    1  0.6740123E+001  0.2890377E+02  0.7546771E-02  0.1429368E+00
          2   -1    0    0  502    0  0.00000000000E+00  0.00000000000E+00  0.58084618243E+03  0.58084618243E+03  0.00000000000E+00 0. -1.
         -2   -1    0    0    0  501 -0.00000000000E+00 -0.00000000000E+00 -0.20679472622E+01  0.20679472622E+01  0.00000000000E+00 0.  1.
          1    1    1    2  502    0  0.22184356607E+02 -0.18527881024E+02  0.45021476369E+03  0.45114162023E+03  0.00000000000E+00 0. -1.
         -1    1    1    2    0  501 -0.22184356607E+02  0.18527881024E+02  0.12856347147E+03  0.13177250947E+03  0.00000000000E+00 0.  1.
</event>
<event>
 4    1  0.6740123E+001  0.2473507E+02  0.7546771E-02  0.1471789E+00
          2   -1    0    0  502    0  0.00000000000E+00  0.00000000000E+00  0.43544363892E+03  0.43544363892E+03  0.00000000000E+00 0.  1.
         -2   -1    0    0    0  501 -0.00000000000E+00 -0.00000000000E+00 -0.17087497265E+01  0.17087497265E+01  0.00000000000E+00 0. -1.
          1    1    1    2  502    0 -0.12389554132E+02 -0.21408472297E+02  0.12472073468E+03  0.12714985410E+03  0.00000000000E+00 0. -1.
         -1    1    1    2    0  501  0.12389554132E+02  0.21408472297E+02  0.30901415451E+03  0.31000253455E+03  0.00000000000E+00 0.  1.
</event>
<event>
 4    1  0.6740123E+001  0.2076060E+02  0.7546771E-02  0.1522711E+00
          2   -1    0    0  502    0  0.00000000000E+00  0.00000000000E+00  0.64583803789E+03  0.64583803789E+03  0.00000000000E+00 0. -1.
         -2   -1    0    0    0  501 -0.00000000000E+00 -0.00000000000E+00 -0.78970617730E+00  0.78970617730E+00  0.00000000000E+00 0.  1.
          1    1    1    2  502    0  0.10254273868E+02 -0.18051378657E+02  0.19526239702E+03  0.19636294481E+03  0.00000000000E+00 0.  1.
         -1    1    1    2    0  501 -0.10254273868E+02  0.18051378657E+02  0.44978593469E+03  0.45026479925E+03  0.00000000000E+00 0. -1.
</event>
<event>
 4    1  0.6740123E+001  0.2179216E+02  0.7546771E-02  0.1508249E+00
          2   -1    0    0  502    0  0.00000000000E+00  0.00000000000E+00  0.11674174041E+03  0.11674174041E+03  0.00000000000E+00 0.  1.
         -2   -1    0    0    0  501 -0.00000000000E+00 -0.00000000000E+00 -0.46277394435E+01  0.46277394435E+01  0.00000000000E+00 0. -1.
          1    1    1    2  502    0  0.17183513694E+02 -0.13402429520E+02  0.77163282037E+02  0.80181483864E+02  0.00000000000E+00 0.  1.
         -1    1    1    2    0  501 -0.17183513694E+02  0.13402429520E+02  0.34950718929E+02  0.41187995989E+02  0.00000000000E+00 0. -1.
</event>
<event>
 4    1  0.6740123E+001  0.2159583E+02  0.7546771E-02  0.1510925E+00
          2   -1    0    0  502    0  0.00000000000E+00  0.00000000000E+00  0.88946184670E+03  0.88946184670E+03  0.00000000000E+00 0. -1.
         -2   -1    0    0    0  501 -0.00000000000E+00 -0.00000000000E+00 -0.74982543224E+00  0.74982543224E+00  0.00000000000E+00 0.  1.
          1    1    1    2  502    0  0.11833912912E+02 -0.18064838870E+02  0.68844209468E+03  0.68878073262E+03  0.00000000000E+00 0. -1.
         -1    1    1    2    0  501 -0.11833912912E+02  0.18064838870E+02  0.20026992659E+03  0.20143093952E+03  0.00000000000E+00 0.  1.
</event>
<event>
 4    1  0.6740123E+001  0.2557638E+02  0.7546771E-02  0.1462458E+00
          2   -1    0    0  502    0  0.00000000000E+00  0.00000000000E+00  0.51373253369E+01  0.51373253369E+01  0.00000000000E+00 0.  1.
         -2   -1    0    0    0  501 -0.00000000000E+00 -0.00000000000E+00 -0.22496095556E+03  0.22496095556E+03  0.00000000000E+00 0. -1.
          1    1    1    2  502    0  0.17894209266E+02  0.18274261323E+02 -0.34120966528E+02  0.42642604387E+02  0.00000000000E+00 0.  1.
         -1    1    1    2    0  501 -0.17894209266E+02 -0.18274261323E+02 -0.18570266369E+03  0.18745567651E+03  0.00000000000E+00 0. -1.
</event>
<event>
 4    1  0.6740123E+001  0.5682472E+02  0.7546771E-02  0.1271020E+00
          2   -1    0    0  502    0  0.00000000000E+00  0.00000000000E+00  0.14014430938E+04  0.14014430938E+04  0.00000000000E+00 0.  1.
         -2   -1    0    0    0  501 -0.00000000000E+00 -0.00000000000E+00 -0.23080319163E+01  0.23080319163E+01  0.00000000000E+00 0. -1.
          1    1    1    2  502    0 -0.85296387800E+01  0.56180906051E+02  0.72857931805E+03  0.73079194825E+03  0.00000000000E+00 0.  1.
         -1    1    1    2    0  501  0.85296387800E+01 -0.56180906051E+02  0.67055574380E+03  0.67295917743E+03  0.00000000000E+00 0. -1.
</event>
<event>
 4    1  0.6740123E+001  0.2635709E+02  0.7546771E-02  0.1454175E+00
          2   -1    0    0  502    0  0.00000000000E+00  0.00000000000E+00  0.14112265878E+04  0.14112265878E+04  0.00000000000E+00 0. -1.
         -2   -1    0    0    0  501 -0.00000000000E+00 -0.00000000000E+00 -0.56156237878E+00  0.56156237878E+00  0.00000000000E+00 0.  1.
          1    1    1    2  502    0  0.12902138449E+02 -0.22983277871E+02  0.45736108510E+03  0.45811991706E+03  0.00000000000E+00 0.  1.
         -1    1    1    2    0  501 -0.12902138449E+02  0.22983277871E+02  0.95330394030E+03  0.95366823311E+03  0.00000000000E+00 0. -1.
</event>
<event>
 4    1  0.6740123E+001  0.2971117E+02  0.7546771E-02  0.1422123E+00
          2   -1    0    0  502    0  0.00000000000E+00  0.00000000000E+00  0.75918817520E+03  0.75918817520E+03  0.00000000000E+00 0.  1.
         -2   -1    0    0    0  501 -0.00000000000E+00 -0.00000000000E+00 -0.15371387011E+01  0.15371387011E+01  0.00000000000E+00 0. -1.
          1    1    1    2  502    0 -0.28060860786E+02 -0.97643152017E+01  0.19111145039E+03  0.19340718763E+03  0.00000000000E+00 0. -1.
         -1    1    1    2    0  501  0.28060860786E+02  0.97643152017E+01  0.56653958611E+03  0.56731812627E+03  0.00000000000E+00 0.  1.
</event>
<event>
 4    1  0.6740123E+001  0.2712509E+02  0.7546771E-02  0.1446356E+00
          2   -1    0    0  502    0  0.00000000000E+00  0.00000000000E+00  0.14514694495E+04  0.14514694495E+04  0.00000000000E+00 0.  1.
         -2   -1    0    0    0  501 -0.00000000000E+00 -0.00000000000E+00 -0.82631385864E+00  0.82631385864E+00  0.00000000000E+00 0. -1.
          1    1    1    2  502    0  0.21648902396E+02  0.16343050547E+02  0.27386094818E+03  0.27520099784E+03  0.00000000000E+00 0. -1.
         -1    1    1    2    0  501 -0.21648902396E+02 -0.16343050547E+02  0.11767821874E+04  0.11770947655E+04  0.00000000000E+00 0.  1.
</event>
<event>
 4    1  0.6740123E+001  0.2199486E+02  0.7546771E-02  0.1505521E+00
          2   -1    0    0  502    0  0.00000000000E+00  0.00000000000E+00  0.50828624715E+02  0.50828624715E+02  0.00000000000E+00 0.  1.
         -2   -1    0    0    0  501 -0.00000000000E+00 -0.00000000000E+00 -0.11212508874E+02  0.11212508874E+02  0.00000000000E+00 0. -1.
          1    1    1    2  502    0  0.75339353608E+01  0.20664312160E+02  0.77479081784E+01  0.23319606777E+02  0.00000000000E+00 0. -1.
         -1    1    1    2    0  501 -0.75339353608E+01 -0.20664312160E+02  0.31868207663E+02  0.38721526813E+02  0.00000000000E+00 0.  1.
</event>
<event>
 4    1  0.6740123E+001  0.2519508E+02  0.7546771E-02  0.1466633E+00
          2   -1    0    0  502    0  0.00000000000E+00  0.00000000000E+00  0.12396610628E+03  0.12396610628E+03  0.00000000000E+00 0.  1.
         -2   -1    0    0    0  501 -0.00000000000E+00 -0.00000000000E+00 -0.54519481091E+01  0.54519481091E+01  0.00000000000E+00 0. -1.
          1    1    1    2  502    0 -0.49444082336E+01 -0.24705161791E+02  0.75207467473E+02  0.79315542963E+02  0.00000000000E+00 0.  1.
         -1    1    1    2    0  501  0.49444082336E+01  0.24705161791E+02  0.43306690694E+02  0.50102511422E+02  0.00000000000E+00 0. -1.
</event>
<event>
 4    1  0.6740123E+001  0.2003264E+02  0.7546771E-02  0.1533537E+00
          2   -1    0    0  502    0  0.00000000000E+00  0.00000000000E+00  0.24108046153E+03  0.24108046153E+03  0.00000000000E+00 0. -1.
         -2   -1    0    0    0  501 -0.00000000000E+00 -0.00000000000E+00 -0.76466066843E+01  0.76466066843E+01  0.00000000000E+00 0.  1.
          1    1    1    2  502    0  0.10020415776E+02  0.17346407988E+02  0.22671409794E+03  0.22759742706E+03  0.00000000000E+00 0. -1.
         -1    1    1    2    0  501 -0.10020415776E+02 -0.17346407988E+02  0.67197569136E+01  0.21129641156E+02  0.00000000000E+00 0.  1.
</event>
<event>
 4    1  0.6740123E+001  0.2449947E+02  0.7546771E-02  0.1474481E+00
          2   -1    0    0  502    0  0.00000000000E+00  0.00000000000E+00  0.12598777238E+02  0.12598777238E+02  0.00000000000E+00 0.  1.
         -2   -1    0    0    0  501 -0.00000000000E+00 -0.00000000000E+00 -0.63460080194E+02  0.63460080194E+02  0.00000000000E+00 0. -1.
          1    1    1    2  502    0 -0.54774775288E+01 -0.23879309613E+02 -0.44417537466E+02  0.50726145351E+02  0.00000000000E+00 0. -1.
         -1    1    1    2    0  501  0.54774775288E+01  0.23879309613E+02 -0.64437654903E+01  0.25332712081E+02  0.00000000000E+00 0.  1.
</event>
<event>
 4    1  0.6740123E+001  0.2134913E+02  0.7546771E-02  0.1514338E+00
          2   -1    0    0  502    0  0.00000000000E+00  0.00000000000E+00  0.17932211034E+02  0.17932211034E+02  0.00000000000E+00 0.  1.
         -2   -1    0    0    0  501 -0.00000000000E+00 -0.00000000000E+00 -0.33028245860E+02  0.33028245860E+02  0.00000000000E+00 0. -1.
          1    1    1    2  502    0 -0.18666497365E+02 -0.10360855232E+02  0.46836189368E+01  0.21856846327E+02  0.00000000000E+00 0.  1.
         -1    1    1    2    0  501  0.18666497365E+02  0.10360855232E+02 -0.19779653763E+02  0.29103610566E+02  0.00000000000E+00 0. -1.
</event>
<event>
 4    1  0.6740123E+001  0.2305603E+02  0.7546771E-02  0.1491796E+00
          2   -1    0    0  502    0  0.00000000000E+00  0.00000000000E+00  0.17205600080E+03  0.17205600080E+03  0.00000000000E+00 0. -1.
         -2   -1    0    0    0  501 -0.00000000000E+00 -0.00000000000E+00 -0.57110774886E+01  0.57110774886E+01  0.00000000000E+00 0.  1.
          1    1    1    2  502    0 -0.19148695482E+02 -0.12841641875E+02  0.22952945212E+02  0.32533336727E+02  0.00000000000E+00 0.  1.
         -1    1    1    2    0  501  0.19148695482E+02  0.12841641875E+02  0.14339197810E+03  0.14523374156E+03  0.00000000000E+00 0. -1.
</event>
<event>
 4    1  0.6740123E+001  0.7525600E+02  0.7546771E-02  0.1215311E+00
          2   -1    0    0  502    0  0.00000000000E+00  0.00000000000E+00  0.20194146052E+04  0.20194146052E+04  0.00000000000E+00 0. -1.
         -2   -1    0    0    0  501 -0.00000000000E+00 -0.00000000000E+00 -0.31639472315E+01  0.31639472315E+01  0.00000000000E+00 0.  1.
          1    1    1    2  502    0  0.64395659074E+02  0.38944380533E+02  0.13489830575E+04  0.13510805880E+04  0.00000000000E+00 0. -1.
         -1    1    1    2    0  501 -0.64395659074E+02 -0.38944380533E+02  0.66726760043E+03  0.67149796446E+03  0.00000000000E+00 0.  1.
</event>
<event>
 4    1  0.6740123E+001  0.3803408E+02  0.7546771E-02  0.1360408E+00
          2   -1    0    0  502    0  0.00000000000E+00  0.00000000000E+00  0.79159780614E+02  0.79159780614E+02  0.00000000000E+00 0. -1.
         -2   -1    0    0    0  501 -0.00000000000E+00 -0.00000000000E+00 -0.18832052573E+02  0.18832052573E+02  0.00000000000E+00 0.  1.
          1    1    1    2  502    0  0.22731430025E+01  0.37966088239E+02  0.21731978805E+02  0.43804907694E+02  0.00000000000E+00 0.  1.
         -1    1    1    2    0  501 -0.22731430025E+01 -0.37966088239E+02  0.38595749236E+02  0.54186925493E+02  0.00000000000E+00 0. -1.
</event>
<event>
 4    1  0.6740123E+001  0.2437297E+02  0.7546771E-02  0.1475942E+00
          2   -1    0    0  502    0  0.00000000000E+00  0.00000000000E+00  0.71127730998E+03  0.71127730998E+03  0.00000000000E+00 0.  1.
         -2   -1    0    0    0  501 -0.00000000000E+00 -0.00000000000E+00 -0.19404797351E+01  0.19404797351E+01  0.00000000000E+00 0. -1.
          1    1    1    2  502    0  0.22641523812E+02 -0.90223645038E+01  0.62380854382E+03  0.62428450326E+03  0.00000000000E+00 0.  1.
         -1    1    1    2    0  501 -0.22641523812E+02  0.90223645038E+01  0.85528286422E+02  0.88933286457E+02  0.00000000000E+00 0. -1.
</event>
<event>
 4    1  0.6740123E+001  0.2106526E+02  0.7546771E-02  0.1518335E+00
          2   -1    0    0  502    0  0.00000000000E+00  0.00000000000E+00  0.87289635675E+02  0.87289635675E+02  0.00000000000E+00 0.  1.
         -2   -1    0    0    0  501 -0.00000000000E+00 -0.00000000000E+00 -0.17720829354E+02  0.17720829354E+02  0.00000000000E+00 0. -1.
          1    1    1    2  502    0 -0.19950352231E+02 -0.67623074988E+01 -0.95546632380E+01  0.23130865665E+02  0.00000000000E+00 0. -1.
         -1    1    1    2    0  501  0.19950352231E+02  0.67623074988E+01  0.79123469559E+02  0.81879599364E+02  0.00000000000E+00 0.  1.
</event>
<event>
 4    1  0.6740123E+001  0.3093768E+02  0.7546771E-02  0.1411619E+00
          2   -1    0    0  502    0  0.00000000000E+00  0.00000000000E+00  0.92461924863E+02  0.92461924863E+02  0.00000000000E+00 0.  1.
         -2   -1    0    0    0  501 -0.00000000000E+00 -0.00000000000E+00 -0.10753789479E+02  0.10753789479E+02  0.00000000000E+00 0. -1.
          1    1    1    2  502    0 -0.26056556528E+02  0.16679206168E+02  0.50833021978E+02  0.59507446425E+02  0.00000000000E+00 0.  1.
         -1    1    1    2    0  501  0.26056556528E+02 -0.16679206168E+02  0.30875113406E+02  0.43708267917E+02  0.00000000000E+00 0. -1.
</event>
<event>
 4    1  0.6740123E+001  0.2460390E+02  0.7546771E-02  0.1473284E+00
          2   -1    0    0  502    0  0.00000000000E+00  0.00000000000E+00  0.14916380912E+04  0.14916380912E+04  0.00000000000E+00 0.  1.
         -2   -1    0    0    0  501 -0.00000000000E+00 -0.00000000000E+00 -0.42481578079E+00  0.42481578079E+00  0.00000000000E+00 0. -1.
          1    1    1    2  502    0  0.65742805875E+01  0.23709300239E+02  0.90331926794E+03  0.90365427677E+03  0.00000000000E+00 0.  1.
         -1    1    1    2    0  501 -0.65742805875E+01 -0.23709300239E+02  0.58789400749E+03  0.58840863023E+03  0.00000000000E+00 0. -1.
</event>
<event>
 4    1  0.6740123E+001  0.3423139E+02  0.7546771E-02  0.1386049E+00
          2   -1    0    0  502    0  0.00000000000E+00  0.00000000000E+00  0.16667649614E+02  0.16667649614E+02  0.00000000000E+00 0. -1.
         -2   -1    0    0    0  501 -0.00000000000E+00 -0.00000000000E+00 -0.15194019273E+03  0.15194019273E+03  0.00000000000E+00 0.  1.
          1    1    1    2  502    0 -0.10028598990E+02 -0.32729429128E+02 -0.12943151700E+03  0.13388168628E+03  0.00000000000E+00 0. -1.
         -1    1    1    2    0  501  0.10028598990E+02  0.32729429128E+02 -0.58410261161E+01  0.34726156062E+02  0.00000000000E+00 0.  1.
</event>
<event>
 4    1  0.6740123E+001  0.2209241E+02  0.7546771E-02  0.1504221E+00
          2   -1    0    0  502    0  0.00000000000E+00  0.00000000000E+00  0.24845216185E+02  0.24845216185E+02  0.00000000000E+00 0.  1.
         -2   -1    0    0    0  501 -0.00000000000E+00 -0.00000000000E+00 -0.23528534000E+02  0.23528534000E+02  0.00000000000E+00 0. -1.
          1    1    1    2  502    0  0.21582083002E+02 -0.47210232248E+01  0.10485278137E+02  0.24454353899E+02  0.00000000000E+00 0.  1.
         -1    1    1    2    0  501 -0.21582083002E+02  0.47210232248E+01 -0.91685959510E+01  0.23919396286E+02  0.00000000000E+00 0. -1.
</event>
<event>
 4    1  0.6740123E+001  0.2063979E+02  0.7546771E-02  0.1524470E+00
          2   -1    0    0  502    0  0.00000000000E+00  0.00000000000E+00  0.63880613313E+01  0.63880613313E+01  0.00000000000E+00 0.  1.
         -2   -1    0    0    0  501 -0.00000000000E+00 -0.00000000000E+00 -0.86446029225E+02  0.86446029225E+02  0.00000000000E+00 0. -1.
          1    1    1    2  502    0  0.20539737544E+02  0.20297791314E+01 -0.62220525221E+02  0.65554516095E+02  0.00000000000E+00 0. -1.
         -1    1    1    2    0  501 -0.20539737544E+02 -0.20297791314E+01 -0.17837442673E+02  0.27279574462E+02  0.00000000000E+00 0.  1.
</event>
<event>
 4    1  0.6740123E+001  0.2718641E+02  0.7546771E-02  0.1445745E+00
          2   -1    0    0  502    0  0.00000000000E+00  0.00000000000E+00  0.56317032997E+03  0.56317032997E+03  0.00000000000E+00 0.  1.
         -2   -1    0    0    0  501 -0.00000000000E+00 -0.00000000000E+00 -0.47688573924E+01  0.47688573924E+01  0.00000000000E+00 0. -1.
          1    1    1    2  502    0  0.25781902977E+02 -0.86252248361E+01  0.52095864528E+03  0.52166752929E+03  0.00000000000E+00 0.  1.
         -1    1    1    2    0  501 -0.25781902977E+02  0.86252248361E+01  0.37442827294E+02  0.46271658068E+02  0.00000000000E+00 0. -1.
</event>
<event>
 4    1  0.6740123E+001  0.4017393E+02  0.7546771E-02  0.1347470E+00
          2   -1    0    0  502    0  0.00000000000E+00  0.00000000000E+00  0.13630849286E+02  0.13630849286E+02  0.00000000000E+00 0. -1.
         -2   -1    0    0    0  501 -0.00000000000E+00 -0.00000000000E+00 -0.12047125036E+03  0.12047125036E+03  0.00000000000E+00 0.  1.
          1    1    1    2  502    0 -0.38924488876E+02 -0.99412522571E+01 -0.62203983321E+02  0.74049171985E+02  0.00000000000E+00 0.  1.
         -1    1    1    2    0  501  0.38924488876E+02  0.99412522571E+01 -0.44636417750E+02  0.60052927658E+02  0.00000000000E+00 0. -1.
</event>
<event>
 4    1  0.6740123E+001  0.2339470E+02  0.7546771E-02  0.1487600E+00
          2   -1    0    0  502    0  0.00000000000E+00  0.00000000000E+00  0.21483497865E+03  0.21483497865E+03  0.00000000000E+00 0.  1.
         -2   -1    0    0    0  501 -0.00000000000E+00 -0.00000000000E+00 -0.27673873480E+01  0.27673873480E+01  0.00000000000E+00 0. -1.
          1    1    1    2  502    0  0.17550972256E+02  0.15468525496E+02  0.13669630743E+03  0.13868378554E+03  0.00000000000E+00 0.  1.
         -1    1    1    2    0  501 -0.17550972256E+02 -0.15468525496E+02  0.75371283877E+02  0.78918580458E+02  0.00000000000E+00 0. -1.
</event>
<event>
 4    1  0.6740123E+001  0.2347161E+02  0.7546771E-02  0.1486659E+00
          2   -1    0    0  502    0  0.00000000000E+00  0.00000000000E+00  0.61123695611E+03  0.61123695611E+03  0.00000000000E+00 0. -1.
         -2   -1    0    0    0  501 -0.00000000000E+00 -0.00000000000E+00 -0.11281167652E+01  0.11281167652E+01  0.00000000000E+00 0.  1.
          1    1    1    2  502    0  0.10635616402E+02  0.20923678491E+02  0.44234071919E+03  0.44296301032E+03  0.00000000000E+00 0.  1.
         -1    1    1    2    0  501 -0.10635616402E+02 -0.20923678491E+02  0.16776812015E+03  0.16940206255E+03  0.00000000000E+00 0. -1.
</event>
<event>
 4    1  0.6740123E+001  0.2258302E+02  0.7546771E-02  0.1497802E+00
          2   -1    0    0  502    0  0.00000000000E+00  0.00000000000E+00  0.40601190503E+03  0.40601190503E+03  0.00000000000E+00 0. -1.
         -2   -1    0    0    0  501 -0.00000000000E+00 -0.00000000000E+00 -0.17701284784E+01  0.17701284784E+01  0.00000000000E+00 0.  1.
          1    1    1    2  502    0 -0.87238347051E+01  0.20829962605E+02  0.92248601556E+02  0.94972612489E+02  0.00000000000E+00 0.  1.
         -1    1    1    2    0  501  0.87238347051E+01 -0.20829962605E+02  0.31199317499E+03  0.31280942102E+03  0.00000000000E+00 0. -1.
</event>
<event>
 4    1  0.6740123E+001  0.2442319E+02  0.7546771E-02  0.1475361E+00
          2   -1    0    0  502    0  0.00000000000E+00  0.00000000000E+00  0.15262078779E+03  0.15262078779E+03  0.00000000000E+00 0. -1.
         -2   -1    0    0    0  501 -0.00000000000E+00 -0.00000000000E+00 -0.43627828696E+01  0.43627828696E+01  0.00000000000E+00 0.  1.
          1    1    1    2  502    0 -0.28277285305E+01 -0.24258940622E+02  0.99462042953E+02  0.10241674784E+03  0.00000000000E+00 0. -1.
         -1    1    1    2    0  501  0.28277285305E+01  0.24258940622E+02  0.48795961963E+02  0.54566822820E+02  0.00000000000E+00 0.  1.
</event>
<event>
 4    1  0.6740123E+001  0.3597561E+02  0.7546771E-02  0.1373831E+00
          2   -1    0    0  502    0  0.00000000000E+00  0.00000000000E+00  0.23649601232E+04  0.23649601232E+04  0.00000000000E+00 0. -1.
         -2   -1    0    0    0  501 -0.00000000000E+00 -0.00000000000E+00 -0.60820319993E+00  0.60820319993E+00  0.00000000000E+00 0.  1.
          1    1    1    2  502    0  0.13355946196E+02 -0.33404544095E+02  0.15565869747E+04  0.15570026509E+04  0.00000000000E+00 0. -1.
         -1    1    1    2    0  501 -0.13355946196E+02  0.33404544095E+02  0.80776494524E+03  0.80856567551E+03  0.00000000000E+00 0.  1.
</event>
<event>
 4    1  0.6740123E+001  0.3444263E+02  0.7546771E-02  0.1384525E+00
          2   -1    0    0  502    0  0.00000000000E+00  0.00000000000E+00  0.49620690641E+03  0.49620690641E+03  0.00000000000E+00 0. -1.
         -2   -1    0    0    0  501 -0.00000000000E+00 -0.00000000000E+00 -0.31846591289E+01  0.31846591289E+01  0.00000000000E+00 0.  1.
          1    1    1    2  502    0 -0.77078298792E+01  0.33569093203E+02  0.12183831498E+03  0.12661307064E+03  0.00000000000E+00 0.  1.
         -1    1    1    2    0  501  0.77078298792E+01 -0.33569093203E+02  0.37118393230E+03  0.37277849490E+03  0.00000000000E+00 0. -1.
</event>
<event>
 4    1  0.6740123E+001  0.2337723E+02  0.7546771E-02  0.1487815E+00
          2   -1    0    0  502    0  0.00000000000E+00  0.00000000000E+00  0.11122515481E+04  0.11122515481E+04  0.00000000000E+00 0. -1.
         -2   -1    0    0    0  501 -0.00000000000E+00 -0.00000000000E+00 -0.50595087009E+00  0.50595087009E+00  0.00000000000E+00 0.  1.
          1    1    1    2  502    0  0.15898208859E+02 -0.17138901920E+02  0.65041738170E+03  0.65083735712E+03  0.00000000000E+00 0.  1.
         -1    1    1    2    0  501 -0.15898208859E+02  0.17138901920E+02  0.46132821556E+03  0.46192014188E+03  0.00000000000E+00 0. -1.
</event>
<event>
 4    1  0.6740123E+001  0.2040197E+02  0.7546771E-02  0.1527977E+00
          2   -1    0    0  502    0  0.00000000000E+00  0.00000000000E+00  0.31506403621E+03  0.31506403621E+03  0.00000000000E+00 0.  1.
         -2   -1    0    0    0  501 -0.00000000000E+00 -0.00000000000E+00 -0.22476266124E+01  0.22476266124E+01  0.00000000000E+00 0. -1.
          1    1    1    2  502    0  0.10622704812E+02  0.17418343777E+02  0.54545344044E+02  0.58236029349E+02  0.00000000000E+00 0. -1.
         -1    1    1    2    0  501 -0.10622704812E+02 -0.17418343777E+02  0.25827106556E+03  0.25907563348E+03  0.00000000000E+00 0.  1.
</event>
<event>
 4    1  0.6740123E+001  0.2288209E+02  0.7546771E-02  0.1493984E+00
          2   -1    0    0  502    0  0.00000000000E+00  0.00000000000E+00  0.11126183678E+04  0.11126183678E+04  0.00000000000E+00 0. -1.
         -2   -1    0    0    0  501 -0.00000000000E+00 -0.00000000000E+00 -0.51317527452E+00  0.51317527452E+00  0.00000000000E+00 0.  1.
          1    1    1    2  502    0 -0.20860688733E+02 -0.94032885127E+01  0.71637683583E+03  0.71674218592E+03  0.00000000000E+00 0. -1.
         -1    1    1    2    0  501  0.20860688733E+02  0.94032885127E+01  0.39572835667E+03  0.39638935713E+03  0.00000000000E+00 0.  1.
</event>
<event>
 4    1  0.6740123E+001  0.2813969E+02  0.7546771E-02  0.1436484E+00
          2   -1    0    0  502    0  0.00000000000E+00  0.00000000000E+00  0.21985234214E+03  0.21985234214E+03  0.00000000000E+00 0.  1.
         -2   -1    0    0    0  501 -0.00000000000E+00 -0.00000000000E+00 -0.36592402437E+01  0.36592402437E+01  0.00000000000E+00 0. -1.
          1    1    1    2  502    0  0.10602286689E+02  0.26065952987E+02  0.94082720364E+02  0.98200818017E+02  0.00000000000E+00 0.  1.
         -1    1    1    2    0  501 -0.10602286689E+02 -0.26065952987E+02  0.12211038153E+03  0.12531076437E+03  0.00000000000E+00 0. -1.
</event>
<event>
 4    1  0.6740123E+001  0.2111642E+02  0.7546771E-02  0.1517609E+00
          2   -1    0    0  502    0  0.00000000000E+00  0.00000000000E+00  0.25858591430E+01  0.25858591430E+01  0.00000000000E+00 0.  1.
         -2   -1    0    0    0  501 -0.00000000000E+00 -0.00000000000E+00 -0.18782680186E+03  0.18782680186E+03  0.00000000000E+00 0. -1.
          1    1    1    2  502    0 -0.10038433342E+02 -0.18577758196E+02 -0.11987093000E+03  0.12171665089E+03  0.00000000000E+00 0. -1.
         -1    1    1    2    0  501  0.10038433342E+02  0.18577758196E+02 -0.65370012715E+02  0.68696010116E+02  0.00000000000E+00 0.  1.
</event>
<event>
 4    1  0.6740123E+001  0.4050063E+02  0.7546771E-02  0.1345577E+00
          2   -1    0    0  502    0  0.00000000000E+00  0.00000000000E+00  0.68126652567E+02  0.68126652567E+02  0.00000000000E+00 0. -1.
         -2   -1    0    0    0  501 -0.00000000000E+00 -0.00000000000E+00 -0.26906589412E+02  0.26906589412E+02  0.00000000000E+00 0.  1.
          1    1    1    2  502    0  0.40334723134E+02  0.36620830218E+01  0.36018542374E+02  0.54199964365E+02  0.00000000000E+00 0.  1.
         -1    1    1    2    0  501 -0.40334723134E+02 -0.36620830218E+01  0.52015207809E+01  0.40833277615E+02  0.00000000000E+00 0. -1.
</event>
<event>
 4    1  0.6740123E+001  0.2631593E+02  0.7546771E-02  0.1454603E+00
          2   -1    0    0  502    0  0.00000000000E+00  0.00000000000E+00  0.20121468610E+04  0.20121468610E+04  0.00000000000E+00 0.  1.
         -2   -1    0    0    0  501 -0.00000000000E+00 -0.00000000000E+00 -0.39196727153E+00  0.39196727153E+00  0.00000000000E+00 0. -1.
          1    1    1    2  502    0  0.20793859106E+02  0.16128961280E+02  0.13572551919E+04  0.13575102887E+04  0.00000000000E+00 0.  1.
         -1    1    1    2    0  501 -0.20793859106E+02 -0.16128961280E+02  0.65449970185E+03  0.65502853960E+03  0.00000000000E+00 0. -1.
</event>
<event>
 4    1  0.6740123E+001  0.2421127E+02  0.7546771E-02  0.1477824E+00
          2   -1    0    0  502    0  0.00000000000E+00  0.00000000000E+00  0.13862898976E+03  0.13862898976E+03  0.00000000000E+00 0. -1.
         -2   -1    0    0    0  501 -0.00000000000E+00 -0.00000000000E+00 -0.42442788000E+01  0.42442788000E+01  0.00000000000E+00 0.  1.
          1    1    1    2  502    0 -0.22561817569E+02  0.87835026225E+01  0.71555151789E+02  0.75540222914E+02  0.00000000000E+00 0. -1.
         -1    1    1    2    0  501  0.22561817569E+02 -0.87835026225E+01  0.62829559172E+02  0.67333045647E+02  0.00000000000E+00 0.  1.
</event>
<event>
 4    1  0.6740123E+001  0.2060569E+02  0.7546771E-02  0.1524970E+00
          2   -1    0    0  502    0  0.00000000000E+00  0.00000000000E+00  0.19563551969E+02  0.19563551969E+02  0.00000000000E+00 0. -1.
         -2   -1    0    0    0  501 -0.00000000000E+00 -0.00000000000E+00 -0.22451940743E+02  0.22451940743E+02  0.00000000000E+00 0.  1.
          1    1    1    2  502    0 -0.78351347063E+01 -0.19057942928E+02 -0.52801723069E+01  0.21271453738E+02  0.00000000000E+00 0.  1.
         -1    1    1    2    0  501  0.78351347063E+01  0.19057942928E+02  0.23917835324E+01  0.20744038975E+02  0.00000000000E+00 0. -1.
</event>
<event>
 4    1  0.6740123E+001  0.2944953E+02  0.7546771E-02  0.1424441E+00
          2   -1    0    0  502    0  0.00000000000E+00  0.00000000000E+00  0.96844196050E+02  0.96844196050E+02  0.00000000000E+00 0.  1.
         -2   -1    0    0    0  501 -0.00000000000E+00 -0.00000000000E+00 -0.92550289469E+01  0.92550289469E+01  0.00000000000E+00 0. -1.
          1    1    1    2  502    0  0.13399324744E+02 -0.26224665101E+02  0.53340371301E+02  0.60930043278E+02  0.00000000000E+00 0. -1.
         -1    1    1    2    0  501 -0.13399324744E+02  0.26224665101E+02  0.34248795802E+02  0.45169181719E+02  0.00000000000E+00 0.  1.
</event>
<event>
 4    1  0.6740123E+001  0.2041397E+02  0.7546771E-02  0.1527799E+00
          2   -1    0    0  502    0  0.00000000000E+00  0.00000000000E+00  0.28673996095E+02  0.28673996095E+02  0.00000000000E+00 0. -1.
         -2   -1    0    0    0  501 -0.00000000000E+00 -0.00000000000E+00 -0.19715807429E+02  0.19715807429E+02  0.00000000000E+00 0.  1.
          1    1    1    2  502    0 -0.20141968728E+02  0.33213413662E+01 -0.79255124498E+01  0.21898492193E+02  0.00000000000E+00 0.  1.
         -1    1    1    2    0  501  0.20141968728E+02 -0.33213413662E+01  0.16883701116E+02  0.26491311332E+02  0.00000000000E+00 0. -1.
</event>
<event>
 4    1  0.6740123E+001  0.2055837E+02  0.7546771E-02  0.1525665E+00
          2   -1    0    0  502    0  0.00000000000E+00  0.00000000000E+00  0.10170918368E+04  0.10170918368E+04  0.00000000000E+00 0. -1.
         -2   -1    0    0    0  501 -0.00000000000E+00 -0.00000000000E+00 -0.94024466163E+00  0.94024466163E+00  0.00000000000E+00 0.  1.
          1    1    1    2  502    0  0.14898965029E+02 -0.14165711637E+02  0.12782793356E+03  0.12947056478E+03  0.00000000000E+00 0.  1.
         -1    1    1    2    0  501 -0.14898965029E+02  0.14165711637E+02  0.88832365862E+03  0.88856151673E+03  0.00000000000E+00 0. -1.
</event>
<event>
 4    1  0.6740123E+001  0.3138270E+02  0.7546771E-02  0.1407950E+00
          2   -1    0    0  502    0  0.00000000000E+00  0.00000000000E+00  0.20628348305E+03  0.20628348305E+03  0.00000000000E+00 0.  1.
         -2   -1    0    0    0  501 -0.00000000000E+00 -0.00000000000E+00 -0.54633755957E+01  0.54633755957E+01  0.00000000000E+00 0. -1.
          1    1    1    2  502    0 -0.27694412508E+02 -0.14761208969E+02  0.62811800305E+02  0.70215354674E+02  0.00000000000E+00 0. -1.
         -1    1    1    2    0  501  0.27694412508E+02  0.14761208969E+02  0.13800830715E+03  0.14153150397E+03  0.00000000000E+00 0.  1.
</event>
<event>
 4    1  0.6740123E+001  0.3278343E+02  0.7546771E-02  0.1396854E+00
          2   -1    0    0  502    0  0.00000000000E+00  0.00000000000E+00  0.43970266351E+01  0.43970266351E+01  0.00000000000E+00 0. -1.
         -2   -1    0    0    0  501 -0.00000000000E+00 -0.00000000000E+00 -0.25809832465E+03  0.25809832465E+03  0.00000000000E+00 0.  1.
          1    1    1    2  502    0  0.98860333197E+01 -0.31257314834E+02 -0.96644217100E+02  0.10205321202E+03  0.00000000000E+00 0. -1.
         -1    1    1    2    0  501 -0.98860333197E+01  0.31257314834E+02 -0.15705708091E+03  0.16044213926E+03  0.00000000000E+00 0.  1.
</event>
<event>
 4    1  0.6740123E+001  0.2765771E+02  0.7546771E-02  0.1441111E+00
          2   -1    0    0  502    0  0.00000000000E+00  0.00000000000E+00  0.91710803966E+01  0.91710803966E+01  0.00000000000E+00 0. -1.
         -2   -1    0    0    0  501 -0.00000000000E+00 -0.00000000000E+00 -0.85965790417E+02  0.85965790417E+02  0.00000000000E+00 0.  1.
          1    1    1    2  502    0  0.27643011547E+02 -0.90172348854E+00 -0.46601192504E+02  0.54190592684E+02  0.00000000000E+00 0.  1.
         -1    1    1    2    0  501 -0.27643011547E+02  0.90172348854E+00 -0.30193517517E+02  0.40946278130E+02  0.00000000000E+00 0. -1.
</event>
<event>
 4    1  0.6740123E+001  0.2053468E+02  0.7546771E-02  0.1526013E+00
          2   -1    0    0  502    0  0.00000000000E+00  0.00000000000E+00  0.15254982730E+04  0.15254982730E+04  0.00000000000E+00 0. -1.
         -2   -1    0    0    0  501 -0.00000000000E+00 -0.00000000000E+00 -0.37238068287E+00  0.37238068287E+00  0.00000000000E+00 0.  1.
          1    1    1    2  502    0  0.73306329879E+01  0.19181627345E+02  0.37526199079E+03  0.37582340899E+03  0.00000000000E+00 0.  1.
         -1    1    1    2    0  501 -0.73306329879E+01 -0.19181627345E+02  0.11498639016E+04  0.11500472447E+04  0.00000000000E+00 0. -1.
</event>
<event>
 4    1  0.6740123E+001  0.2429965E+02  0.7546771E-02  0.1476793E+00
          2   -1    0    0  502    0  0.00000000000E+00  0.00000000000E+00  0.24337919895E+02  0.24337919895E+02  0.00000000000E+00 0.  1.
         -2   -1    0    0    0  501 -0.00000000000E+00 -0.00000000000E+00 -0.26602411922E+02  0.26602411922E+02  0.00000000000E+00 0. -1.
          1    1    1    2  502    0  0.11263384264E+02  0.21531590687E+02  0.64233452723E+01  0.25134291060E+02  0.00000000000E+00 0.  1.
         -1    1    1    2    0  501 -0.11263384264E+02 -0.21531590687E+02 -0.86878373000E+01  0.25806040757E+02  0.00000000000E+00 0. -1.
</event>
<event>
 4    1  0.6740123E+001  0.4238435E+02  0.7546771E-02  0.1335053E+00
          2   -1    0    0  502    0  0.00000000000E+00  0.00000000000E+00  0.33169432541E+02  0.33169432541E+02  0.00000000000E+00 0.  1.
         -2   -1    0    0    0  501 -0.00000000000E+00 -0.00000000000E+00 -0.75821657701E+02  0.75821657701E+02  0.00000000000E+00 0. -1.
          1    1    1    2  502    0  0.19171455489E+02 -0.37800642985E+02  0.78023259658E+01  0.43096515011E+02  0.00000000000E+00 0.  1.
         -1    1    1    2    0  501 -0.19171455489E+02  0.37800642985E+02 -0.50454551126E+02  0.65894575231E+02  0.00000000000E+00 0. -1.
</event>
<event>
 4    1  0.6740123E+001  0.2229964E+02  0.7546771E-02  0.1501485E+00
          2   -1    0    0  502    0  0.00000000000E+00  0.00000000000E+00  0.10494881285E+04  0.10494881285E+04  0.00000000000E+00 0.  1.
         -2   -1    0    0    0  501 -0.00000000000E+00 -0.00000000000E+00 -0.13294753319E+01  0.13294753319E+01  0.00000000000E+00 0. -1.
          1    1    1    2  502    0 -0.74976488248E+01 -0.21001414606E+02  0.10257187445E+03  0.10496791691E+03  0.00000000000E+00 0. -1.
         -1    1    1    2    0  501  0.74976488248E+01  0.21001414606E+02  0.94558677875E+03  0.94584968695E+03  0.00000000000E+00 0.  1.
</event>
<event>
 4    1  0.6740123E+001  0.2601850E+02  0.7546771E-02  0.1457725E+00
          2   -1    0    0  502    0  0.00000000000E+00  0.00000000000E+00  0.24464331013E+04  0.24464331013E+04  0.00000000000E+00 0. -1.
         -2   -1    0    0    0  501 -0.00000000000E+00 -0.00000000000E+00 -0.29154172621E+00  0.29154172621E+00  0.00000000000E+00 0.  1.
          1    1    1    2  502    0  0.16082799070E+01 -0.25968747327E+02  0.94717735900E+03  0.94753464940E+03  0.00000000000E+00 0. -1.
         -1    1    1    2    0  501 -0.16082799070E+01  0.25968747327E+02  0.14989642006E+04  0.14991899936E+04  0.00000000000E+00 0.  1.
</event>
<event>
 4    1  0.6740123E+001  0.2118540E+02  0.7546771E-02  0.1516634E+00
          2   -1    0    0  502    0  0.00000000000E+00  0.00000000000E+00  0.67711410641E+01  0.67711410641E+01  0.00000000000E+00 0.  1.
         -2   -1    0    0    0  501 -0.00000000000E+00 -0.00000000000E+00 -0.66293514506E+02  0.66293514506E+02  0.00000000000E+00 0. -1.
          1    1    1    2  502    0  0.13200446868E+02 -0.16570138684E+02 -0.30188605476E+02  0.36880525946E+02  0.00000000000E+00 0.  1.
         -1    1    1    2    0  501 -0.13200446868E+02  0.16570138684E+02 -0.29333767966E+02  0.36184129624E+02  0.00000000000E+00 0. -1.
</event>
<event>
 4    1  0.6740123E+001  0.2178193E+02  0.7546771E-02  0.1508387E+00
          2   -1    0    0  502    0  0.00000000000E+00  0.00000000000E+00  0.74213373894E+03  0.74213373894E+03  0.00000000000E+00 0.  1.
         -2   -1    0    0    0  501 -0.00000000000E+00 -0.00000000000E+00 -0.64814461707E+00  0.64814461707E+00  0.00000000000E+00 0. -1.
          1    1    1    2  502    0  0.57650610549E+01 -0.21005156930E+02  0.41410601174E+03  0.41467847968E+03  0.00000000000E+00 0.  1.
         -1    1    1    2    0  501 -0.57650610549E+01  0.21005156930E+02  0.32737958258E+03  0.32810340388E+03  0.00000000000E+00 0. -1.
</event>
<event>
 4    1  0.6740123E+001  0.2643891E+02  0.7546771E-02  0.1453327E+00
          2   -1    0    0  502    0  0.00000000000E+00  0.00000000000E+00  0.29827915554E+02  0.29827915554E+02  0.00000000000E+00 0.  1.
         -2   -1    0    0    0  501 -0.00000000000E+00 -0.00000000000E+00 -0.75448000402E+02  0.75448000402E+02  0.00000000000E+00 0. -1.
          1    1    1    2  502    0 -0.22329148323E+02  0.14157162445E+02 -0.66515057232E+02  0.71577014131E+02  0.00000000000E+00 0. -1.
         -1    1    1    2    0  501  0.22329148323E+02 -0.14157162445E+02  0.20894972383E+02  0.33698901825E+02  0.00000000000E+00 0.  1.
</event>
<event>
 4    1  0.6740123E+001  0.2013836E+02  0.7546771E-02  0.1531931E+00
          2   -1    0    0  502    0  0.00000000000E+00  0.00000000000E+00  0.69787629037E+00  0.69787629037E+00  0.00000000000E+00 0. -1.
         -2   -1    0    0    0  501 -0.00000000000E+00 -0.00000000000E+00 -0.13200176396E+04  0.13200176396E+04  0.00000000000E+00 0.  1.
          1    1    1    2  502    0 -0.93238966367E+01  0.17849891469E+02 -0.16559958521E+03  0.16681959206E+03  0.00000000000E+00 0. -1.
         -1    1    1    2    0  501  0.93238966367E+01 -0.17849891469E+02 -0.11537201781E+04  0.11538959239E+04  0.00000000000E+00 0.  1.
</event>
<event>
 4    1  0.6740123E+001  0.2515148E+02  0.7546771E-02  0.1467116E+00
          2   -1    0    0  502    0  0.00000000000E+00  0.00000000000E+00  0.56612637314E+03  0.56612637314E+03  0.00000000000E+00 0. -1.
         -2   -1    0    0    0  501 -0.00000000000E+00 -0.00000000000E+00 -0.11841269154E+01  0.11841269154E+01  0.00000000000E+00 0.  1.
          1    1    1    2  502    0  0.22529845101E+02 -0.11180465295E+02  0.21514225392E+03  0.21660744712E+03  0.00000000000E+00 0.  1.
         -1    1    1    2    0  501 -0.22529845101E+02  0.11180465295E+02  0.34979999230E+03  0.35070305294E+03  0.00000000000E+00 0. -1.
</event>
<event>
 4    1  0.6740123E+001  0.3075242E+02  0.7546771E-02  0.1413168E+00
          2   -1    0    0  502    0  0.00000000000E+00  0.00000000000E+00  0.49756688991E+02  0.49756688991E+02  0.00000000000E+00 0.  1.
         -2   -1    0    0    0  501 -0.00000000000E+00 -0.00000000000E+00 -0.47628031967E+02  0.47628031967E+02  0.00000000000E+00 0. -1.
          1    1    1    2  502    0 -0.28626455336E+02 -0.11235553129E+02  0.38810617202E+02  0.49517427304E+02  0.00000000000E+00 0.  1.
         -1    1    1    2    0  501  0.28626455336E+02  0.11235553129E+02 -0.36681960178E+02  0.47867293653E+02  0.00000000000E+00 0. -1.
</event>
<event>
 4    1  0.6740123E+001  0.2053319E+02  0.7546771E-02  0.1526035E+00
          2   -1    0    0  502    0  0.00000000000E+00  0.00000000000E+00  0.51150886127E+02  0.51150886127E+02  0.00000000000E+00 0. -1.
         -2   -1    0    0    0  501 -0.00000000000E+00 -0.00000000000E+00 -0.16355707003E+02  0.16355707003E+02  0.00000000000E+00 0.  1.
          1    1    1    2  502    0 -0.19617330969E+02 -0.60640099445E+01  0.41170231007E+02  0.46006519235E+02  0.00000000000E+00 0. -1.
         -1    1    1    2    0  501  0.19617330969E+02  0.60640099445E+01 -0.63750518841E+01  0.21500073895E+02  0.00000000000E+00 0.  1.
</event>
<event>
 4    1  0.6740123E+001  0.4985067E+02  0.7546771E-02  0.1298821E+00
          2   -1    0    0  502    0  0.00000000000E+00  0.00000000000E+00  0.57250529760E+01  0.57250529760E+01  0.00000000000E+00 0.  1.
         -2   -1    0    0    0  501 -0.00000000000E+00 -0.00000000000E+00 -0.43512333957E+03  0.43512333957E+03  0.00000000000E+00 0. -1.
          1    1    1    2  502    0 -0.33948872138E+02  0.36504292336E+02 -0.20386792699E+03  0.20987429794E+03  0.00000000000E+00 0.  1.
         -1    1    1    2    0  501  0.33948872138E+02 -0.36504292336E+02 -0.22553035960E+03  0.23097409461E+03  0.00000000000E+00 0. -1.
</event>
<event>
 4    1  0.6740123E+001  0.2480105E+02  0.7546771E-02  0.1471041E+00
          2   -1    0    0  502    0  0.00000000000E+00  0.00000000000E+00  0.21449221876E+01  0.21449221876E+01  0.00000000000E+00 0. -1.
         -2   -1    0    0    0  501 -0.00000000000E+00 -0.00000000000E+00 -0.42708406182E+03  0.42708406182E+03  0.00000000000E+00 0.  1.
          1    1    1    2  502    0 -0.20382111850E+01  0.24717152807E+02 -0.89454507405E+02  0.92828879358E+02  0.00000000000E+00 0. -1.
         -1    1    1    2    0  501  0.20382111850E+01 -0.24717152807E+02 -0.33548463223E+03  0.33640010465E+03  0.00000000000E+00 0.  1.
</event>
<event>
 4    1  0.6740123E+001  0.2423119E+02  0.7546771E-02  0.1477591E+00
          2   -1    0    0  502    0  0.00000000000E+00  0.00000000000E+00  0.92932934628E+01  0.92932934628E+01  0.00000000000E+00 0.  1.
         -2   -1    0    0    0  501 -0.00000000000E+00 -0.00000000000E+00 -0.12433577880E+03  0.12433577880E+03  0.00000000000E+00 0. -1.
          1    1    1    2  502    0  0.23919610040E+02 -0.38733390902E+01 -0.10662399259E+02  0.26473331074E+02  0.00000000000E+00 0.  1.
         -1    1    1    2    0  501 -0.23919610040E+02  0.38733390902E+01 -0.10438008608E+03  0.10715574119E+03  0.00000000000E+00 0. -1.
</event>
<event>
 4    1  0.6740123E+001  0.2519938E+02  0.7546771E-02  0.1466585E+00
          2   -1    0    0  502    0  0.00000000000E+00  0.00000000000E+00  0.69999429671E+03  0.69999429671E+03  0.00000000000E+00 0.  1.
         -2   -1    0    0    0  501 -0.00000000000E+00 -0.00000000000E+00 -0.93061092105E+00  0.93061092105E+00  0.00000000000E+00 0. -1.
          1    1    1    2  502    0  0.79912734419E+01  0.23898704432E+02  0.40516259194E+03  0.40594548210E+03  0.00000000000E+00 0. -1.
         -1    1    1    2    0  501 -0.79912734419E+01 -0.23898704432E+02  0.29390109385E+03  0.29497942554E+03  0.00000000000E+00 0.  1.
</event>
<event>
 4    1  0.6740123E+001  0.2690085E+02  0.7546771E-02  0.1448607E+00
          2   -1    0    0  502    0  0.00000000000E+00  0.00000000000E+00  0.77512960952E+03  0.77512960952E+03  0.00000000000E+00 0.  1.
         -2   -1    0    0    0  501 -0.00000000000E+00 -0.00000000000E+00 -0.30129023371E+01  0.30129023371E+01  0.00000000000E+00 0. -1.
          1    1    1    2  502    0  0.79915086371E+01  0.25686409224E+02  0.70927679947E+03  0.70978675255E+03  0.00000000000E+00 0.  1.
         -1    1    1    2    0  501 -0.79915086371E+01 -0.25686409224E+02  0.62839907715E+02  0.68355759309E+02  0.00000000000E+00 0. -1.
</event>
<event>
 4    1  0.6740123E+001  0.2013520E+02  0.7546771E-02  0.1531979E+00
          2   -1    0    0  502    0  0.00000000000E+00  0.00000000000E+00  0.70532562776E+03  0.70532562776E+03  0.00000000000E+00 0.  1.
         -2   -1    0    0    0  501 -0.00000000000E+00 -0.00000000000E+00 -0.68775385715E+00  0.68775385715E+00  0.00000000000E+00 0. -1.
          1    1    1    2  502    0  0.15291733720E+02  0.13099199554E+02  0.20926382445E+03  0.21023028890E+03  0.00000000000E+00 0. -1.
         -1    1    1    2    0  501 -0.15291733720E+02 -0.13099199554E+02  0.49537404945E+03  0.49578309271E+03  0.00000000000E+00 0.  1.
</event>
<event>
 4    1  0.6740123E+001  0.3689675E+02  0.7546771E-02  0.1367698E+00
          2   -1    0    0  502    0  0.00000000000E+00  0.00000000000E+00  0.20192599820E+04  0.20192599820E+04  0.00000000000E+00 0.  1.
         -2   -1    0    0    0  501 -0.00000000000E+00 -0.00000000000E+00 -0.11876726975E+01  0.11876726975E+01  0.00000000000E+00 0. -1.
          1    1    1    2  502    0  0.33402533209E+02 -0.15672924870E+02  0.16732854458E+04  0.16736921918E+04  0.00000000000E+00 0.  1.
         -1    1    1    2    0  501 -0.33402533209E+02  0.15672924870E+02  0.34478686351E+03  0.34675546290E+03  0.00000000000E+00 0. -1.
</event>
<event>
 4    1  0.6740123E+001  0.2077239E+02  0.7546771E-02  0.1522539E+00
          2   -1    0    0  502    0  0.00000000000E+00  0.00000000000E+00  0.79047671157E+02  0.79047671157E+02  0.00000000000E+00 0.  1.
         -2   -1    0    0    0  501 -0.00000000000E+00 -0.00000000000E+00 -0.82187289801E+01  0.82187289801E+01  0.00000000000E+00 0. -1.
          1    1    1    2  502    0  0.36200027240E+01 -0.20454532169E+02  0.10128668166E+02  0.23110219055E+02  0.00000000000E+00 0. -1.
         -1    1    1    2    0  501 -0.36200027240E+01  0.20454532169E+02  0.60700274011E+02  0.64156181081E+02  0.00000000000E+00 0.  1.
</event>
<event>
 4    1  0.6740123E+001  0.2062548E+02  0.7546771E-02  0.1524680E+00
          2   -1    0    0  502    0  0.00000000000E+00  0.00000000000E+00  0.63474720670E+03  0.63474720670E+03  0.00000000000E+00 0.  1.
         -2   -1    0    0    0  501 -0.00000000000E+00 -0.00000000000E+00 -0.67322074891E+00  0.67322074891E+00  0.00000000000E+00 0. -1.
          1    1    1    2  502    0 -0.20499419955E+02 -0.22768849197E+01  0.29577092230E+03  0.29648920537E+03  0.00000000000E+00 0. -1.
         -1    1    1    2    0  501  0.20499419955E+02  0.22768849197E+01  0.33830306365E+03  0.33893122208E+03  0.00000000000E+00 0.  1.
</event>
<event>
 4    1  0.6740123E+001  0.3259094E+02  0.7546771E-02  0.1398340E+00
          2   -1    0    0  502    0  0.00000000000E+00  0.00000000000E+00  0.23872270989E+02  0.23872270989E+02  0.00000000000E+00 0.  1.
         -2   -1    0    0    0  501 -0.00000000000E+00 -0.00000000000E+00 -0.94195076672E+02  0.94195076672E+02  0.00000000000E+00 0. -1.
          1    1    1    2  502    0  0.21902252708E+02  0.24134223809E+02  0.77200241161E+01  0.33492808256E+02  0.00000000000E+00 0.  1.
         -1    1    1    2    0  501 -0.21902252708E+02 -0.24134223809E+02 -0.78042829799E+02  0.84574539405E+02  0.00000000000E+00 0. -1.
</event>
<event>
 4    1  0.6740123E+001  0.2110149E+02  0.7546771E-02  0.1517821E+00
          2   -1    0    0  502    0  0.00000000000E+00  0.00000000000E+00  0.72328450779E+02  0.72328450779E+02  0.00000000000E+00 0.  1.
         -2   -1    0    0    0  501 -0.00000000000E+00 -0.00000000000E+00 -0.93153073505E+01  0.93153073505E+01  0.00000000000E+00 0. -1.
          1    1    1    2  502    0 -0.40543850756E+01  0.20708328526E+02  0.55278932504E+02  0.59169530060E+02  0.00000000000E+00 0.  1.
         -1    1    1    2    0  501  0.40543850756E+01 -0.20708328526E+02  0.77342109244E+01  0.22474228070E+02  0.00000000000E+00 0. -1.
</event>
<event>
 4    1  0.6740123E+001  0.5637708E+02  0.7546771E-02  0.1272665E+00
          2   -1    0    0  502    0  0.00000000000E+00  0.00000000000E+00  0.89148172095E+03  0.89148172095E+03  0.00000000000E+00 0. -1.
         -2   -1    0    0    0  501 -0.00000000000E+00 -0.00000000000E+00 -0.66207674485E+01  0.66207674485E+01  0.00000000000E+00 0.  1.
          1    1    1    2  502    0 -0.55868807951E+02  0.75532579072E+01  0.74748854148E+03  0.74961156278E+03  0.00000000000E+00 0. -1.
         -1    1    1    2    0  501  0.55868807951E+02 -0.75532579072E+01  0.13737241202E+03  0.14849092562E+03  0.00000000000E+00 0.  1.
</event>
<event>
 4    1  0.6740123E+001  0.2145418E+02  0.7546771E-02  0.1512878E+00
          2   -1    0    0  502    0  0.00000000000E+00  0.00000000000E+00  0.32163717747E+03  0.32163717747E+03  0.00000000000E+00 0. -1.
         -2   -1    0    0    0  501 -0.00000000000E+00 -0.00000000000E+00 -0.22432609232E+01  0.22432609232E+01  0.00000000000E+00 0.  1.
          1    1    1    2  502    0  0.18922237615E+02 -0.10110927139E+02  0.25713907562E+03  0.25803252921E+03  0.00000000000E+00 0. -1.
         -1    1    1    2    0  501 -0.18922237615E+02  0.10110927139E+02  0.62254840930E+02  0.65847909178E+02  0.00000000000E+00 0.  1.
</event>
<event>
 4    1  0.6740123E+001  0.2826194E+02  0.7546771E-02  0.1435328E+00
          2   -1    0    0  502    0  0.00000000000E+00  0.00000000000E+00  0.30427750135E+01  0.30427750135E+01  0.00000000000E+00 0. -1.
         -2   -1    0    0    0  501 -0.00000000000E+00 -0.00000000000E+00 -0.26255530038E+03  0.26255530038E+03  0.00000000000E+00 0.  1.
          1    1    1    2  502    0 -0.27999040717E+02 -0.38458987812E+01 -0.12787990689E+03  0.13096567415E+03  0.00000000000E+00 0.  1.
         -1    1    1    2    0  501  0.27999040717E+02  0.38458987812E+01 -0.13163261847E+03  0.13463240124E+03  0.00000000000E+00 0. -1.
</event>
<event>
 4    1  0.6740123E+001  0.2469784E+02  0.7546771E-02  0.1472212E+00
          2   -1    0    0  502    0  0.00000000000E+00  0.00000000000E+00  0.80742333562E+03  0.80742333562E+03  0.00000000000E+00 0. -1.
         -2   -1    0    0    0  501 -0.00000000000E+00 -0.00000000000E+00 -0.77396457727E+00  0.77396457727E+00  0.00000000000E+00 0.  1.
          1    1    1    2  502    0 -0.64909417409E+01 -0.23829623428E+02  0.46579319306E+03  0.46644751256E+03  0.00000000000E+00 0.  1.
         -1    1    1    2    0  501  0.64909417409E+01  0.23829623428E+02  0.34085617799E+03  0.34174978764E+03  0.00000000000E+00 0. -1.
</event>
<event>
 4    1  0.6740123E+001  0.2868070E+02  0.7546771E-02  0.1431418E+00
          2   -1    0    0  502    0  0.00000000000E+00  0.00000000000E+00  0.19335463912E+03  0.19335463912E+03  0.00000000000E+00 0. -1.
         -2   -1    0    0    0  501 -0.00000000000E+00 -0.00000000000E+00 -0.43835074194E+01  0.43835074194E+01  0.00000000000E+00 0.  1.
          1    1    1    2  502    0 -0.22935001134E+02 -0.17221164001E+02  0.77509213825E+02  0.82645393061E+02  0.00000000000E+00 0. -1.
         -1    1    1    2    0  501  0.22935001134E+02  0.17221164001E+02  0.11146191787E+03  0.11509275348E+03  0.00000000000E+00 0.  1.
</event>
<event>
 4    1  0.6740123E+001  0.2257705E+02  0.7546771E-02  0.1497879E+00
          2   -1    0    0  502    0  0.00000000000E+00  0.00000000000E+00  0.12987859181E+03  0.12987859181E+03  0.00000000000E+00 0.  1.
         -2   -1    0    0    0  501 -0.00000000000E+00 -0.00000000000E+00 -0.43217251482E+01  0.43217251482E+01  0.00000000000E+00 0. -1.
          1    1    1    2  502    0  0.22463169231E+02 -0.22647914015E+01  0.42438412969E+02  0.48070179397E+02  0.00000000000E+00 0. -1.
         -1    1    1    2    0  501 -0.22463169231E+02  0.22647914015E+01  0.83118453694E+02  0.86130137562E+02  0.00000000000E+00 0.  1.
</event>
<event>
 4    1  0.6740123E+001  0.2171489E+02  0.7546771E-02  0.1509298E+00
          2   -1    0    0  502    0  0.00000000000E+00  0.00000000000E+00  0.10198783645E+01  0.10198783645E+01  0.00000000000E+00 0.  1.
         -2   -1    0    0    0  501 -0.00000000000E+00 -0.00000000000E+00 -0.46544634285E+03  0.46544634285E+03  0.00000000000E+00 0. -1.
          1    1    1    2  502    0  0.51848659883E-01  0.21714832818E+02 -0.25124864482E+03  0.25218528540E+03  0.00000000000E+00 0. -1.
         -1    1    1    2    0  501 -0.51848659883E-01 -0.21714832818E+02 -0.21317781967E+03  0.21428093581E+03  0.00000000000E+00 0.  1.
</event>
<event>
 4    1  0.6740123E+001  0.2491505E+02  0.7546771E-02  0.1469756E+00
          2   -1    0    0  502    0  0.00000000000E+00  0.00000000000E+00  0.33590510523E+01  0.33590510523E+01  0.00000000000E+00 0. -1.
         -2   -1    0    0    0  501 -0.00000000000E+00 -0.00000000000E+00 -0.42580589170E+03  0.42580589170E+03  0.00000000000E+00 0.  1.
          1    1    1    2  502    0 -0.23717973591E+02 -0.76300333444E+01 -0.49787434693E+02  0.55673587395E+02  0.00000000000E+00 0.  1.
         -1    1    1    2    0  501  0.23717973591E+02  0.76300333444E+01 -0.37265940595E+03  0.37349135536E+03  0.00000000000E+00 0. -1.
</event>
<event>
 4    1  0.6740123E+001  0.2502513E+02  0.7546771E-02  0.1468523E+00
          2   -1    0    0  502    0  0.00000000000E+00  0.00000000000E+00  0.17820551620E+03  0.17820551620E+03  0.00000000000E+00 0.  1.
         -2   -1    0    0    0  501 -0.00000000000E+00 -0.00000000000E+00 -0.62268876217E+01  0.62268876217E+01  0.00000000000E+00 0. -1.
          1    1    1    2  502    0  0.24663265735E+02  0.42403094697E+01  0.14685442711E+03  0.14897140552E+03  0.00000000000E+00 0.  1.
         -1    1    1    2    0  501 -0.24663265735E+02 -0.42403094697E+01  0.25124201471E+02  0.35460998303E+02  0.00000000000E+00 0. -1.
</event>
<event>
 4    1  0.6740123E+001  0.2288064E+02  0.7546771E-02  0.1494002E+00
          2   -1    0    0  502    0  0.00000000000E+00  0.00000000000E+00  0.12035033951E+01  0.12035033951E+01  0.00000000000E+00 0.  1.
         -2   -1    0    0    0  501 -0.00000000000E+00 -0.00000000000E+00 -0.73827111678E+03  0.73827111678E+03  0.00000000000E+00 0. -1.
          1    1    1    2  502    0 -0.11391220741E+02 -0.19843477071E+02 -0.13155955969E+03  0.13353441968E+03  0.00000000000E+00 0.  1.
         -1    1    1    2    0  501  0.11391220741E+02  0.19843477071E+02 -0.60550805369E+03  0.60594020050E+03  0.00000000000E+00 0. -1.
</event>
<event>
 4    1  0.6740123E+001  0.3588513E+02  0.7546771E-02  0.1374445E+00
          2   -1    0    0  502    0  0.00000000000E+00  0.00000000000E+00  0.17816517837E+04  0.17816517837E+04  0.00000000000E+00 0. -1.
         -2   -1    0    0    0  501 -0.00000000000E+00 -0.00000000000E+00 -0.73327231798E+00  0.73327231798E+00  0.00000000000E+00 0.  1.
          1    1    1    2  502    0 -0.20211072794E+02  0.29652241536E+02  0.78385673723E+03  0.78467772199E+03  0.00000000000E+00 0.  1.
         -1    1    1    2    0  501  0.20211072794E+02 -0.29652241536E+02  0.99706177411E+03  0.99770733398E+03  0.00000000000E+00 0. -1.
</event>
<event>
 4    1  0.6740123E+001  0.2044160E+02  0.7546771E-02  0.1527389E+00
          2   -1    0    0  502    0  0.00000000000E+00  0.00000000000E+00  0.14719224097E+02  0.14719224097E+02  0.00000000000E+00 0.  1.
         -2   -1    0    0    0  501 -0.00000000000E+00 -0.00000000000E+00 -0.49310452688E+02  0.49310452688E+02  0.00000000000E+00 0. -1.
          1    1    1    2  502    0  0.13334596646E+02 -0.15493462801E+02  0.35580030922E+01  0.20748933545E+02  0.00000000000E+00 0.  1.
         -1    1    1    2    0  501 -0.13334596646E+02  0.15493462801E+02 -0.38149231683E+02  0.43280743239E+02  0.00000000000E+00 0. -1.
</event>
<event>
 4    1  0.6740123E+001  0.3054667E+02  0.7546771E-02  0.1414904E+00
          2   -1    0    0  502    0  0.00000000000E+00  0.00000000000E+00  0.36494721190E+01  0.36494721190E+01  0.00000000000E+00 0.  1.
         -2   -1    0    0    0  501 -0.00000000000E+00 -0.00000000000E+00 -0.39596750473E+03  0.39596750473E+03  0.00000000000E+00 0. -1.
          1    1    1    2  502    0  0.14953554287E+02  0.26636254305E+02 -0.31508942018E+03  0.31656664628E+03  0.00000000000E+00 0. -1.
         -1    1    1    2    0  501 -0.14953554287E+02 -0.26636254305E+02 -0.77228612432E+02  0.83050330567E+02  0.00000000000E+00 0.  1.
</event>
<event>
 4    1  0.6740123E+001  0.2039035E+02  0.7546771E-02  0.1528150E+00
          2   -1    0    0  502    0  0.00000000000E+00  0.00000000000E+00  0.16677396933E+04  0.16677396933E+04  0.00000000000E+00 0.  1.
         -2   -1    0    0    0  501 -0.00000000000E+00 -0.00000000000E+00 -0.42461306837E+00  0.42461306837E+00  0.00000000000E+00 0. -1.
          1    1    1    2  502    0  0.19504094980E+02 -0.59461328119E+01  0.13696025769E+04  0.13697543520E+04  0.00000000000E+00 0.  1.
         -1    1    1    2    0  501 -0.19504094980E+02  0.59461328119E+01  0.29771250333E+03  0.29840995435E+03  0.00000000000E+00 0. -1.
</event>
<event>
 4    1  0.6740123E+001  0.2243984E+02  0.7546771E-02  0.1499654E+00
          2   -1    0    0  502    0  0.00000000000E+00  0.00000000000E+00  0.26238228190E+02  0.26238228190E+02  0.00000000000E+00 0. -1.
         -2   -1    0    0    0  501 -0.00000000000E+00 -0.00000000000E+00 -0.19817746984E+02  0.19817746984E+02  0.00000000000E+00 0.  1.
          1    1    1    2  502    0 -0.15876110087E+02 -0.15858616911E+02 -0.88386657792E+00  0.22457244310E+02  0.00000000000E+00 0.  1.
         -1    1    1    2    0  501  0.15876110087E+02  0.15858616911E+02  0.73043477846E+01  0.23598730864E+02  0.00000000000E+00 0. -1.
</event>
<event>
 4    1  0.6740123E+001  0.2459342E+02  0.7546771E-02  0.1473404E+00
          2   -1    0    0  502    0  0.00000000000E+00  0.00000000000E+00  0.32683482225E+03  0.32683482225E+03  0.00000000000E+00 0. -1.
         -2   -1    0    0    0  501 -0.00000000000E+00 -0.00000000000E+00 -0.16858494441E+02  0.16858494441E+02  0.00000000000E+00 0.  1.
          1    1    1    2  502    0  0.92034013745E+01  0.22806438056E+02 -0.71524346277E+01  0.25612370737E+02  0.00000000000E+00 0.  1.
         -1    1    1    2    0  501 -0.92034013745E+01 -0.22806438056E+02  0.31712876244E+03  0.31808094596E+03  0.00000000000E+00 0. -1.
</event>
<event>
 4    1  0.6740123E+001  0.3426787E+02  0.7546771E-02  0.1385785E+00
          2   -1    0    0  502    0  0.00000000000E+00  0.00000000000E+00  0.24145607456E+03  0.24145607456E+03  0.00000000000E+00 0. -1.
         -2   -1    0    0    0  501 -0.00000000000E+00 -0.00000000000E+00 -0.89932440683E+01  0.89932440683E+01  0.00000000000E+00 0.  1.
          1    1    1    2  502    0  0.31650942698E+02 -0.13134108774E+02  0.31371854503E+02  0.46459447284E+02  0.00000000000E+00 0.  1.
         -1    1    1    2    0  501 -0.31650942698E+02  0.13134108774E+02  0.20109097599E+03  0.20398987134E+03  0.00000000000E+00 0. -1.
</event>
<event>
 4    1  0.6740123E+001  0.2063775E+02  0.7546771E-02  0.1524500E+00
          2   -1    0    0  502    0  0.00000000000E+00  0.00000000000E+00  0.11828856431E+02  0.11828856431E+02  0.00000000000E+00 0. -1.
         -2   -1    0    0    0  501 -0.00000000000E+00 -0.00000000000E+00 -0.48012181882E+02  0.48012181882E+02  0.00000000000E+00 0.  1.
          1    1    1    2  502    0 -0.20456242330E+02  0.27310578910E+01 -0.31298028470E+01  0.20873720160E+02  0.00000000000E+00 0. -1.
         -1    1    1    2    0  501  0.20456242330E+02 -0.27310578910E+01 -0.33053522604E+02  0.38967318153E+02  0.00000000000E+00 0.  1.
</event>
<event>
 4    1  0.6740123E+001  0.2460887E+02  0.7546771E-02  0.1473227E+00
          2   -1    0    0  502    0  0.00000000000E+00  0.00000000000E+00  0.13911112684E+04  0.13911112684E+04  0.00000000000E+00 0.  1.
         -2   -1    0    0    0  501 -0.00000000000E+00 -0.00000000000E+00 -0.45078632474E+00  0.45078632474E+00  0.00000000000E+00 0. -1.
          1    1    1    2  502    0 -0.30739158838E+00  0.24606946615E+02  0.56650483509E+03  0.56703908551E+03  0.00000000000E+00 0.  1.
         -1    1    1    2    0  501  0.30739158838E+00 -0.24606946615E+02  0.82415564695E+03  0.82452296918E+03  0.00000000000E+00 0. -1.
</event>
<event>
 4    1  0.6740123E+001  0.2048374E+02  0.7546771E-02  0.1526765E+00
          2   -1    0    0  502    0  0.00000000000E+00  0.00000000000E+00  0.25082913106E+03  0.25082913106E+03  0.00000000000E+00 0. -1.
         -2   -1    0    0    0  501 -0.00000000000E+00 -0.00000000000E+00 -0.17749397628E+01  0.17749397628E+01  0.00000000000E+00 0.  1.
          1    1    1    2  502    0  0.14504448714E+02 -0.14463911069E+02  0.15482713599E+03  0.15617626515E+03  0.00000000000E+00 0.  1.
         -1    1    1    2    0  501 -0.14504448714E+02  0.14463911069E+02  0.94227055309E+02  0.96427805679E+02  0.00000000000E+00 0. -1.
</event>
<event>
 4    1  0.6740123E+001  0.2815205E+02  0.7546771E-02  0.1436367E+00
          2   -1    0    0  502    0  0.00000000000E+00  0.00000000000E+00  0.29086938981E+04  0.29086938981E+04  0.00000000000E+00 0. -1.
         -2   -1    0    0    0  501 -0.00000000000E+00 -0.00000000000E+00 -0.28596388917E+00  0.28596388917E+00  0.00000000000E+00 0.  1.
          1    1    1    2  502    0  0.25790307587E+02  0.11287063024E+02  0.11382739601E+04  0.11386220383E+04  0.00000000000E+00 0. -1.
         -1    1    1    2    0  501 -0.25790307587E+02 -0.11287063024E+02  0.17701339741E+04  0.17703578237E+04  0.00000000000E+00 0.  1.
</event>
<event>
 4    1  0.6740123E+001  0.2331484E+02  0.7546771E-02  0.1488582E+00
          2   -1    0    0  502    0  0.00000000000E+00  0.00000000000E+00  0.90836981596E+03  0.90836981596E+03  0.00000000000E+00 0. -1.
         -2   -1    0    0    0  501 -0.00000000000E+00 -0.00000000000E+00 -0.62254438254E+00  0.62254438254E+00  0.00000000000E+00 0.  1.
          1    1    1    2  502    0  0.22024031946E+02 -0.76500770555E+01  0.36439429982E+03  0.36513940817E+03  0.00000000000E+00 0.  1.
         -1    1    1    2    0  501 -0.22024031946E+02  0.76500770555E+01  0.54335297176E+03  0.54385295217E+03  0.00000000000E+00 0. -1.
</event>
<event>
 4    1  0.6740123E+001  0.2846321E+02  0.7546771E-02  0.1433439E+00
          2   -1    0    0  502    0  0.00000000000E+00  0.00000000000E+00  0.35329613263E+02  0.35329613263E+02  0.00000000000E+00 0. -1.
         -2   -1    0    0    0  501 -0.00000000000E+00 -0.00000000000E+00 -0.24929262870E+02  0.24929262870E+02  0.00000000000E+00 0.  1.
          1    1    1    2  502    0  0.76851564891E+01  0.27406074546E+02  0.13729766054E+02  0.31601598507E+02  0.00000000000E+00 0. -1.
         -1    1    1    2    0  501 -0.76851564891E+01 -0.27406074546E+02 -0.33294156615E+01  0.28657277626E+02  0.00000000000E+00 0.  1.
</event>
<event>
 4    1  0.6740123E+001  0.2138062E+02  0.7546771E-02  0.1513899E+00
          2   -1    0    0  502    0  0.00000000000E+00  0.00000000000E+00  0.17996214336E+02  0.17996214336E+02  0.00000000000E+00 0.  1.
         -2   -1    0    0    0  501 -0.00000000000E+00 -0.00000000000E+00 -0.28147722094E+02  0.28147722094E+02  0.00000000000E+00 0. -1.
          1    1    1    2  502    0  0.21380576391E+02 -0.42421597214E-01  0.21308526529E+01  0.21486539494E+02  0.00000000000E+00 0.  1.
         -1    1    1    2    0  501 -0.21380576391E+02  0.42421597214E-01 -0.12282360411E+02  0.24657396936E+02  0.00000000000E+00 0. -1.
</event>
<event>
 4    1  0.6740123E+001  0.2095085E+02  0.7546771E-02  0.1519968E+00
          2   -1    0    0  502    0  0.00000000000E+00  0.00000000000E+00  0.75433178934E+03  0.75433178934E+03  0.00000000000E+00 0. -1.
         -2   -1    0    0    0  501 -0.00000000000E+00 -0.00000000000E+00 -0.32571319388E+01  0.32571319388E+01  0.00000000000E+00 0.  1.
          1    1    1    2  502    0  0.20598914860E+02 -0.38240024415E+01  0.32242344341E+02  0.38451359620E+02  0.00000000000E+00 0.  1.
         -1    1    1    2    0  501 -0.20598914860E+02  0.38240024415E+01  0.71883231306E+03  0.71913756165E+03  0.00000000000E+00 0. -1.
</event>
<event>
 4    1  0.6740123E+001  0.2140347E+02  0.7546771E-02  0.1513582E+00
          2   -1    0    0  502    0  0.00000000000E+00  0.00000000000E+00  0.11209293940E+03  0.11209293940E+03  0.00000000000E+00 0. -1.
         -2   -1    0    0    0  501 -0.00000000000E+00 -0.00000000000E+00 -0.81855921718E+01  0.81855921718E+01  0.00000000000E+00 0.  1.
          1    1    1    2  502    0 -0.11025290920E+02 -0.18345342358E+02  0.94509361556E+02  0.96902673068E+02  0.00000000000E+00 0. -1.
         -1    1    1    2    0  501  0.11025290920E+02  0.18345342358E+02  0.93979856740E+01  0.23375858505E+02  0.00000000000E+00 0.  1.
</event>
<event>
 4    1  0.6740123E+001  0.2113788E+02  0.7546771E-02  0.1517305E+00
          2   -1    0    0  502    0  0.00000000000E+00  0.00000000000E+00  0.13667869221E+03  0.13667869221E+03  0.00000000000E+00 0. -1.
         -2   -1    0    0    0  501 -0.00000000000E+00 -0.00000000000E+00 -0.39079036516E+01  0.39079036516E+01  0.00000000000E+00 0.  1.
          1    1    1    2  502    0 -0.20443277677E+02  0.53742385533E+01  0.37964267939E+02  0.43452222985E+02  0.00000000000E+00 0. -1.
         -1    1    1    2    0  501  0.20443277677E+02 -0.53742385533E+01  0.94806520621E+02  0.97134372879E+02  0.00000000000E+00 0.  1.
</event>
<event>
 4    1  0.6740123E+001  0.2140894E+02  0.7546771E-02  0.1513506E+00
          2   -1    0    0  502    0  0.00000000000E+00  0.00000000000E+00  0.31373951245E+03  0.31373951245E+03  0.00000000000E+00 0. -1.
         -2   -1    0    0    0  501 -0.00000000000E+00 -0.00000000000E+00 -0.14692277037E+01  0.14692277037E+01  0.00000000000E+00 0.  1.
          1    1    1    2  502    0 -0.16030278769E+02 -0.14190585611E+02  0.16799950650E+03  0.16935813161E+03  0.00000000000E+00 0. -1.
         -1    1    1    2    0  501  0.16030278769E+02  0.14190585611E+02  0.14427077824E+03  0.14585060854E+03  0.00000000000E+00 0.  1.
</event>
<event>
 4    1  0.6740123E+001  0.2116901E+02  0.7546771E-02  0.1516865E+00
          2   -1    0    0  502    0  0.00000000000E+00  0.00000000000E+00  0.13451254132E+03  0.13451254132E+03  0.00000000000E+00 0.  1.
         -2   -1    0    0    0  501 -0.00000000000E+00 -0.00000000000E+00 -0.59024482138E+01  0.59024482138E+01  0.00000000000E+00 0. -1.
          1    1    1    2  502    0  0.18453059012E+02 -0.10373606572E+02  0.17969429957E+02  0.27767382181E+02  0.00000000000E+00 0. -1.
         -1    1    1    2    0  501 -0.18453059012E+02  0.10373606572E+02  0.11064066315E+03  0.11264760735E+03  0.00000000000E+00 0.  1.
</event>
<event>
 4    1  0.6740123E+001  0.2356872E+02  0.7546771E-02  0.1485478E+00
          2   -1    0    0  502    0  0.00000000000E+00  0.00000000000E+00  0.12064516138E+02  0.12064516138E+02  0.00000000000E+00 0.  1.
         -2   -1    0    0    0  501 -0.00000000000E+00 -0.00000000000E+00 -0.48222948327E+02  0.48222948327E+02  0.00000000000E+00 0. -1.
          1    1    1    2  502    0  0.22554005865E+02  0.68411420414E+01 -0.24488517222E+02  0.33987819594E+02  0.00000000000E+00 0. -1.
         -1    1    1    2    0  501 -0.22554005865E+02 -0.68411420414E+01 -0.11669914967E+02  0.26299644871E+02  0.00000000000E+00 0.  1.
</event>
<event>
 4    1  0.6740123E+001  0.2038393E+02  0.7546771E-02  0.1528245E+00
          2   -1    0    0  502    0  0.00000000000E+00  0.00000000000E+00  0.42363348602E+01  0.42363348602E+01  0.00000000000E+00 0. -1.
         -2   -1    0    0    0  501 -0.00000000000E+00 -0.00000000000E+00 -0.22192111692E+03  0.22192111692E+03  0.00000000000E+00 0.  1.
          1    1    1    2  502    0 -0.17739498179E+02 -0.10040663447E+02 -0.19331423104E+03  0.19438594764E+03  0.00000000000E+00 0.  1.
         -1    1    1    2    0  501  0.17739498179E+02  0.10040663447E+02 -0.24370551014E+02  0.31771504133E+02  0.00000000000E+00 0. -1.
</event>
<event>
 4    1  0.6740123E+001  0.2601743E+02  0.7546771E-02  0.1457736E+00
          2   -1    0    0  502    0  0.00000000000E+00  0.00000000000E+00  0.90403571726E+02  0.90403571726E+02  0.00000000000E+00 0. -1.
         -2   -1    0    0    0  501 -0.00000000000E+00 -0.00000000000E+00 -0.75449756031E+01  0.75449756031E+01  0.00000000000E+00 0.  1.
          1    1    1    2  502    0 -0.25880044054E+02 -0.26702297366E+01  0.45699612605E+02  0.52586703637E+02  0.00000000000E+00 0.  1.
         -1    1    1    2    0  501  0.25880044054E+02  0.26702297366E+01  0.37158983517E+02  0.45361843692E+02  0.00000000000E+00 0. -1.
</event>
<event>
 4    1  0.6740123E+001  0.3225853E+02  0.7546771E-02  0.1400934E+00
          2   -1    0    0  502    0  0.00000000000E+00  0.00000000000E+00  0.20394290017E+02  0.20394290017E+02  0.00000000000E+00 0. -1.
         -2   -1    0    0    0  501 -0.00000000000E+00 -0.00000000000E+00 -0.80111012345E+02  0.80111012345E+02  0.00000000000E+00 0.  1.
          1    1    1    2  502    0 -0.30809333148E+02  0.95602276278E+01 -0.60138442868E+02  0.68244012718E+02  0.00000000000E+00 0.  1.
         -1    1    1    2    0  501  0.30809333148E+02 -0.95602276278E+01  0.42172054005E+00  0.32261289644E+02  0.00000000000E+00 0. -1.
</event>
<event>
 4    1  0.6740123E+001  0.2555827E+02  0.7546771E-02  0.1462654E+00
          2   -1    0    0  502    0  0.00000000000E+00  0.00000000000E+00  0.36499514820E+01  0.36499514820E+01  0.00000000000E+00 0. -1.
         -2   -1    0    0    0  501 -0.00000000000E+00 -0.00000000000E+00 -0.21495201842E+03  0.21495201842E+03  0.00000000000E+00 0.  1.
          1    1    1    2  502    0  0.36311020833E+01  0.25299014027E+02 -0.60930464377E+02  0.66073795882E+02  0.00000000000E+00 0. -1.
         -1    1    1    2    0  501 -0.36311020833E+01 -0.25299014027E+02 -0.15037160256E+03  0.15252817402E+03  0.00000000000E+00 0.  1.
</event>
<event>
 4    1  0.6740123E+001  0.2180011E+02  0.7546771E-02  0.1508141E+00
          2   -1    0    0  502    0  0.00000000000E+00  0.00000000000E+00  0.89759665333E+03  0.89759665333E+03  0.00000000000E+00 0.  1.
         -2   -1    0    0    0  501 -0.00000000000E+00 -0.00000000000E+00 -0.53108343233E+00  0.53108343233E+00  0.00000000000E+00 0. -1.
          1    1    1    2  502    0  0.21752463894E+02  0.14405401239E+01  0.42373294149E+03  0.42429335435E+03  0.00000000000E+00 0.  1.
         -1    1    1    2    0  501 -0.21752463894E+02 -0.14405401239E+01  0.47333262840E+03  0.47383438241E+03  0.00000000000E+00 0. -1.
</event>
<event>
 4    1  0.6740123E+001  0.3643379E+02  0.7546771E-02  0.1370754E+00
          2   -1    0    0  502    0  0.00000000000E+00  0.00000000000E+00  0.65239375833E+02  0.65239375833E+02  0.00000000000E+00 0.  1.
         -2   -1    0    0    0  501 -0.00000000000E+00 -0.00000000000E+00 -0.24507168120E+02  0.24507168120E+02  0.00000000000E+00 0. -1.
          1    1    1    2  502    0 -0.27859161815E+02  0.23479529645E+02  0.38854537137E+02  0.53264399607E+02  0.00000000000E+00 0. -1.
         -1    1    1    2    0  501  0.27859161815E+02 -0.23479529645E+02  0.18776705763E+01  0.36482144347E+02  0.00000000000E+00 0.  1.
</event>
<event>
 4    1  0.6740123E+001  0.2480672E+02  0.7546771E-02  0.1470977E+00
          2   -1    0    0  502    0  0.00000000000E+00  0.00000000000E+00  0.32992748761E+03  0.32992748761E+03  0.00000000000E+00 0.  1.
         -2   -1    0    0    0  501 -0.00000000000E+00 -0.00000000000E+00 -0.18685781105E+01  0.18685781105E+01  0.00000000000E+00 0. -1.
          1    1    1    2  502    0  0.17991107925E+02 -0.17079030865E+02  0.17110690782E+03  0.17289576966E+03  0.00000000000E+00 0. -1.
         -1    1    1    2    0  501 -0.17991107925E+02  0.17079030865E+02  0.15695200168E+03  0.15890029607E+03  0.00000000000E+00 0.  1.
</event>
<event>
 4    1  0.6740123E+001  0.2551539E+02  0.7546771E-02  0.1463120E+00
          2   -1    0    0  502    0  0.00000000000E+00  0.00000000000E+00  0.24748256326E+02  0.24748256326E+02  0.00000000000E+00 0.  1.
         -2   -1    0    0    0  501 -0.00000000000E+00 -0.00000000000E+00 -0.32998417376E+02  0.32998417376E+02  0.00000000000E+00 0. -1.
          1    1    1    2  502    0 -0.20938314119E+02  0.14581572257E+02 -0.17127732685E+02  0.30731001848E+02  0.00000000000E+00 0. -1.
         -1    1    1    2    0  501  0.20938314119E+02 -0.14581572257E+02  0.88775716359E+01  0.27015671855E+02  0.00000000000E+00 0.  1.
</event>
<event>
 4    1  0.6740123E+001  0.2860588E+02  0.7546771E-02  0.1432111E+00
          2   -1    0    0  502    0  0.00000000000E+00  0.00000000000E+00  0.12602048848E+02  0.12602048848E+02  0.00000000000E+00 0.  1.
         -2   -1    0    0    0  501 -0.00000000000E+00 -0.00000000000E+00 -0.68963855867E+02  0.68963855867E+02  0.00000000000E+00 0. -1.
          1    1    1    2  502    0  0.26585278453E+02 -0.10560271396E+02 -0.18321869591E+02  0.33970388100E+02  0.00000000000E+00 0.  1.
         -1    1    1    2    0  501 -0.26585278453E+02  0.10560271396E+02 -0.38039937428E+02  0.47595516615E+02  0.00000000000E+00 0. -1.
</event>
<event>
 4    1  0.6740123E+001  0.4294668E+02  0.7546771E-02  0.1332033E+00
          2   -1    0    0  502    0  0.00000000000E+00  0.00000000000E+00  0.13910071703E+03  0.13910071703E+03  0.00000000000E+00 0.  1.
         -2   -1    0    0    0  501 -0.00000000000E+00 -0.00000000000E+00 -0.13697533409E+02  0.13697533409E+02  0.00000000000E+00 0. -1.
          1    1    1    2  502    0 -0.29679455284E+02 -0.31041052652E+02  0.76362557661E+02  0.87610828259E+02  0.00000000000E+00 0.  1.
         -1    1    1    2    0  501  0.29679455284E+02  0.31041052652E+02  0.49040625959E+02  0.65187422178E+02  0.00000000000E+00 0. -1.
</event>
<event>
 4    1  0.6740123E+001  0.2644552E+02  0.7546771E-02  0.1453259E+00
          2   -1    0    0  502    0  0.00000000000E+00  0.00000000000E+00  0.13797338518E+01  0.13797338518E+01  0.00000000000E+00 0. -1.
         -2   -1    0    0    0  501 -0.00000000000E+00 -0.00000000000E+00 -0.71095987978E+03  0.71095987978E+03  0.00000000000E+00 0.  1.
          1    1    1    2  502    0 -0.24719339917E+02 -0.93978558278E+01 -0.16396736776E+03  0.16608631235E+03  0.00000000000E+00 0. -1.
         -1    1    1    2    0  501  0.24719339917E+02  0.93978558278E+01 -0.54561277817E+03  0.54625330129E+03  0.00000000000E+00 0.  1.
</event>
<event>
 4    1  0.6740123E+001  0.2472426E+02  0.7546771E-02  0.1471912E+00
          2   -1    0    0  502    0  0.00000000000E+00  0.00000000000E+00  0.14880944192E+01  0.14880944192E+01  0.00000000000E+00 0. -1.
         -2   -1    0    0    0  501 -0.00000000000E+00 -0.00000000000E+00 -0.57171865801E+03  0.57171865801E+03  0.00000000000E+00 0.  1.
          1    1    1    2  502    0  0.10147483224E+02  0.22545905331E+02 -0.43717402172E+03  0.43787260080E+03  0.00000000000E+00 0.  1.
         -1    1    1    2    0  501 -0.10147483224E+02 -0.22545905331E+02 -0.13305654186E+03  0.13533415162E+03  0.00000000000E+00 0. -1.
</event>
<event>
 4    1  0.6740123E+001  0.4898117E+02  0.7546771E-02  0.1302651E+00
          2   -1    0    0  502    0  0.00000000000E+00  0.00000000000E+00  0.27854592251E+04  0.27854592251E+04  0.00000000000E+00 0.  1.
         -2   -1    0    0    0  501 -0.00000000000E+00 -0.00000000000E+00 -0.91585565760E+00  0.91585565760E+00  0.00000000000E+00 0. -1.
          1    1    1    2  502    0 -0.48968574509E+02  0.11108112509E+01  0.10522864962E+04  0.10534258518E+04  0.00000000000E+00 0. -1.
         -1    1    1    2    0  501  0.48968574509E+02 -0.11108112509E+01  0.17322568732E+04  0.17329492289E+04  0.00000000000E+00 0.  1.
</event>
<event>
 4    1  0.6740123E+001  0.4537355E+02  0.7546771E-02  0.1319582E+00
          2   -1    0    0  502    0  0.00000000000E+00  0.00000000000E+00  0.38568726819E+03  0.38568726819E+03  0.00000000000E+00 0.  1.
         -2   -1    0    0    0  501 -0.00000000000E+00 -0.00000000000E+00 -0.85796596344E+01  0.85796596344E+01  0.00000000000E+00 0. -1.
          1    1    1    2  502    0  0.27833451732E+02  0.35833755198E+02  0.30972960722E+03  0.31303544310E+03  0.00000000000E+00 0. -1.
         -1    1    1    2    0  501 -0.27833451732E+02 -0.35833755198E+02  0.67378001336E+02  0.81231484727E+02  0.00000000000E+00 0.  1.
</event>
<event>
 4    1  0.6740123E+001  0.2063564E+02  0.7546771E-02  0.1524531E+00
          2   -1    0    0  502    0  0.00000000000E+00  0.00000000000E+00  0.28711111240E+02  0.28711111240E+02  0.00000000000E+00 0. -1.
         -2   -1    0    0    0  501 -0.00000000000E+00 -0.00000000000E+00 -0.64755232432E+02  0.64755232432E+02  0.00000000000E+00 0.  1.
          1    1    1    2  502    0  0.80931680649E+01 -0.18982365751E+02  0.23011692158E+02  0.30909020606E+02  0.00000000000E+00 0. -1.
         -1    1    1    2    0  501 -0.80931680649E+01  0.18982365751E+02 -0.59055813350E+02  0.62557323067E+02  0.00000000000E+00 0.  1.
</event>
<event>
 4    1  0.6740123E+001  0.2349487E+02  0.7546771E-02  0.1486376E+00
          2   -1    0    0  502    0  0.00000000000E+00  0.00000000000E+00  0.19166568392E+02  0.19166568392E+02  0.00000000000E+00 0. -1.
         -2   -1    0    0    0  501 -0.00000000000E+00 -0.00000000000E+00 -0.32476399311E+02  0.32476399311E+02  0.00000000000E+00 0.  1.
          1    1    1    2  502    0  0.22816290102E+02 -0.56058822716E+01 -0.15341961157E+02  0.28060377443E+02  0.00000000000E+00 0.  1.
         -1    1    1    2    0  501 -0.22816290102E+02  0.56058822716E+01  0.20321302388E+01  0.23582590260E+02  0.00000000000E+00 0. -1.
</event>
<event>
 4    1  0.6740123E+001  0.2481726E+02  0.7546771E-02  0.1470858E+00
          2   -1    0    0  502    0  0.00000000000E+00  0.00000000000E+00  0.21671537102E+04  0.21671537102E+04  0.00000000000E+00 0. -1.
         -2   -1    0    0    0  501 -0.00000000000E+00 -0.00000000000E+00 -0.28487322579E+00  0.28487322579E+00  0.00000000000E+00 0.  1.
          1    1    1    2  502    0 -0.19489750986E+02  0.15363784750E+02  0.11362763293E+04  0.11365473122E+04  0.00000000000E+00 0.  1.
         -1    1    1    2    0  501  0.19489750986E+02 -0.15363784750E+02  0.10305925076E+04  0.10308912712E+04  0.00000000000E+00 0. -1.
</event>
<event>
 4    1  0.6740123E+001  0.2276037E+02  0.7546771E-02  0.1495529E+00
          2   -1    0    0  502    0  0.00000000000E+00  0.00000000000E+00  0.48618866510E+03  0.48618866510E+03  0.00000000000E+00 0. -1.
         -2   -1    0    0    0  501 -0.00000000000E+00 -0.00000000000E+00 -0.11373024568E+01  0.11373024568E+01  0.00000000000E+00 0.  1.
          1    1    1    2  502    0  0.12557831296E+02  0.18982496197E+02  0.18130198212E+03  0.18272504757E+03  0.00000000000E+00 0.  1.
         -1    1    1    2    0  501 -0.12557831296E+02 -0.18982496197E+02  0.30374938053E+03  0.30460091999E+03  0.00000000000E+00 0. -1.
</event>
<event>
 4    1  0.6740123E+001  0.2322600E+02  0.7546771E-02  0.1489680E+00
          2   -1    0    0  502    0  0.00000000000E+00  0.00000000000E+00  0.44070953565E+03  0.44070953565E+03  0.00000000000E+00 0.  1.
         -2   -1    0    0    0  501 -0.00000000000E+00 -0.00000000000E+00 -0.12905652424E+01  0.12905652424E+01  0.00000000000E+00 0. -1.
          1    1    1    2  502    0 -0.74464573315E+00 -0.23214063610E+02  0.16953451409E+03  0.17111808413E+03  0.00000000000E+00 0. -1.
         -1    1    1    2    0  501  0.74464573315E+00  0.23214063610E+02  0.26988445631E+03  0.27088201676E+03  0.00000000000E+00 0.  1.
</event>
<event>
 4    1  0.6740123E+001  0.2071469E+02  0.7546771E-02  0.1523378E+00
          2   -1    0    0  502    0  0.00000000000E+00  0.00000000000E+00  0.24839608287E+03  0.24839608287E+03  0.00000000000E+00 0. -1.
         -2   -1    0    0    0  501 -0.00000000000E+00 -0.00000000000E+00 -0.46850712067E+01  0.46850712067E+01  0.00000000000E+00 0.  1.
          1    1    1    2  502    0  0.19001658412E+02  0.82483523301E+01  0.22239601022E+03  0.22335864367E+03  0.00000000000E+00 0. -1.
         -1    1    1    2    0  501 -0.19001658412E+02 -0.82483523301E+01  0.21315001443E+02  0.29722510410E+02  0.00000000000E+00 0.  1.
</event>
<event>
 4    1  0.6740123E+001  0.2189557E+02  0.7546771E-02  0.1506853E+00
          2   -1    0    0  502    0  0.00000000000E+00  0.00000000000E+00  0.26803471430E+01  0.26803471430E+01  0.00000000000E+00 0.  1.
         -2   -1    0    0    0  501 -0.00000000000E+00 -0.00000000000E+00 -0.19391177449E+03  0.19391177449E+03  0.00000000000E+00 0. -1.
          1    1    1    2  502    0  0.17063540219E+02  0.13720473519E+02 -0.12299864399E+03  0.12493231056E+03  0.00000000000E+00 0. -1.
         -1    1    1    2    0  501 -0.17063540219E+02 -0.13720473519E+02 -0.68232783352E+02  0.71659811068E+02  0.00000000000E+00 0.  1.
</event>
<event>
 4    1  0.6740123E+001  0.2075798E+02  0.7546771E-02  0.1522748E+00
          2   -1    0    0  502    0  0.00000000000E+00  0.00000000000E+00  0.32964543814E+02  0.32964543814E+02  0.00000000000E+00 0.  1.
         -2   -1    0    0    0  501 -0.00000000000E+00 -0.00000000000E+00 -0.13197713625E+02  0.13197713625E+02  0.00000000000E+00 0. -1.
          1    1    1    2  502    0  0.11184763245E+02  0.17486991885E+02  0.12141169350E+02  0.24047906504E+02  0.00000000000E+00 0. -1.
         -1    1    1    2    0  501 -0.11184763245E+02 -0.17486991885E+02  0.76256608384E+01  0.22114350935E+02  0.00000000000E+00 0.  1.
</event>
<event>
 4    1  0.6740123E+001  0.2155884E+02  0.7546771E-02  0.1511434E+00
          2   -1    0    0  502    0  0.00000000000E+00  0.00000000000E+00  0.14730923656E+03  0.14730923656E+03  0.00000000000E+00 0.  1.
         -2   -1    0    0    0  501 -0.00000000000E+00 -0.00000000000E+00 -0.31683099973E+01  0.31683099973E+01  0.00000000000E+00 0. -1.
          1    1    1    2  502    0 -0.21521360919E+02 -0.12705959572E+01  0.67222238931E+02  0.70594707995E+02  0.00000000000E+00 0. -1.
         -1    1    1    2    0  501  0.21521360919E+02  0.12705959572E+01  0.76918687629E+02  0.79882838561E+02  0.00000000000E+00 0.  1.
</event>
<event>
 4    1  0.6740123E+001  0.2810032E+02  0.7546771E-02  0.1436858E+00
          2   -1    0    0  502    0  0.00000000000E+00  0.00000000000E+00  0.13747957708E+03  0.13747957708E+03  0.00000000000E+00 0. -1.
         -2   -1    0    0    0  501 -0.00000000000E+00 -0.00000000000E+00 -0.11431907783E+02  0.11431907783E+02  0.00000000000E+00 0.  1.
          1    1    1    2  502    0  0.22732864320E+02  0.16518009889E+02  0.10503151566E+02  0.29999066047E+02  0.00000000000E+00 0.  1.
         -1    1    1    2    0  501 -0.22732864320E+02 -0.16518009889E+02  0.11554451773E+03  0.11891241882E+03  0.00000000000E+00 0. -1.
</event>
<event>
 4    1  0.6740123E+001  0.2102913E+02  0.7546771E-02  0.1518849E+00
          2   -1    0    0  502    0  0.00000000000E+00  0.00000000000E+00  0.18982394829E+01  0.18982394829E+01  0.00000000000E+00 0.  1.
         -2   -1    0    0    0  501 -0.00000000000E+00 -0.00000000000E+00 -0.23346269481E+03  0.23346269481E+03  0.00000000000E+00 0. -1.
          1    1    1    2  502    0  0.14183702676E+02  0.15525684691E+02 -0.12121297678E+03  0.12302361581E+03  0.00000000000E+00 0. -1.
         -1    1    1    2    0  501 -0.14183702676E+02 -0.15525684691E+02 -0.11035147854E+03  0.11233731848E+03  0.00000000000E+00 0.  1.
</event>
<event>
 4    1  0.6740123E+001  0.2113350E+02  0.7546771E-02  0.1517367E+00
          2   -1    0    0  502    0  0.00000000000E+00  0.00000000000E+00  0.16765084842E+04  0.16765084842E+04  0.00000000000E+00 0. -1.
         -2   -1    0    0    0  501 -0.00000000000E+00 -0.00000000000E+00 -0.32905224400E+00  0.32905224400E+00  0.00000000000E+00 0.  1.
          1    1    1    2  502    0 -0.10504590718E+02 -0.18337899097E+02  0.12039290944E+04  0.12041145665E+04  0.00000000000E+00 0.  1.
         -1    1    1    2    0  501  0.10504590718E+02  0.18337899097E+02  0.47225033754E+03  0.47272296991E+03  0.00000000000E+00 0. -1.
</event>
<event>
 4    1  0.6740123E+001  0.2300995E+02  0.7546771E-02  0.1492373E+00
          2   -1    0    0  502    0  0.00000000000E+00  0.00000000000E+00  0.98683145515E+03  0.98683145515E+03  0.00000000000E+00 0. -1.
         -2   -1    0    0    0  501 -0.00000000000E+00 -0.00000000000E+00 -0.87575211226E+00  0.87575211226E+00  0.00000000000E+00 0.  1.
          1    1    1    2  502    0  0.93460688153E+01  0.21026384080E+02  0.18561303625E+03  0.18703383933E+03  0.00000000000E+00 0.  1.
         -1    1    1    2    0  501 -0.93460688153E+01 -0.21026384080E+02  0.80034266679E+03  0.80067336794E+03  0.00000000000E+00 0. -1.
</event>
<event>
 4    1  0.6740123E+001  0.2496705E+02  0.7546771E-02  0.1469172E+00
          2   -1    0    0  502    0  0.00000000000E+00  0.00000000000E+00  0.72413860813E+02  0.72413860813E+02  0.00000000000E+00 0. -1.
         -2   -1    0    0    0  501 -0.00000000000E+00 -0.00000000000E+00 -0.61212405347E+02  0.61212405347E+02  0.00000000000E+00 0.  1.
          1    1    1    2  502    0  0.16762654183E+02  0.18503160587E+02 -0.56336579036E+02  0.61621130016E+02  0.00000000000E+00 0.  1.
         -1    1    1    2    0  501 -0.16762654183E+02 -0.18503160587E+02  0.67538034501E+02  0.72005136145E+02  0.00000000000E+00 0. -1.
</event>
<event>
 4    1  0.6740123E+001  0.3334126E+02  0.7546771E-02  0.1392615E+00
          2   -1    0    0  502    0  0.00000000000E+00  0.00000000000E+00  0.32606479250E+03  0.32606479250E+03  0.00000000000E+00 0. -1.
         -2   -1    0    0    0  501 -0.00000000000E+00 -0.00000000000E+00 -0.57420949059E+01  0.57420949059E+01  0.00000000000E+00 0.  1.
          1    1    1    2  502    0 -0.32196205601E+02  0.86627826217E+01  0.54415755949E+02  0.63817818463E+02  0.00000000000E+00 0. -1.
         -1    1    1    2    0  501  0.32196205601E+02 -0.86627826217E+01  0.26590694164E+03  0.26798906894E+03  0.00000000000E+00 0.  1.
</event>
<event>
 4    1  0.6740123E+001  0.2562205E+02  0.7546771E-02  0.1461963E+00
          2   -1    0    0  502    0  0.00000000000E+00  0.00000000000E+00  0.18126788934E+04  0.18126788934E+04  0.00000000000E+00 0. -1.
         -2   -1    0    0    0  501 -0.00000000000E+00 -0.00000000000E+00 -0.56335355877E+00  0.56335355877E+00  0.00000000000E+00 0.  1.
          1    1    1    2  502    0  0.17028063463E+01 -0.25565408858E+02  0.14478545993E+04  0.14480812927E+04  0.00000000000E+00 0. -1.
         -1    1    1    2    0  501 -0.17028063463E+01  0.25565408858E+02  0.36426094059E+03  0.36516095426E+03  0.00000000000E+00 0.  1.
</event>
<event>
 4    1  0.6740123E+001  0.2100360E+02  0.7546771E-02  0.1519213E+00
          2   -1    0    0  502    0  0.00000000000E+00  0.00000000000E+00  0.88314271831E+02  0.88314271831E+02  0.00000000000E+00 0. -1.
         -2   -1    0    0    0  501 -0.00000000000E+00 -0.00000000000E+00 -0.53752800753E+01  0.53752800753E+01  0.00000000000E+00 0.  1.
          1    1    1    2  502    0 -0.15241355351E+02 -0.14451724301E+02  0.53925352505E+02  0.57871365035E+02  0.00000000000E+00 0. -1.
         -1    1    1    2    0  501  0.15241355351E+02  0.14451724301E+02  0.29013639251E+02  0.35818186872E+02  0.00000000000E+00 0.  1.
</event>
<event>
 4    1  0.6740123E+001  0.2013501E+02  0.7546771E-02  0.1531982E+00
          2   -1    0    0  502    0  0.00000000000E+00  0.00000000000E+00  0.66522082967E+03  0.66522082967E+03  0.00000000000E+00 0. -1.
         -2   -1    0    0    0  501 -0.00000000000E+00 -0.00000000000E+00 -0.93720287954E+00  0.93720287954E+00  0.00000000000E+00 0.  1.
          1    1    1    2  502    0  0.37177408136E+01 -0.19788811959E+02  0.13517009095E+03  0.13666152408E+03  0.00000000000E+00 0.  1.
         -1    1    1    2    0  501 -0.37177408136E+01  0.19788811959E+02  0.52911353584E+03  0.52949650847E+03  0.00000000000E+00 0. -1.
</event>
<event>
 4    1  0.6740123E+001  0.2440669E+02  0.7546771E-02  0.1475551E+00
          2   -1    0    0  502    0  0.00000000000E+00  0.00000000000E+00  0.11171473505E+04  0.11171473505E+04  0.00000000000E+00 0. -1.
         -2   -1    0    0    0  501 -0.00000000000E+00 -0.00000000000E+00 -0.72871502529E+00  0.72871502529E+00  0.00000000000E+00 0.  1.
          1    1    1    2  502    0 -0.15540475963E+02  0.18819670182E+02  0.26870730159E+03  0.26981345465E+03  0.00000000000E+00 0.  1.
         -1    1    1    2    0  501  0.15540475963E+02 -0.18819670182E+02  0.84771133383E+03  0.84806261083E+03  0.00000000000E+00 0. -1.
</event>
<event>
 4    1  0.6740123E+001  0.2449478E+02  0.7546771E-02  0.1474535E+00
          2   -1    0    0  502    0  0.00000000000E+00  0.00000000000E+00  0.66988478124E+02  0.66988478124E+02  0.00000000000E+00 0. -1.
         -2   -1    0    0    0  501 -0.00000000000E+00 -0.00000000000E+00 -0.89928539236E+01  0.89928539236E+01  0.00000000000E+00 0.  1.
          1    1    1    2  502    0 -0.33312155562E+01  0.24267206469E+02  0.31407334160E+02  0.39829824829E+02  0.00000000000E+00 0. -1.
         -1    1    1    2    0  501  0.33312155562E+01 -0.24267206469E+02  0.26588290040E+02  0.36151507218E+02  0.00000000000E+00 0.  1.
</event>
<event>
 4    1  0.6740123E+001  0.2050777E+02  0.7546771E-02  0.1526410E+00
          2   -1    0    0  502    0  0.00000000000E+00  0.00000000000E+00  0.20979086469E+03  0.20979086469E+03  0.00000000000E+00 0.  1.
         -2   -1    0    0    0  501 -0.00000000000E+00 -0.00000000000E+00 -0.50260447472E+01  0.50260447472E+01  0.00000000000E+00 0. -1.
          1    1    1    2  502    0 -0.14516326472E+02  0.14486018304E+02  0.19105387309E+02  0.28028276521E+02  0.00000000000E+00 0. -1.
         -1    1    1    2    0  501  0.14516326472E+02 -0.14486018304E+02  0.18565943263E+03  0.18678863291E+03  0.00000000000E+00 0.  1.
</event>
<event>
 4    1  0.6740123E+001  0.2227803E+02  0.7546771E-02  0.1501769E+00
          2   -1    0    0  502    0  0.00000000000E+00  0.00000000000E+00  0.60964319072E+02  0.60964319072E+02  0.00000000000E+00 0.  1.
         -2   -1    0    0    0  501 -0.00000000000E+00 -0.00000000000E+00 -0.11808486531E+02  0.11808486531E+02  0.00000000000E+00 0. -1.
          1    1    1    2  502    0 -0.62422209595E+00 -0.22269284617E+02  0.42998703020E+01  0.22689195120E+02  0.00000000000E+00 0. -1.
         -1    1    1    2    0  501  0.62422209595E+00  0.22269284617E+02  0.44855962239E+02  0.50083610482E+02  0.00000000000E+00 0.  1.
</event>
<event>
 4    1  0.6740123E+001  0.2627290E+02  0.7546771E-02  0.1455052E+00
          2   -1    0    0  502    0  0.00000000000E+00  0.00000000000E+00  0.15941406900E+02  0.15941406900E+02  0.00000000000E+00 0.  1.
         -2   -1    0    0    0  501 -0.00000000000E+00 -0.00000000000E+00 -0.45013711326E+02  0.45013711326E+02  0.00000000000E+00 0. -1.
          1    1    1    2  502    0  0.24577223517E+02 -0.92857591201E+01 -0.85896967896E+01  0.27641420535E+02  0.00000000000E+00 0.  1.
         -1    1    1    2    0  501 -0.24577223517E+02  0.92857591201E+01 -0.20482607636E+02  0.33313697691E+02  0.00000000000E+00 0. -1.
</event>
<event>
 4    1  0.6740123E+001  0.3560842E+02  0.7546771E-02  0.1376336E+00
          2   -1    0    0  502    0  0.00000000000E+00  0.00000000000E+00  0.19328276301E+04  0.19328276301E+04  0.00000000000E+00 0. -1.
         -2   -1    0    0    0  501 -0.00000000000E+00 -0.00000000000E+00 -0.67395878918E+00  0.67395878918E+00  0.00000000000E+00 0.  1.
          1    1    1    2  502    0  0.33160741514E+02 -0.12974012137E+02  0.11238310326E+04  0.11243950149E+04  0.00000000000E+00 0.  1.
         -1    1    1    2    0  501 -0.33160741514E+02  0.12974012137E+02  0.80832263876E+03  0.80910657400E+03  0.00000000000E+00 0. -1.
</event>
<event>
 4    1  0.6740123E+001  0.2117787E+02  0.7546771E-02  0.1516740E+00
          2   -1    0    0  502    0  0.00000000000E+00  0.00000000000E+00  0.41293609505E+02  0.41293609505E+02  0.00000000000E+00 0. -1.
         -2   -1    0    0    0  501 -0.00000000000E+00 -0.00000000000E+00 -0.21598228934E+02  0.21598228934E+02  0.00000000000E+00 0.  1.
          1    1    1    2  502    0  0.13216132129E+02 -0.16547990446E+02 -0.12323822906E+02  0.24502627355E+02  0.00000000000E+00 0.  1.
         -1    1    1    2    0  501 -0.13216132129E+02  0.16547990446E+02  0.32019203478E+02  0.38389211084E+02  0.00000000000E+00 0. -1.
</event>
<event>
 4    1  0.6740123E+001  0.4437933E+02  0.7546771E-02  0.1324572E+00
          2   -1    0    0  502    0  0.00000000000E+00  0.00000000000E+00  0.46287040940E+03  0.46287040940E+03  0.00000000000E+00 0.  1.
         -2   -1    0    0    0  501 -0.00000000000E+00 -0.00000000000E+00 -0.46477163462E+01  0.46477163462E+01  0.00000000000E+00 0. -1.
          1    1    1    2  502    0 -0.26358602741E+02 -0.35703621079E+02  0.16116359149E+03  0.16716227959E+03  0.00000000000E+00 0. -1.
         -1    1    1    2    0  501  0.26358602741E+02  0.35703621079E+02  0.29705910157E+03  0.30035584616E+03  0.00000000000E+00 0.  1.
</event>
<event>
 4    1  0.6740123E+001  0.2684751E+02  0.7546771E-02  0.1449146E+00
          2   -1    0    0  502    0  0.00000000000E+00  0.00000000000E+00  0.13148495848E+01  0.13148495848E+01  0.00000000000E+00 0.  1.
         -2   -1    0    0    0  501 -0.00000000000E+00 -0.00000000000E+00 -0.66701566981E+03  0.66701566981E+03  0.00000000000E+00 0. -1.
          1    1    1    2  502    0 -0.24937346568E+02  0.99457357619E+01 -0.19180910989E+03  0.19367891870E+03  0.00000000000E+00 0.  1.
         -1    1    1    2    0  501  0.24937346568E+02 -0.99457357619E+01 -0.47389171034E+03  0.47465160070E+03  0.00000000000E+00 0. -1.
</event>
<event>
 4    1  0.6740123E+001  0.3330562E+02  0.7546771E-02  0.1392883E+00
          2   -1    0    0  502    0  0.00000000000E+00  0.00000000000E+00  0.21469803284E+02  0.21469803284E+02  0.00000000000E+00 0.  1.
         -2   -1    0    0    0  501 -0.00000000000E+00 -0.00000000000E+00 -0.51666317564E+02  0.51666317564E+02  0.00000000000E+00 0. -1.
          1    1    1    2  502    0 -0.32545113830E+02  0.70767131298E+01 -0.15057594309E+02  0.36551271514E+02  0.00000000000E+00 0.  1.
         -1    1    1    2    0  501  0.32545113830E+02 -0.70767131298E+01 -0.15138919970E+02  0.36584849334E+02  0.00000000000E+00 0. -1.
</event>
<event>
 4    1  0.6740123E+001  0.3684988E+02  0.7546771E-02  0.1368004E+00
          2   -1    0    0  502    0  0.00000000000E+00  0.00000000000E+00  0.11576888239E+04  0.11576888239E+04  0.00000000000E+00 0.  1.
         -2   -1    0    0    0  501 -0.00000000000E+00 -0.00000000000E+00 -0.11838882659E+01  0.11838882659E+01  0.00000000000E+00 0. -1.
          1    1    1    2  502    0 -0.84423099257E+01  0.35869783570E+02  0.52256268811E+03  0.52386036019E+03  0.00000000000E+00 0. -1.
         -1    1    1    2    0  501  0.84423099257E+01 -0.35869783570E+02  0.63394224750E+03  0.63501235196E+03  0.00000000000E+00 0.  1.
</event>
<event>
 4    1  0.6740123E+001  0.2131450E+02  0.7546771E-02  0.1514822E+00
          2   -1    0    0  502    0  0.00000000000E+00  0.00000000000E+00  0.11943577369E+04  0.11943577369E+04  0.00000000000E+00 0.  1.
         -2   -1    0    0    0  501 -0.00000000000E+00 -0.00000000000E+00 -0.39054874810E+00  0.39054874810E+00  0.00000000000E+00 0. -1.
          1    1    1    2  502    0  0.17705881221E+02  0.11866326676E+02  0.69338330817E+03  0.69371083312E+03  0.00000000000E+00 0.  1.
         -1    1    1    2    0  501 -0.17705881221E+02 -0.11866326676E+02  0.50058387998E+03  0.50103745253E+03  0.00000000000E+00 0. -1.
</event>
<event>
 4    1  0.6740123E+001  0.3415906E+02  0.7546771E-02  0.1386574E+00
          2   -1    0    0  502    0  0.00000000000E+00  0.00000000000E+00  0.52089229101E+03  0.52089229101E+03  0.00000000000E+00 0.  1.
         -2   -1    0    0    0  501 -0.00000000000E+00 -0.00000000000E+00 -0.32126635118E+01  0.32126635118E+01  0.00000000000E+00 0. -1.
          1    1    1    2  502    0 -0.32987329611E+02  0.88700239279E+01  0.11465525849E+03  0.11963556970E+03  0.00000000000E+00 0. -1.
         -1    1    1    2    0  501  0.32987329611E+02 -0.88700239279E+01  0.40302436901E+03  0.40446938482E+03  0.00000000000E+00 0.  1.
</event>
<event>
 4    1  0.6740123E+001  0.2027209E+02  0.7546771E-02  0.1529916E+00
          2   -1    0    0  502    0  0.00000000000E+00  0.00000000000E+00  0.51190964502E+02  0.51190964502E+02  0.00000000000E+00 0.  1.
         -2   -1    0    0    0  501 -0.00000000000E+00 -0.00000000000E+00 -0.10160001917E+02  0.10160001917E+02  0.00000000000E+00 0. -1.
          1    1    1    2  502    0 -0.18167142170E+02 -0.89951326287E+01  0.34567718443E+02  0.40073490289E+02  0.00000000000E+00 0.  1.
         -1    1    1    2    0  501  0.18167142170E+02  0.89951326287E+01  0.64632441422E+01  0.21277476130E+02  0.00000000000E+00 0. -1.
</event>
<event>
 4    1  0.6740123E+001  0.3788153E+02  0.7546771E-02  0.1361368E+00
          2   -1    0    0  502    0  0.00000000000E+00  0.00000000000E+00  0.75585829843E+00  0.75585829843E+00  0.00000000000E+00 0.  1.
         -2   -1    0    0    0  501 -0.00000000000E+00 -0.00000000000E+00 -0.24594704859E+04  0.24594704859E+04  0.00000000000E+00 0. -1.
          1    1    1    2  502    0  0.34870049903E+02  0.14801697040E+02 -0.64188516225E+03  0.64300200010E+03  0.00000000000E+00 0.  1.
         -1    1    1    2    0  501 -0.34870049903E+02 -0.14801697040E+02 -0.18168294653E+04  0.18172243441E+04  0.00000000000E+00 0. -1.
</event>
<event>
 4    1  0.6740123E+001  0.4255236E+02  0.7546771E-02  0.1334145E+00
          2   -1    0    0  502    0  0.00000000000E+00  0.00000000000E+00  0.68031340661E+02  0.68031340661E+02  0.00000000000E+00 0.  1.
         -2   -1    0    0    0  501 -0.00000000000E+00 -0.00000000000E+00 -0.26749098437E+02  0.26749098437E+02  0.00000000000E+00 0. -1.
          1    1    1    2  502    0 -0.42191740722E+02 -0.55281490289E+01  0.17294783796E+02  0.45932700372E+02  0.00000000000E+00 0. -1.
         -1    1    1    2    0  501  0.42191740722E+02  0.55281490289E+01  0.23987458428E+02  0.48847738726E+02  0.00000000000E+00 0.  1.
</event>
<event>
 4    1  0.6740123E+001  0.2426577E+02  0.7546771E-02  0.1477187E+00
          2   -1    0    0  502    0  0.00000000000E+00  0.00000000000E+00  0.31444643749E+03  0.31444643749E+03  0.00000000000E+00 0. -1.
         -2   -1    0    0    0  501 -0.00000000000E+00 -0.00000000000E+00 -0.47722016278E+01  0.47722016278E+01  0.00000000000E+00 0.  1.
          1    1    1    2  502    0  0.10535653607E+02 -0.21859267374E+02  0.27925109469E+03  0.28030340963E+03  0.00000000000E+00 0. -1.
         -1    1    1    2    0  501 -0.10535653607E+02  0.21859267374E+02  0.30423141176E+02  0.38915229488E+02  0.00000000000E+00 0.  1.
</event>
<event>
 4    1  0.6740123E+001  0.3316490E+02  0.7546771E-02  0.1393945E+00
          2   -1    0    0  502    0  0.00000000000E+00  0.00000000000E+00  0.24152520065E+02  0.24152520065E+02  0.00000000000E+00 0.  1.
         -2   -1    0    0    0  501 -0.00000000000E+00 -0.00000000000E+00 -0.53035924582E+02  0.53035924582E+02  0.00000000000E+00 0. -1.
          1    1    1    2  502    0 -0.11890637228E+02  0.30960027249E+02  0.67518762569E-01  0.33164967959E+02  0.00000000000E+00 0.  1.
         -1    1    1    2    0  501  0.11890637228E+02 -0.30960027249E+02 -0.28950923280E+02  0.44023476688E+02  0.00000000000E+00 0. -1.
</event>
<event>
 4    1  0.6740123E+001  0.3176704E+02  0.7546771E-02  0.1404838E+00
          2   -1    0    0  502    0  0.00000000000E+00  0.00000000000E+00  0.56077852953E+03  0.56077852953E+03  0.00000000000E+00 0.  1.
         -2   -1    0    0    0  501 -0.00000000000E+00 -0.00000000000E+00 -0.19188085383E+01  0.19188085383E+01  0.00000000000E+00 0. -1.
          1    1    1    2  502    0  0.29328420568E+02  0.12206078979E+02  0.20928626484E+03  0.21168345534E+03  0.00000000000E+00 0. -1.
         -1    1    1    2    0  501 -0.29328420568E+02 -0.12206078979E+02  0.34957345615E+03  0.35101388272E+03  0.00000000000E+00 0.  1.
</event>
<event>
 4    1  0.6740123E+001  0.4109605E+02  0.7546771E-02  0.1342180E+00
          2   -1    0    0  502    0  0.00000000000E+00  0.00000000000E+00  0.44389337232E+02  0.44389337232E+02  0.00000000000E+00 0.  1.
         -2   -1    0    0    0  501 -0.00000000000E+00 -0.00000000000E+00 -0.51583702459E+02  0.51583702459E+02  0.00000000000E+00 0. -1.
          1    1    1    2  502    0  0.11002053133E+02  0.39595958162E+02 -0.28179227581E+02  0.49829247867E+02  0.00000000000E+00 0. -1.
         -1    1    1    2    0  501 -0.11002053133E+02 -0.39595958162E+02  0.20984862354E+02  0.46143791825E+02  0.00000000000E+00 0.  1.
</event>
<event>
 4    1  0.6740123E+001  0.4822903E+02  0.7546771E-02  0.1306039E+00
          2   -1    0    0  502    0  0.00000000000E+00  0.00000000000E+00  0.16082608437E+03  0.16082608437E+03  0.00000000000E+00 0.  1.
         -2   -1    0    0    0  501 -0.00000000000E+00 -0.00000000000E+00 -0.14725741680E+02  0.14725741680E+02  0.00000000000E+00 0. -1.
          1    1    1    2  502    0 -0.48048472806E+02  0.41694102023E+01  0.84773184658E+02  0.97532212922E+02  0.00000000000E+00 0.  1.
         -1    1    1    2    0  501  0.48048472806E+02 -0.41694102023E+01  0.61327158033E+02  0.78019613129E+02  0.00000000000E+00 0. -1.
</event>
<event>
 4    1  0.6740123E+001  0.2334231E+02  0.7546771E-02  0.1488244E+00
          2   -1    0    0  502    0  0.00000000000E+00  0.00000000000E+00  0.19439100583E+03  0.19439100583E+03  0.00000000000E+00 0. -1.
         -2   -1    0    0    0  501 -0.00000000000E+00 -0.00000000000E+00 -0.74002177264E+01  0.74002177264E+01  0.00000000000E+00 0.  1.
          1    1    1    2  502    0  0.23341706176E+02  0.16793789691E+00  0.17301992172E+03  0.17458739004E+03  0.00000000000E+00 0. -1.
         -1    1    1    2    0  501 -0.23341706176E+02 -0.16793789691E+00  0.13970866387E+02  0.27203833516E+02  0.00000000000E+00 0.  1.
</event>
<event>
 4    1  0.6740123E+001  0.2886745E+02  0.7546771E-02  0.1429700E+00
          2   -1    0    0  502    0  0.00000000000E+00  0.00000000000E+00  0.33307135829E+03  0.33307135829E+03  0.00000000000E+00 0.  1.
         -2   -1    0    0    0  501 -0.00000000000E+00 -0.00000000000E+00 -0.30523572597E+01  0.30523572597E+01  0.00000000000E+00 0. -1.
          1    1    1    2  502    0  0.14723238696E+02  0.24830545671E+02  0.23637549769E+03  0.23813169815E+03  0.00000000000E+00 0.  1.
         -1    1    1    2    0  501 -0.14723238696E+02 -0.24830545671E+02  0.93643503335E+02  0.97992017394E+02  0.00000000000E+00 0. -1.
</event>
<event>
 4    1  0.6740123E+001  0.2053938E+02  0.7546771E-02  0.1525944E+00
          2   -1    0    0  502    0  0.00000000000E+00  0.00000000000E+00  0.10513140534E+02  0.10513140534E+02  0.00000000000E+00 0. -1.
         -2   -1    0    0    0  501 -0.00000000000E+00 -0.00000000000E+00 -0.43293562101E+02  0.43293562101E+02  0.00000000000E+00 0.  1.
          1    1    1    2  502    0 -0.72341333475E+01 -0.19223255251E+02 -0.91148714052E+01  0.22471028202E+02  0.00000000000E+00 0. -1.
         -1    1    1    2    0  501  0.72341333475E+01  0.19223255251E+02 -0.23665550162E+02  0.31335674433E+02  0.00000000000E+00 0.  1.
</event>
<event>
 4    1  0.6740123E+001  0.2211197E+02  0.7546771E-02  0.1503961E+00
          2   -1    0    0  502    0  0.00000000000E+00  0.00000000000E+00  0.81713940266E+03  0.81713940266E+03  0.00000000000E+00 0. -1.
         -2   -1    0    0    0  501 -0.00000000000E+00 -0.00000000000E+00 -0.15372856331E+01  0.15372856331E+01  0.00000000000E+00 0.  1.
          1    1    1    2  502    0 -0.18991832027E+02  0.11324726263E+02  0.72770677023E+03  0.72804263787E+03  0.00000000000E+00 0. -1.
         -1    1    1    2    0  501  0.18991832027E+02 -0.11324726263E+02  0.87895346791E+02  0.90634050424E+02  0.00000000000E+00 0.  1.
</event>
<event>
 4    1  0.6740123E+001  0.2038433E+02  0.7546771E-02  0.1528239E+00
          2   -1    0    0  502    0  0.00000000000E+00  0.00000000000E+00  0.56442253359E+01  0.56442253359E+01  0.00000000000E+00 0.  1.
         -2   -1    0    0    0  501 -0.00000000000E+00 -0.00000000000E+00 -0.77131181555E+02  0.77131181555E+02  0.00000000000E+00 0. -1.
          1    1    1    2  502    0 -0.13771095826E+02  0.15029227666E+02 -0.26911442467E+02  0.33760131815E+02  0.00000000000E+00 0.  1.
         -1    1    1    2    0  501  0.13771095826E+02 -0.15029227666E+02 -0.44575513753E+02  0.49015275076E+02  0.00000000000E+00 0. -1.
</event>
<event>
 4    1  0.6740123E+001  0.3101725E+02  0.7546771E-02  0.1410958E+00
          2   -1    0    0  502    0  0.00000000000E+00  0.00000000000E+00  0.54281525634E+03  0.54281525634E+03  0.00000000000E+00 0.  1.
         -2   -1    0    0    0  501 -0.00000000000E+00 -0.00000000000E+00 -0.31813321348E+01  0.31813321348E+01  0.00000000000E+00 0. -1.
          1    1    1    2  502    0  0.28355075902E+02  0.12572182416E+02  0.88137886717E+02  0.93436380361E+02  0.00000000000E+00 0. -1.
         -1    1    1    2    0  501 -0.28355075902E+02 -0.12572182416E+02  0.45149603749E+03  0.45256020811E+03  0.00000000000E+00 0.  1.
</event>
<event>
 4    1  0.6740123E+001  0.2881101E+02  0.7546771E-02  0.1430218E+00
          2   -1    0    0  502    0  0.00000000000E+00  0.00000000000E+00  0.72923908947E+03  0.72923908947E+03  0.00000000000E+00 0.  1.
         -2   -1    0    0    0  501 -0.00000000000E+00 -0.00000000000E+00 -0.11425731653E+01  0.11425731653E+01  0.00000000000E+00 0. -1.
          1    1    1    2  502    0  0.50585261217E+01  0.28363450883E+02  0.34164761827E+03  0.34286027636E+03  0.00000000000E+00 0.  1.
         -1    1    1    2    0  501 -0.50585261217E+01 -0.28363450883E+02  0.38644889804E+03  0.38752138628E+03  0.00000000000E+00 0. -1.
</event>
<event>
 4    1  0.6740123E+001  0.2834824E+02  0.7546771E-02  0.1434515E+00
          2   -1    0    0  502    0  0.00000000000E+00  0.00000000000E+00  0.21098270276E+02  0.21098270276E+02  0.00000000000E+00 0. -1.
         -2   -1    0    0    0  501 -0.00000000000E+00 -0.00000000000E+00 -0.51192158327E+02  0.51192158327E+02  0.00000000000E+00 0.  1.
          1    1    1    2  502    0 -0.27954595605E+02 -0.47078064591E+01  0.32394706113E+01  0.28532736058E+02  0.00000000000E+00 0. -1.
         -1    1    1    2    0  501  0.27954595605E+02  0.47078064591E+01 -0.33333358663E+02  0.43757692545E+02  0.00000000000E+00 0.  1.
</event>
<event>
 4    1  0.6740123E+001  0.2185306E+02  0.7546771E-02  0.1507425E+00
          2   -1    0    0  502    0  0.00000000000E+00  0.00000000000E+00  0.25079538954E+02  0.25079538954E+02  0.00000000000E+00 0. -1.
         -2   -1    0    0    0  501 -0.00000000000E+00 -0.00000000000E+00 -0.21168072639E+02  0.21168072639E+02  0.00000000000E+00 0.  1.
          1    1    1    2  502    0  0.21243074920E+02  0.51271815479E+01 -0.53732165128E+01  0.22503948062E+02  0.00000000000E+00 0. -1.
         -1    1    1    2    0  501 -0.21243074920E+02 -0.51271815479E+01  0.92846828273E+01  0.23743663531E+02  0.00000000000E+00 0.  1.
</event>
<event>
 4    1  0.6740123E+001  0.2318222E+02  0.7546771E-02  0.1490223E+00
          2   -1    0    0  502    0  0.00000000000E+00  0.00000000000E+00  0.13637969807E+01  0.13637969807E+01  0.00000000000E+00 0.  1.
         -2   -1    0    0    0  501 -0.00000000000E+00 -0.00000000000E+00 -0.54440764233E+03  0.54440764233E+03  0.00000000000E+00 0. -1.
          1    1    1    2  502    0  0.29181591967E+01 -0.22997820303E+02 -0.41492867631E+03  0.41557577145E+03  0.00000000000E+00 0. -1.
         -1    1    1    2    0  501 -0.29181591967E+01  0.22997820303E+02 -0.12811516904E+03  0.13019566786E+03  0.00000000000E+00 0.  1.
</event>
<event>
 4    1  0.6740123E+001  0.2583200E+02  0.7546771E-02  0.1459707E+00
          2   -1    0    0  502    0  0.00000000000E+00  0.00000000000E+00  0.62686937817E+03  0.62686937817E+03  0.00000000000E+00 0. -1.
         -2   -1    0    0    0  501 -0.00000000000E+00 -0.00000000000E+00 -0.11118175745E+01  0.11118175745E+01  0.00000000000E+00 0.  1.
          1    1    1    2  502    0  0.24907722198E+02  0.68481920760E+01  0.37766535085E+03  0.37854776395E+03  0.00000000000E+00 0.  1.
         -1    1    1    2    0  501 -0.24907722198E+02 -0.68481920760E+01  0.24809220975E+03  0.24943343180E+03  0.00000000000E+00 0. -1.
</event>
<event>
 4    1  0.6740123E+001  0.2264588E+02  0.7546771E-02  0.1496993E+00
          2   -1    0    0  502    0  0.00000000000E+00  0.00000000000E+00  0.17765823962E+04  0.17765823962E+04  0.00000000000E+00 0.  1.
         -2   -1    0    0    0  501 -0.00000000000E+00 -0.00000000000E+00 -0.13396448052E+01  0.13396448052E+01  0.00000000000E+00 0. -1.
          1    1    1    2  502    0 -0.54721120041E+01 -0.21974797533E+02  0.10023982072E+03  0.10276603230E+03  0.00000000000E+00 0. -1.
         -1    1    1    2    0  501  0.54721120041E+01  0.21974797533E+02  0.16750029306E+04  0.16751560087E+04  0.00000000000E+00 0.  1.
</event>
<event>
 4    1  0.6740123E+001  0.2434990E+02  0.7546771E-02  0.1476209E+00
          2   -1    0    0  502    0  0.00000000000E+00  0.00000000000E+00  0.14502932402E+03  0.14502932402E+03  0.00000000000E+00 0. -1.
         -2   -1    0    0    0  501 -0.00000000000E+00 -0.00000000000E+00 -0.42419031475E+01  0.42419031475E+01  0.00000000000E+00 0.  1.
          1    1    1    2  502    0 -0.24148721202E+02  0.31236115404E+01  0.84598059990E+02  0.88032661205E+02  0.00000000000E+00 0.  1.
         -1    1    1    2    0  501  0.24148721202E+02 -0.31236115404E+01  0.56189360878E+02  0.61238565958E+02  0.00000000000E+00 0. -1.
</event>
<event>
 4    1  0.6740123E+001  0.5139630E+02  0.7546771E-02  0.1292229E+00
          2   -1    0    0  502    0  0.00000000000E+00  0.00000000000E+00  0.80549227678E+02  0.80549227678E+02  0.00000000000E+00 0.  1.
         -2   -1    0    0    0  501 -0.00000000000E+00 -0.00000000000E+00 -0.52033774162E+02  0.52033774162E+02  0.00000000000E+00 0. -1.
          1    1    1    2  502    0  0.50125456197E+02 -0.11358618280E+02 -0.26051866880E+02  0.57621865087E+02  0.00000000000E+00 0. -1.
         -1    1    1    2    0  501 -0.50125456197E+02  0.11358618280E+02  0.54567320396E+02  0.74961136753E+02  0.00000000000E+00 0.  1.
</event>
<event>
 4    1  0.6740123E+001  0.1238258E+03  0.7546771E-02  0.1127935E+00
          2   -1    0    0  502    0  0.00000000000E+00  0.00000000000E+00  0.19946210873E+03  0.19946210873E+03  0.00000000000E+00 0.  1.
         -2   -1    0    0    0  501 -0.00000000000E+00 -0.00000000000E+00 -0.78184732184E+02  0.78184732184E+02  0.00000000000E+00 0. -1.
          1    1    1    2  502    0  0.12051436887E+03  0.28444895339E+02  0.42642637354E+02  0.13096266528E+03  0.00000000000E+00 0. -1.
         -1    1    1    2    0  501 -0.12051436887E+03 -0.28444895339E+02  0.78634739194E+02  0.14668417564E+03  0.00000000000E+00 0.  1.
</event>
<event>
 4    1  0.6740123E+001  0.2049446E+02  0.7546771E-02  0.1526607E+00
          2   -1    0    0  502    0  0.00000000000E+00  0.00000000000E+00  0.59692266433E+03  0.59692266433E+03  0.00000000000E+00 0. -1.
         -2   -1    0    0    0  501 -0.00000000000E+00 -0.00000000000E+00 -0.10743823871E+01  0.10743823871E+01  0.00000000000E+00 0.  1.
          1    1    1    2  502    0  0.19374058656E+02  0.66834621127E+01  0.12228485970E+03  0.12399036143E+03  0.00000000000E+00 0.  1.
         -1    1    1    2    0  501 -0.19374058656E+02 -0.66834621127E+01  0.47356342224E+03  0.47400668529E+03  0.00000000000E+00 0. -1.
</event>
<event>
 4    1  0.6740123E+001  0.3837525E+02  0.7546771E-02  0.1358279E+00
          2   -1    0    0  502    0  0.00000000000E+00  0.00000000000E+00  0.15763139485E+02  0.15763139485E+02  0.00000000000E+00 0.  1.
         -2   -1    0    0    0  501 -0.00000000000E+00 -0.00000000000E+00 -0.13146591904E+03  0.13146591904E+03  0.00000000000E+00 0. -1.
          1    1    1    2  502    0  0.38103128553E+02 -0.45619212963E+01 -0.97450617173E+02  0.10473434164E+03  0.00000000000E+00 0. -1.
         -1    1    1    2    0  501 -0.38103128553E+02  0.45619212963E+01 -0.18252162381E+02  0.42494716884E+02  0.00000000000E+00 0.  1.
</event>
<event>
 4    1  0.6740123E+001  0.2059651E+02  0.7546771E-02  0.1525104E+00
          2   -1    0    0  502    0  0.00000000000E+00  0.00000000000E+00  0.11834022456E+04  0.11834022456E+04  0.00000000000E+00 0. -1.
         -2   -1    0    0    0  501 -0.00000000000E+00 -0.00000000000E+00 -0.45936589852E+00  0.45936589852E+00  0.00000000000E+00 0.  1.
          1    1    1    2  502    0  0.84224188970E+01  0.18795717486E+02  0.31405971837E+03  0.31473436870E+03  0.00000000000E+00 0.  1.
         -1    1    1    2    0  501 -0.84224188970E+01 -0.18795717486E+02  0.86888316129E+03  0.86912724277E+03  0.00000000000E+00 0. -1.
</event>
<event>
 4    1  0.6740123E+001  0.4113050E+02  0.7546771E-02  0.1341985E+00
          2   -1    0    0  502    0  0.00000000000E+00  0.00000000000E+00  0.36446464220E+02  0.36446464220E+02  0.00000000000E+00 0.  1.
         -2   -1    0    0    0  501 -0.00000000000E+00 -0.00000000000E+00 -0.50738338335E+02  0.50738338335E+02  0.00000000000E+00 0. -1.
          1    1    1    2  502    0 -0.14936031560E+02  0.38322748952E+02 -0.19868534961E+02  0.45677968513E+02  0.00000000000E+00 0.  1.
         -1    1    1    2    0  501  0.14936031560E+02 -0.38322748952E+02  0.55766608462E+01  0.41506834042E+02  0.00000000000E+00 0. -1.
</event>
<event>
 4    1  0.6740123E+001  0.2278664E+02  0.7546771E-02  0.1495195E+00
          2   -1    0    0  502    0  0.00000000000E+00  0.00000000000E+00  0.58801871966E+03  0.58801871966E+03  0.00000000000E+00 0. -1.
         -2   -1    0    0    0  501 -0.00000000000E+00 -0.00000000000E+00 -0.11772191956E+01  0.11772191956E+01  0.00000000000E+00 0.  1.
          1    1    1    2  502    0  0.20591720790E+02  0.97576580681E+01  0.14614758473E+03  0.14791331035E+03  0.00000000000E+00 0.  1.
         -1    1    1    2    0  501 -0.20591720790E+02 -0.97576580681E+01  0.44069391574E+03  0.44128262851E+03  0.00000000000E+00 0. -1.
</event>
<event>
 4    1  0.6740123E+001  0.2735951E+02  0.7546771E-02  0.1444030E+00
          2   -1    0    0  502    0  0.00000000000E+00  0.00000000000E+00  0.38750532142E+03  0.38750532142E+03  0.00000000000E+00 0. -1.
         -2   -1    0    0    0  501 -0.00000000000E+00 -0.00000000000E+00 -0.20151879882E+01  0.20151879882E+01  0.00000000000E+00 0.  1.
          1    1    1    2  502    0 -0.27232962482E+01 -0.27223636738E+02  0.23238776484E+03  0.23399276909E+03  0.00000000000E+00 0. -1.
         -1    1    1    2    0  501  0.27232962482E+01  0.27223636738E+02  0.15310236860E+03  0.15552774032E+03  0.00000000000E+00 0.  1.
</event>
<event>
 4    1  0.6740123E+001  0.2134276E+02  0.7546771E-02  0.1514427E+00
          2   -1    0    0  502    0  0.00000000000E+00  0.00000000000E+00  0.28682333164E+00  0.28682333164E+00  0.00000000000E+00 0. -1.
         -2   -1    0    0    0  501 -0.00000000000E+00 -0.00000000000E+00 -0.20779870861E+04  0.20779870861E+04  0.00000000000E+00 0.  1.
          1    1    1    2  502    0 -0.10694384412E+02 -0.18470074540E+02 -0.15433776617E+04  0.15435252250E+04  0.00000000000E+00 0.  1.
         -1    1    1    2    0  501  0.10694384412E+02  0.18470074540E+02 -0.53432260103E+03  0.53474868442E+03  0.00000000000E+00 0. -1.
</event>
<event>
 4    1  0.6740123E+001  0.3852744E+02  0.7546771E-02  0.1357338E+00
          2   -1    0    0  502    0  0.00000000000E+00  0.00000000000E+00  0.84498533051E+01  0.84498533051E+01  0.00000000000E+00 0. -1.
         -2   -1    0    0    0  501 -0.00000000000E+00 -0.00000000000E+00 -0.21845920365E+03  0.21845920365E+03  0.00000000000E+00 0.  1.
          1    1    1    2  502    0  0.60561841199E+00 -0.38522676627E+02 -0.15521779224E+03  0.15992787879E+03  0.00000000000E+00 0.  1.
         -1    1    1    2    0  501 -0.60561841199E+00  0.38522676627E+02 -0.54791558109E+02  0.66981178164E+02  0.00000000000E+00 0. -1.
</event>
<event>
 4    1  0.6740123E+001  0.2887866E+02  0.7546771E-02  0.1429598E+00
          2   -1    0    0  502    0  0.00000000000E+00  0.00000000000E+00  0.34657008453E+03  0.34657008453E+03  0.00000000000E+00 0. -1.
         -2   -1    0    0    0  501 -0.00000000000E+00 -0.00000000000E+00 -0.25433554892E+01  0.25433554892E+01  0.00000000000E+00 0.  1.
          1    1    1    2  502    0 -0.67000572719E+01 -0.28090680716E+02  0.13150314691E+03  0.13463675114E+03  0.00000000000E+00 0. -1.
         -1    1    1    2    0  501  0.67000572719E+01  0.28090680716E+02  0.21252358213E+03  0.21447668888E+03  0.00000000000E+00 0.  1.
</event>
<event>
 4    1  0.6740123E+001  0.2591867E+02  0.7546771E-02  0.1458783E+00
          2   -1    0    0  502    0  0.00000000000E+00  0.00000000000E+00  0.13184972788E+03  0.13184972788E+03  0.00000000000E+00 0.  1.
         -2   -1    0    0    0  501 -0.00000000000E+00 -0.00000000000E+00 -0.55960517953E+01  0.55960517953E+01  0.00000000000E+00 0. -1.
          1    1    1    2  502    0  0.13067719868E+02 -0.22383301367E+02  0.83690081126E+02  0.87611683932E+02  0.00000000000E+00 0.  1.
         -1    1    1    2    0  501 -0.13067719868E+02  0.22383301367E+02  0.42563594957E+02  0.49834095741E+02  0.00000000000E+00 0. -1.
</event>
<event>
 4    1  0.6740123E+001  0.3385296E+02  0.7546771E-02  0.1388812E+00
          2   -1    0    0  502    0  0.00000000000E+00  0.00000000000E+00  0.14639173746E+01  0.14639173746E+01  0.00000000000E+00 0. -1.
         -2   -1    0    0    0  501 -0.00000000000E+00 -0.00000000000E+00 -0.10827748151E+04  0.10827748151E+04  0.00000000000E+00 0.  1.
          1    1    1    2  502    0  0.32521998137E+02  0.93990553148E+01 -0.82597700091E+03  0.82667044742E+03  0.00000000000E+00 0.  1.
         -1    1    1    2    0  501 -0.32521998137E+02 -0.93990553148E+01 -0.25533389682E+03  0.25756828506E+03  0.00000000000E+00 0. -1.
</event>
<event>
 4    1  0.6740123E+001  0.2259377E+02  0.7546771E-02  0.1497663E+00
          2   -1    0    0  502    0  0.00000000000E+00  0.00000000000E+00  0.77247907691E+02  0.77247907691E+02  0.00000000000E+00 0. -1.
         -2   -1    0    0    0  501 -0.00000000000E+00 -0.00000000000E+00 -0.14120414044E+02  0.14120414044E+02  0.00000000000E+00 0.  1.
          1    1    1    2  502    0 -0.13018041838E+02 -0.18466426637E+02 -0.17576084316E+01  0.22662028008E+02  0.00000000000E+00 0.  1.
         -1    1    1    2    0  501  0.13018041838E+02  0.18466426637E+02  0.64885102078E+02  0.68706293727E+02  0.00000000000E+00 0. -1.
</event>
<event>
 4    1  0.6740123E+001  0.2429827E+02  0.7546771E-02  0.1476809E+00
          2   -1    0    0  502    0  0.00000000000E+00  0.00000000000E+00  0.34495878657E+03  0.34495878657E+03  0.00000000000E+00 0. -1.
         -2   -1    0    0    0  501 -0.00000000000E+00 -0.00000000000E+00 -0.19952511497E+01  0.19952511497E+01  0.00000000000E+00 0.  1.
          1    1    1    2  502    0 -0.13750112203E+02 -0.20033483873E+02  0.10606459127E+03  0.10881224005E+03  0.00000000000E+00 0.  1.
         -1    1    1    2    0  501  0.13750112203E+02  0.20033483873E+02  0.23689894415E+03  0.23814179768E+03  0.00000000000E+00 0. -1.
</event>
<event>
 4    1  0.6740123E+001  0.2078536E+02  0.7546771E-02  0.1522352E+00
          2   -1    0    0  502    0  0.00000000000E+00  0.00000000000E+00  0.21893214290E+01  0.21893214290E+01  0.00000000000E+00 0. -1.
         -2   -1    0    0    0  501 -0.00000000000E+00 -0.00000000000E+00 -0.25614223626E+03  0.25614223626E+03  0.00000000000E+00 0.  1.
          1    1    1    2  502    0 -0.15897518348E+02  0.13390294774E+02 -0.65086527061E+02  0.68324864351E+02  0.00000000000E+00 0. -1.
         -1    1    1    2    0  501  0.15897518348E+02 -0.13390294774E+02 -0.18886638777E+03  0.19000669333E+03  0.00000000000E+00 0.  1.
</event>
<event>
 4    1  0.6740123E+001  0.2675321E+02  0.7546771E-02  0.1450103E+00
          2   -1    0    0  502    0  0.00000000000E+00  0.00000000000E+00  0.29178542582E+01  0.29178542582E+01  0.00000000000E+00 0. -1.
         -2   -1    0    0    0  501 -0.00000000000E+00 -0.00000000000E+00 -0.27934497037E+03  0.27934497037E+03  0.00000000000E+00 0.  1.
          1    1    1    2  502    0  0.21143666301E+02  0.16391456210E+02 -0.88940111901E+02  0.92876681500E+02  0.00000000000E+00 0. -1.
         -1    1    1    2    0  501 -0.21143666301E+02 -0.16391456210E+02 -0.18748700421E+03  0.18938614313E+03  0.00000000000E+00 0.  1.
</event>
<event>
 4    1  0.6740123E+001  0.2403325E+02  0.7546771E-02  0.1479916E+00
          2   -1    0    0  502    0  0.00000000000E+00  0.00000000000E+00  0.23216160114E+01  0.23216160114E+01  0.00000000000E+00 0. -1.
         -2   -1    0    0    0  501 -0.00000000000E+00 -0.00000000000E+00 -0.29045186268E+03  0.29045186268E+03  0.00000000000E+00 0.  1.
          1    1    1    2  502    0  0.19658675807E+02 -0.13825104842E+02 -0.88624381569E+02  0.91825258327E+02  0.00000000000E+00 0. -1.
         -1    1    1    2    0  501 -0.19658675807E+02  0.13825104842E+02 -0.19950586510E+03  0.20094822037E+03  0.00000000000E+00 0.  1.
</event>
<event>
 4    1  0.6740123E+001  0.3155095E+02  0.7546771E-02  0.1406581E+00
          2   -1    0    0  502    0  0.00000000000E+00  0.00000000000E+00  0.42587657982E+02  0.42587657982E+02  0.00000000000E+00 0. -1.
         -2   -1    0    0    0  501 -0.00000000000E+00 -0.00000000000E+00 -0.24734848687E+02  0.24734848687E+02  0.00000000000E+00 0.  1.
          1    1    1    2  502    0 -0.21342624869E+02 -0.23236928873E+02  0.10321535166E+01  0.31567829204E+02  0.00000000000E+00 0.  1.
         -1    1    1    2    0  501  0.21342624869E+02  0.23236928873E+02  0.16820655778E+02  0.35754677464E+02  0.00000000000E+00 0. -1.
</event>
<event>
 4    1  0.6740123E+001  0.2179005E+02  0.7546771E-02  0.1508277E+00
          2   -1    0    0  502    0  0.00000000000E+00  0.00000000000E+00  0.92819410355E+02  0.92819410355E+02  0.00000000000E+00 0. -1.
         -2   -1    0    0    0  501 -0.00000000000E+00 -0.00000000000E+00 -0.51157355234E+01  0.51157355234E+01  0.00000000000E+00 0.  1.
          1    1    1    2  502    0  0.21592902857E+02 -0.29244949631E+01  0.44262707678E+02  0.49335518803E+02  0.00000000000E+00 0. -1.
         -1    1    1    2    0  501 -0.21592902857E+02  0.29244949631E+01  0.43440967154E+02  0.48599627075E+02  0.00000000000E+00 0.  1.
</event>
<event>
 4    1  0.6740123E+001  0.2164818E+02  0.7546771E-02  0.1510208E+00
          2   -1    0    0  502    0  0.00000000000E+00  0.00000000000E+00  0.23928912099E+03  0.23928912099E+03  0.00000000000E+00 0. -1.
         -2   -1    0    0    0  501 -0.00000000000E+00 -0.00000000000E+00 -0.19595566219E+01  0.19595566219E+01  0.00000000000E+00 0.  1.
          1    1    1    2  502    0  0.34540380042E+00  0.21645421995E+02  0.11584089067E+03  0.11784632175E+03  0.00000000000E+00 0. -1.
         -1    1    1    2    0  501 -0.34540380042E+00 -0.21645421995E+02  0.12148867369E+03  0.12340235586E+03  0.00000000000E+00 0.  1.
</event>
<event>
 4    1  0.6740123E+001  0.2204590E+02  0.7546771E-02  0.1504839E+00
          2   -1    0    0  502    0  0.00000000000E+00  0.00000000000E+00  0.95564042729E+03  0.95564042729E+03  0.00000000000E+00 0. -1.
         -2   -1    0    0    0  501 -0.00000000000E+00 -0.00000000000E+00 -0.61673163762E+00  0.61673163762E+00  0.00000000000E+00 0.  1.
          1    1    1    2  502    0 -0.11558547146E+02 -0.18772898596E+02  0.67773240910E+03  0.67809087892E+03  0.00000000000E+00 0.  1.
         -1    1    1    2    0  501  0.11558547146E+02  0.18772898596E+02  0.27729128655E+03  0.27816628000E+03  0.00000000000E+00 0. -1.
</event>
<event>
 4    1  0.6740123E+001  0.2693959E+02  0.7546771E-02  0.1448216E+00
          2   -1    0    0  502    0  0.00000000000E+00  0.00000000000E+00  0.18572486315E+04  0.18572486315E+04  0.00000000000E+00 0. -1.
         -2   -1    0    0    0  501 -0.00000000000E+00 -0.00000000000E+00 -0.41197662970E+00  0.41197662970E+00  0.00000000000E+00 0.  1.
          1    1    1    2  502    0 -0.19974994996E+02 -0.18075982946E+02  0.11391943230E+04  0.11395128113E+04  0.00000000000E+00 0. -1.
         -1    1    1    2    0  501  0.19974994996E+02  0.18075982946E+02  0.71764233189E+03  0.71814779684E+03  0.00000000000E+00 0.  1.
</event>
<event>
 4    1  0.6740123E+001  0.2139179E+02  0.7546771E-02  0.1513744E+00
          2   -1    0    0  502    0  0.00000000000E+00  0.00000000000E+00  0.41195248105E+03  0.41195248105E+03  0.00000000000E+00 0.  1.
         -2   -1    0    0    0  501 -0.00000000000E+00 -0.00000000000E+00 -0.15597936920E+01  0.15597936920E+01  0.00000000000E+00 0. -1.
          1    1    1    2  502    0  0.83325215676E+01  0.19702231192E+02  0.31612170334E+03  0.31684466250E+03  0.00000000000E+00 0.  1.
         -1    1    1    2    0  501 -0.83325215676E+01 -0.19702231192E+02  0.94270984020E+02  0.96667612248E+02  0.00000000000E+00 0. -1.
</event>
<event>
 4    1  0.6740123E+001  0.3417546E+02  0.7546771E-02  0.1386454E+00
          2   -1    0    0  502    0  0.00000000000E+00  0.00000000000E+00  0.81165173449E+03  0.81165173449E+03  0.00000000000E+00 0. -1.
         -2   -1    0    0    0  501 -0.00000000000E+00 -0.00000000000E+00 -0.14800913201E+01  0.14800913201E+01  0.00000000000E+00 0.  1.
          1    1    1    2  502    0  0.19407868796E+02  0.28129996272E+02  0.33733837936E+03  0.33906510327E+03  0.00000000000E+00 0. -1.
         -1    1    1    2    0  501 -0.19407868796E+02 -0.28129996272E+02  0.47283326381E+03  0.47406672255E+03  0.00000000000E+00 0.  1.
</event>
<event>
 4    1  0.6740123E+001  0.2192219E+02  0.7546771E-02  0.1506495E+00
          2   -1    0    0  502    0  0.00000000000E+00  0.00000000000E+00  0.89812193589E+00  0.89812193589E+00  0.00000000000E+00 0.  1.
         -2   -1    0    0    0  501 -0.00000000000E+00 -0.00000000000E+00 -0.66638823264E+03  0.66638823264E+03  0.00000000000E+00 0. -1.
          1    1    1    2  502    0 -0.21231853217E+02  0.54580974842E+01 -0.18465144170E+03  0.18594821145E+03  0.00000000000E+00 0.  1.
         -1    1    1    2    0  501  0.21231853217E+02 -0.54580974842E+01 -0.48083866901E+03  0.48133814313E+03  0.00000000000E+00 0. -1.
</event>
<event>
 4    1  0.6740123E+001  0.2052179E+02  0.7546771E-02  0.1526203E+00
          2   -1    0    0  502    0  0.00000000000E+00  0.00000000000E+00  0.27952266788E+01  0.27952266788E+01  0.00000000000E+00 0. -1.
         -2   -1    0    0    0  501 -0.00000000000E+00 -0.00000000000E+00 -0.15113722189E+03  0.15113722189E+03  0.00000000000E+00 0.  1.
          1    1    1    2  502    0  0.12699628132E+02 -0.16120281902E+02 -0.78471185505E+02  0.81110239784E+02  0.00000000000E+00 0. -1.
         -1    1    1    2    0  501 -0.12699628132E+02  0.16120281902E+02 -0.69870809704E+02  0.72822208783E+02  0.00000000000E+00 0.  1.
</event>
<event>
 4    1  0.6740123E+001  0.2703825E+02  0.7546771E-02  0.1447224E+00
          2   -1    0    0  502    0  0.00000000000E+00  0.00000000000E+00  0.76604384315E+03  0.76604384315E+03  0.00000000000E+00 0. -1.
         -2   -1    0    0    0  501 -0.00000000000E+00 -0.00000000000E+00 -0.16254179967E+01  0.16254179967E+01  0.00000000000E+00 0.  1.
          1    1    1    2  502    0  0.15135164253E+02  0.22405216741E+02  0.62884031675E+03  0.62942133020E+03  0.00000000000E+00 0. -1.
         -1    1    1    2    0  501 -0.15135164253E+02 -0.22405216741E+02  0.13557810840E+03  0.13824793094E+03  0.00000000000E+00 0.  1.
</event>
<event>
 4    1  0.6740123E+001  0.2495475E+02  0.7546771E-02  0.1469310E+00
          2   -1    0    0  502    0  0.00000000000E+00  0.00000000000E+00  0.14452455161E+04  0.14452455161E+04  0.00000000000E+00 0. -1.
         -2   -1    0    0    0  501 -0.00000000000E+00 -0.00000000000E+00 -0.49635947822E+00  0.49635947822E+00  0.00000000000E+00 0.  1.
          1    1    1    2  502    0  0.23183043527E+02  0.92350324637E+01  0.45983922030E+03  0.46051584974E+03  0.00000000000E+00 0.  1.
         -1    1    1    2    0  501 -0.23183043527E+02 -0.92350324637E+01  0.98490993631E+03  0.98522602583E+03  0.00000000000E+00 0. -1.
</event>
<event>
 4    1  0.6740123E+001  0.5068581E+02  0.7546771E-02  0.1295226E+00
          2   -1    0    0  502    0  0.00000000000E+00  0.00000000000E+00  0.32144983338E+03  0.32144983338E+03  0.00000000000E+00 0.  1.
         -2   -1    0    0    0  501 -0.00000000000E+00 -0.00000000000E+00 -0.13774041485E+02  0.13774041485E+02  0.00000000000E+00 0. -1.
          1    1    1    2  502    0  0.44166372490E+02  0.24867303262E+02  0.45242345362E+02  0.67940569944E+02  0.00000000000E+00 0. -1.
         -1    1    1    2    0  501 -0.44166372490E+02 -0.24867303262E+02  0.26243344653E+03  0.26728330492E+03  0.00000000000E+00 0.  1.
</event>
<event>
 4    1  0.6740123E+001  0.2299572E+02  0.7546771E-02  0.1492552E+00
          2   -1    0    0  502    0  0.00000000000E+00  0.00000000000E+00  0.32160827003E+03  0.32160827003E+03  0.00000000000E+00 0.  1.
         -2   -1    0    0    0  501 -0.00000000000E+00 -0.00000000000E+00 -0.22986127930E+01  0.22986127930E+01  0.00000000000E+00 0. -1.
          1    1    1    2  502    0  0.19446229332E+02 -0.12273837532E+02  0.24606564174E+03  0.24713782181E+03  0.00000000000E+00 0.  1.
         -1    1    1    2    0  501 -0.19446229332E+02  0.12273837532E+02  0.73244015493E+02  0.76769061011E+02  0.00000000000E+00 0. -1.
</event>
<event>
 4    1  0.6740123E+001  0.2900995E+02  0.7546771E-02  0.1428399E+00
          2   -1    0    0  502    0  0.00000000000E+00  0.00000000000E+00  0.25383377179E+04  0.25383377179E+04  0.00000000000E+00 0.  1.
         -2   -1    0    0    0  501 -0.00000000000E+00 -0.00000000000E+00 -0.47450535433E+00  0.47450535433E+00  0.00000000000E+00 0. -1.
          1    1    1    2  502    0 -0.24608100232E+02 -0.15362906113E+02  0.19656948936E+04  0.19659089481E+04  0.00000000000E+00 0. -1.
         -1    1    1    2    0  501  0.24608100232E+02  0.15362906113E+02  0.57216831893E+03  0.57290327514E+03  0.00000000000E+00 0.  1.
</event>
<event>
 4    1  0.6740123E+001  0.2516115E+02  0.7546771E-02  0.1467009E+00
          2   -1    0    0  502    0  0.00000000000E+00  0.00000000000E+00  0.60359756814E+02  0.60359756814E+02  0.00000000000E+00 0.  1.
         -2   -1    0    0    0  501 -0.00000000000E+00 -0.00000000000E+00 -0.13629989071E+02  0.13629989071E+02  0.00000000000E+00 0. -1.
          1    1    1    2  502    0 -0.66148878335E+01 -0.24276052199E+02  0.56041298230E+01  0.25777698161E+02  0.00000000000E+00 0. -1.
         -1    1    1    2    0  501  0.66148878335E+01  0.24276052199E+02  0.41125637920E+02  0.48212047724E+02  0.00000000000E+00 0.  1.
</event>
<event>
 4    1  0.6740123E+001  0.2935402E+02  0.7546771E-02  0.1425294E+00
          2   -1    0    0  502    0  0.00000000000E+00  0.00000000000E+00  0.99263616607E+00  0.99263616607E+00  0.00000000000E+00 0. -1.
         -2   -1    0    0    0  501 -0.00000000000E+00 -0.00000000000E+00 -0.88067396118E+03  0.88067396118E+03  0.00000000000E+00 0.  1.
          1    1    1    2  502    0  0.41716590976E+01 -0.29056083186E+02 -0.49261822022E+03  0.49349201575E+03  0.00000000000E+00 0.  1.
         -1    1    1    2    0  501 -0.41716590976E+01  0.29056083186E+02 -0.38706310479E+03  0.38817458160E+03  0.00000000000E+00 0. -1.
</event>
<event>
 4    1  0.6740123E+001  0.2152728E+02  0.7546771E-02  0.1511868E+00
          2   -1    0    0  502    0  0.00000000000E+00  0.00000000000E+00  0.61397692947E+01  0.61397692947E+01  0.00000000000E+00 0.  1.
         -2   -1    0    0    0  501 -0.00000000000E+00 -0.00000000000E+00 -0.95384582992E+02  0.95384582992E+02  0.00000000000E+00 0. -1.
          1    1    1    2  502    0 -0.21467016645E+02  0.16096039963E+01 -0.67811759319E+02  0.71146738018E+02  0.00000000000E+00 0.  1.
         -1    1    1    2    0  501  0.21467016645E+02 -0.16096039963E+01 -0.21433054379E+02  0.30377614269E+02  0.00000000000E+00 0. -1.
</event>
<event>
 4    1  0.6740123E+001  0.2723361E+02  0.7546771E-02  0.1445276E+00
          2   -1    0    0  502    0  0.00000000000E+00  0.00000000000E+00  0.94899618450E+03  0.94899618450E+03  0.00000000000E+00 0.  1.
         -2   -1    0    0    0  501 -0.00000000000E+00 -0.00000000000E+00 -0.91858322866E+00  0.91858322866E+00  0.00000000000E+00 0. -1.
          1    1    1    2  502    0  0.63428760548E+01 -0.26484660539E+02  0.65749798919E+03  0.65806175630E+03  0.00000000000E+00 0.  1.
         -1    1    1    2    0  501 -0.63428760548E+01  0.26484660539E+02  0.29057961208E+03  0.29185301143E+03  0.00000000000E+00 0. -1.
</event>
<event>
 4    1  0.6740123E+001  0.6269208E+02  0.7546771E-02  0.1250950E+00
          2   -1    0    0  502    0  0.00000000000E+00  0.00000000000E+00  0.22187019515E+04  0.22187019515E+04  0.00000000000E+00 0. -1.
         -2   -1    0    0    0  501 -0.00000000000E+00 -0.00000000000E+00 -0.32940732505E+01  0.32940732505E+01  0.00000000000E+00 0.  1.
          1    1    1    2  502    0 -0.59573234040E+02 -0.19527573625E+02  0.18630472322E+04  0.18641017370E+04  0.00000000000E+00 0. -1.
         -1    1    1    2    0  501  0.59573234040E+02  0.19527573625E+02  0.35236064607E+03  0.35789428781E+03  0.00000000000E+00 0.  1.
</event>
<event>
 4    1  0.6740123E+001  0.2369591E+02  0.7546771E-02  0.1483940E+00
          2   -1    0    0  502    0  0.00000000000E+00  0.00000000000E+00  0.60472667287E+02  0.60472667287E+02  0.00000000000E+00 0. -1.
         -2   -1    0    0    0  501 -0.00000000000E+00 -0.00000000000E+00 -0.12873397430E+02  0.12873397430E+02  0.00000000000E+00 0.  1.
          1    1    1    2  502    0  0.64369254676E+00 -0.23687170270E+02  0.44379639130E+01  0.24107921918E+02  0.00000000000E+00 0.  1.
         -1    1    1    2    0  501 -0.64369254676E+00  0.23687170270E+02  0.43161305945E+02  0.49238142799E+02  0.00000000000E+00 0. -1.
</event>
<event>
 4    1  0.6740123E+001  0.2021618E+02  0.7546771E-02  0.1530756E+00
          2   -1    0    0  502    0  0.00000000000E+00  0.00000000000E+00  0.18038576911E+01  0.18038576911E+01  0.00000000000E+00 0. -1.
         -2   -1    0    0    0  501 -0.00000000000E+00 -0.00000000000E+00 -0.24688269763E+03  0.24688269763E+03  0.00000000000E+00 0.  1.
          1    1    1    2  502    0 -0.20216165723E+02 -0.19494279831E-01 -0.86869829644E+02  0.89191148882E+02  0.00000000000E+00 0.  1.
         -1    1    1    2    0  501  0.20216165723E+02  0.19494279831E-01 -0.15820901030E+03  0.15949540644E+03  0.00000000000E+00 0. -1.
</event>
<event>
 4    1  0.6740123E+001  0.2469056E+02  0.7546771E-02  0.1472295E+00
          2   -1    0    0  502    0  0.00000000000E+00  0.00000000000E+00  0.27460159705E+03  0.27460159705E+03  0.00000000000E+00 0.  1.
         -2   -1    0    0    0  501 -0.00000000000E+00 -0.00000000000E+00 -0.31825609368E+01  0.31825609368E+01  0.00000000000E+00 0. -1.
          1    1    1    2  502    0 -0.22200364636E+02 -0.10805902601E+02  0.59326552704E+02  0.64259346221E+02  0.00000000000E+00 0. -1.
         -1    1    1    2    0  501  0.22200364636E+02  0.10805902601E+02  0.21209248341E+03  0.21352481176E+03  0.00000000000E+00 0.  1.
</event>
<event>
 4    1  0.6740123E+001  0.7826619E+02  0.7546771E-02  0.1207931E+00
          2   -1    0    0  502    0  0.00000000000E+00  0.00000000000E+00  0.26431610899E+04  0.26431610899E+04  0.00000000000E+00 0.  1.
         -2   -1    0    0    0  501 -0.00000000000E+00 -0.00000000000E+00 -0.23403085767E+01  0.23403085767E+01  0.00000000000E+00 0. -1.
          1    1    1    2  502    0  0.70799106660E+02 -0.33362901697E+02  0.11899030172E+04  0.11924742291E+04  0.00000000000E+00 0.  1.
         -1    1    1    2    0  501 -0.70799106660E+02  0.33362901697E+02  0.14509177641E+04  0.14530271694E+04  0.00000000000E+00 0. -1.
</event>
<event>
 4    1  0.6740123E+001  0.2042433E+02  0.7546771E-02  0.1527645E+00
          2   -1    0    0  502    0  0.00000000000E+00  0.00000000000E+00  0.75544117143E+00  0.75544117143E+00  0.00000000000E+00 0.  1.
         -2   -1    0    0    0  501 -0.00000000000E+00 -0.00000000000E+00 -0.56357123016E+03  0.56357123016E+03  0.00000000000E+00 0. -1.
          1    1    1    2  502    0  0.78329509913E+01 -0.18862615131E+02 -0.24132479064E+03  0.24218754706E+03  0.00000000000E+00 0.  1.
         -1    1    1    2    0  501 -0.78329509913E+01  0.18862615131E+02 -0.32149099834E+03  0.32213912427E+03  0.00000000000E+00 0. -1.
</event>
<event>
 4    1  0.6740123E+001  0.2573400E+02  0.7546771E-02  0.1460757E+00
          2   -1    0    0  502    0  0.00000000000E+00  0.00000000000E+00  0.44309566867E+01  0.44309566867E+01  0.00000000000E+00 0.  1.
         -2   -1    0    0    0  501 -0.00000000000E+00 -0.00000000000E+00 -0.27380400169E+03  0.27380400169E+03  0.00000000000E+00 0. -1.
          1    1    1    2  502    0 -0.22633877151E+02 -0.12245260011E+02 -0.22843817963E+03  0.22988310225E+03  0.00000000000E+00 0. -1.
         -1    1    1    2    0  501  0.22633877151E+02  0.12245260011E+02 -0.40934865366E+02  0.48351856119E+02  0.00000000000E+00 0.  1.
</event>
<event>
 4    1  0.6740123E+001  0.2268533E+02  0.7546771E-02  0.1496488E+00
          2   -1    0    0  502    0  0.00000000000E+00  0.00000000000E+00  0.27949154831E+03  0.27949154831E+03  0.00000000000E+00 0.  1.
         -2   -1    0    0    0  501 -0.00000000000E+00 -0.00000000000E+00 -0.24643329811E+01  0.24643329811E+01  0.00000000000E+00 0. -1.
          1    1    1    2  502    0  0.14704915486E+02  0.17273959100E+02  0.20939976875E+03  0.21062499223E+03  0.00000000000E+00 0. -1.
         -1    1    1    2    0  501 -0.14704915486E+02 -0.17273959100E+02  0.67627446580E+02  0.71330889055E+02  0.00000000000E+00 0.  1.
</event>
<event>
 4    1  0.6740123E+001  0.3332830E+02  0.7546771E-02  0.1392713E+00
          2   -1    0    0  502    0  0.00000000000E+00  0.00000000000E+00  0.39911484463E+01  0.39911484463E+01  0.00000000000E+00 0. -1.
         -2   -1    0    0    0  501 -0.00000000000E+00 -0.00000000000E+00 -0.36302698386E+03  0.36302698386E+03  0.00000000000E+00 0.  1.
          1    1    1    2  502    0  0.32821369818E+02  0.57907755155E+01 -0.90868877591E+02  0.96788058729E+02  0.00000000000E+00 0. -1.
         -1    1    1    2    0  501 -0.32821369818E+02 -0.57907755155E+01 -0.26816695782E+03  0.27023007357E+03  0.00000000000E+00 0.  1.
</event>
<event>
 4    1  0.6740123E+001  0.2375980E+02  0.7546771E-02  0.1483171E+00
          2   -1    0    0  502    0  0.00000000000E+00  0.00000000000E+00  0.43144927020E+01  0.43144927020E+01  0.00000000000E+00 0.  1.
         -2   -1    0    0    0  501 -0.00000000000E+00 -0.00000000000E+00 -0.13432994369E+03  0.13432994369E+03  0.00000000000E+00 0. -1.
          1    1    1    2  502    0 -0.14526885830E+02  0.18801536112E+02 -0.76173976640E+02  0.79793501548E+02  0.00000000000E+00 0.  1.
         -1    1    1    2    0  501  0.14526885830E+02 -0.18801536112E+02 -0.53841474351E+02  0.58850934847E+02  0.00000000000E+00 0. -1.
</event>
<event>
 4    1  0.6740123E+001  0.2170252E+02  0.7546771E-02  0.1509467E+00
          2   -1    0    0  502    0  0.00000000000E+00  0.00000000000E+00  0.12436099457E+04  0.12436099457E+04  0.00000000000E+00 0. -1.
         -2   -1    0    0    0  501 -0.00000000000E+00 -0.00000000000E+00 -0.38542053823E+00  0.38542053823E+00  0.00000000000E+00 0.  1.
          1    1    1    2  502    0 -0.19959191588E+02  0.85223275693E+01  0.70352832555E+03  0.70386298684E+03  0.00000000000E+00 0. -1.
         -1    1    1    2    0  501  0.19959191588E+02 -0.85223275693E+01  0.53969619961E+03  0.54013237939E+03  0.00000000000E+00 0.  1.
</event>
<event>
 4    1  0.6740123E+001  0.2455378E+02  0.7546771E-02  0.1473858E+00
          2   -1    0    0  502    0  0.00000000000E+00  0.00000000000E+00  0.21475767619E+03  0.21475767619E+03  0.00000000000E+00 0. -1.
         -2   -1    0    0    0  501 -0.00000000000E+00 -0.00000000000E+00 -0.31922058379E+01  0.31922058379E+01  0.00000000000E+00 0.  1.
          1    1    1    2  502    0 -0.95240452019E+01 -0.22631412155E+02  0.14362359530E+03  0.14570732781E+03  0.00000000000E+00 0.  1.
         -1    1    1    2    0  501  0.95240452019E+01  0.22631412155E+02  0.67941875053E+02  0.72242554211E+02  0.00000000000E+00 0. -1.
</event>
<event>
 4    1  0.6740123E+001  0.6538732E+02  0.7546771E-02  0.1242551E+00
          2   -1    0    0  502    0  0.00000000000E+00  0.00000000000E+00  0.22156449742E+03  0.22156449742E+03  0.00000000000E+00 0. -1.
         -2   -1    0    0    0  501 -0.00000000000E+00 -0.00000000000E+00 -0.29889382777E+02  0.29889382777E+02  0.00000000000E+00 0.  1.
          1    1    1    2  502    0 -0.37474798121E+02 -0.53583031447E+02  0.17068368381E+03  0.18277970804E+03  0.00000000000E+00 0. -1.
         -1    1    1    2    0  501  0.37474798121E+02  0.53583031447E+02  0.20991430838E+02  0.68674172160E+02  0.00000000000E+00 0.  1.
</event>
<event>
 4    1  0.6740123E+001  0.2643007E+02  0.7546771E-02  0.1453419E+00
          2   -1    0    0  502    0  0.00000000000E+00  0.00000000000E+00  0.48798817163E+02  0.48798817163E+02  0.00000000000E+00 0. -1.
         -2   -1    0    0    0  501 -0.00000000000E+00 -0.00000000000E+00 -0.27920969151E+02  0.27920969151E+02  0.00000000000E+00 0.  1.
          1    1    1    2  502    0 -0.11832618420E+02  0.23633399703E+02 -0.16339132457E+02  0.31072748344E+02  0.00000000000E+00 0.  1.
         -1    1    1    2    0  501  0.11832618420E+02 -0.23633399703E+02  0.37216980469E+02  0.45647037970E+02  0.00000000000E+00 0. -1.
</event>
<event>
 4    1  0.6740123E+001  0.3240441E+02  0.7546771E-02  0.1399791E+00
          2   -1    0    0  502    0  0.00000000000E+00  0.00000000000E+00  0.49673920398E+03  0.49673920398E+03  0.00000000000E+00 0.  1.
         -2   -1    0    0    0  501 -0.00000000000E+00 -0.00000000000E+00 -0.27068431551E+01  0.27068431551E+01  0.00000000000E+00 0. -1.
          1    1    1    2  502    0  0.29194070841E+02  0.14062436670E+02  0.36389659847E+03  0.36533653017E+03  0.00000000000E+00 0. -1.
         -1    1    1    2    0  501 -0.29194070841E+02 -0.14062436670E+02  0.13013576235E+03  0.13410951696E+03  0.00000000000E+00 0.  1.
</event>
<event>
 4    1  0.6740123E+001  0.2836700E+02  0.7546771E-02  0.1434339E+00
          2   -1    0    0  502    0  0.00000000000E+00  0.00000000000E+00  0.80244903051E+03  0.80244903051E+03  0.00000000000E+00 0. -1.
         -2   -1    0    0    0  501 -0.00000000000E+00 -0.00000000000E+00 -0.10103897011E+01  0.10103897011E+01  0.00000000000E+00 0.  1.
          1    1    1    2  502    0  0.28174860212E+02  0.32960496046E+01  0.43556343952E+03  0.43648619284E+03  0.00000000000E+00 0. -1.
         -1    1    1    2    0  501 -0.28174860212E+02 -0.32960496046E+01  0.36587520129E+03  0.36697322737E+03  0.00000000000E+00 0.  1.
</event>
<event>
 4    1  0.6740123E+001  0.2228021E+02  0.7546771E-02  0.1501740E+00
          2   -1    0    0  502    0  0.00000000000E+00  0.00000000000E+00  0.25318348242E+03  0.25318348242E+03  0.00000000000E+00 0.  1.
         -2   -1    0    0    0  501 -0.00000000000E+00 -0.00000000000E+00 -0.25880736876E+01  0.25880736876E+01  0.00000000000E+00 0. -1.
          1    1    1    2  502    0 -0.12178391370E+02  0.18657289586E+02  0.18826421614E+03  0.18957801230E+03  0.00000000000E+00 0. -1.
         -1    1    1    2    0  501  0.12178391370E+02 -0.18657289586E+02  0.62331192593E+02  0.66193543802E+02  0.00000000000E+00 0.  1.
</event>
<event>
 4    1  0.6740123E+001  0.2293094E+02  0.7546771E-02  0.1493367E+00
          2   -1    0    0  502    0  0.00000000000E+00  0.00000000000E+00  0.20821070143E+01  0.20821070143E+01  0.00000000000E+00 0. -1.
         -2   -1    0    0    0  501 -0.00000000000E+00 -0.00000000000E+00 -0.92726853179E+03  0.92726853179E+03  0.00000000000E+00 0.  1.
          1    1    1    2  502    0 -0.40106142260E+01 -0.22577487889E+02 -0.85897110370E+03  0.85927712932E+03  0.00000000000E+00 0.  1.
         -1    1    1    2    0  501  0.40106142260E+01  0.22577487889E+02 -0.66215321071E+02  0.70073509476E+02  0.00000000000E+00 0. -1.
</event>
<event>
 4    1  0.6740123E+001  0.2086500E+02  0.7546771E-02  0.1521201E+00
          2   -1    0    0  502    0  0.00000000000E+00  0.00000000000E+00  0.14372886739E+04  0.14372886739E+04  0.00000000000E+00 0.  1.
         -2   -1    0    0    0  501 -0.00000000000E+00 -0.00000000000E+00 -0.30300987085E+00  0.30300987085E+00  0.00000000000E+00 0. -1.
          1    1    1    2  502    0  0.16666049402E+02  0.12553525602E+02  0.73246034531E+03  0.73275746715E+03  0.00000000000E+00 0.  1.
         -1    1    1    2    0  501 -0.16666049402E+02 -0.12553525602E+02  0.70452531867E+03  0.70483421658E+03  0.00000000000E+00 0. -1.
</event>
<event>
 4    1  0.6740123E+001  0.2676144E+02  0.7546771E-02  0.1450019E+00
          2   -1    0    0  502    0  0.00000000000E+00  0.00000000000E+00  0.16566684894E+04  0.16566684894E+04  0.00000000000E+00 0. -1.
         -2   -1    0    0    0  501 -0.00000000000E+00 -0.00000000000E+00 -0.43863016891E+00  0.43863016891E+00  0.00000000000E+00 0.  1.
          1    1    1    2  502    0 -0.10792778253E+02  0.24488582451E+02  0.92766515261E+03  0.92805108162E+03  0.00000000000E+00 0. -1.
         -1    1    1    2    0  501  0.10792778253E+02 -0.24488582451E+02  0.72856470660E+03  0.72905603793E+03  0.00000000000E+00 0.  1.
</event>
<event>
 4    1  0.6740123E+001  0.2859152E+02  0.7546771E-02  0.1432244E+00
          2   -1    0    0  502    0  0.00000000000E+00  0.00000000000E+00  0.24214741103E+04  0.24214741103E+04  0.00000000000E+00 0.  1.
         -2   -1    0    0    0  501 -0.00000000000E+00 -0.00000000000E+00 -0.41245474260E+00  0.41245474260E+00  0.00000000000E+00 0. -1.
          1    1    1    2  502    0  0.19192814166E+02 -0.21192241208E+02  0.17264273859E+04  0.17266641231E+04  0.00000000000E+00 0.  1.
         -1    1    1    2    0  501 -0.19192814166E+02  0.21192241208E+02  0.69463426965E+03  0.69522244194E+03  0.00000000000E+00 0. -1.
</event>
<event>
 4    1  0.6740123E+001  0.4221127E+02  0.7546771E-02  0.1335993E+00
          2   -1    0    0  502    0  0.00000000000E+00  0.00000000000E+00  0.39291746911E+02  0.39291746911E+02  0.00000000000E+00 0. -1.
         -2   -1    0    0    0  501 -0.00000000000E+00 -0.00000000000E+00 -0.45637442859E+02  0.45637442859E+02  0.00000000000E+00 0.  1.
          1    1    1    2  502    0 -0.85938936181E+01 -0.41327189482E+02 -0.65562135379E+01  0.42717391470E+02  0.00000000000E+00 0.  1.
         -1    1    1    2    0  501  0.85938936181E+01  0.41327189482E+02  0.21051758989E+00  0.42211798300E+02  0.00000000000E+00 0. -1.
</event>
<event>
 4    1  0.6740123E+001  0.2357805E+02  0.7546771E-02  0.1485364E+00
          2   -1    0    0  502    0  0.00000000000E+00  0.00000000000E+00  0.17155690486E+02  0.17155690486E+02  0.00000000000E+00 0. -1.
         -2   -1    0    0    0  501 -0.00000000000E+00 -0.00000000000E+00 -0.13206339034E+03  0.13206339034E+03  0.00000000000E+00 0.  1.
          1    1    1    2  502    0 -0.21575392011E+02 -0.95092997276E+01  0.73589551572E+01  0.24699768070E+02  0.00000000000E+00 0. -1.
         -1    1    1    2    0  501  0.21575392011E+02  0.95092997276E+01 -0.12226665501E+03  0.12451931275E+03  0.00000000000E+00 0.  1.
</event>
<event>
 4    1  0.6740123E+001  0.2404905E+02  0.7546771E-02  0.1479729E+00
          2   -1    0    0  502    0  0.00000000000E+00  0.00000000000E+00  0.13186486925E+03  0.13186486925E+03  0.00000000000E+00 0.  1.
         -2   -1    0    0    0  501 -0.00000000000E+00 -0.00000000000E+00 -0.56232135801E+01  0.56232135801E+01  0.00000000000E+00 0. -1.
          1    1    1    2  502    0  0.19576256925E+02  0.13968785169E+02  0.30875375977E+02  0.39136244531E+02  0.00000000000E+00 0. -1.
         -1    1    1    2    0  501 -0.19576256925E+02 -0.13968785169E+02  0.95366279689E+02  0.98351838295E+02  0.00000000000E+00 0.  1.
</event>
<event>
 4    1  0.6740123E+001  0.3642726E+02  0.7546771E-02  0.1370797E+00
          2   -1    0    0  502    0  0.00000000000E+00  0.00000000000E+00  0.93406892197E+03  0.93406892197E+03  0.00000000000E+00 0. -1.
         -2   -1    0    0    0  501 -0.00000000000E+00 -0.00000000000E+00 -0.23780395834E+01  0.23780395834E+01  0.00000000000E+00 0.  1.
          1    1    1    2  502    0  0.34902382824E+02  0.10429242078E+02  0.76294199435E+03  0.76381112335E+03  0.00000000000E+00 0. -1.
         -1    1    1    2    0  501 -0.34902382824E+02 -0.10429242078E+02  0.16874888804E+03  0.17263583820E+03  0.00000000000E+00 0.  1.
</event>
<event>
 4    1  0.6740123E+001  0.2242340E+02  0.7546771E-02  0.1499868E+00
          2   -1    0    0  502    0  0.00000000000E+00  0.00000000000E+00  0.51487508400E+01  0.51487508400E+01  0.00000000000E+00 0. -1.
         -2   -1    0    0    0  501 -0.00000000000E+00 -0.00000000000E+00 -0.10605824692E+03  0.10605824692E+03  0.00000000000E+00 0.  1.
          1    1    1    2  502    0 -0.21984989535E+02 -0.44123822918E+01 -0.66104779644E+02  0.69804375036E+02  0.00000000000E+00 0.  1.
         -1    1    1    2    0  501  0.21984989535E+02  0.44123822918E+01 -0.34804716440E+02  0.41402622728E+02  0.00000000000E+00 0. -1.
</event>
<event>
 4    1  0.6740123E+001  0.2456599E+02  0.7546771E-02  0.1473718E+00
          2   -1    0    0  502    0  0.00000000000E+00  0.00000000000E+00  0.12203212663E+01  0.12203212663E+01  0.00000000000E+00 0. -1.
         -2   -1    0    0    0  501 -0.00000000000E+00 -0.00000000000E+00 -0.49528099235E+03  0.49528099235E+03  0.00000000000E+00 0.  1.
          1    1    1    2  502    0 -0.12269262033E+02 -0.21282690519E+02 -0.23737531654E+03  0.23864309881E+03  0.00000000000E+00 0.  1.
         -1    1    1    2    0  501  0.12269262033E+02  0.21282690519E+02 -0.25668535455E+03  0.25785821481E+03  0.00000000000E+00 0. -1.
</event>
<event>
 4    1  0.6740123E+001  0.2209066E+02  0.7546771E-02  0.1504244E+00
          2   -1    0    0  502    0  0.00000000000E+00  0.00000000000E+00  0.90145963345E+03  0.90145963345E+03  0.00000000000E+00 0. -1.
         -2   -1    0    0    0  501 -0.00000000000E+00 -0.00000000000E+00 -0.87517878327E+00  0.87517878327E+00  0.00000000000E+00 0.  1.
          1    1    1    2  502    0  0.16946971185E+02 -0.14170295777E+02  0.72894093353E+03  0.72927558693E+03  0.00000000000E+00 0. -1.
         -1    1    1    2    0  501 -0.16946971185E+02  0.14170295777E+02  0.17164352113E+03  0.17305922530E+03  0.00000000000E+00 0.  1.
</event>
<event>
 4    1  0.6740123E+001  0.2021772E+02  0.7546771E-02  0.1530733E+00
          2   -1    0    0  502    0  0.00000000000E+00  0.00000000000E+00  0.52561860537E+03  0.52561860537E+03  0.00000000000E+00 0.  1.
         -2   -1    0    0    0  501 -0.00000000000E+00 -0.00000000000E+00 -0.20300098640E+01  0.20300098640E+01  0.00000000000E+00 0. -1.
          1    1    1    2  502    0 -0.20085478695E+02 -0.23086561928E+01  0.54576372327E+02  0.58200831302E+02  0.00000000000E+00 0. -1.
         -1    1    1    2    0  501  0.20085478695E+02  0.23086561928E+01  0.46901222318E+03  0.46944778393E+03  0.00000000000E+00 0.  1.
</event>
<event>
 4    1  0.6740123E+001  0.2236831E+02  0.7546771E-02  0.1500586E+00
          2   -1    0    0  502    0  0.00000000000E+00  0.00000000000E+00  0.10390223503E+04  0.10390223503E+04  0.00000000000E+00 0.  1.
         -2   -1    0    0    0  501 -0.00000000000E+00 -0.00000000000E+00 -0.49103819543E+00  0.49103819543E+00  0.00000000000E+00 0. -1.
          1    1    1    2  502    0  0.11035198781E+01 -0.22341076663E+02  0.44701716805E+03  0.44757646273E+03  0.00000000000E+00 0. -1.
         -1    1    1    2    0  501 -0.11035198781E+01  0.22341076663E+02  0.59151414403E+03  0.59193692573E+03  0.00000000000E+00 0.  1.
</event>
<event>
 4    1  0.6740123E+001  0.2665394E+02  0.7546771E-02  0.1451116E+00
          2   -1    0    0  502    0  0.00000000000E+00  0.00000000000E+00  0.24830204159E+04  0.24830204159E+04  0.00000000000E+00 0. -1.
         -2   -1    0    0    0  501 -0.00000000000E+00 -0.00000000000E+00 -0.42176918603E+00  0.42176918603E+00  0.00000000000E+00 0.  1.
          1    1    1    2  502    0  0.10598928371E+02  0.24455984704E+02  0.19455077964E+04  0.19456903707E+04  0.00000000000E+00 0. -1.
         -1    1    1    2    0  501 -0.10598928371E+02 -0.24455984704E+02  0.53709085031E+03  0.53775181446E+03  0.00000000000E+00 0.  1.
</event>
<event>
 4    1  0.6740123E+001  0.2805895E+02  0.7546771E-02  0.1437251E+00
          2   -1    0    0  502    0  0.00000000000E+00  0.00000000000E+00  0.13156155470E+04  0.13156155470E+04  0.00000000000E+00 0.  1.
         -2   -1    0    0    0  501 -0.00000000000E+00 -0.00000000000E+00 -0.72029183029E+00  0.72029183029E+00  0.00000000000E+00 0. -1.
          1    1    1    2  502    0 -0.24617908546E+02 -0.13463395014E+02  0.38673065714E+03  0.38774721869E+03  0.00000000000E+00 0. -1.
         -1    1    1    2    0  501  0.24617908546E+02  0.13463395014E+02  0.92816459801E+03  0.92858862013E+03  0.00000000000E+00 0.  1.
</event>
<event>
 4    1  0.6740123E+001  0.2357072E+02  0.7546771E-02  0.1485453E+00
          2   -1    0    0  502    0  0.00000000000E+00  0.00000000000E+00  0.25031502128E+02  0.25031502128E+02  0.00000000000E+00 0. -1.
         -2   -1    0    0    0  501 -0.00000000000E+00 -0.00000000000E+00 -0.28210206227E+02  0.28210206227E+02  0.00000000000E+00 0.  1.
          1    1    1    2  502    0 -0.19338287591E+02 -0.13476262097E+02 -0.13881765782E+02  0.27354751475E+02  0.00000000000E+00 0. -1.
         -1    1    1    2    0  501  0.19338287591E+02  0.13476262097E+02  0.10703061683E+02  0.25886956879E+02  0.00000000000E+00 0.  1.
</event>
<event>
 4    1  0.6740123E+001  0.2108698E+02  0.7546771E-02  0.1518027E+00
          2   -1    0    0  502    0  0.00000000000E+00  0.00000000000E+00  0.41741943367E+01  0.41741943367E+01  0.00000000000E+00 0.  1.
         -2   -1    0    0    0  501 -0.00000000000E+00 -0.00000000000E+00 -0.12656460857E+03  0.12656460857E+03  0.00000000000E+00 0. -1.
          1    1    1    2  502    0 -0.12017763045E+01 -0.21052702364E+02 -0.35184549900E+02  0.41019667170E+02  0.00000000000E+00 0.  1.
         -1    1    1    2    0  501  0.12017763045E+01  0.21052702364E+02 -0.87205864337E+02  0.89719135739E+02  0.00000000000E+00 0. -1.
</event>
<event>
 4    1  0.6740123E+001  0.2359457E+02  0.7546771E-02  0.1485164E+00
          2   -1    0    0  502    0  0.00000000000E+00  0.00000000000E+00  0.30045238828E+03  0.30045238828E+03  0.00000000000E+00 0.  1.
         -2   -1    0    0    0  501 -0.00000000000E+00 -0.00000000000E+00 -0.18696253712E+01  0.18696253712E+01  0.00000000000E+00 0. -1.
          1    1    1    2  502    0  0.21529015062E+02  0.96542968534E+01  0.13498809649E+03  0.13703463114E+03  0.00000000000E+00 0. -1.
         -1    1    1    2    0  501 -0.21529015062E+02 -0.96542968534E+01  0.16359466642E+03  0.16528738251E+03  0.00000000000E+00 0.  1.
</event>
<event>
 4    1  0.6740123E+001  0.2189457E+02  0.7546771E-02  0.1506866E+00
          2   -1    0    0  502    0  0.00000000000E+00  0.00000000000E+00  0.37605071781E+01  0.37605071781E+01  0.00000000000E+00 0.  1.
         -2   -1    0    0    0  501 -0.00000000000E+00 -0.00000000000E+00 -0.12761869149E+03  0.12761869149E+03  0.00000000000E+00 0. -1.
          1    1    1    2  502    0 -0.21867897413E+02 -0.10804635566E+01 -0.59728313795E+02  0.63614808084E+02  0.00000000000E+00 0. -1.
         -1    1    1    2    0  501  0.21867897413E+02  0.10804635566E+01 -0.64129870519E+02  0.67764390586E+02  0.00000000000E+00 0.  1.
</event>
<event>
 4    1  0.6740123E+001  0.3452322E+02  0.7546771E-02  0.1383946E+00
          2   -1    0    0  502    0  0.00000000000E+00  0.00000000000E+00  0.80188627227E+02  0.80188627227E+02  0.00000000000E+00 0.  1.
         -2   -1    0    0    0  501 -0.00000000000E+00 -0.00000000000E+00 -0.18333674773E+02  0.18333674773E+02  0.00000000000E+00 0. -1.
          1    1    1    2  502    0  0.45235659162E+01 -0.34225576429E+02  0.94946421029E+01  0.35805040974E+02  0.00000000000E+00 0. -1.
         -1    1    1    2    0  501 -0.45235659162E+01  0.34225576429E+02  0.52360310352E+02  0.62717261026E+02  0.00000000000E+00 0.  1.
</event>
<event>
 4    1  0.6740123E+001  0.2733341E+02  0.7546771E-02  0.1444287E+00
          2   -1    0    0  502    0  0.00000000000E+00  0.00000000000E+00  0.73055995351E+03  0.73055995351E+03  0.00000000000E+00 0. -1.
         -2   -1    0    0    0  501 -0.00000000000E+00 -0.00000000000E+00 -0.13892907494E+01  0.13892907494E+01  0.00000000000E+00 0.  1.
          1    1    1    2  502    0  0.13104648238E+00  0.27333098521E+02  0.17658092560E+03  0.17868390731E+03  0.00000000000E+00 0.  1.
         -1    1    1    2    0  501 -0.13104648238E+00 -0.27333098521E+02  0.55258973716E+03  0.55326533694E+03  0.00000000000E+00 0. -1.
</event>
<event>
 4    1  0.6740123E+001  0.2351876E+02  0.7546771E-02  0.1486085E+00
          2   -1    0    0  502    0  0.00000000000E+00  0.00000000000E+00  0.10400900384E+01  0.10400900384E+01  0.00000000000E+00 0.  1.
         -2   -1    0    0    0  501 -0.00000000000E+00 -0.00000000000E+00 -0.11868774721E+04  0.11868774721E+04  0.00000000000E+00 0. -1.
          1    1    1    2  502    0  0.18837512110E+02 -0.14081200171E+02 -0.10341799654E+04  0.10344473563E+04  0.00000000000E+00 0. -1.
         -1    1    1    2    0  501 -0.18837512110E+02  0.14081200171E+02 -0.15165741671E+03  0.15347020591E+03  0.00000000000E+00 0.  1.
</event>
<event>
 4    1  0.6740123E+001  0.2368707E+02  0.7546771E-02  0.1484046E+00
          2   -1    0    0  502    0  0.00000000000E+00  0.00000000000E+00  0.79420689356E+03  0.79420689356E+03  0.00000000000E+00 0. -1.
         -2   -1    0    0    0  501 -0.00000000000E+00 -0.00000000000E+00 -0.79048927147E+00  0.79048927147E+00  0.00000000000E+00 0.  1.
          1    1    1    2  502    0 -0.23398689602E+02  0.36848882752E+01  0.26711042180E+03  0.26815863684E+03  0.00000000000E+00 0.  1.
         -1    1    1    2    0  501  0.23398689602E+02 -0.36848882752E+01  0.52630598249E+03  0.52683874599E+03  0.00000000000E+00 0. -1.
</event>
<event>
 4    1  0.6740123E+001  0.3489505E+02  0.7546771E-02  0.1381303E+00
          2   -1    0    0  502    0  0.00000000000E+00  0.00000000000E+00  0.62748103330E+03  0.62748103330E+03  0.00000000000E+00 0. -1.
         -2   -1    0    0    0  501 -0.00000000000E+00 -0.00000000000E+00 -0.19518642300E+01  0.19518642300E+01  0.00000000000E+00 0.  1.
          1    1    1    2  502    0 -0.20459402545E+02 -0.28267955936E+02  0.33671529822E+03  0.33851862067E+03  0.00000000000E+00 0. -1.
         -1    1    1    2    0  501  0.20459402545E+02  0.28267955936E+02  0.28881387085E+03  0.29091427686E+03  0.00000000000E+00 0.  1.
</event>
<event>
 4    1  0.6740123E+001  0.2199291E+02  0.7546771E-02  0.1505547E+00
          2   -1    0    0  502    0  0.00000000000E+00  0.00000000000E+00  0.13708685382E+04  0.13708685382E+04  0.00000000000E+00 0.  1.
         -2   -1    0    0    0  501 -0.00000000000E+00 -0.00000000000E+00 -0.23615020536E+01  0.23615020536E+01  0.00000000000E+00 0. -1.
          1    1    1    2  502    0  0.18163830208E+02  0.12400138481E+02  0.13175007361E+04  0.13176842861E+04  0.00000000000E+00 0.  1.
         -1    1    1    2    0  501 -0.18163830208E+02 -0.12400138481E+02  0.51006300052E+02  0.55545754177E+02  0.00000000000E+00 0. -1.
</event>
<event>
 4    1  0.6740123E+001  0.3096274E+02  0.7546771E-02  0.1411411E+00
          2   -1    0    0  502    0  0.00000000000E+00  0.00000000000E+00  0.11756243608E+04  0.11756243608E+04  0.00000000000E+00 0.  1.
         -2   -1    0    0    0  501 -0.00000000000E+00 -0.00000000000E+00 -0.11262189471E+01  0.11262189471E+01  0.00000000000E+00 0. -1.
          1    1    1    2  502    0 -0.26196816916E+02 -0.16505089368E+02  0.89631063192E+03  0.89684527099E+03  0.00000000000E+00 0.  1.
         -1    1    1    2    0  501  0.26196816916E+02  0.16505089368E+02  0.27818750990E+03  0.27990530873E+03  0.00000000000E+00 0. -1.
</event>
<event>
 4    1  0.6740123E+001  0.3303558E+02  0.7546771E-02  0.1394926E+00
          2   -1    0    0  502    0  0.00000000000E+00  0.00000000000E+00  0.13043180587E+04  0.13043180587E+04  0.00000000000E+00 0.  1.
         -2   -1    0    0    0  501 -0.00000000000E+00 -0.00000000000E+00 -0.84978468413E+00  0.84978468413E+00  0.00000000000E+00 0. -1.
          1    1    1    2  502    0  0.13575177794E+02  0.30117503252E+02  0.57081976550E+03  0.57177491563E+03  0.00000000000E+00 0. -1.
         -1    1    1    2    0  501 -0.13575177794E+02 -0.30117503252E+02  0.73264850851E+03  0.73339292775E+03  0.00000000000E+00 0.  1.
</event>
<event>
 4    1  0.6740123E+001  0.2939273E+02  0.7546771E-02  0.1424948E+00
          2   -1    0    0  502    0  0.00000000000E+00  0.00000000000E+00  0.38871224909E+03  0.38871224909E+03  0.00000000000E+00 0.  1.
         -2   -1    0    0    0  501 -0.00000000000E+00 -0.00000000000E+00 -0.26961147098E+01  0.26961147098E+01  0.00000000000E+00 0. -1.
          1    1    1    2  502    0  0.61628670970E+00  0.29386265983E+02  0.11098791800E+03  0.11481398164E+03  0.00000000000E+00 0. -1.
         -1    1    1    2    0  501 -0.61628670970E+00 -0.29386265983E+02  0.27502821638E+03  0.27659438216E+03  0.00000000000E+00 0.  1.
</event>
<event>
 4    1  0.6740123E+001  0.2491855E+02  0.7546771E-02  0.1469717E+00
          2   -1    0    0  502    0  0.00000000000E+00  0.00000000000E+00  0.99850359594E+03  0.99850359594E+03  0.00000000000E+00 0. -1.
         -2   -1    0    0    0  501 -0.00000000000E+00 -0.00000000000E+00 -0.65511436042E+00  0.65511436042E+00  0.00000000000E+00 0.  1.
          1    1    1    2  502    0 -0.24916378949E+02  0.32913801007E+00  0.38637601243E+03  0.38717871487E+03  0.00000000000E+00 0.  1.
         -1    1    1    2    0  501  0.24916378949E+02 -0.32913801007E+00  0.61147246915E+03  0.61197999542E+03  0.00000000000E+00 0. -1.
</event>
<event>
 4    1  0.6740123E+001  0.3687991E+02  0.7546771E-02  0.1367808E+00
          2   -1    0    0  502    0  0.00000000000E+00  0.00000000000E+00  0.81377630113E+03  0.81377630113E+03  0.00000000000E+00 0.  1.
         -2   -1    0    0    0  501 -0.00000000000E+00 -0.00000000000E+00 -0.17702206429E+01  0.17702206429E+01  0.00000000000E+00 0. -1.
          1    1    1    2  502    0 -0.26313349405E+02  0.25840573823E+02  0.50235881386E+03  0.50371073591E+03  0.00000000000E+00 0.  1.
         -1    1    1    2    0  501  0.26313349405E+02 -0.25840573823E+02  0.30964726663E+03  0.31183578586E+03  0.00000000000E+00 0. -1.
</event>
<event>
 4    1  0.6740123E+001  0.2396877E+02  0.7546771E-02  0.1480679E+00
          2   -1    0    0  502    0  0.00000000000E+00  0.00000000000E+00  0.91627133875E+02  0.91627133875E+02  0.00000000000E+00 0.  1.
         -2   -1    0    0    0  501 -0.00000000000E+00 -0.00000000000E+00 -0.62952088454E+01  0.62952088454E+01  0.00000000000E+00 0. -1.
          1    1    1    2  502    0  0.10724109998E+02  0.21435846666E+02  0.39567616194E+02  0.46261196578E+02  0.00000000000E+00 0. -1.
         -1    1    1    2    0  501 -0.10724109998E+02 -0.21435846666E+02  0.45764308836E+02  0.51661146143E+02  0.00000000000E+00 0.  1.
</event>
<event>
 4    1  0.6740123E+001  0.2030619E+02  0.7546771E-02  0.1529405E+00
          2   -1    0    0  502    0  0.00000000000E+00  0.00000000000E+00  0.12896670824E+04  0.12896670824E+04  0.00000000000E+00 0.  1.
         -2   -1    0    0    0  501 -0.00000000000E+00 -0.00000000000E+00 -0.32931108930E+00  0.32931108930E+00  0.00000000000E+00 0. -1.
          1    1    1    2  502    0 -0.13325284455E+02  0.15322468155E+02  0.53463323825E+03  0.53501872927E+03  0.00000000000E+00 0. -1.
         -1    1    1    2    0  501  0.13325284455E+02 -0.15322468155E+02  0.75470453310E+03  0.75497766425E+03  0.00000000000E+00 0.  1.
</event>
<event>
 4    1  0.6740123E+001  0.2145151E+02  0.7546771E-02  0.1512915E+00
          2   -1    0    0  502    0  0.00000000000E+00  0.00000000000E+00  0.10294389450E+04  0.10294389450E+04  0.00000000000E+00 0. -1.
         -2   -1    0    0    0  501 -0.00000000000E+00 -0.00000000000E+00 -0.51192680497E+00  0.51192680497E+00  0.00000000000E+00 0.  1.
          1    1    1    2  502    0 -0.81804482561E+01  0.19830474315E+02  0.33107681022E+03  0.33177103809E+03  0.00000000000E+00 0.  1.
         -1    1    1    2    0  501  0.81804482561E+01 -0.19830474315E+02  0.69785020796E+03  0.69817983371E+03  0.00000000000E+00 0. -1.
</event>
<event>
 4    1  0.6740123E+001  0.2988890E+02  0.7546771E-02  0.1420564E+00
          2   -1    0    0  502    0  0.00000000000E+00  0.00000000000E+00  0.16543010089E+03  0.16543010089E+03  0.00000000000E+00 0.  1.
         -2   -1    0    0    0  501 -0.00000000000E+00 -0.00000000000E+00 -0.56369646194E+01  0.56369646194E+01  0.00000000000E+00 0. -1.
          1    1    1    2  502    0  0.28268941652E+02 -0.97063573285E+01  0.97428231979E+02  0.10190979747E+03  0.00000000000E+00 0.  1.
         -1    1    1    2    0  501 -0.28268941652E+02  0.97063573285E+01  0.62364904288E+02  0.69157268032E+02  0.00000000000E+00 0. -1.
</event>
<event>
 4    1  0.6740123E+001  0.2395591E+02  0.7546771E-02  0.1480831E+00
          2   -1    0    0  502    0  0.00000000000E+00  0.00000000000E+00  0.24170792547E+03  0.24170792547E+03  0.00000000000E+00 0. -1.
         -2   -1    0    0    0  501 -0.00000000000E+00 -0.00000000000E+00 -0.23801410912E+01  0.23801410912E+01  0.00000000000E+00 0.  1.
          1    1    1    2  502    0  0.10716962249E+02  0.21425035727E+02  0.12571343051E+03  0.12797559160E+03  0.00000000000E+00 0.  1.
         -1    1    1    2    0  501 -0.10716962249E+02 -0.21425035727E+02  0.11361435387E+03  0.11611247496E+03  0.00000000000E+00 0. -1.
</event>
<event>
 4    1  0.6740123E+001  0.2114577E+02  0.7546771E-02  0.1517194E+00
          2   -1    0    0  502    0  0.00000000000E+00  0.00000000000E+00  0.10454310824E+03  0.10454310824E+03  0.00000000000E+00 0. -1.
         -2   -1    0    0    0  501 -0.00000000000E+00 -0.00000000000E+00 -0.66597052272E+01  0.66597052272E+01  0.00000000000E+00 0.  1.
          1    1    1    2  502    0 -0.47746420451E+01 -0.20599666913E+02  0.15684749611E+02  0.26327834205E+02  0.00000000000E+00 0.  1.
         -1    1    1    2    0  501  0.47746420451E+01  0.20599666913E+02  0.82198653397E+02  0.84874979257E+02  0.00000000000E+00 0. -1.
</event>
<event>
 4    1  0.6740123E+001  0.2284457E+02  0.7546771E-02  0.1494459E+00
          2   -1    0    0  502    0  0.00000000000E+00  0.00000000000E+00  0.64902300655E+03  0.64902300655E+03  0.00000000000E+00 0.  1.
         -2   -1    0    0    0  501 -0.00000000000E+00 -0.00000000000E+00 -0.87346759104E+00  0.87346759104E+00  0.00000000000E+00 0. -1.
          1    1    1    2  502    0  0.19065251888E+02  0.12585336682E+02  0.23249646796E+03  0.23361609992E+03  0.00000000000E+00 0. -1.
         -1    1    1    2    0  501 -0.19065251888E+02 -0.12585336682E+02  0.41565307100E+03  0.41628037422E+03  0.00000000000E+00 0.  1.
</event>
<event>
 4    1  0.6740123E+001  0.2047365E+02  0.7546771E-02  0.1526914E+00
          2   -1    0    0  502    0  0.00000000000E+00  0.00000000000E+00  0.90674028753E+01  0.90674028753E+01  0.00000000000E+00 0. -1.
         -2   -1    0    0    0  501 -0.00000000000E+00 -0.00000000000E+00 -0.10518133045E+03  0.10518133045E+03  0.00000000000E+00 0.  1.
          1    1    1    2  502    0  0.19516688761E+02  0.61862262771E+01 -0.90823607625E+02  0.93102622078E+02  0.00000000000E+00 0.  1.
         -1    1    1    2    0  501 -0.19516688761E+02 -0.61862262771E+01 -0.52903199497E+01  0.21146111248E+02  0.00000000000E+00 0. -1.
</event>
<event>
 4    1  0.6740123E+001  0.4170660E+02  0.7546771E-02  0.1338765E+00
          2   -1    0    0  502    0  0.00000000000E+00  0.00000000000E+00  0.59815603251E+03  0.59815603251E+03  0.00000000000E+00 0.  1.
         -2   -1    0    0    0  501 -0.00000000000E+00 -0.00000000000E+00 -0.56202601903E+01  0.56202601903E+01  0.00000000000E+00 0. -1.
          1    1    1    2  502    0  0.41349450031E+02  0.54464231223E+01  0.86551121137E+02  0.96075684295E+02  0.00000000000E+00 0. -1.
         -1    1    1    2    0  501 -0.41349450031E+02 -0.54464231223E+01  0.50598465118E+03  0.50770060841E+03  0.00000000000E+00 0.  1.
</event>
<event>
 4    1  0.6740123E+001  0.2524017E+02  0.7546771E-02  0.1466134E+00
          2   -1    0    0  502    0  0.00000000000E+00  0.00000000000E+00  0.48381088565E+03  0.48381088565E+03  0.00000000000E+00 0.  1.
         -2   -1    0    0    0  501 -0.00000000000E+00 -0.00000000000E+00 -0.20297198863E+01  0.20297198863E+01  0.00000000000E+00 0. -1.
          1    1    1    2  502    0  0.61668729266E+01  0.24475204072E+02  0.96919143169E+02  0.10015181600E+03  0.00000000000E+00 0. -1.
         -1    1    1    2    0  501 -0.61668729266E+01 -0.24475204072E+02  0.38486202259E+03  0.38568878953E+03  0.00000000000E+00 0.  1.
</event>
<event>
 4    1  0.6740123E+001  0.2041551E+02  0.7546771E-02  0.1527776E+00
          2   -1    0    0  502    0  0.00000000000E+00  0.00000000000E+00  0.18610799892E+02  0.18610799892E+02  0.00000000000E+00 0.  1.
         -2   -1    0    0    0  501 -0.00000000000E+00 -0.00000000000E+00 -0.84092357745E+02  0.84092357745E+02  0.00000000000E+00 0. -1.
          1    1    1    2  502    0 -0.19359839525E+02 -0.64799370457E+01  0.11244570053E+02  0.23307366351E+02  0.00000000000E+00 0.  1.
         -1    1    1    2    0  501  0.19359839525E+02  0.64799370457E+01 -0.76726127905E+02  0.79395791286E+02  0.00000000000E+00 0. -1.
</event>
<event>
 4    1  0.6740123E+001  0.7178603E+02  0.7546771E-02  0.1224319E+00
          2   -1    0    0  502    0  0.00000000000E+00  0.00000000000E+00  0.21838594230E+02  0.21838594230E+02  0.00000000000E+00 0. -1.
         -2   -1    0    0    0  501 -0.00000000000E+00 -0.00000000000E+00 -0.29133803362E+03  0.29133803362E+03  0.00000000000E+00 0.  1.
          1    1    1    2  502    0  0.57514644042E+02  0.42956958825E+02 -0.20301401729E+03  0.21533212906E+03  0.00000000000E+00 0.  1.
         -1    1    1    2    0  501 -0.57514644042E+02 -0.42956958825E+02 -0.66485422096E+02  0.97844498783E+02  0.00000000000E+00 0. -1.
</event>
<event>
 4    1  0.6740123E+001  0.2188542E+02  0.7546771E-02  0.1506989E+00
          2   -1    0    0  502    0  0.00000000000E+00  0.00000000000E+00  0.32892504602E+03  0.32892504602E+03  0.00000000000E+00 0.  1.
         -2   -1    0    0    0  501 -0.00000000000E+00 -0.00000000000E+00 -0.19320759631E+01  0.19320759631E+01  0.00000000000E+00 0. -1.
          1    1    1    2  502    0  0.69226678666E+01 -0.20761699519E+02  0.24559928673E+03  0.24657246630E+03  0.00000000000E+00 0.  1.
         -1    1    1    2    0  501 -0.69226678666E+01  0.20761699519E+02  0.81393683333E+02  0.84284655684E+02  0.00000000000E+00 0. -1.
</event>
<event>
 4    1  0.6740123E+001  0.2917506E+02  0.7546771E-02  0.1426903E+00
          2   -1    0    0  502    0  0.00000000000E+00  0.00000000000E+00  0.17682874450E+04  0.17682874450E+04  0.00000000000E+00 0.  1.
         -2   -1    0    0    0  501 -0.00000000000E+00 -0.00000000000E+00 -0.58705096101E+00  0.58705096101E+00  0.00000000000E+00 0. -1.
          1    1    1    2  502    0 -0.26499800824E+02  0.12204280448E+02  0.50857763330E+03  0.50941377386E+03  0.00000000000E+00 0. -1.
         -1    1    1    2    0  501  0.26499800824E+02 -0.12204280448E+02  0.12591227607E+04  0.12594607221E+04  0.00000000000E+00 0.  1.
</event>
<event>
 4    1  0.6740123E+001  0.2972964E+02  0.7546771E-02  0.1421961E+00
          2   -1    0    0  502    0  0.00000000000E+00  0.00000000000E+00  0.12473378682E+03  0.12473378682E+03  0.00000000000E+00 0.  1.
         -2   -1    0    0    0  501 -0.00000000000E+00 -0.00000000000E+00 -0.93782712835E+01  0.93782712835E+01  0.00000000000E+00 0. -1.
          1    1    1    2  502    0  0.23467775986E+02 -0.18251442516E+02  0.90830428330E+02  0.95572058544E+02  0.00000000000E+00 0.  1.
         -1    1    1    2    0  501 -0.23467775986E+02  0.18251442516E+02  0.24525087210E+02  0.38539999563E+02  0.00000000000E+00 0. -1.
</event>
<event>
 4    1  0.6740123E+001  0.2879932E+02  0.7546771E-02  0.1430325E+00
          2   -1    0    0  502    0  0.00000000000E+00  0.00000000000E+00  0.89827373382E+03  0.89827373382E+03  0.00000000000E+00 0.  1.
         -2   -1    0    0    0  501 -0.00000000000E+00 -0.00000000000E+00 -0.29108702534E+01  0.29108702534E+01  0.00000000000E+00 0. -1.
          1    1    1    2  502    0  0.28210736358E+02  0.57926827182E+01  0.82001362307E+03  0.82051919103E+03  0.00000000000E+00 0.  1.
         -1    1    1    2    0  501 -0.28210736358E+02 -0.57926827182E+01  0.75349240494E+02  0.80665413046E+02  0.00000000000E+00 0. -1.
</event>
<event>
 4    1  0.6740123E+001  0.2349379E+02  0.7546771E-02  0.1486389E+00
          2   -1    0    0  502    0  0.00000000000E+00  0.00000000000E+00  0.21040275482E+01  0.21040275482E+01  0.00000000000E+00 0. -1.
         -2   -1    0    0    0  501 -0.00000000000E+00 -0.00000000000E+00 -0.29996704703E+03  0.29996704703E+03  0.00000000000E+00 0.  1.
          1    1    1    2  502    0  0.43771032844E+01  0.23082439125E+02 -0.95434823567E+02  0.98284096264E+02  0.00000000000E+00 0.  1.
         -1    1    1    2    0  501 -0.43771032844E+01 -0.23082439125E+02 -0.20242819592E+03  0.20378697832E+03  0.00000000000E+00 0. -1.
</event>
<event>
 4    1  0.6740123E+001  0.2367829E+02  0.7546771E-02  0.1484152E+00
          2   -1    0    0  502    0  0.00000000000E+00  0.00000000000E+00  0.81662879865E+03  0.81662879865E+03  0.00000000000E+00 0. -1.
         -2   -1    0    0    0  501 -0.00000000000E+00 -0.00000000000E+00 -0.73125272840E+00  0.73125272840E+00  0.00000000000E+00 0.  1.
          1    1    1    2  502    0  0.50552724289E+01 -0.23132352389E+02  0.50898727670E+03  0.50953774085E+03  0.00000000000E+00 0. -1.
         -1    1    1    2    0  501 -0.50552724289E+01  0.23132352389E+02  0.30691026922E+03  0.30782231053E+03  0.00000000000E+00 0.  1.
</event>
<event>
 4    1  0.6740123E+001  0.4783795E+02  0.7546771E-02  0.1307829E+00
          2   -1    0    0  502    0  0.00000000000E+00  0.00000000000E+00  0.10455367822E+03  0.10455367822E+03  0.00000000000E+00 0.  1.
         -2   -1    0    0    0  501 -0.00000000000E+00 -0.00000000000E+00 -0.27055683137E+02  0.27055683137E+02  0.00000000000E+00 0. -1.
          1    1    1    2  502    0  0.38977162093E+02 -0.27735355719E+02  0.67508157112E+02  0.82739473037E+02  0.00000000000E+00 0. -1.
         -1    1    1    2    0  501 -0.38977162093E+02  0.27735355719E+02  0.99898379689E+01  0.48869888319E+02  0.00000000000E+00 0.  1.
</event>
<event>
 4    1  0.6740123E+001  0.2462663E+02  0.7546771E-02  0.1473024E+00
          2   -1    0    0  502    0  0.00000000000E+00  0.00000000000E+00  0.71371679114E+03  0.71371679114E+03  0.00000000000E+00 0.  1.
         -2   -1    0    0    0  501 -0.00000000000E+00 -0.00000000000E+00 -0.11649407359E+01  0.11649407359E+01  0.00000000000E+00 0. -1.
          1    1    1    2  502    0  0.25454683192E+01  0.24494726902E+02  0.54220549222E+03  0.54276446719E+03  0.00000000000E+00 0.  1.
         -1    1    1    2    0  501 -0.25454683192E+01 -0.24494726902E+02  0.17034635819E+03  0.17211726469E+03  0.00000000000E+00 0. -1.
</event>
<event>
 4    1  0.6740123E+001  0.2015632E+02  0.7546771E-02  0.1531659E+00
          2   -1    0    0  502    0  0.00000000000E+00  0.00000000000E+00  0.20003392806E+04  0.20003392806E+04  0.00000000000E+00 0.  1.
         -2   -1    0    0    0  501 -0.00000000000E+00 -0.00000000000E+00 -0.20581029505E+00  0.20581029505E+00  0.00000000000E+00 0. -1.
          1    1    1    2  502    0 -0.17801009645E+02  0.94552193091E+01  0.88536656647E+03  0.88559597681E+03  0.00000000000E+00 0. -1.
         -1    1    1    2    0  501  0.17801009645E+02 -0.94552193091E+01  0.11147669038E+04  0.11149491141E+04  0.00000000000E+00 0.  1.
</event>
<event>
 4    1  0.6740123E+001  0.2266765E+02  0.7546771E-02  0.1496714E+00
          2   -1    0    0  502    0  0.00000000000E+00  0.00000000000E+00  0.79841478173E+03  0.79841478173E+03  0.00000000000E+00 0. -1.
         -2   -1    0    0    0  501 -0.00000000000E+00 -0.00000000000E+00 -0.65333921183E+00  0.65333921183E+00  0.00000000000E+00 0.  1.
          1    1    1    2  502    0 -0.18486151132E+02 -0.13118098338E+02  0.34998283397E+03  0.35071613359E+03  0.00000000000E+00 0.  1.
         -1    1    1    2    0  501  0.18486151132E+02  0.13118098338E+02  0.44777860855E+03  0.44835198735E+03  0.00000000000E+00 0. -1.
</event>
<event>
 4    1  0.6740123E+001  0.3811667E+02  0.7546771E-02  0.1359890E+00
          2   -1    0    0  502    0  0.00000000000E+00  0.00000000000E+00  0.10496645167E+04  0.10496645167E+04  0.00000000000E+00 0.  1.
         -2   -1    0    0    0  501 -0.00000000000E+00 -0.00000000000E+00 -0.15090675389E+01  0.15090675389E+01  0.00000000000E+00 0. -1.
          1    1    1    2  502    0  0.12369265942E+02 -0.36053873405E+02  0.67530241414E+03  0.67637728456E+03  0.00000000000E+00 0. -1.
         -1    1    1    2    0  501 -0.12369265942E+02  0.36053873405E+02  0.37285303500E+03  0.37479629965E+03  0.00000000000E+00 0.  1.
</event>
<event>
 4    1  0.6740123E+001  0.3243640E+02  0.7546771E-02  0.1399541E+00
          2   -1    0    0  502    0  0.00000000000E+00  0.00000000000E+00  0.79646990178E+03  0.79646990178E+03  0.00000000000E+00 0. -1.
         -2   -1    0    0    0  501 -0.00000000000E+00 -0.00000000000E+00 -0.67719097143E+01  0.67719097143E+01  0.00000000000E+00 0.  1.
          1    1    1    2  502    0 -0.53206757317E+01 -0.31997039349E+02  0.34522617054E+02  0.47370150998E+02  0.00000000000E+00 0.  1.
         -1    1    1    2    0  501  0.53206757317E+01  0.31997039349E+02  0.75517537501E+03  0.75587166049E+03  0.00000000000E+00 0. -1.
</event>
<event>
 4    1  0.6740123E+001  0.2074993E+02  0.7546771E-02  0.1522865E+00
          2   -1    0    0  502    0  0.00000000000E+00  0.00000000000E+00  0.83860455612E+03  0.83860455612E+03  0.00000000000E+00 0.  1.
         -2   -1    0    0    0  501 -0.00000000000E+00 -0.00000000000E+00 -0.12247700937E+01  0.12247700937E+01  0.00000000000E+00 0. -1.
          1    1    1    2  502    0 -0.38564957185E+01  0.20388399426E+02  0.98671939403E+02  0.10083010967E+03  0.00000000000E+00 0. -1.
         -1    1    1    2    0  501  0.38564957185E+01 -0.20388399426E+02  0.73870784662E+03  0.73899921654E+03  0.00000000000E+00 0.  1.
</event>
<event>
 4    1  0.6740123E+001  0.2246054E+02  0.7546771E-02  0.1499386E+00
          2   -1    0    0  502    0  0.00000000000E+00  0.00000000000E+00  0.17216462182E+02  0.17216462182E+02  0.00000000000E+00 0. -1.
         -2   -1    0    0    0  501 -0.00000000000E+00 -0.00000000000E+00 -0.41119677338E+02  0.41119677338E+02  0.00000000000E+00 0.  1.
          1    1    1    2  502    0 -0.15385518214E+02 -0.16363424491E+02 -0.27588480671E+02  0.35575273682E+02  0.00000000000E+00 0.  1.
         -1    1    1    2    0  501  0.15385518214E+02  0.16363424491E+02  0.36852655152E+01  0.22760865839E+02  0.00000000000E+00 0. -1.
</event>
<event>
 4    1  0.6740123E+001  0.4274593E+02  0.7546771E-02  0.1333105E+00
          2   -1    0    0  502    0  0.00000000000E+00  0.00000000000E+00  0.59675842036E+03  0.59675842036E+03  0.00000000000E+00 0. -1.
         -2   -1    0    0    0  501 -0.00000000000E+00 -0.00000000000E+00 -0.62362065352E+01  0.62362065352E+01  0.00000000000E+00 0.  1.
          1    1    1    2  502    0  0.27493495836E+02 -0.32731054602E+02  0.80157509152E+02  0.90842944261E+02  0.00000000000E+00 0.  1.
         -1    1    1    2    0  501 -0.27493495836E+02  0.32731054602E+02  0.51036470468E+03  0.51215168264E+03  0.00000000000E+00 0. -1.
</event>
<event>
 4    1  0.6740123E+001  0.2328850E+02  0.7546771E-02  0.1488907E+00
          2   -1    0    0  502    0  0.00000000000E+00  0.00000000000E+00  0.72154938879E+03  0.72154938879E+03  0.00000000000E+00 0.  1.
         -2   -1    0    0    0  501 -0.00000000000E+00 -0.00000000000E+00 -0.91912155511E+00  0.91912155511E+00  0.00000000000E+00 0. -1.
          1    1    1    2  502    0  0.22139146370E+02 -0.72258202819E+01  0.51451001390E+03  0.51503680323E+03  0.00000000000E+00 0.  1.
         -1    1    1    2    0  501 -0.22139146370E+02  0.72258202819E+01  0.20612025334E+03  0.20743170712E+03  0.00000000000E+00 0. -1.
</event>
<event>
 4    1  0.6740123E+001  0.2184487E+02  0.7546771E-02  0.1507536E+00
          2   -1    0    0  502    0  0.00000000000E+00  0.00000000000E+00  0.24832513090E+03  0.24832513090E+03  0.00000000000E+00 0. -1.
         -2   -1    0    0    0  501 -0.00000000000E+00 -0.00000000000E+00 -0.23704806132E+01  0.23704806132E+01  0.00000000000E+00 0.  1.
          1    1    1    2  502    0 -0.19862025083E+02  0.90938715729E+01  0.68435345465E+02  0.71837281752E+02  0.00000000000E+00 0.  1.
         -1    1    1    2    0  501  0.19862025083E+02 -0.90938715729E+01  0.17751930482E+03  0.17885832976E+03  0.00000000000E+00 0. -1.
</event>
<event>
 4    1  0.6740123E+001  0.2372648E+02  0.7546771E-02  0.1483572E+00
          2   -1    0    0  502    0  0.00000000000E+00  0.00000000000E+00  0.17359868445E+02  0.17359868445E+02  0.00000000000E+00 0.  1.
         -2   -1    0    0    0  501 -0.00000000000E+00 -0.00000000000E+00 -0.50150311413E+02  0.50150311413E+02  0.00000000000E+00 0. -1.
          1    1    1    2  502    0 -0.18949748943E+02 -0.14277708339E+02  0.36708587683E+01  0.24008772241E+02  0.00000000000E+00 0.  1.
         -1    1    1    2    0  501  0.18949748943E+02  0.14277708339E+02 -0.36461301736E+02  0.43501407617E+02  0.00000000000E+00 0. -1.
</event>
<event>
 4    1  0.6740123E+001  0.2283887E+02  0.7546771E-02  0.1494531E+00
          2   -1    0    0  502    0  0.00000000000E+00  0.00000000000E+00  0.46291562153E+01  0.46291562153E+01  0.00000000000E+00 0. -1.
         -2   -1    0    0    0  501 -0.00000000000E+00 -0.00000000000E+00 -0.13242839908E+03  0.13242839908E+03  0.00000000000E+00 0.  1.
          1    1    1    2  502    0  0.11630223539E+02 -0.19655832078E+02 -0.37436129354E+02  0.43852908857E+02  0.00000000000E+00 0. -1.
         -1    1    1    2    0  501 -0.11630223539E+02  0.19655832078E+02 -0.90363113507E+02  0.93204646434E+02  0.00000000000E+00 0.  1.
</event>
<event>
 4    1  0.6740123E+001  0.2183603E+02  0.7546771E-02  0.1507655E+00
          2   -1    0    0  502    0  0.00000000000E+00  0.00000000000E+00  0.13869286324E+02  0.13869286324E+02  0.00000000000E+00 0.  1.
         -2   -1    0    0    0  501 -0.00000000000E+00 -0.00000000000E+00 -0.39969976898E+02  0.39969976898E+02  0.00000000000E+00 0. -1.
          1    1    1    2  502    0  0.43466808290E+01  0.21399031254E+02 -0.29822788353E+01  0.22038742249E+02  0.00000000000E+00 0.  1.
         -1    1    1    2    0  501 -0.43466808290E+01 -0.21399031254E+02 -0.23118411739E+02  0.31800520973E+02  0.00000000000E+00 0. -1.
</event>
<event>
 4    1  0.6740123E+001  0.9496655E+02  0.7546771E-02  0.1172828E+00
          2   -1    0    0  502    0  0.00000000000E+00  0.00000000000E+00  0.68310509773E+03  0.68310509773E+03  0.00000000000E+00 0. -1.
         -2   -1    0    0    0  501 -0.00000000000E+00 -0.00000000000E+00 -0.13894760578E+02  0.13894760578E+02  0.00000000000E+00 0.  1.
          1    1    1    2  502    0 -0.62998969328E+02  0.71061771958E+02  0.41239712278E+03  0.42319030287E+03  0.00000000000E+00 0.  1.
         -1    1    1    2    0  501  0.62998969328E+02 -0.71061771958E+02  0.25681321438E+03  0.27380955544E+03  0.00000000000E+00 0. -1.
</event>
<event>
 4    1  0.6740123E+001  0.2196009E+02  0.7546771E-02  0.1505986E+00
          2   -1    0    0  502    0  0.00000000000E+00  0.00000000000E+00  0.14384528146E+04  0.14384528146E+04  0.00000000000E+00 0.  1.
         -2   -1    0    0    0  501 -0.00000000000E+00 -0.00000000000E+00 -0.33527174158E+00  0.33527174158E+00  0.00000000000E+00 0. -1.
          1    1    1    2  502    0 -0.20665712552E+02  0.74279100978E+01  0.71367040093E+03  0.71400818391E+03  0.00000000000E+00 0. -1.
         -1    1    1    2    0  501  0.20665712552E+02 -0.74279100978E+01  0.72444714191E+03  0.72477990241E+03  0.00000000000E+00 0.  1.
</event>
<event>
 4    1  0.6740123E+001  0.4078049E+02  0.7546771E-02  0.1343972E+00
          2   -1    0    0  502    0  0.00000000000E+00  0.00000000000E+00  0.17356158658E+03  0.17356158658E+03  0.00000000000E+00 0.  1.
         -2   -1    0    0    0  501 -0.00000000000E+00 -0.00000000000E+00 -0.11311098488E+02  0.11311098488E+02  0.00000000000E+00 0. -1.
          1    1    1    2  502    0 -0.39375180779E+02  0.10613376900E+02  0.11726736265E+03  0.12415588175E+03  0.00000000000E+00 0. -1.
         -1    1    1    2    0  501  0.39375180779E+02 -0.10613376900E+02  0.44983125447E+02  0.60716803321E+02  0.00000000000E+00 0.  1.
</event>
<event>
 4    1  0.6740123E+001  0.2346095E+02  0.7546771E-02  0.1486790E+00
          2   -1    0    0  502    0  0.00000000000E+00  0.00000000000E+00  0.33191548869E+01  0.33191548869E+01  0.00000000000E+00 0.  1.
         -2   -1    0    0    0  501 -0.00000000000E+00 -0.00000000000E+00 -0.16592062606E+03  0.16592062606E+03  0.00000000000E+00 0. -1.
          1    1    1    2  502    0 -0.21242631068E+02 -0.99582632116E+01 -0.83275336430E+02  0.86517039006E+02  0.00000000000E+00 0.  1.
         -1    1    1    2    0  501  0.21242631068E+02  0.99582632116E+01 -0.79326134742E+02  0.82722741940E+02  0.00000000000E+00 0. -1.
</event>
<event>
 4    1  0.6740123E+001  0.2583580E+02  0.7546771E-02  0.1459667E+00
          2   -1    0    0  502    0  0.00000000000E+00  0.00000000000E+00  0.15575200803E+04  0.15575200803E+04  0.00000000000E+00 0.  1.
         -2   -1    0    0    0  501 -0.00000000000E+00 -0.00000000000E+00 -0.84694811808E+00  0.84694811808E+00  0.00000000000E+00 0. -1.
          1    1    1    2  502    0 -0.11501149121E+02  0.23134655988E+02  0.13259848253E+04  0.13262364968E+04  0.00000000000E+00 0. -1.
         -1    1    1    2    0  501  0.11501149121E+02 -0.23134655988E+02  0.23068830691E+03  0.23213053157E+03  0.00000000000E+00 0.  1.
</event>
<event>
 4    1  0.6740123E+001  0.2211118E+02  0.7546771E-02  0.1503971E+00
          2   -1    0    0  502    0  0.00000000000E+00  0.00000000000E+00  0.72387035042E+03  0.72387035042E+03  0.00000000000E+00 0. -1.
         -2   -1    0    0    0  501 -0.00000000000E+00 -0.00000000000E+00 -0.12963659613E+01  0.12963659613E+01  0.00000000000E+00 0.  1.
          1    1    1    2  502    0  0.17100568859E+02 -0.14016941424E+02  0.11034291153E+03  0.11253649287E+03  0.00000000000E+00 0.  1.
         -1    1    1    2    0  501 -0.17100568859E+02  0.14016941424E+02  0.61223107293E+03  0.61263022351E+03  0.00000000000E+00 0. -1.
</event>
<event>
 4    1  0.6740123E+001  0.2171770E+02  0.7546771E-02  0.1509260E+00
          2   -1    0    0  502    0  0.00000000000E+00  0.00000000000E+00  0.22065163319E+04  0.22065163319E+04  0.00000000000E+00 0. -1.
         -2   -1    0    0    0  501 -0.00000000000E+00 -0.00000000000E+00 -0.22120768322E+00  0.22120768322E+00  0.00000000000E+00 0.  1.
          1    1    1    2  502    0  0.48314540878E+01  0.21173462103E+02  0.90065137168E+03  0.90091317659E+03  0.00000000000E+00 0.  1.
         -1    1    1    2    0  501 -0.48314540878E+01 -0.21173462103E+02  0.13056437526E+04  0.13058243630E+04  0.00000000000E+00 0. -1.
</event>
<event>
 4    1  0.6740123E+001  0.4730814E+02  0.7546771E-02  0.1310285E+00
          2   -1    0    0  502    0  0.00000000000E+00  0.00000000000E+00  0.11428473288E+04  0.11428473288E+04  0.00000000000E+00 0. -1.
         -2   -1    0    0    0  501 -0.00000000000E+00 -0.00000000000E+00 -0.19708836429E+01  0.19708836429E+01  0.00000000000E+00 0.  1.
          1    1    1    2  502    0 -0.41251994957E+02 -0.23158873236E+02  0.52473591598E+03  0.52686415898E+03  0.00000000000E+00 0.  1.
         -1    1    1    2    0  501  0.41251994957E+02  0.23158873236E+02  0.61614052914E+03  0.61795405343E+03  0.00000000000E+00 0. -1.
</event>
<event>
 4    1  0.6740123E+001  0.2163086E+02  0.7546771E-02  0.1510445E+00
          2   -1    0    0  502    0  0.00000000000E+00  0.00000000000E+00  0.90603855817E+03  0.90603855817E+03  0.00000000000E+00 0.  1.
         -2   -1    0    0    0  501 -0.00000000000E+00 -0.00000000000E+00 -0.53849264680E+00  0.53849264680E+00  0.00000000000E+00 0. -1.
          1    1    1    2  502    0 -0.16164284239E+02  0.14373930796E+02  0.36097199652E+03  0.36161951861E+03  0.00000000000E+00 0.  1.
         -1    1    1    2    0  501  0.16164284239E+02 -0.14373930796E+02  0.54452806900E+03  0.54495753220E+03  0.00000000000E+00 0. -1.
</event>
<event>
 4    1  0.6740123E+001  0.2250936E+02  0.7546771E-02  0.1498753E+00
          2   -1    0    0  502    0  0.00000000000E+00  0.00000000000E+00  0.17627799211E+04  0.17627799211E+04  0.00000000000E+00 0.  1.
         -2   -1    0    0    0  501 -0.00000000000E+00 -0.00000000000E+00 -0.28764809147E+00  0.28764809147E+00  0.00000000000E+00 0. -1.
          1    1    1    2  502    0  0.68538992459E+01 -0.21440504232E+02  0.85682573263E+03  0.85712134920E+03  0.00000000000E+00 0.  1.
         -1    1    1    2    0  501 -0.68538992459E+01  0.21440504232E+02  0.90566654041E+03  0.90594622002E+03  0.00000000000E+00 0. -1.
</event>
<event>
 4    1  0.6740123E+001  0.2922273E+02  0.7546771E-02  0.1426473E+00
          2   -1    0    0  502    0  0.00000000000E+00  0.00000000000E+00  0.18064540927E+04  0.18064540927E+04  0.00000000000E+00 0. -1.
         -2   -1    0    0    0  501 -0.00000000000E+00 -0.00000000000E+00 -0.50425364991E+00  0.50425364991E+00  0.00000000000E+00 0.  1.
          1    1    1    2  502    0 -0.78684540440E+01  0.28143475657E+02  0.11288672001E+04  0.11292453777E+04  0.00000000000E+00 0. -1.
         -1    1    1    2    0  501  0.78684540440E+01 -0.28143475657E+02  0.67708263899E+03  0.67771296860E+03  0.00000000000E+00 0.  1.
</event>
<event>
 4    1  0.6740123E+001  0.2418513E+02  0.7546771E-02  0.1478130E+00
          2   -1    0    0  502    0  0.00000000000E+00  0.00000000000E+00  0.56070877714E+01  0.56070877714E+01  0.00000000000E+00 0.  1.
         -2   -1    0    0    0  501 -0.00000000000E+00 -0.00000000000E+00 -0.10694408041E+03  0.10694408041E+03  0.00000000000E+00 0. -1.
          1    1    1    2  502    0 -0.16045545373E+02  0.18095878481E+02 -0.41850026062E+02  0.48335753078E+02  0.00000000000E+00 0.  1.
         -1    1    1    2    0  501  0.16045545373E+02 -0.18095878481E+02 -0.59486966575E+02  0.64215415101E+02  0.00000000000E+00 0. -1.
</event>
<event>
 4    1  0.6740123E+001  0.2371408E+02  0.7546771E-02  0.1483721E+00
          2   -1    0    0  502    0  0.00000000000E+00  0.00000000000E+00  0.35624982328E+03  0.35624982328E+03  0.00000000000E+00 0. -1.
         -2   -1    0    0    0  501 -0.00000000000E+00 -0.00000000000E+00 -0.15844768904E+01  0.15844768904E+01  0.00000000000E+00 0.  1.
          1    1    1    2  502    0 -0.34976814946E+01 -0.23454721519E+02  0.18827641340E+03  0.18976397335E+03  0.00000000000E+00 0. -1.
         -1    1    1    2    0  501  0.34976814946E+01  0.23454721519E+02  0.16638893298E+03  0.16807032682E+03  0.00000000000E+00 0.  1.
</event>
<event>
 4    1  0.6740123E+001  0.5250695E+02  0.7546771E-02  0.1287654E+00
          2   -1    0    0  502    0  0.00000000000E+00  0.00000000000E+00  0.92062984370E+03  0.92062984370E+03  0.00000000000E+00 0. -1.
         -2   -1    0    0    0  501 -0.00000000000E+00 -0.00000000000E+00 -0.33960195829E+01  0.33960195829E+01  0.00000000000E+00 0.  1.
          1    1    1    2  502    0  0.27110164269E+02 -0.44966867042E+02  0.61744667146E+03  0.61967521512E+03  0.00000000000E+00 0.  1.
         -1    1    1    2    0  501 -0.27110164269E+02  0.44966867042E+02  0.29978715266E+03  0.30435064816E+03  0.00000000000E+00 0. -1.
</event>
<event>
 4    1  0.6740123E+001  0.3980525E+02  0.7546771E-02  0.1349631E+00
          2   -1    0    0  502    0  0.00000000000E+00  0.00000000000E+00  0.19017719803E+04  0.19017719803E+04  0.00000000000E+00 0.  1.
         -2   -1    0    0    0  501 -0.00000000000E+00 -0.00000000000E+00 -0.89428640830E+00  0.89428640830E+00  0.00000000000E+00 0. -1.
          1    1    1    2  502    0 -0.39805097545E+02 -0.11193236091E+00  0.70169641161E+03  0.70282452460E+03  0.00000000000E+00 0. -1.
         -1    1    1    2    0  501  0.39805097545E+02  0.11193236091E+00  0.11991812822E+04  0.11998417421E+04  0.00000000000E+00 0.  1.
</event>
<event>
 4    1  0.6740123E+001  0.2218481E+02  0.7546771E-02  0.1502996E+00
          2   -1    0    0  502    0  0.00000000000E+00  0.00000000000E+00  0.41765678829E+01  0.41765678829E+01  0.00000000000E+00 0.  1.
         -2   -1    0    0    0  501 -0.00000000000E+00 -0.00000000000E+00 -0.12450890150E+03  0.12450890150E+03  0.00000000000E+00 0. -1.
          1    1    1    2  502    0 -0.18243404559E-01 -0.22184799562E+02 -0.75057548708E+02  0.78267498251E+02  0.00000000000E+00 0. -1.
         -1    1    1    2    0  501  0.18243404559E-01  0.22184799562E+02 -0.45274784906E+02  0.50417971128E+02  0.00000000000E+00 0.  1.
</event>
<event>
 4    1  0.6740123E+001  0.2477534E+02  0.7546771E-02  0.1471332E+00
          2   -1    0    0  502    0  0.00000000000E+00  0.00000000000E+00  0.10483324870E+04  0.10483324870E+04  0.00000000000E+00 0. -1.
         -2   -1    0    0    0  501 -0.00000000000E+00 -0.00000000000E+00 -0.60378132329E+00  0.60378132329E+00  0.00000000000E+00 0.  1.
          1    1    1    2  502    0 -0.11056777576E+02  0.22171265475E+02  0.61508043561E+03  0.61557920662E+03  0.00000000000E+00 0. -1.
         -1    1    1    2    0  501  0.11056777576E+02 -0.22171265475E+02  0.43264827006E+03  0.43335706171E+03  0.00000000000E+00 0.  1.
</event>
<event>
 4    1  0.6740123E+001  0.2297255E+02  0.7546771E-02  0.1492843E+00
          2   -1    0    0  502    0  0.00000000000E+00  0.00000000000E+00  0.46037836980E+01  0.46037836980E+01  0.00000000000E+00 0.  1.
         -2   -1    0    0    0  501 -0.00000000000E+00 -0.00000000000E+00 -0.19173266219E+03  0.19173266219E+03  0.00000000000E+00 0. -1.
          1    1    1    2  502    0  0.22959138420E+02  0.78481413110E+00 -0.31312376769E+02  0.38835588178E+02  0.00000000000E+00 0.  1.
         -1    1    1    2    0  501 -0.22959138420E+02 -0.78481413110E+00 -0.15581650172E+03  0.15750085771E+03  0.00000000000E+00 0. -1.
</event>
<event>
 4    1  0.6740123E+001  0.2306975E+02  0.7546771E-02  0.1491624E+00
          2   -1    0    0  502    0  0.00000000000E+00  0.00000000000E+00  0.55348846057E+01  0.55348846057E+01  0.00000000000E+00 0.  1.
         -2   -1    0    0    0  501 -0.00000000000E+00 -0.00000000000E+00 -0.97358490900E+02  0.97358490900E+02  0.00000000000E+00 0. -1.
          1    1    1    2  502    0  0.91357243510E+01  0.21183765873E+02 -0.40194677538E+02  0.46344638292E+02  0.00000000000E+00 0.  1.
         -1    1    1    2    0  501 -0.91357243510E+01 -0.21183765873E+02 -0.51628928756E+02  0.56548737214E+02  0.00000000000E+00 0. -1.
</event>
<event>
 4    1  0.6740123E+001  0.2020929E+02  0.7546771E-02  0.1530860E+00
          2   -1    0    0  502    0  0.00000000000E+00  0.00000000000E+00  0.28537533895E+03  0.28537533895E+03  0.00000000000E+00 0.  1.
         -2   -1    0    0    0  501 -0.00000000000E+00 -0.00000000000E+00 -0.14437830116E+01  0.14437830116E+01  0.00000000000E+00 0. -1.
          1    1    1    2  502    0 -0.73677212563E+01  0.18818394863E+02  0.12855180659E+03  0.13013063543E+03  0.00000000000E+00 0.  1.
         -1    1    1    2    0  501  0.73677212563E+01 -0.18818394863E+02  0.15537974935E+03  0.15668848653E+03  0.00000000000E+00 0. -1.
</event>
<event>
 4    1  0.6740123E+001  0.2399627E+02  0.7546771E-02  0.1480353E+00
          2   -1    0    0  502    0  0.00000000000E+00  0.00000000000E+00  0.17156429013E+02  0.17156429013E+02  0.00000000000E+00 0.  1.
         -2   -1    0    0    0  501 -0.00000000000E+00 -0.00000000000E+00 -0.97779454645E+02  0.97779454645E+02  0.00000000000E+00 0. -1.
          1    1    1    2  502    0  0.14988258293E+02 -0.18739607723E+02 -0.86883534152E+02  0.90136392712E+02  0.00000000000E+00 0. -1.
         -1    1    1    2    0  501 -0.14988258293E+02  0.18739607723E+02  0.62605085208E+01  0.24799490946E+02  0.00000000000E+00 0.  1.
</event>
<event>
 4    1  0.6740123E+001  0.2499781E+02  0.7546771E-02  0.1468828E+00
          2   -1    0    0  502    0  0.00000000000E+00  0.00000000000E+00  0.14471267333E+04  0.14471267333E+04  0.00000000000E+00 0. -1.
         -2   -1    0    0    0  501 -0.00000000000E+00 -0.00000000000E+00 -0.15680259751E+01  0.15680259751E+01  0.00000000000E+00 0.  1.
          1    1    1    2  502    0  0.24816531534E+02 -0.30050445323E+01  0.10618460298E+03  0.10908739817E+03  0.00000000000E+00 0.  1.
         -1    1    1    2    0  501 -0.24816531534E+02  0.30050445323E+01  0.13393741043E+04  0.13396073611E+04  0.00000000000E+00 0. -1.
</event>
<event>
 4    1  0.6740123E+001  0.3741477E+02  0.7546771E-02  0.1364339E+00
          2   -1    0    0  502    0  0.00000000000E+00  0.00000000000E+00  0.19099945875E+03  0.19099945875E+03  0.00000000000E+00 0.  1.
         -2   -1    0    0    0  501 -0.00000000000E+00 -0.00000000000E+00 -0.11843819938E+02  0.11843819938E+02  0.00000000000E+00 0. -1.
          1    1    1    2  502    0  0.27598427424E+02 -0.25262460146E+02  0.26960081211E+02  0.46116277688E+02  0.00000000000E+00 0. -1.
         -1    1    1    2    0  501 -0.27598427424E+02  0.25262460146E+02  0.15219555761E+03  0.15672700100E+03  0.00000000000E+00 0.  1.
</event>
<event>
 4    1  0.6740123E+001  0.4228904E+02  0.7546771E-02  0.1335570E+00
          2   -1    0    0  502    0  0.00000000000E+00  0.00000000000E+00  0.21015119718E+02  0.21015119718E+02  0.00000000000E+00 0.  1.
         -2   -1    0    0    0  501 -0.00000000000E+00 -0.00000000000E+00 -0.93597525117E+02  0.93597525117E+02  0.00000000000E+00 0. -1.
          1    1    1    2  502    0 -0.24979084539E+02  0.34123422813E+02 -0.53559352760E+02  0.68241973278E+02  0.00000000000E+00 0. -1.
         -1    1    1    2    0  501  0.24979084539E+02 -0.34123422813E+02 -0.19023052639E+02  0.46370671556E+02  0.00000000000E+00 0.  1.
</event>
<event>
 4    1  0.6740123E+001  0.2310692E+02  0.7546771E-02  0.1491160E+00
          2   -1    0    0  502    0  0.00000000000E+00  0.00000000000E+00  0.17808329338E+02  0.17808329338E+02  0.00000000000E+00 0.  1.
         -2   -1    0    0    0  501 -0.00000000000E+00 -0.00000000000E+00 -0.30163672711E+02  0.30163672711E+02  0.00000000000E+00 0. -1.
          1    1    1    2  502    0  0.11174862792E+02 -0.20225033929E+02 -0.80390962422E+01  0.24465416904E+02  0.00000000000E+00 0. -1.
         -1    1    1    2    0  501 -0.11174862792E+02  0.20225033929E+02 -0.43162471314E+01  0.23506585145E+02  0.00000000000E+00 0.  1.
</event>
<event>
 4    1  0.6740123E+001  0.2242820E+02  0.7546771E-02  0.1499806E+00
          2   -1    0    0  502    0  0.00000000000E+00  0.00000000000E+00  0.22525623886E+03  0.22525623886E+03  0.00000000000E+00 0. -1.
         -2   -1    0    0    0  501 -0.00000000000E+00 -0.00000000000E+00 -0.23889133678E+01  0.23889133678E+01  0.00000000000E+00 0.  1.
          1    1    1    2  502    0 -0.22195534815E+02  0.32221810571E+01  0.82366498403E+02  0.85365474728E+02  0.00000000000E+00 0. -1.
         -1    1    1    2    0  501  0.22195534815E+02 -0.32221810571E+01  0.14050082709E+03  0.14227967750E+03  0.00000000000E+00 0.  1.
</event>
<event>
 4    1  0.6740123E+001  0.2002569E+02  0.7546771E-02  0.1533643E+00
          2   -1    0    0  502    0  0.00000000000E+00  0.00000000000E+00  0.29208116341E+01  0.29208116341E+01  0.00000000000E+00 0.  1.
         -2   -1    0    0    0  501 -0.00000000000E+00 -0.00000000000E+00 -0.17724789432E+03  0.17724789432E+03  0.00000000000E+00 0. -1.
          1    1    1    2  502    0  0.17639541752E+02  0.94802330271E+01 -0.12993009483E+03  0.13146428334E+03  0.00000000000E+00 0. -1.
         -1    1    1    2    0  501 -0.17639541752E+02 -0.94802330271E+01 -0.44396987849E+02  0.48704422608E+02  0.00000000000E+00 0.  1.
</event>
<event>
 4    1  0.6740123E+001  0.2064110E+02  0.7546771E-02  0.1524451E+00
          2   -1    0    0  502    0  0.00000000000E+00  0.00000000000E+00  0.97571993159E+03  0.97571993159E+03  0.00000000000E+00 0.  1.
         -2   -1    0    0    0  501 -0.00000000000E+00 -0.00000000000E+00 -0.43867335063E+00  0.43867335063E+00  0.00000000000E+00 0. -1.
          1    1    1    2  502    0 -0.95590685235E+01 -0.18294243975E+02  0.52072927610E+03  0.52113821021E+03  0.00000000000E+00 0. -1.
         -1    1    1    2    0  501  0.95590685235E+01  0.18294243975E+02  0.45455198214E+03  0.45502039473E+03  0.00000000000E+00 0.  1.
</event>
<event>
 4    1  0.6740123E+001  0.2508451E+02  0.7546771E-02  0.1467860E+00
          2   -1    0    0  502    0  0.00000000000E+00  0.00000000000E+00  0.58053120451E+02  0.58053120451E+02  0.00000000000E+00 0. -1.
         -2   -1    0    0    0  501 -0.00000000000E+00 -0.00000000000E+00 -0.13779808369E+02  0.13779808369E+02  0.00000000000E+00 0.  1.
          1    1    1    2  502    0 -0.76447552419E+01  0.23891217057E+02  0.55441488808E+01  0.25689883651E+02  0.00000000000E+00 0.  1.
         -1    1    1    2    0  501  0.76447552419E+01 -0.23891217057E+02  0.38729163201E+02  0.46143045169E+02  0.00000000000E+00 0. -1.
</event>
<event>
 4    1  0.6740123E+001  0.2082463E+02  0.7546771E-02  0.1521783E+00
          2   -1    0    0  502    0  0.00000000000E+00  0.00000000000E+00  0.49589703742E+02  0.49589703742E+02  0.00000000000E+00 0.  1.
         -2   -1    0    0    0  501 -0.00000000000E+00 -0.00000000000E+00 -0.92777603235E+01  0.92777603235E+01  0.00000000000E+00 0. -1.
          1    1    1    2  502    0  0.61572036209E+01 -0.19893572882E+02  0.13103174044E+02  0.24604035613E+02  0.00000000000E+00 0. -1.
         -1    1    1    2    0  501 -0.61572036209E+01  0.19893572882E+02  0.27208769375E+02  0.34263428452E+02  0.00000000000E+00 0.  1.
</event>
<event>
 4    1  0.6740123E+001  0.2155442E+02  0.7546771E-02  0.1511494E+00
          2   -1    0    0  502    0  0.00000000000E+00  0.00000000000E+00  0.48265912237E+02  0.48265912237E+02  0.00000000000E+00 0. -1.
         -2   -1    0    0    0  501 -0.00000000000E+00 -0.00000000000E+00 -0.10823687306E+02  0.10823687306E+02  0.00000000000E+00 0.  1.
          1    1    1    2  502    0 -0.19894030970E+02 -0.82958204424E+01  0.28550350781E+02  0.35773113294E+02  0.00000000000E+00 0. -1.
         -1    1    1    2    0  501  0.19894030970E+02  0.82958204424E+01  0.88918741503E+01  0.23316486248E+02  0.00000000000E+00 0.  1.
</event>
<event>
 4    1  0.6740123E+001  0.6995409E+02  0.7546771E-02  0.1229311E+00
          2   -1    0    0  502    0  0.00000000000E+00  0.00000000000E+00  0.11215251572E+04  0.11215251572E+04  0.00000000000E+00 0.  1.
         -2   -1    0    0    0  501 -0.00000000000E+00 -0.00000000000E+00 -0.89509067221E+01  0.89509067221E+01  0.00000000000E+00 0. -1.
          1    1    1    2  502    0  0.15296757554E+02  0.68261147772E+02  0.96094679400E+03  0.96348965536E+03  0.00000000000E+00 0.  1.
         -1    1    1    2    0  501 -0.15296757554E+02 -0.68261147772E+02  0.15162745649E+03  0.16698640857E+03  0.00000000000E+00 0. -1.
</event>
<event>
 4    1  0.6740123E+001  0.2053549E+02  0.7546771E-02  0.1526001E+00
          2   -1    0    0  502    0  0.00000000000E+00  0.00000000000E+00  0.10065956798E+03  0.10065956798E+03  0.00000000000E+00 0.  1.
         -2   -1    0    0    0  501 -0.00000000000E+00 -0.00000000000E+00 -0.61550775987E+01  0.61550775987E+01  0.00000000000E+00 0. -1.
          1    1    1    2  502    0 -0.19967903898E+02  0.47946832297E+01  0.77433473901E+02  0.80110230643E+02  0.00000000000E+00 0.  1.
         -1    1    1    2    0  501  0.19967903898E+02 -0.47946832297E+01  0.17071016478E+02  0.26704414934E+02  0.00000000000E+00 0. -1.
</event>
<event>
 4    1  0.6740123E+001  0.2256193E+02  0.7546771E-02  0.1498073E+00
          2   -1    0    0  502    0  0.00000000000E+00  0.00000000000E+00  0.12160943921E+04  0.12160943921E+04  0.00000000000E+00 0.  1.
         -2   -1    0    0    0  501 -0.00000000000E+00 -0.00000000000E+00 -0.88306134864E+00  0.88306134864E+00  0.00000000000E+00 0. -1.
          1    1    1    2  502    0  0.13141732141E+02 -0.18339455645E+02  0.10489099822E+04  0.10491526064E+04  0.00000000000E+00 0.  1.
         -1    1    1    2    0  501 -0.13141732141E+02  0.18339455645E+02  0.16630134858E+03  0.16782484708E+03  0.00000000000E+00 0. -1.
</event>
<event>
 4    1  0.6740123E+001  0.2158374E+02  0.7546771E-02  0.1511091E+00
          2   -1    0    0  502    0  0.00000000000E+00  0.00000000000E+00  0.40231396608E+02  0.40231396608E+02  0.00000000000E+00 0. -1.
         -2   -1    0    0    0  501 -0.00000000000E+00 -0.00000000000E+00 -0.14661642510E+02  0.14661642510E+02  0.00000000000E+00 0.  1.
          1    1    1    2  502    0  0.78922119596E+01  0.20089071105E+02  0.20068757559E+00  0.21584671945E+02  0.00000000000E+00 0.  1.
         -1    1    1    2    0  501 -0.78922119596E+01 -0.20089071105E+02  0.25369066523E+02  0.33308367173E+02  0.00000000000E+00 0. -1.
</event>
<event>
 4    1  0.6740123E+001  0.3411228E+02  0.7546771E-02  0.1386914E+00
          2   -1    0    0  502    0  0.00000000000E+00  0.00000000000E+00  0.20804089152E+01  0.20804089152E+01  0.00000000000E+00 0.  1.
         -2   -1    0    0    0  501 -0.00000000000E+00 -0.00000000000E+00 -0.69249931847E+03  0.69249931847E+03  0.00000000000E+00 0. -1.
          1    1    1    2  502    0  0.30659492855E+02 -0.14954713767E+02 -0.19291838016E+03  0.19591107515E+03  0.00000000000E+00 0.  1.
         -1    1    1    2    0  501 -0.30659492855E+02  0.14954713767E+02 -0.49750052940E+03  0.49866865223E+03  0.00000000000E+00 0. -1.
</event>
<event>
 4    1  0.6740123E+001  0.2078864E+02  0.7546771E-02  0.1522304E+00
          2   -1    0    0  502    0  0.00000000000E+00  0.00000000000E+00  0.72748431513E+01  0.72748431513E+01  0.00000000000E+00 0. -1.
         -2   -1    0    0    0  501 -0.00000000000E+00 -0.00000000000E+00 -0.59865539704E+02  0.59865539704E+02  0.00000000000E+00 0.  1.
          1    1    1    2  502    0  0.19881077007E+02  0.60753772747E+01 -0.29237399845E+02  0.35874684413E+02  0.00000000000E+00 0.  1.
         -1    1    1    2    0  501 -0.19881077007E+02 -0.60753772747E+01 -0.23353296707E+02  0.31265698443E+02  0.00000000000E+00 0. -1.
</event>
<event>
 4    1  0.6740123E+001  0.2471694E+02  0.7546771E-02  0.1471995E+00
          2   -1    0    0  502    0  0.00000000000E+00  0.00000000000E+00  0.37304234095E+02  0.37304234095E+02  0.00000000000E+00 0.  1.
         -2   -1    0    0    0  501 -0.00000000000E+00 -0.00000000000E+00 -0.17272915486E+02  0.17272915486E+02  0.00000000000E+00 0. -1.
          1    1    1    2  502    0 -0.22837310361E+02  0.94543313428E+01  0.16230923482E+02  0.29569748101E+02  0.00000000000E+00 0. -1.
         -1    1    1    2    0  501  0.22837310361E+02 -0.94543313428E+01  0.38003951266E+01  0.25007401480E+02  0.00000000000E+00 0.  1.
</event>
<event>
 4    1  0.6740123E+001  0.2115986E+02  0.7546771E-02  0.1516995E+00
          2   -1    0    0  502    0  0.00000000000E+00  0.00000000000E+00  0.76571576417E+03  0.76571576417E+03  0.00000000000E+00 0. -1.
         -2   -1    0    0    0  501 -0.00000000000E+00 -0.00000000000E+00 -0.88779920838E+00  0.88779920838E+00  0.00000000000E+00 0.  1.
          1    1    1    2  502    0 -0.21141385037E+02 -0.88403189286E+00  0.60636438475E+03  0.60673347260E+03  0.00000000000E+00 0. -1.
         -1    1    1    2    0  501  0.21141385037E+02  0.88403189286E+00  0.15846358021E+03  0.15987009078E+03  0.00000000000E+00 0.  1.
</event>
<event>
 4    1  0.6740123E+001  0.3979463E+02  0.7546771E-02  0.1349693E+00
          2   -1    0    0  502    0  0.00000000000E+00  0.00000000000E+00  0.19506009841E+04  0.19506009841E+04  0.00000000000E+00 0. -1.
         -2   -1    0    0    0  501 -0.00000000000E+00 -0.00000000000E+00 -0.10646316242E+01  0.10646316242E+01  0.00000000000E+00 0.  1.
          1    1    1    2  502    0  0.48944569176E+00  0.39791617476E+02  0.14502577633E+04  0.14508036368E+04  0.00000000000E+00 0. -1.
         -1    1    1    2    0  501 -0.48944569176E+00 -0.39791617476E+02  0.49927858919E+03  0.50086197900E+03  0.00000000000E+00 0.  1.
</event>
<event>
 4    1 -0.6740123E+001  0.4740808E+02  0.7546771E-02  0.1309819E+00
          2   -1    0    0  502    0  0.00000000000E+00  0.00000000000E+00  0.69132649115E+00  0.69132649115E+00  0.00000000000E+00 0.  1.
         -2   -1    0    0    0  501 -0.00000000000E+00 -0.00000000000E+00 -0.36603386029E+04  0.36603386029E+04  0.00000000000E+00 0. -1.
          1    1    1    2  502    0  0.19567550978E+02 -0.43181443238E+02 -0.12177046645E+04  0.12186271686E+04  0.00000000000E+00 0. -1.
         -1    1    1    2    0  501 -0.19567550978E+02  0.43181443238E+02 -0.24419426120E+04  0.24424027609E+04  0.00000000000E+00 0.  1.
</event>
<event>
 4    1  0.6740123E+001  0.2449444E+02  0.7546771E-02  0.1474539E+00
          2   -1    0    0  502    0  0.00000000000E+00  0.00000000000E+00  0.22447591950E+03  0.22447591950E+03  0.00000000000E+00 0. -1.
         -2   -1    0    0    0  501 -0.00000000000E+00 -0.00000000000E+00 -0.28613324033E+01  0.28613324033E+01  0.00000000000E+00 0.  1.
          1    1    1    2  502    0  0.20944595587E+02 -0.12700454710E+02  0.13998543886E+03  0.14211228211E+03  0.00000000000E+00 0. -1.
         -1    1    1    2    0  501 -0.20944595587E+02  0.12700454710E+02  0.81629148240E+02  0.85224969795E+02  0.00000000000E+00 0.  1.
</event>
<event>
 4    1  0.6740123E+001  0.2422364E+02  0.7546771E-02  0.1477679E+00
          2   -1    0    0  502    0  0.00000000000E+00  0.00000000000E+00  0.37197668282E+03  0.37197668282E+03  0.00000000000E+00 0.  1.
         -2   -1    0    0    0  501 -0.00000000000E+00 -0.00000000000E+00 -0.21936893012E+01  0.21936893012E+01  0.00000000000E+00 0. -1.
          1    1    1    2  502    0  0.62944912884E+01  0.23391539708E+02  0.85735966964E+02  0.89092316065E+02  0.00000000000E+00 0. -1.
         -1    1    1    2    0  501 -0.62944912884E+01 -0.23391539708E+02  0.28404702655E+03  0.28507805605E+03  0.00000000000E+00 0.  1.
</event>
<event>
 4    1  0.6740123E+001  0.2374377E+02  0.7546771E-02  0.1483364E+00
          2   -1    0    0  502    0  0.00000000000E+00  0.00000000000E+00  0.16757920518E+04  0.16757920518E+04  0.00000000000E+00 0.  1.
         -2   -1    0    0    0  501 -0.00000000000E+00 -0.00000000000E+00 -0.34243853593E+00  0.34243853593E+00  0.00000000000E+00 0. -1.
          1    1    1    2  502    0  0.20572802660E+02  0.11854390615E+02  0.94884713870E+03  0.94914417209E+03  0.00000000000E+00 0.  1.
         -1    1    1    2    0  501 -0.20572802660E+02 -0.11854390615E+02  0.72660247453E+03  0.72699031822E+03  0.00000000000E+00 0. -1.
</event>
<event>
 4    1  0.6740123E+001  0.3560929E+02  0.7546771E-02  0.1376330E+00
          2   -1    0    0  502    0  0.00000000000E+00  0.00000000000E+00  0.13729079604E+04  0.13729079604E+04  0.00000000000E+00 0. -1.
         -2   -1    0    0    0  501 -0.00000000000E+00 -0.00000000000E+00 -0.11857227067E+01  0.11857227067E+01  0.00000000000E+00 0.  1.
          1    1    1    2  502    0 -0.10949753287E+02 -0.33883981736E+02  0.36282954363E+03  0.36457276235E+03  0.00000000000E+00 0.  1.
         -1    1    1    2    0  501  0.10949753287E+02  0.33883981736E+02  0.10088926941E+04  0.10095209208E+04  0.00000000000E+00 0. -1.
</event>
<event>
 4    1  0.6740123E+001  0.2180128E+02  0.7546771E-02  0.1508125E+00
          2   -1    0    0  502    0  0.00000000000E+00  0.00000000000E+00  0.14511189374E+03  0.14511189374E+03  0.00000000000E+00 0.  1.
         -2   -1    0    0    0  501 -0.00000000000E+00 -0.00000000000E+00 -0.34356356991E+01  0.34356356991E+01  0.00000000000E+00 0. -1.
          1    1    1    2  502    0  0.14671290983E+02  0.16126040539E+02  0.54796645615E+02  0.58974302312E+02  0.00000000000E+00 0. -1.
         -1    1    1    2    0  501 -0.14671290983E+02 -0.16126040539E+02  0.86879612425E+02  0.89573227126E+02  0.00000000000E+00 0.  1.
</event>
<event>
 4    1  0.6740123E+001  0.2463331E+02  0.7546771E-02  0.1472948E+00
          2   -1    0    0  502    0  0.00000000000E+00  0.00000000000E+00  0.27483632570E+01  0.27483632570E+01  0.00000000000E+00 0.  1.
         -2   -1    0    0    0  501 -0.00000000000E+00 -0.00000000000E+00 -0.22391715303E+03  0.22391715303E+03  0.00000000000E+00 0. -1.
          1    1    1    2  502    0 -0.24253733970E+02 -0.43077108952E+01 -0.97182457268E+02  0.10025582270E+03  0.00000000000E+00 0.  1.
         -1    1    1    2    0  501  0.24253733970E+02  0.43077108952E+01 -0.12398633251E+03  0.12640969359E+03  0.00000000000E+00 0. -1.
</event>
<event>
 4    1  0.6740123E+001  0.3138639E+02  0.7546771E-02  0.1407919E+00
          2   -1    0    0  502    0  0.00000000000E+00  0.00000000000E+00  0.18114450555E+04  0.18114450555E+04  0.00000000000E+00 0. -1.
         -2   -1    0    0    0  501 -0.00000000000E+00 -0.00000000000E+00 -0.59064114521E+00  0.59064114521E+00  0.00000000000E+00 0.  1.
          1    1    1    2  502    0 -0.16055755857E+02 -0.26968835075E+02  0.11605106802E+04  0.11609350301E+04  0.00000000000E+00 0. -1.
         -1    1    1    2    0  501  0.16055755857E+02  0.26968835075E+02  0.65034373412E+03  0.65110066647E+03  0.00000000000E+00 0.  1.
</event>
<event>
 4    1  0.6740123E+001  0.3353915E+02  0.7546771E-02  0.1391135E+00
          2   -1    0    0  502    0  0.00000000000E+00  0.00000000000E+00  0.11140066535E+02  0.11140066535E+02  0.00000000000E+00 0.  1.
         -2   -1    0    0    0  501 -0.00000000000E+00 -0.00000000000E+00 -0.10349799698E+03  0.10349799698E+03  0.00000000000E+00 0. -1.
          1    1    1    2  502    0  0.10217775338E+02 -0.31944819007E+02 -0.37230603764E+02  0.50109801944E+02  0.00000000000E+00 0. -1.
         -1    1    1    2    0  501 -0.10217775338E+02  0.31944819007E+02 -0.55127326680E+02  0.64528261569E+02  0.00000000000E+00 0.  1.
</event>
<event>
 4    1  0.6740123E+001  0.2134209E+02  0.7546771E-02  0.1514436E+00
          2   -1    0    0  502    0  0.00000000000E+00  0.00000000000E+00  0.15617032370E+04  0.15617032370E+04  0.00000000000E+00 0.  1.
         -2   -1    0    0    0  501 -0.00000000000E+00 -0.00000000000E+00 -0.30017101748E+00  0.30017101748E+00  0.00000000000E+00 0. -1.
          1    1    1    2  502    0  0.12605576536E+02  0.17221626916E+02  0.91221819214E+03  0.91246781591E+03  0.00000000000E+00 0.  1.
         -1    1    1    2    0  501 -0.12605576536E+02 -0.17221626916E+02  0.64918487381E+03  0.64953559208E+03  0.00000000000E+00 0. -1.
</event>
<event>
 4    1  0.6740123E+001  0.2391788E+02  0.7546771E-02  0.1481283E+00
          2   -1    0    0  502    0  0.00000000000E+00  0.00000000000E+00  0.31867373724E+02  0.31867373724E+02  0.00000000000E+00 0. -1.
         -2   -1    0    0    0  501 -0.00000000000E+00 -0.00000000000E+00 -0.60904879484E+02  0.60904879484E+02  0.00000000000E+00 0.  1.
          1    1    1    2  502    0  0.49380455714E+01  0.23402578655E+02 -0.53473561928E+02  0.58578893870E+02  0.00000000000E+00 0.  1.
         -1    1    1    2    0  501 -0.49380455714E+01 -0.23402578655E+02  0.24436056168E+02  0.34193359338E+02  0.00000000000E+00 0. -1.
</event>
<event>
 4    1  0.6740123E+001  0.4205689E+02  0.7546771E-02  0.1336836E+00
          2   -1    0    0  502    0  0.00000000000E+00  0.00000000000E+00  0.81632713421E+02  0.81632713421E+02  0.00000000000E+00 0. -1.
         -2   -1    0    0    0  501 -0.00000000000E+00 -0.00000000000E+00 -0.42804943439E+02  0.42804943439E+02  0.00000000000E+00 0.  1.
          1    1    1    2  502    0  0.36359072414E+02 -0.21137645944E+02  0.63135924713E+02  0.75861236559E+02  0.00000000000E+00 0. -1.
         -1    1    1    2    0  501 -0.36359072414E+02  0.21137645944E+02 -0.24308154731E+02  0.48576420301E+02  0.00000000000E+00 0.  1.
</event>
<event>
 4    1  0.6740123E+001  0.2040687E+02  0.7546771E-02  0.1527904E+00
          2   -1    0    0  502    0  0.00000000000E+00  0.00000000000E+00  0.16985820832E+02  0.16985820832E+02  0.00000000000E+00 0.  1.
         -2   -1    0    0    0  501 -0.00000000000E+00 -0.00000000000E+00 -0.24570458958E+02  0.24570458958E+02  0.00000000000E+00 0. -1.
          1    1    1    2  502    0 -0.16146764667E+02 -0.12478883405E+02 -0.47619544328E+01  0.20955112748E+02  0.00000000000E+00 0.  1.
         -1    1    1    2    0  501  0.16146764667E+02  0.12478883405E+02 -0.28226836937E+01  0.20601167042E+02  0.00000000000E+00 0. -1.
</event>
<event>
 4    1  0.6740123E+001  0.2568036E+02  0.7546771E-02  0.1461334E+00
          2   -1    0    0  502    0  0.00000000000E+00  0.00000000000E+00  0.98250210955E+01  0.98250210955E+01  0.00000000000E+00 0.  1.
         -2   -1    0    0    0  501 -0.00000000000E+00 -0.00000000000E+00 -0.68950572764E+02  0.68950572764E+02  0.00000000000E+00 0. -1.
          1    1    1    2  502    0 -0.20425932611E+02  0.15564765250E+02 -0.35976074841E+02  0.44201341623E+02  0.00000000000E+00 0. -1.
         -1    1    1    2    0  501  0.20425932611E+02 -0.15564765250E+02 -0.23149476827E+02  0.34574252236E+02  0.00000000000E+00 0.  1.
</event>
<event>
 4    1  0.6740123E+001  0.2057264E+02  0.7546771E-02  0.1525455E+00
          2   -1    0    0  502    0  0.00000000000E+00  0.00000000000E+00  0.28417338780E+03  0.28417338780E+03  0.00000000000E+00 0.  1.
         -2   -1    0    0    0  501 -0.00000000000E+00 -0.00000000000E+00 -0.16132118837E+01  0.16132118837E+01  0.00000000000E+00 0. -1.
          1    1    1    2  502    0  0.14453769042E+02  0.14639746458E+02  0.18087461123E+03  0.18204081576E+03  0.00000000000E+00 0.  1.
         -1    1    1    2    0  501 -0.14453769042E+02 -0.14639746458E+02  0.10168556469E+03  0.10374578392E+03  0.00000000000E+00 0. -1.
</event>
<event>
 4    1  0.6740123E+001  0.2011815E+02  0.7546771E-02  0.1532237E+00
          2   -1    0    0  502    0  0.00000000000E+00  0.00000000000E+00  0.19659915504E+03  0.19659915504E+03  0.00000000000E+00 0. -1.
         -2   -1    0    0    0  501 -0.00000000000E+00 -0.00000000000E+00 -0.20899916067E+01  0.20899916067E+01  0.00000000000E+00 0.  1.
          1    1    1    2  502    0 -0.90980064735E+00 -0.20097569586E+02  0.10940910134E+03  0.11124338855E+03  0.00000000000E+00 0. -1.
         -1    1    1    2    0  501  0.90980064735E+00  0.20097569586E+02  0.85100062094E+02  0.87445758095E+02  0.00000000000E+00 0.  1.
</event>
<event>
 4    1  0.6740123E+001  0.2027308E+02  0.7546771E-02  0.1529901E+00
          2   -1    0    0  502    0  0.00000000000E+00  0.00000000000E+00  0.38317026890E+02  0.38317026890E+02  0.00000000000E+00 0.  1.
         -2   -1    0    0    0  501 -0.00000000000E+00 -0.00000000000E+00 -0.10736850646E+02  0.10736850646E+02  0.00000000000E+00 0. -1.
          1    1    1    2  502    0  0.66220535150E+01 -0.19161054625E+02  0.13019031704E+02  0.24093418056E+02  0.00000000000E+00 0. -1.
         -1    1    1    2    0  501 -0.66220535150E+01  0.19161054625E+02  0.14561144540E+02  0.24960459480E+02  0.00000000000E+00 0.  1.
</event>
<event>
 4    1  0.6740123E+001  0.4606285E+02  0.7546771E-02  0.1316209E+00
          2   -1    0    0  502    0  0.00000000000E+00  0.00000000000E+00  0.10850636651E+03  0.10850636651E+03  0.00000000000E+00 0. -1.
         -2   -1    0    0    0  501 -0.00000000000E+00 -0.00000000000E+00 -0.25015691080E+02  0.25015691080E+02  0.00000000000E+00 0.  1.
          1    1    1    2  502    0  0.47616948645E+01  0.45816073536E+02  0.10552062898E+02  0.47256029918E+02  0.00000000000E+00 0.  1.
         -1    1    1    2    0  501 -0.47616948645E+01 -0.45816073536E+02  0.72938612536E+02  0.86266027676E+02  0.00000000000E+00 0. -1.
</event>
<event>
 4    1  0.6740123E+001  0.2033528E+02  0.7546771E-02  0.1528970E+00
          2   -1    0    0  502    0  0.00000000000E+00  0.00000000000E+00  0.11105877813E+04  0.11105877813E+04  0.00000000000E+00 0.  1.
         -2   -1    0    0    0  501 -0.00000000000E+00 -0.00000000000E+00 -0.43856144046E+00  0.43856144046E+00  0.00000000000E+00 0. -1.
          1    1    1    2  502    0 -0.15028683546E+02 -0.13698994335E+02  0.77092669300E+03  0.77119484552E+03  0.00000000000E+00 0.  1.
         -1    1    1    2    0  501  0.15028683546E+02  0.13698994335E+02  0.33922252688E+03  0.33983149725E+03  0.00000000000E+00 0. -1.
</event>
<event>
 4    1  0.6740123E+001  0.2592666E+02  0.7546771E-02  0.1458698E+00
          2   -1    0    0  502    0  0.00000000000E+00  0.00000000000E+00  0.57767002879E+03  0.57767002879E+03  0.00000000000E+00 0.  1.
         -2   -1    0    0    0  501 -0.00000000000E+00 -0.00000000000E+00 -0.11760105487E+01  0.11760105487E+01  0.00000000000E+00 0. -1.
          1    1    1    2  502    0  0.25669958014E+02 -0.36393280913E+01  0.31794862280E+03  0.31900394698E+03  0.00000000000E+00 0.  1.
         -1    1    1    2    0  501 -0.25669958014E+02  0.36393280913E+01  0.25854539545E+03  0.25984209236E+03  0.00000000000E+00 0. -1.
</event>
<event>
 4    1  0.6740123E+001  0.4149486E+02  0.7546771E-02  0.1339942E+00
          2   -1    0    0  502    0  0.00000000000E+00  0.00000000000E+00  0.41569050456E+03  0.41569050456E+03  0.00000000000E+00 0.  1.
         -2   -1    0    0    0  501 -0.00000000000E+00 -0.00000000000E+00 -0.53525700075E+01  0.53525700075E+01  0.00000000000E+00 0. -1.
          1    1    1    2  502    0  0.32857720587E+02  0.25341543578E+02  0.10505473392E+03  0.11295273681E+03  0.00000000000E+00 0. -1.
         -1    1    1    2    0  501 -0.32857720587E+02 -0.25341543578E+02  0.30528320063E+03  0.30809033776E+03  0.00000000000E+00 0.  1.
</event>
<event>
 4    1  0.6740123E+001  0.2695248E+02  0.7546771E-02  0.1448086E+00
          2   -1    0    0  502    0  0.00000000000E+00  0.00000000000E+00  0.18239822396E+04  0.18239822396E+04  0.00000000000E+00 0. -1.
         -2   -1    0    0    0  501 -0.00000000000E+00 -0.00000000000E+00 -0.44468325433E+00  0.44468325433E+00  0.00000000000E+00 0.  1.
          1    1    1    2  502    0  0.21689682087E+02 -0.15999804994E+02  0.12064792248E+04  0.12067802434E+04  0.00000000000E+00 0. -1.
         -1    1    1    2    0  501 -0.21689682087E+02  0.15999804994E+02  0.61705833152E+03  0.61764667939E+03  0.00000000000E+00 0.  1.
</event>
<event>
 4    1  0.6740123E+001  0.3206271E+02  0.7546771E-02  0.1402479E+00
          2   -1    0    0  502    0  0.00000000000E+00  0.00000000000E+00  0.70655747866E+02  0.70655747866E+02  0.00000000000E+00 0.  1.
         -2   -1    0    0    0  501 -0.00000000000E+00 -0.00000000000E+00 -0.14905392024E+02  0.14905392024E+02  0.00000000000E+00 0. -1.
          1    1    1    2  502    0 -0.10823311159E+02  0.30180677370E+02  0.34484155090E+02  0.47086880373E+02  0.00000000000E+00 0.  1.
         -1    1    1    2    0  501  0.10823311159E+02 -0.30180677370E+02  0.21266200752E+02  0.38474259517E+02  0.00000000000E+00 0. -1.
</event>
<event>
 4    1  0.6740123E+001  0.2789680E+02  0.7546771E-02  0.1438802E+00
          2   -1    0    0  502    0  0.00000000000E+00  0.00000000000E+00  0.61754901315E+03  0.61754901315E+03  0.00000000000E+00 0. -1.
         -2   -1    0    0    0  501 -0.00000000000E+00 -0.00000000000E+00 -0.15483452721E+01  0.15483452721E+01  0.00000000000E+00 0.  1.
          1    1    1    2  502    0  0.80098364717E+01  0.26722161487E+02  0.44153853537E+03  0.44241892999E+03  0.00000000000E+00 0. -1.
         -1    1    1    2    0  501 -0.80098364717E+01 -0.26722161487E+02  0.17446213251E+03  0.17667842843E+03  0.00000000000E+00 0.  1.
</event>
<event>
 4    1  0.6740123E+001  0.2429117E+02  0.7546771E-02  0.1476892E+00
          2   -1    0    0  502    0  0.00000000000E+00  0.00000000000E+00  0.41092661584E+03  0.41092661584E+03  0.00000000000E+00 0. -1.
         -2   -1    0    0    0  501 -0.00000000000E+00 -0.00000000000E+00 -0.16876261807E+01  0.16876261807E+01  0.00000000000E+00 0.  1.
          1    1    1    2  502    0 -0.23165657195E+02  0.73084371202E+01  0.12494554370E+03  0.12728491590E+03  0.00000000000E+00 0.  1.
         -1    1    1    2    0  501  0.23165657195E+02 -0.73084371202E+01  0.28429344596E+03  0.28532932611E+03  0.00000000000E+00 0. -1.
</event>
<event>
 4    1  0.6740123E+001  0.5777215E+02  0.7546771E-02  0.1267596E+00
          2   -1    0    0  502    0  0.00000000000E+00  0.00000000000E+00  0.11195178235E+04  0.11195178235E+04  0.00000000000E+00 0.  1.
         -2   -1    0    0    0  501 -0.00000000000E+00 -0.00000000000E+00 -0.35200577154E+01  0.35200577154E+01  0.00000000000E+00 0. -1.
          1    1    1    2  502    0 -0.56100667089E+02  0.13796250199E+02  0.33832155753E+03  0.34321873151E+03  0.00000000000E+00 0. -1.
         -1    1    1    2    0  501  0.56100667089E+02 -0.13796250199E+02  0.77767620822E+03  0.77981914967E+03  0.00000000000E+00 0.  1.
</event>
<event>
 4    1  0.6740123E+001  0.2462702E+02  0.7546771E-02  0.1473019E+00
          2   -1    0    0  502    0  0.00000000000E+00  0.00000000000E+00  0.19254733473E+03  0.19254733473E+03  0.00000000000E+00 0.  1.
         -2   -1    0    0    0  501 -0.00000000000E+00 -0.00000000000E+00 -0.31635169762E+01  0.31635169762E+01  0.00000000000E+00 0. -1.
          1    1    1    2  502    0  0.24226205013E+02 -0.44250791386E+01  0.88254086631E+02  0.91625728601E+02  0.00000000000E+00 0. -1.
         -1    1    1    2    0  501 -0.24226205013E+02  0.44250791386E+01  0.10112973112E+03  0.10408512310E+03  0.00000000000E+00 0.  1.
</event>
<event>
 4    1  0.6740123E+001  0.3053801E+02  0.7546771E-02  0.1414978E+00
          2   -1    0    0  502    0  0.00000000000E+00  0.00000000000E+00  0.92342804213E+01  0.92342804213E+01  0.00000000000E+00 0.  1.
         -2   -1    0    0    0  501 -0.00000000000E+00 -0.00000000000E+00 -0.14948596887E+03  0.14948596887E+03  0.00000000000E+00 0. -1.
          1    1    1    2  502    0  0.24273688135E+02 -0.18529928338E+02 -0.24924135852E+02  0.39418050788E+02  0.00000000000E+00 0.  1.
         -1    1    1    2    0  501 -0.24273688135E+02  0.18529928338E+02 -0.11532755259E+03  0.11930219850E+03  0.00000000000E+00 0. -1.
</event>
<event>
 4    1  0.6740123E+001  0.3691330E+02  0.7546771E-02  0.1367589E+00
          2   -1    0    0  502    0  0.00000000000E+00  0.00000000000E+00  0.80584780582E+03  0.80584780582E+03  0.00000000000E+00 0.  1.
         -2   -1    0    0    0  501 -0.00000000000E+00 -0.00000000000E+00 -0.17014809732E+01  0.17014809732E+01  0.00000000000E+00 0. -1.
          1    1    1    2  502    0  0.33493216317E+02  0.15517617966E+02  0.37020209446E+03  0.37203787811E+03  0.00000000000E+00 0. -1.
         -1    1    1    2    0  501 -0.33493216317E+02 -0.15517617966E+02  0.43394423038E+03  0.43551140868E+03  0.00000000000E+00 0.  1.
</event>
<event>
 4    1  0.6740123E+001  0.4595202E+02  0.7546771E-02  0.1316746E+00
          2   -1    0    0  502    0  0.00000000000E+00  0.00000000000E+00  0.41490322408E+02  0.41490322408E+02  0.00000000000E+00 0.  1.
         -2   -1    0    0    0  501 -0.00000000000E+00 -0.00000000000E+00 -0.50996517042E+02  0.50996517042E+02  0.00000000000E+00 0. -1.
          1    1    1    2  502    0 -0.32769132759E+02 -0.32214464876E+02 -0.26746937557E+01  0.46029792479E+02  0.00000000000E+00 0. -1.
         -1    1    1    2    0  501  0.32769132759E+02  0.32214464876E+02 -0.68315008782E+01  0.46457046971E+02  0.00000000000E+00 0.  1.
</event>
<event>
 4    1  0.6740123E+001  0.2344478E+02  0.7546771E-02  0.1486987E+00
          2   -1    0    0  502    0  0.00000000000E+00  0.00000000000E+00  0.79850395811E+01  0.79850395811E+01  0.00000000000E+00 0.  1.
         -2   -1    0    0    0  501 -0.00000000000E+00 -0.00000000000E+00 -0.91725602178E+02  0.91725602178E+02  0.00000000000E+00 0. -1.
          1    1    1    2  502    0 -0.13456130068E+01  0.23406135733E+02 -0.16965327931E+02  0.28939250442E+02  0.00000000000E+00 0.  1.
         -1    1    1    2    0  501  0.13456130068E+01 -0.23406135733E+02 -0.66775234666E+02  0.70771391317E+02  0.00000000000E+00 0. -1.
</event>
<event>
 4    1  0.6740123E+001  0.2054302E+02  0.7546771E-02  0.1525890E+00
          2   -1    0    0  502    0  0.00000000000E+00  0.00000000000E+00  0.89095977088E+01  0.89095977088E+01  0.00000000000E+00 0.  1.
         -2   -1    0    0    0  501 -0.00000000000E+00 -0.00000000000E+00 -0.57393668944E+02  0.57393668944E+02  0.00000000000E+00 0. -1.
          1    1    1    2  502    0  0.17980193289E+02 -0.99362147433E+01 -0.10385204791E+02  0.23018866016E+02  0.00000000000E+00 0.  1.
         -1    1    1    2    0  501 -0.17980193289E+02  0.99362147433E+01 -0.38098866444E+02  0.43284400636E+02  0.00000000000E+00 0. -1.
</event>
<event>
 4    1  0.6740123E+001  0.2740492E+02  0.7546771E-02  0.1443582E+00
          2   -1    0    0  502    0  0.00000000000E+00  0.00000000000E+00  0.64641402767E+03  0.64641402767E+03  0.00000000000E+00 0.  1.
         -2   -1    0    0    0  501 -0.00000000000E+00 -0.00000000000E+00 -0.22282009176E+01  0.22282009176E+01  0.00000000000E+00 0. -1.
          1    1    1    2  502    0  0.22682114889E+02 -0.15380229200E+02  0.97730489289E+02  0.10150013952E+03  0.00000000000E+00 0. -1.
         -1    1    1    2    0  501 -0.22682114889E+02  0.15380229200E+02  0.54645533747E+03  0.54714208907E+03  0.00000000000E+00 0.  1.
</event>
<event>
 4    1  0.6740123E+001  0.2035508E+02  0.7546771E-02  0.1528675E+00
          2   -1    0    0  502    0  0.00000000000E+00  0.00000000000E+00  0.86176264084E+03  0.86176264084E+03  0.00000000000E+00 0.  1.
         -2   -1    0    0    0  501 -0.00000000000E+00 -0.00000000000E+00 -0.48489747868E+00  0.48489747868E+00  0.00000000000E+00 0. -1.
          1    1    1    2  502    0 -0.10542661113E+02  0.17412104493E+02  0.47030575277E+03  0.47074603575E+03  0.00000000000E+00 0. -1.
         -1    1    1    2    0  501  0.10542661113E+02 -0.17412104493E+02  0.39097199060E+03  0.39150150257E+03  0.00000000000E+00 0.  1.
</event>
<event>
 4    1  0.6740123E+001  0.3185824E+02  0.7546771E-02  0.1404107E+00
          2   -1    0    0  502    0  0.00000000000E+00  0.00000000000E+00  0.70051740725E+02  0.70051740725E+02  0.00000000000E+00 0.  1.
         -2   -1    0    0    0  501 -0.00000000000E+00 -0.00000000000E+00 -0.16141817904E+02  0.16141817904E+02  0.00000000000E+00 0. -1.
          1    1    1    2  502    0  0.83164861727E+01 -0.30753596451E+02  0.40747403518E+02  0.51723288085E+02  0.00000000000E+00 0. -1.
         -1    1    1    2    0  501 -0.83164861727E+01  0.30753596451E+02  0.13162519303E+02  0.34470270543E+02  0.00000000000E+00 0.  1.
</event>
<event>
 4    1  0.6740123E+001  0.3616077E+02  0.7546771E-02  0.1372581E+00
          2   -1    0    0  502    0  0.00000000000E+00  0.00000000000E+00  0.34472334884E+03  0.34472334884E+03  0.00000000000E+00 0.  1.
         -2   -1    0    0    0  501 -0.00000000000E+00 -0.00000000000E+00 -0.44219194004E+01  0.44219194004E+01  0.00000000000E+00 0. -1.
          1    1    1    2  502    0 -0.32640257684E+02 -0.15563255150E+02  0.10432395691E+03  0.11041326604E+03  0.00000000000E+00 0. -1.
         -1    1    1    2    0  501  0.32640257684E+02  0.15563255150E+02  0.23597747254E+03  0.23873200221E+03  0.00000000000E+00 0.  1.
</event>
<event>
 4    1  0.6740123E+001  0.2261206E+02  0.7546771E-02  0.1497428E+00
          2   -1    0    0  502    0  0.00000000000E+00  0.00000000000E+00  0.42138933884E+02  0.42138933884E+02  0.00000000000E+00 0. -1.
         -2   -1    0    0    0  501 -0.00000000000E+00 -0.00000000000E+00 -0.15116731831E+02  0.15116731831E+02  0.00000000000E+00 0.  1.
          1    1    1    2  502    0  0.22500240049E+02 -0.22460236833E+01  0.79420462610E+00  0.22626006842E+02  0.00000000000E+00 0.  1.
         -1    1    1    2    0  501 -0.22500240049E+02  0.22460236833E+01  0.26227997427E+02  0.34629658873E+02  0.00000000000E+00 0. -1.
</event>
<event>
 4    1  0.6740123E+001  0.2647721E+02  0.7546771E-02  0.1452931E+00
          2   -1    0    0  502    0  0.00000000000E+00  0.00000000000E+00  0.27904248660E+02  0.27904248660E+02  0.00000000000E+00 0.  1.
         -2   -1    0    0    0  501 -0.00000000000E+00 -0.00000000000E+00 -0.36415015160E+02  0.36415015160E+02  0.00000000000E+00 0. -1.
          1    1    1    2  502    0  0.13469049388E+02  0.22795341187E+02  0.13652880978E+02  0.29789998829E+02  0.00000000000E+00 0.  1.
         -1    1    1    2    0  501 -0.13469049388E+02 -0.22795341187E+02 -0.22163647479E+02  0.34529264991E+02  0.00000000000E+00 0. -1.
</event>
<event>
 4    1  0.6740123E+001  0.2816590E+02  0.7546771E-02  0.1436235E+00
          2   -1    0    0  502    0  0.00000000000E+00  0.00000000000E+00  0.17771904979E+01  0.17771904979E+01  0.00000000000E+00 0.  1.
         -2   -1    0    0    0  501 -0.00000000000E+00 -0.00000000000E+00 -0.53900329369E+03  0.53900329369E+03  0.00000000000E+00 0. -1.
          1    1    1    2  502    0 -0.16251854976E+02 -0.23004241906E+02 -0.15653133320E+03  0.15904520178E+03  0.00000000000E+00 0. -1.
         -1    1    1    2    0  501  0.16251854976E+02  0.23004241906E+02 -0.38069477000E+03  0.38173528241E+03  0.00000000000E+00 0.  1.
</event>
<event>
 4    1  0.6740123E+001  0.3816987E+02  0.7546771E-02  0.1359557E+00
          2   -1    0    0  502    0  0.00000000000E+00  0.00000000000E+00  0.11056844435E+04  0.11056844435E+04  0.00000000000E+00 0. -1.
         -2   -1    0    0    0  501 -0.00000000000E+00 -0.00000000000E+00 -0.17546007638E+01  0.17546007638E+01  0.00000000000E+00 0.  1.
          1    1    1    2  502    0 -0.89242754095E+01 -0.37111942787E+02  0.82827816475E+03  0.82915719691E+03  0.00000000000E+00 0. -1.
         -1    1    1    2    0  501  0.89242754095E+01  0.37111942787E+02  0.27565167798E+03  0.27828184735E+03  0.00000000000E+00 0.  1.
</event>
<event>
 4    1  0.6740123E+001  0.3375111E+02  0.7546771E-02  0.1389562E+00
          2   -1    0    0  502    0  0.00000000000E+00  0.00000000000E+00  0.33853143857E+03  0.33853143857E+03  0.00000000000E+00 0. -1.
         -2   -1    0    0    0  501 -0.00000000000E+00 -0.00000000000E+00 -0.38827585654E+01  0.38827585654E+01  0.00000000000E+00 0.  1.
          1    1    1    2  502    0 -0.16592539701E+02 -0.29390901614E+02  0.10480116680E+03  0.11010187116E+03  0.00000000000E+00 0.  1.
         -1    1    1    2    0  501  0.16592539701E+02  0.29390901614E+02  0.22984751320E+03  0.23231232597E+03  0.00000000000E+00 0. -1.
</event>
<event>
 4    1  0.6740123E+001  0.2150229E+02  0.7546771E-02  0.1512213E+00
          2   -1    0    0  502    0  0.00000000000E+00  0.00000000000E+00  0.20522782047E+03  0.20522782047E+03  0.00000000000E+00 0. -1.
         -2   -1    0    0    0  501 -0.00000000000E+00 -0.00000000000E+00 -0.23275147055E+01  0.23275147055E+01  0.00000000000E+00 0.  1.
          1    1    1    2  502    0 -0.16979200344E+02 -0.13192995124E+02  0.12003688532E+03  0.12194753873E+03  0.00000000000E+00 0.  1.
         -1    1    1    2    0  501  0.16979200344E+02  0.13192995124E+02  0.82863420437E+02  0.85607796440E+02  0.00000000000E+00 0. -1.
</event>
<event>
 4    1  0.6740123E+001  0.1343990E+03  0.7546771E-02  0.1114776E+00
          2   -1    0    0  502    0  0.00000000000E+00  0.00000000000E+00  0.53826902899E+03  0.53826902899E+03  0.00000000000E+00 0.  1.
         -2   -1    0    0    0  501 -0.00000000000E+00 -0.00000000000E+00 -0.36645485898E+02  0.36645485898E+02  0.00000000000E+00 0. -1.
          1    1    1    2  502    0  0.13225276672E+03 -0.23922862121E+02  0.16737008148E+03  0.21465284021E+03  0.00000000000E+00 0. -1.
         -1    1    1    2    0  501 -0.13225276672E+03  0.23922862121E+02  0.33425346162E+03  0.36026167468E+03  0.00000000000E+00 0.  1.
</event>
<event>
 4    1  0.6740123E+001  0.2347309E+02  0.7546771E-02  0.1486641E+00
          2   -1    0    0  502    0  0.00000000000E+00  0.00000000000E+00  0.11420932763E+04  0.11420932763E+04  0.00000000000E+00 0.  1.
         -2   -1    0    0    0  501 -0.00000000000E+00 -0.00000000000E+00 -0.59117890748E+00  0.59117890748E+00  0.00000000000E+00 0. -1.
          1    1    1    2  502    0 -0.48499305127E+01 -0.22966583967E+02  0.81579233512E+03  0.81612996505E+03  0.00000000000E+00 0.  1.
         -1    1    1    2    0  501  0.48499305127E+01  0.22966583967E+02  0.32570976223E+03  0.32655449012E+03  0.00000000000E+00 0. -1.
</event>
<event>
 4    1  0.6740123E+001  0.2556807E+02  0.7546771E-02  0.1462548E+00
          2   -1    0    0  502    0  0.00000000000E+00  0.00000000000E+00  0.20899737926E+04  0.20899737926E+04  0.00000000000E+00 0. -1.
         -2   -1    0    0    0  501 -0.00000000000E+00 -0.00000000000E+00 -0.37383604754E+00  0.37383604754E+00  0.00000000000E+00 0.  1.
          1    1    1    2  502    0  0.24225795572E+02 -0.81753928501E+01  0.14671485816E+04  0.14673713527E+04  0.00000000000E+00 0. -1.
         -1    1    1    2    0  501 -0.24225795572E+02  0.81753928501E+01  0.62245137498E+03  0.62297627598E+03  0.00000000000E+00 0.  1.
</event>
<event>
 4    1  0.6740123E+001  0.5351020E+02  0.7546771E-02  0.1283631E+00
          2   -1    0    0  502    0  0.00000000000E+00  0.00000000000E+00  0.34290082785E+03  0.34290082785E+03  0.00000000000E+00 0. -1.
         -2   -1    0    0    0  501 -0.00000000000E+00 -0.00000000000E+00 -0.92031612309E+01  0.92031612309E+01  0.00000000000E+00 0.  1.
          1    1    1    2  502    0 -0.32020366694E+02 -0.42872341920E+02  0.22044073210E+03  0.22684236367E+03  0.00000000000E+00 0. -1.
         -1    1    1    2    0  501  0.32020366694E+02  0.42872341920E+02  0.11325693452E+03  0.12526162542E+03  0.00000000000E+00 0.  1.
</event>
<event>
 4    1  0.6740123E+001  0.2344552E+02  0.7546771E-02  0.1486978E+00
          2   -1    0    0  502    0  0.00000000000E+00  0.00000000000E+00  0.16118758395E+02  0.16118758395E+02  0.00000000000E+00 0.  1.
         -2   -1    0    0    0  501 -0.00000000000E+00 -0.00000000000E+00 -0.50546706029E+02  0.50546706029E+02  0.00000000000E+00 0. -1.
          1    1    1    2  502    0  0.16661430735E+02 -0.16495129138E+02  0.17980700359E+01  0.23514370399E+02  0.00000000000E+00 0. -1.
         -1    1    1    2    0  501 -0.16661430735E+02  0.16495129138E+02 -0.36226017670E+02  0.43151094026E+02  0.00000000000E+00 0.  1.
</event>
<event>
 4    1  0.6740123E+001  0.9473604E+02  0.7546771E-02  0.1173256E+00
          2   -1    0    0  502    0  0.00000000000E+00  0.00000000000E+00  0.32971867860E+03  0.32971867860E+03  0.00000000000E+00 0.  1.
         -2   -1    0    0    0  501 -0.00000000000E+00 -0.00000000000E+00 -0.33599135320E+02  0.33599135320E+02  0.00000000000E+00 0. -1.
          1    1    1    2  502    0  0.94727784681E+02 -0.12509790797E+01  0.68905189308E+02  0.11714454000E+03  0.00000000000E+00 0. -1.
         -1    1    1    2    0  501 -0.94727784681E+02  0.12509790797E+01  0.22721435397E+03  0.24617327391E+03  0.00000000000E+00 0.  1.
</event>
<event>
 4    1  0.6740123E+001  0.2598452E+02  0.7546771E-02  0.1458084E+00
          2   -1    0    0  502    0  0.00000000000E+00  0.00000000000E+00  0.37787517003E+03  0.37787517003E+03  0.00000000000E+00 0.  1.
         -2   -1    0    0    0  501 -0.00000000000E+00 -0.00000000000E+00 -0.20167918835E+01  0.20167918835E+01  0.00000000000E+00 0. -1.
          1    1    1    2  502    0  0.24394551903E+02 -0.89499360584E+01  0.12378823414E+03  0.12648605626E+03  0.00000000000E+00 0. -1.
         -1    1    1    2    0  501 -0.24394551903E+02  0.89499360584E+01  0.25207014400E+03  0.25340590565E+03  0.00000000000E+00 0.  1.
</event>
<event>
 4    1  0.6740123E+001  0.4727736E+02  0.7546771E-02  0.1310429E+00
          2   -1    0    0  502    0  0.00000000000E+00  0.00000000000E+00  0.23454541631E+03  0.23454541631E+03  0.00000000000E+00 0.  1.
         -2   -1    0    0    0  501 -0.00000000000E+00 -0.00000000000E+00 -0.10840567824E+02  0.10840567824E+02  0.00000000000E+00 0. -1.
          1    1    1    2  502    0 -0.45897709308E+02  0.11337960000E+02  0.15451745488E+03  0.16158834401E+03  0.00000000000E+00 0.  1.
         -1    1    1    2    0  501  0.45897709308E+02 -0.11337960000E+02  0.69187393604E+02  0.83797640125E+02  0.00000000000E+00 0. -1.
</event>
<event>
 4    1  0.6740123E+001  0.4566895E+02  0.7546771E-02  0.1318128E+00
          2   -1    0    0  502    0  0.00000000000E+00  0.00000000000E+00  0.11943425936E+02  0.11943425936E+02  0.00000000000E+00 0.  1.
         -2   -1    0    0    0  501 -0.00000000000E+00 -0.00000000000E+00 -0.27731904977E+03  0.27731904977E+03  0.00000000000E+00 0. -1.
          1    1    1    2  502    0  0.40514713335E+02  0.21076311209E+02 -0.44676356634E+02  0.63887633646E+02  0.00000000000E+00 0.  1.
         -1    1    1    2    0  501 -0.40514713335E+02 -0.21076311209E+02 -0.22069926720E+03  0.22537484206E+03  0.00000000000E+00 0. -1.
</event>
<event>
 4    1  0.6740123E+001  0.4334800E+02  0.7546771E-02  0.1329910E+00
          2   -1    0    0  502    0  0.00000000000E+00  0.00000000000E+00  0.22576474489E+03  0.22576474489E+03  0.00000000000E+00 0. -1.
         -2   -1    0    0    0  501 -0.00000000000E+00 -0.00000000000E+00 -0.11573182906E+02  0.11573182906E+02  0.00000000000E+00 0.  1.
          1    1    1    2  502    0  0.38598371489E+02  0.19728521814E+02  0.16998294562E+03  0.17542306193E+03  0.00000000000E+00 0. -1.
         -1    1    1    2    0  501 -0.38598371489E+02 -0.19728521814E+02  0.44208616367E+02  0.61914865870E+02  0.00000000000E+00 0.  1.
</event>
<event>
 4    1  0.6740123E+001  0.3059439E+02  0.7546771E-02  0.1414500E+00
          2   -1    0    0  502    0  0.00000000000E+00  0.00000000000E+00  0.17059556416E+03  0.17059556416E+03  0.00000000000E+00 0. -1.
         -2   -1    0    0    0  501 -0.00000000000E+00 -0.00000000000E+00 -0.68863756527E+01  0.68863756527E+01  0.00000000000E+00 0.  1.
          1    1    1    2  502    0  0.30564214423E+01 -0.30441333908E+02  0.12186137179E+03  0.12564318707E+03  0.00000000000E+00 0. -1.
         -1    1    1    2    0  501 -0.30564214423E+01  0.30441333908E+02  0.41847816719E+02  0.51838752746E+02  0.00000000000E+00 0.  1.
</event>
<event>
 4    1  0.6740123E+001  0.4530083E+02  0.7546771E-02  0.1319942E+00
          2   -1    0    0  502    0  0.00000000000E+00  0.00000000000E+00  0.29051260686E+02  0.29051260686E+02  0.00000000000E+00 0.  1.
         -2   -1    0    0    0  501 -0.00000000000E+00 -0.00000000000E+00 -0.14104290682E+03  0.14104290682E+03  0.00000000000E+00 0. -1.
          1    1    1    2  502    0 -0.40393843894E+02 -0.20506166556E+02 -0.11608285460E+03  0.12460896686E+03  0.00000000000E+00 0. -1.
         -1    1    1    2    0  501  0.40393843894E+02  0.20506166556E+02  0.40912084573E+01  0.45485200648E+02  0.00000000000E+00 0.  1.
</event>
<event>
 4    1  0.6740123E+001  0.3069154E+02  0.7546771E-02  0.1413680E+00
          2   -1    0    0  502    0  0.00000000000E+00  0.00000000000E+00  0.16719326433E+04  0.16719326433E+04  0.00000000000E+00 0.  1.
         -2   -1    0    0    0  501 -0.00000000000E+00 -0.00000000000E+00 -0.58026865841E+00  0.58026865841E+00  0.00000000000E+00 0. -1.
          1    1    1    2  502    0  0.19584505019E+02  0.23630862044E+02  0.69310319175E+03  0.69378239015E+03  0.00000000000E+00 0. -1.
         -1    1    1    2    0  501 -0.19584505019E+02 -0.23630862044E+02  0.97824918286E+03  0.97873052177E+03  0.00000000000E+00 0.  1.
</event>
<event>
 4    1  0.6740123E+001  0.5618034E+02  0.7546771E-02  0.1273393E+00
          2   -1    0    0  502    0  0.00000000000E+00  0.00000000000E+00  0.52983104489E+03  0.52983104489E+03  0.00000000000E+00 0. -1.
         -2   -1    0    0    0  501 -0.00000000000E+00 -0.00000000000E+00 -0.22437169611E+02  0.22437169611E+02  0.00000000000E+00 0.  1.
          1    1    1    2  502    0 -0.48650610016E+02 -0.28095346959E+02  0.49035221209E+03  0.49356004931E+03  0.00000000000E+00 0. -1.
         -1    1    1    2    0  501  0.48650610016E+02  0.28095346959E+02  0.17041663189E+02  0.58708165190E+02  0.00000000000E+00 0.  1.
</event>
<event>
 4    1  0.6740123E+001  0.2232243E+02  0.7546771E-02  0.1501186E+00
          2   -1    0    0  502    0  0.00000000000E+00  0.00000000000E+00  0.45599677349E+03  0.45599677349E+03  0.00000000000E+00 0. -1.
         -2   -1    0    0    0  501 -0.00000000000E+00 -0.00000000000E+00 -0.12087720929E+01  0.12087720929E+01  0.00000000000E+00 0.  1.
          1    1    1    2  502    0  0.76714224653E+00  0.22309247818E+02  0.29821748430E+03  0.29905176640E+03  0.00000000000E+00 0. -1.
         -1    1    1    2    0  501 -0.76714224653E+00 -0.22309247818E+02  0.15657051709E+03  0.15815377918E+03  0.00000000000E+00 0.  1.
</event>
<event>
 4    1  0.6740123E+001  0.2261157E+02  0.7546771E-02  0.1497434E+00
          2   -1    0    0  502    0  0.00000000000E+00  0.00000000000E+00  0.37901122982E+02  0.37901122982E+02  0.00000000000E+00 0.  1.
         -2   -1    0    0    0  501 -0.00000000000E+00 -0.00000000000E+00 -0.18533945295E+02  0.18533945295E+02  0.00000000000E+00 0. -1.
          1    1    1    2  502    0 -0.17166866670E+02  0.14716720744E+02 -0.50369489365E+01  0.23165794511E+02  0.00000000000E+00 0. -1.
         -1    1    1    2    0  501  0.17166866670E+02 -0.14716720744E+02  0.24404126623E+02  0.33269273767E+02  0.00000000000E+00 0.  1.
</event>
<event>
 4    1  0.6740123E+001  0.2063977E+02  0.7546771E-02  0.1524471E+00
          2   -1    0    0  502    0  0.00000000000E+00  0.00000000000E+00  0.10931404930E+04  0.10931404930E+04  0.00000000000E+00 0.  1.
         -2   -1    0    0    0  501 -0.00000000000E+00 -0.00000000000E+00 -0.39159204920E+00  0.39159204920E+00  0.00000000000E+00 0. -1.
          1    1    1    2  502    0 -0.20532146216E+02 -0.21049837698E+01  0.58435151976E+03  0.58471591275E+03  0.00000000000E+00 0. -1.
         -1    1    1    2    0  501  0.20532146216E+02  0.21049837698E+01  0.50839738120E+03  0.50881617230E+03  0.00000000000E+00 0.  1.
</event>
<event>
 4    1  0.6740123E+001  0.2759036E+02  0.7546771E-02  0.1441766E+00
          2   -1    0    0  502    0  0.00000000000E+00  0.00000000000E+00  0.73662279101E+03  0.73662279101E+03  0.00000000000E+00 0.  1.
         -2   -1    0    0    0  501 -0.00000000000E+00 -0.00000000000E+00 -0.10704242534E+01  0.10704242534E+01  0.00000000000E+00 0. -1.
          1    1    1    2  502    0  0.64246159753E+01 -0.26831926316E+02  0.29918073357E+03  0.30045022766E+03  0.00000000000E+00 0.  1.
         -1    1    1    2    0  501 -0.64246159753E+01  0.26831926316E+02  0.43637163319E+03  0.43724298761E+03  0.00000000000E+00 0. -1.
</event>
<event>
 4    1  0.6740123E+001  0.2024050E+02  0.7546771E-02  0.1530390E+00
          2   -1    0    0  502    0  0.00000000000E+00  0.00000000000E+00  0.18851025924E+04  0.18851025924E+04  0.00000000000E+00 0. -1.
         -2   -1    0    0    0  501 -0.00000000000E+00 -0.00000000000E+00 -0.22943710759E+00  0.22943710759E+00  0.00000000000E+00 0.  1.
          1    1    1    2  502    0  0.12470334950E+02 -0.15942664053E+02  0.72583773255E+03  0.72611988802E+03  0.00000000000E+00 0.  1.
         -1    1    1    2    0  501 -0.12470334950E+02  0.15942664053E+02  0.11590354227E+04  0.11592121414E+04  0.00000000000E+00 0. -1.
</event>
<event>
 4    1  0.6740123E+001  0.2251816E+02  0.7546771E-02  0.1498639E+00
          2   -1    0    0  502    0  0.00000000000E+00  0.00000000000E+00  0.26195843315E+03  0.26195843315E+03  0.00000000000E+00 0. -1.
         -2   -1    0    0    0  501 -0.00000000000E+00 -0.00000000000E+00 -0.19486190826E+01  0.19486190826E+01  0.00000000000E+00 0.  1.
          1    1    1    2  502    0  0.15532921356E+02  0.16303251984E+02  0.11925236597E+03  0.12135977283E+03  0.00000000000E+00 0.  1.
         -1    1    1    2    0  501 -0.15532921356E+02 -0.16303251984E+02  0.14075744810E+03  0.14254727940E+03  0.00000000000E+00 0. -1.
</event>
<event>
 4    1  0.6740123E+001  0.4421221E+02  0.7546771E-02  0.1325426E+00
          2   -1    0    0  502    0  0.00000000000E+00  0.00000000000E+00  0.98012985291E+01  0.98012985291E+01  0.00000000000E+00 0.  1.
         -2   -1    0    0    0  501 -0.00000000000E+00 -0.00000000000E+00 -0.26315346655E+03  0.26315346655E+03  0.00000000000E+00 0. -1.
          1    1    1    2  502    0 -0.39445846202E+02 -0.19968595683E+02 -0.19383282632E+03  0.19881117714E+03  0.00000000000E+00 0. -1.
         -1    1    1    2    0  501  0.39445846202E+02  0.19968595683E+02 -0.59519341698E+02  0.74143587938E+02  0.00000000000E+00 0.  1.
</event>
<event>
 4    1  0.6740123E+001  0.2218522E+02  0.7546771E-02  0.1502991E+00
          2   -1    0    0  502    0  0.00000000000E+00  0.00000000000E+00  0.19427114334E+01  0.19427114334E+01  0.00000000000E+00 0.  1.
         -2   -1    0    0    0  501 -0.00000000000E+00 -0.00000000000E+00 -0.25951961450E+03  0.25951961450E+03  0.00000000000E+00 0. -1.
          1    1    1    2  502    0  0.17876236550E+02 -0.13138658473E+02 -0.14894680076E+03  0.15058995197E+03  0.00000000000E+00 0.  1.
         -1    1    1    2    0  501 -0.17876236550E+02  0.13138658473E+02 -0.10863010231E+03  0.11087237396E+03  0.00000000000E+00 0. -1.
</event>
<event>
 4    1  0.6740123E+001  0.3762117E+02  0.7546771E-02  0.1363019E+00
          2   -1    0    0  502    0  0.00000000000E+00  0.00000000000E+00  0.51534649823E+03  0.51534649823E+03  0.00000000000E+00 0. -1.
         -2   -1    0    0    0  501 -0.00000000000E+00 -0.00000000000E+00 -0.33753554589E+01  0.33753554589E+01  0.00000000000E+00 0.  1.
          1    1    1    2  502    0  0.37109406230E+02 -0.61842196056E+01  0.14402853314E+03  0.14886091147E+03  0.00000000000E+00 0.  1.
         -1    1    1    2    0  501 -0.37109406230E+02  0.61842196056E+01  0.36794260963E+03  0.36986094223E+03  0.00000000000E+00 0. -1.
</event>
<event>
 4    1  0.6740123E+001  0.2038521E+02  0.7546771E-02  0.1528226E+00
          2   -1    0    0  502    0  0.00000000000E+00  0.00000000000E+00  0.79139905504E+03  0.79139905504E+03  0.00000000000E+00 0. -1.
         -2   -1    0    0    0  501 -0.00000000000E+00 -0.00000000000E+00 -0.56059682097E+00  0.56059682097E+00  0.00000000000E+00 0.  1.
          1    1    1    2  502    0 -0.11968983371E+01 -0.20350046275E+02  0.29576534779E+03  0.29646702667E+03  0.00000000000E+00 0.  1.
         -1    1    1    2    0  501  0.11968983371E+01  0.20350046275E+02  0.49507311042E+03  0.49549262518E+03  0.00000000000E+00 0. -1.
</event>
<event>
 4    1  0.6740123E+001  0.2422471E+02  0.7546771E-02  0.1477666E+00
          2   -1    0    0  502    0  0.00000000000E+00  0.00000000000E+00  0.11349930095E+02  0.11349930095E+02  0.00000000000E+00 0. -1.
         -2   -1    0    0    0  501 -0.00000000000E+00 -0.00000000000E+00 -0.71661496983E+02  0.71661496983E+02  0.00000000000E+00 0.  1.
          1    1    1    2  502    0 -0.40233574670E+01  0.23888268665E+02 -0.52059508678E+02  0.57419763400E+02  0.00000000000E+00 0.  1.
         -1    1    1    2    0  501  0.40233574670E+01 -0.23888268665E+02 -0.82520582098E+01  0.25591663678E+02  0.00000000000E+00 0. -1.
</event>
<event>
 4    1  0.6740123E+001  0.4268244E+02  0.7546771E-02  0.1333445E+00
          2   -1    0    0  502    0  0.00000000000E+00  0.00000000000E+00  0.31383885066E+03  0.31383885066E+03  0.00000000000E+00 0. -1.
         -2   -1    0    0    0  501 -0.00000000000E+00 -0.00000000000E+00 -0.58205372759E+01  0.58205372759E+01  0.00000000000E+00 0.  1.
          1    1    1    2  502    0  0.23352045443E+02 -0.35727761299E+02  0.14571456140E+03  0.15183716396E+03  0.00000000000E+00 0. -1.
         -1    1    1    2    0  501 -0.23352045443E+02  0.35727761299E+02  0.16230375198E+03  0.16782222398E+03  0.00000000000E+00 0.  1.
</event>
<event>
 4    1  0.6740123E+001  0.2786442E+02  0.7546771E-02  0.1439113E+00
          2   -1    0    0  502    0  0.00000000000E+00  0.00000000000E+00  0.38925900206E+03  0.38925900206E+03  0.00000000000E+00 0.  1.
         -2   -1    0    0    0  501 -0.00000000000E+00 -0.00000000000E+00 -0.20591862935E+01  0.20591862935E+01  0.00000000000E+00 0. -1.
          1    1    1    2  502    0  0.13558178499E+02  0.24343413700E+02  0.22824455187E+03  0.22993912554E+03  0.00000000000E+00 0.  1.
         -1    1    1    2    0  501 -0.13558178499E+02 -0.24343413700E+02  0.15895526389E+03  0.16137906281E+03  0.00000000000E+00 0. -1.
</event>
<event>
 4    1  0.6740123E+001  0.2516539E+02  0.7546771E-02  0.1466962E+00
          2   -1    0    0  502    0  0.00000000000E+00  0.00000000000E+00  0.13121667326E+03  0.13121667326E+03  0.00000000000E+00 0. -1.
         -2   -1    0    0    0  501 -0.00000000000E+00 -0.00000000000E+00 -0.48283636124E+01  0.48283636124E+01  0.00000000000E+00 0.  1.
          1    1    1    2  502    0  0.14210276697E+02  0.20769323012E+02  0.61802802434E+02  0.66729926801E+02  0.00000000000E+00 0. -1.
         -1    1    1    2    0  501 -0.14210276697E+02 -0.20769323012E+02  0.64585507209E+02  0.69315110067E+02  0.00000000000E+00 0.  1.
</event>
<event>
 4    1  0.6740123E+001  0.2957011E+02  0.7546771E-02  0.1423369E+00
          2   -1    0    0  502    0  0.00000000000E+00  0.00000000000E+00  0.17629612318E+03  0.17629612318E+03  0.00000000000E+00 0.  1.
         -2   -1    0    0    0  501 -0.00000000000E+00 -0.00000000000E+00 -0.49874366069E+01  0.49874366069E+01  0.00000000000E+00 0. -1.
          1    1    1    2  502    0 -0.29484700476E+02 -0.22457911662E+01  0.92403317440E+02  0.97019401225E+02  0.00000000000E+00 0.  1.
         -1    1    1    2    0  501  0.29484700476E+02  0.22457911662E+01  0.78905369130E+02  0.84264158559E+02  0.00000000000E+00 0. -1.
</event>
<event>
 4    1  0.6740123E+001  0.2567387E+02  0.7546771E-02  0.1461404E+00
          2   -1    0    0  502    0  0.00000000000E+00  0.00000000000E+00  0.17524541405E+04  0.17524541405E+04  0.00000000000E+00 0.  1.
         -2   -1    0    0    0  501 -0.00000000000E+00 -0.00000000000E+00 -0.41497437365E+00  0.41497437365E+00  0.00000000000E+00 0. -1.
          1    1    1    2  502    0 -0.86968978550E+01  0.24155986385E+02  0.60786695623E+03  0.60840889555E+03  0.00000000000E+00 0. -1.
         -1    1    1    2    0  501  0.86968978550E+01 -0.24155986385E+02  0.11441722099E+04  0.11444602194E+04  0.00000000000E+00 0.  1.
</event>
<event>
 4    1  0.6740123E+001  0.2776499E+02  0.7546771E-02  0.1440071E+00
          2   -1    0    0  502    0  0.00000000000E+00  0.00000000000E+00  0.17020481207E+03  0.17020481207E+03  0.00000000000E+00 0.  1.
         -2   -1    0    0    0  501 -0.00000000000E+00 -0.00000000000E+00 -0.47597420506E+01  0.47597420506E+01  0.00000000000E+00 0. -1.
          1    1    1    2  502    0  0.68211610916E+01  0.26914051807E+02  0.63469995906E+02  0.69277231495E+02  0.00000000000E+00 0. -1.
         -1    1    1    2    0  501 -0.68211610916E+01 -0.26914051807E+02  0.10197507412E+03  0.10568732263E+03  0.00000000000E+00 0.  1.
</event>
<event>
 4    1  0.6740123E+001  0.2248976E+02  0.7546771E-02  0.1499007E+00
          2   -1    0    0  502    0  0.00000000000E+00  0.00000000000E+00  0.97672309518E+02  0.97672309518E+02  0.00000000000E+00 0. -1.
         -2   -1    0    0    0  501 -0.00000000000E+00 -0.00000000000E+00 -0.51847196811E+01  0.51847196811E+01  0.00000000000E+00 0.  1.
          1    1    1    2  502    0  0.15302957411E+02 -0.16480564162E+02  0.48034630268E+02  0.53038808486E+02  0.00000000000E+00 0.  1.
         -1    1    1    2    0  501 -0.15302957411E+02  0.16480564162E+02  0.44452959569E+02  0.49818220713E+02  0.00000000000E+00 0. -1.
</event>
<event>
 4    1  0.6740123E+001  0.2764473E+02  0.7546771E-02  0.1441237E+00
          2   -1    0    0  502    0  0.00000000000E+00  0.00000000000E+00  0.57932405044E+01  0.57932405044E+01  0.00000000000E+00 0. -1.
         -2   -1    0    0    0  501 -0.00000000000E+00 -0.00000000000E+00 -0.13355687506E+03  0.13355687506E+03  0.00000000000E+00 0.  1.
          1    1    1    2  502    0 -0.26775498807E+02 -0.68777684128E+01 -0.71600714155E+02  0.76752155033E+02  0.00000000000E+00 0.  1.
         -1    1    1    2    0  501  0.26775498807E+02  0.68777684128E+01 -0.56162920397E+02  0.62597960527E+02  0.00000000000E+00 0. -1.
</event>
<event>
 4    1  0.6740123E+001  0.3707122E+02  0.7546771E-02  0.1366559E+00
          2   -1    0    0  502    0  0.00000000000E+00  0.00000000000E+00  0.56897300568E+01  0.56897300568E+01  0.00000000000E+00 0. -1.
         -2   -1    0    0    0  501 -0.00000000000E+00 -0.00000000000E+00 -0.50245731595E+03  0.50245731595E+03  0.00000000000E+00 0.  1.
          1    1    1    2  502    0  0.36362311457E+02  0.72151054026E+01 -0.43147373424E+03  0.43306334269E+03  0.00000000000E+00 0.  1.
         -1    1    1    2    0  501 -0.36362311457E+02 -0.72151054026E+01 -0.65293851655E+02  0.75083703321E+02  0.00000000000E+00 0. -1.
</event>
<event>
 4    1  0.6740123E+001  0.2901632E+02  0.7546771E-02  0.1428341E+00
          2   -1    0    0  502    0  0.00000000000E+00  0.00000000000E+00  0.14512196014E+03  0.14512196014E+03  0.00000000000E+00 0.  1.
         -2   -1    0    0    0  501 -0.00000000000E+00 -0.00000000000E+00 -0.58540588440E+01  0.58540588440E+01  0.00000000000E+00 0. -1.
          1    1    1    2  502    0  0.27556754033E+02 -0.90869234051E+01  0.62491449785E+02  0.68899406137E+02  0.00000000000E+00 0. -1.
         -1    1    1    2    0  501 -0.27556754033E+02  0.90869234051E+01  0.76776451511E+02  0.82076612847E+02  0.00000000000E+00 0.  1.
</event>
<event>
 4    1  0.6740123E+001  0.3184643E+02  0.7546771E-02  0.1404202E+00
          2   -1    0    0  502    0  0.00000000000E+00  0.00000000000E+00  0.24587852617E+03  0.24587852617E+03  0.00000000000E+00 0.  1.
         -2   -1    0    0    0  501 -0.00000000000E+00 -0.00000000000E+00 -0.46880871894E+01  0.46880871894E+01  0.00000000000E+00 0. -1.
          1    1    1    2  502    0  0.29727498285E+02 -0.11422399184E+02  0.77167484077E+02  0.83480632222E+02  0.00000000000E+00 0. -1.
         -1    1    1    2    0  501 -0.29727498285E+02  0.11422399184E+02  0.16402295490E+03  0.16708598114E+03  0.00000000000E+00 0.  1.
</event>
<event>
 4    1  0.6740123E+001  0.3187109E+02  0.7546771E-02  0.1404005E+00
          2   -1    0    0  502    0  0.00000000000E+00  0.00000000000E+00  0.74709526001E+02  0.74709526001E+02  0.00000000000E+00 0. -1.
         -2   -1    0    0    0  501 -0.00000000000E+00 -0.00000000000E+00 -0.21912127912E+02  0.21912127912E+02  0.00000000000E+00 0.  1.
          1    1    1    2  502    0 -0.33923691848E+01  0.31690030567E+02  0.56160373407E+02  0.64573630433E+02  0.00000000000E+00 0. -1.
         -1    1    1    2    0  501  0.33923691848E+01 -0.31690030567E+02 -0.33629753180E+01  0.32048023481E+02  0.00000000000E+00 0.  1.
</event>
<event>
 4    1  0.6740123E+001  0.2269488E+02  0.7546771E-02  0.1496365E+00
          2   -1    0    0  502    0  0.00000000000E+00  0.00000000000E+00  0.17361136906E+03  0.17361136906E+03  0.00000000000E+00 0.  1.
         -2   -1    0    0    0  501 -0.00000000000E+00 -0.00000000000E+00 -0.31115471487E+01  0.31115471487E+01  0.00000000000E+00 0. -1.
          1    1    1    2  502    0  0.11992476126E+02  0.19267541339E+02  0.66187038619E+02  0.69969862899E+02  0.00000000000E+00 0. -1.
         -1    1    1    2    0  501 -0.11992476126E+02 -0.19267541339E+02  0.10431278329E+03  0.10675305331E+03  0.00000000000E+00 0.  1.
</event>
<event>
 4    1  0.6740123E+001  0.2703637E+02  0.7546771E-02  0.1447243E+00
          2   -1    0    0  502    0  0.00000000000E+00  0.00000000000E+00  0.14028999663E+02  0.14028999663E+02  0.00000000000E+00 0.  1.
         -2   -1    0    0    0  501 -0.00000000000E+00 -0.00000000000E+00 -0.12941109500E+03  0.12941109500E+03  0.00000000000E+00 0. -1.
          1    1    1    2  502    0 -0.15648144920E+02  0.22047691996E+02 -0.22584978188E+01  0.27130535825E+02  0.00000000000E+00 0.  1.
         -1    1    1    2    0  501  0.15648144920E+02 -0.22047691996E+02 -0.11312359752E+03  0.11630955884E+03  0.00000000000E+00 0. -1.
</event>
<event>
 4    1  0.6740123E+001  0.2815943E+02  0.7546771E-02  0.1436297E+00
          2   -1    0    0  502    0  0.00000000000E+00  0.00000000000E+00  0.63506204191E+03  0.63506204191E+03  0.00000000000E+00 0.  1.
         -2   -1    0    0    0  501 -0.00000000000E+00 -0.00000000000E+00 -0.12797493781E+01  0.12797493781E+01  0.00000000000E+00 0. -1.
          1    1    1    2  502    0  0.23927018563E+01  0.28057594644E+02  0.36651106492E+03  0.36759123268E+03  0.00000000000E+00 0.  1.
         -1    1    1    2    0  501 -0.23927018563E+01 -0.28057594644E+02  0.26727122762E+03  0.26875055861E+03  0.00000000000E+00 0. -1.
</event>
<event>
 4    1  0.6740123E+001  0.2611765E+02  0.7546771E-02  0.1456679E+00
          2   -1    0    0  502    0  0.00000000000E+00  0.00000000000E+00  0.40348838480E+03  0.40348838480E+03  0.00000000000E+00 0.  1.
         -2   -1    0    0    0  501 -0.00000000000E+00 -0.00000000000E+00 -0.17449451889E+01  0.17449451889E+01  0.00000000000E+00 0. -1.
          1    1    1    2  502    0  0.18867185970E+02 -0.18059925930E+02  0.23663378316E+03  0.23807074361E+03  0.00000000000E+00 0.  1.
         -1    1    1    2    0  501 -0.18867185970E+02  0.18059925930E+02  0.16510965645E+03  0.16716258638E+03  0.00000000000E+00 0. -1.
</event>
<event>
 4    1  0.6740123E+001  0.7722937E+02  0.7546771E-02  0.1210430E+00
          2   -1    0    0  502    0  0.00000000000E+00  0.00000000000E+00  0.14356296427E+04  0.14356296427E+04  0.00000000000E+00 0.  1.
         -2   -1    0    0    0  501 -0.00000000000E+00 -0.00000000000E+00 -0.41918795359E+01  0.41918795359E+01  0.00000000000E+00 0. -1.
          1    1    1    2  502    0 -0.54939295132E+02 -0.54277526455E+02  0.64777068125E+03  0.65235820798E+03  0.00000000000E+00 0. -1.
         -1    1    1    2    0  501  0.54939295132E+02  0.54277526455E+02  0.78366708188E+03  0.78746331422E+03  0.00000000000E+00 0.  1.
</event>
<event>
 4    1  0.6740123E+001  0.2432624E+02  0.7546771E-02  0.1476484E+00
          2   -1    0    0  502    0  0.00000000000E+00  0.00000000000E+00  0.43441139161E+03  0.43441139161E+03  0.00000000000E+00 0. -1.
         -2   -1    0    0    0  501 -0.00000000000E+00 -0.00000000000E+00 -0.13658894201E+01  0.13658894201E+01  0.00000000000E+00 0.  1.
          1    1    1    2  502    0  0.48966583281E+01  0.23828317014E+02  0.20523665981E+03  0.20667329892E+03  0.00000000000E+00 0.  1.
         -1    1    1    2    0  501 -0.48966583281E+01 -0.23828317014E+02  0.22780884238E+03  0.22910398211E+03  0.00000000000E+00 0. -1.
</event>
<event>
 4    1  0.6740123E+001  0.2912913E+02  0.7546771E-02  0.1427318E+00
          2   -1    0    0  502    0  0.00000000000E+00  0.00000000000E+00  0.15030120467E+04  0.15030120467E+04  0.00000000000E+00 0. -1.
         -2   -1    0    0    0  501 -0.00000000000E+00 -0.00000000000E+00 -0.94215232783E+00  0.94215232783E+00  0.00000000000E+00 0.  1.
          1    1    1    2  502    0  0.52297157806E+01  0.28655824074E+02  0.27496720342E+03  0.27650582117E+03  0.00000000000E+00 0.  1.
         -1    1    1    2    0  501 -0.52297157806E+01 -0.28655824074E+02  0.12271026910E+04  0.12274483779E+04  0.00000000000E+00 0. -1.
</event>
<event>
 4    1  0.6740123E+001  0.3505502E+02  0.7546771E-02  0.1380177E+00
          2   -1    0    0  502    0  0.00000000000E+00  0.00000000000E+00  0.11436032614E+04  0.11436032614E+04  0.00000000000E+00 0.  1.
         -2   -1    0    0    0  501 -0.00000000000E+00 -0.00000000000E+00 -0.36195621685E+01  0.36195621685E+01  0.00000000000E+00 0. -1.
          1    1    1    2  502    0  0.12775292347E+02  0.32644240128E+02  0.89002986458E+02  0.95657650539E+02  0.00000000000E+00 0. -1.
         -1    1    1    2    0  501 -0.12775292347E+02 -0.32644240128E+02  0.10509807128E+04  0.10515651730E+04  0.00000000000E+00 0.  1.
</event>
<event>
 4    1  0.6740123E+001  0.2056317E+02  0.7546771E-02  0.1525594E+00
          2   -1    0    0  502    0  0.00000000000E+00  0.00000000000E+00  0.14635638992E+04  0.14635638992E+04  0.00000000000E+00 0.  1.
         -2   -1    0    0    0  501 -0.00000000000E+00 -0.00000000000E+00 -0.59892361932E+00  0.59892361932E+00  0.00000000000E+00 0. -1.
          1    1    1    2  502    0  0.16805189425E+01  0.20494384203E+02  0.12581800727E+04  0.12583480994E+04  0.00000000000E+00 0.  1.
         -1    1    1    2    0  501 -0.16805189425E+01 -0.20494384203E+02  0.20478490291E+03  0.20581472344E+03  0.00000000000E+00 0. -1.
</event>
<event>
 4    1  0.6740123E+001  0.2263089E+02  0.7546771E-02  0.1497186E+00
          2   -1    0    0  502    0  0.00000000000E+00  0.00000000000E+00  0.65314983124E+03  0.65314983124E+03  0.00000000000E+00 0.  1.
         -2   -1    0    0    0  501 -0.00000000000E+00 -0.00000000000E+00 -0.20551573657E+01  0.20551573657E+01  0.00000000000E+00 0. -1.
          1    1    1    2  502    0  0.21271839338E+02 -0.77243670055E+01  0.67914376033E+02  0.71585749045E+02  0.00000000000E+00 0. -1.
         -1    1    1    2    0  501 -0.21271839338E+02  0.77243670055E+01  0.58318029784E+03  0.58361923956E+03  0.00000000000E+00 0.  1.
</event>
<event>
 4    1  0.6740123E+001  0.3326020E+02  0.7546771E-02  0.1393225E+00
          2   -1    0    0  502    0  0.00000000000E+00  0.00000000000E+00  0.13106721989E+03  0.13106721989E+03  0.00000000000E+00 0.  1.
         -2   -1    0    0    0  501 -0.00000000000E+00 -0.00000000000E+00 -0.85155102612E+01  0.85155102612E+01  0.00000000000E+00 0. -1.
          1    1    1    2  502    0 -0.31092568126E+02  0.11810714127E+02  0.54714935067E+02  0.64030968135E+02  0.00000000000E+00 0. -1.
         -1    1    1    2    0  501  0.31092568126E+02 -0.11810714127E+02  0.67836774560E+02  0.75551762015E+02  0.00000000000E+00 0.  1.
</event>
<event>
 4    1  0.6740123E+001  0.2198635E+02  0.7546771E-02  0.1505634E+00
          2   -1    0    0  502    0  0.00000000000E+00  0.00000000000E+00  0.28397689892E+03  0.28397689892E+03  0.00000000000E+00 0.  1.
         -2   -1    0    0    0  501 -0.00000000000E+00 -0.00000000000E+00 -0.18527284637E+01  0.18527284637E+01  0.00000000000E+00 0. -1.
          1    1    1    2  502    0  0.21043748043E+02 -0.63686975148E+01  0.10033261884E+03  0.10271335864E+03  0.00000000000E+00 0. -1.
         -1    1    1    2    0  501 -0.21043748043E+02  0.63686975148E+01  0.18179155161E+03  0.18311626874E+03  0.00000000000E+00 0.  1.
</event>
<event>
 4    1  0.6740123E+001  0.2022990E+02  0.7546771E-02  0.1530550E+00
          2   -1    0    0  502    0  0.00000000000E+00  0.00000000000E+00  0.93877976230E+03  0.93877976230E+03  0.00000000000E+00 0.  1.
         -2   -1    0    0    0  501 -0.00000000000E+00 -0.00000000000E+00 -0.52330044201E+00  0.52330044201E+00  0.00000000000E+00 0. -1.
          1    1    1    2  502    0 -0.10130551669E+02  0.17510590865E+02  0.27723265430E+03  0.27796977080E+03  0.00000000000E+00 0. -1.
         -1    1    1    2    0  501  0.10130551669E+02 -0.17510590865E+02  0.66102380756E+03  0.66133329194E+03  0.00000000000E+00 0.  1.
</event>
<event>
 4    1  0.6740123E+001  0.3971260E+02  0.7546771E-02  0.1350178E+00
          2   -1    0    0  502    0  0.00000000000E+00  0.00000000000E+00  0.21617502442E+03  0.21617502442E+03  0.00000000000E+00 0.  1.
         -2   -1    0    0    0  501 -0.00000000000E+00 -0.00000000000E+00 -0.84891980227E+01  0.84891980227E+01  0.00000000000E+00 0. -1.
          1    1    1    2  502    0 -0.19004258661E+02 -0.34870169674E+02  0.14596693881E+03  0.15127272657E+03  0.00000000000E+00 0.  1.
         -1    1    1    2    0  501  0.19004258661E+02  0.34870169674E+02  0.61718887585E+02  0.73391495864E+02  0.00000000000E+00 0. -1.
</event>
<event>
 4    1  0.6740123E+001  0.2654908E+02  0.7546771E-02  0.1452191E+00
          2   -1    0    0  502    0  0.00000000000E+00  0.00000000000E+00  0.22008896172E+03  0.22008896172E+03  0.00000000000E+00 0. -1.
         -2   -1    0    0    0  501 -0.00000000000E+00 -0.00000000000E+00 -0.32749994518E+01  0.32749994518E+01  0.00000000000E+00 0.  1.
          1    1    1    2  502    0  0.15036669223E+02 -0.21880409311E+02  0.12501387483E+03  0.12780188822E+03  0.00000000000E+00 0. -1.
         -1    1    1    2    0  501 -0.15036669223E+02  0.21880409311E+02  0.91800087437E+02  0.95562072949E+02  0.00000000000E+00 0.  1.
</event>
<event>
 4    1  0.6740123E+001  0.3194158E+02  0.7546771E-02  0.1403442E+00
          2   -1    0    0  502    0  0.00000000000E+00  0.00000000000E+00  0.21909900397E+04  0.21909900397E+04  0.00000000000E+00 0.  1.
         -2   -1    0    0    0  501 -0.00000000000E+00 -0.00000000000E+00 -0.46616185666E+00  0.46616185666E+00  0.00000000000E+00 0. -1.
          1    1    1    2  502    0  0.19274113424E+02  0.25471022157E+02  0.10594407989E+04  0.10599222004E+04  0.00000000000E+00 0.  1.
         -1    1    1    2    0  501 -0.19274113424E+02 -0.25471022157E+02  0.11310830790E+04  0.11315340012E+04  0.00000000000E+00 0. -1.
</event>
<event>
 4    1  0.6740123E+001  0.4210658E+02  0.7546771E-02  0.1336565E+00
          2   -1    0    0  502    0  0.00000000000E+00  0.00000000000E+00  0.94907464338E+02  0.94907464338E+02  0.00000000000E+00 0.  1.
         -2   -1    0    0    0  501 -0.00000000000E+00 -0.00000000000E+00 -0.18807448594E+02  0.18807448594E+02  0.00000000000E+00 0. -1.
          1    1    1    2  502    0  0.35823313182E+02 -0.22128137924E+02  0.33387525212E+02  0.53737241231E+02  0.00000000000E+00 0. -1.
         -1    1    1    2    0  501 -0.35823313182E+02  0.22128137924E+02  0.42712490532E+02  0.59977671702E+02  0.00000000000E+00 0.  1.
</event>
<event>
 4    1  0.6740123E+001  0.2194816E+02  0.7546771E-02  0.1506146E+00
          2   -1    0    0  502    0  0.00000000000E+00  0.00000000000E+00  0.36142237898E+02  0.36142237898E+02  0.00000000000E+00 0. -1.
         -2   -1    0    0    0  501 -0.00000000000E+00 -0.00000000000E+00 -0.20973440160E+02  0.20973440160E+02  0.00000000000E+00 0.  1.
          1    1    1    2  502    0  0.19522347790E+02 -0.10029938364E+02  0.24826001132E+02  0.33136868576E+02  0.00000000000E+00 0. -1.
         -1    1    1    2    0  501 -0.19522347790E+02  0.10029938364E+02 -0.96572033932E+01  0.23978809483E+02  0.00000000000E+00 0.  1.
</event>
<event>
 4    1  0.6740123E+001  0.2587089E+02  0.7546771E-02  0.1459292E+00
          2   -1    0    0  502    0  0.00000000000E+00  0.00000000000E+00  0.78681028575E+03  0.78681028575E+03  0.00000000000E+00 0.  1.
         -2   -1    0    0    0  501 -0.00000000000E+00 -0.00000000000E+00 -0.10203565253E+01  0.10203565253E+01  0.00000000000E+00 0. -1.
          1    1    1    2  502    0  0.14128460466E+02 -0.21672326501E+02  0.23224843272E+03  0.23368491101E+03  0.00000000000E+00 0. -1.
         -1    1    1    2    0  501 -0.14128460466E+02  0.21672326501E+02  0.55354149650E+03  0.55414573127E+03  0.00000000000E+00 0.  1.
</event>
<event>
 4    1  0.6740123E+001  0.2557264E+02  0.7546771E-02  0.1462498E+00
          2   -1    0    0  502    0  0.00000000000E+00  0.00000000000E+00  0.13741555140E+04  0.13741555140E+04  0.00000000000E+00 0. -1.
         -2   -1    0    0    0  501 -0.00000000000E+00 -0.00000000000E+00 -0.47873280693E+00  0.47873280693E+00  0.00000000000E+00 0.  1.
          1    1    1    2  502    0 -0.23862541761E+02  0.91945035094E+01  0.73971511150E+03  0.74015701440E+03  0.00000000000E+00 0. -1.
         -1    1    1    2    0  501  0.23862541761E+02 -0.91945035094E+01  0.63396166966E+03  0.63447723237E+03  0.00000000000E+00 0.  1.
</event>
<event>
 4    1  0.6740123E+001  0.2454406E+02  0.7546771E-02  0.1473969E+00
          2   -1    0    0  502    0  0.00000000000E+00  0.00000000000E+00  0.46338107310E+01  0.46338107310E+01  0.00000000000E+00 0.  1.
         -2   -1    0    0    0  501 -0.00000000000E+00 -0.00000000000E+00 -0.13011457629E+03  0.13011457629E+03  0.00000000000E+00 0. -1.
          1    1    1    2  502    0  0.16963394937E+02  0.17738495457E+02 -0.64710103248E+02  0.69208442051E+02  0.00000000000E+00 0.  1.
         -1    1    1    2    0  501 -0.16963394937E+02 -0.17738495457E+02 -0.60770662307E+02  0.65539944966E+02  0.00000000000E+00 0. -1.
</event>
<event>
 4    1  0.6740123E+001  0.2052779E+02  0.7546771E-02  0.1526115E+00
          2   -1    0    0  502    0  0.00000000000E+00  0.00000000000E+00  0.78010454329E+03  0.78010454329E+03  0.00000000000E+00 0.  1.
         -2   -1    0    0    0  501 -0.00000000000E+00 -0.00000000000E+00 -0.57260976203E+00  0.57260976203E+00  0.00000000000E+00 0. -1.
          1    1    1    2  502    0  0.13121391519E+02 -0.15786680334E+02  0.48267144379E+03  0.48310776525E+03  0.00000000000E+00 0.  1.
         -1    1    1    2    0  501 -0.13121391519E+02  0.15786680334E+02  0.29686048974E+03  0.29756938781E+03  0.00000000000E+00 0. -1.
</event>
<event>
 4    1  0.6740123E+001  0.2756131E+02  0.7546771E-02  0.1442050E+00
          2   -1    0    0  502    0  0.00000000000E+00  0.00000000000E+00  0.11020995547E+04  0.11020995547E+04  0.00000000000E+00 0. -1.
         -2   -1    0    0    0  501 -0.00000000000E+00 -0.00000000000E+00 -0.75366896932E+00  0.75366896932E+00  0.00000000000E+00 0.  1.
          1    1    1    2  502    0  0.16189219379E+02  0.22305491786E+02  0.38946253924E+03  0.39043654447E+03  0.00000000000E+00 0.  1.
         -1    1    1    2    0  501 -0.16189219379E+02 -0.22305491786E+02  0.71188334653E+03  0.71241667924E+03  0.00000000000E+00 0. -1.
</event>
<event>
 4    1  0.6740123E+001  0.2114377E+02  0.7546771E-02  0.1517222E+00
          2   -1    0    0  502    0  0.00000000000E+00  0.00000000000E+00  0.62958939229E+01  0.62958939229E+01  0.00000000000E+00 0.  1.
         -2   -1    0    0    0  501 -0.00000000000E+00 -0.00000000000E+00 -0.74946861765E+02  0.74946861765E+02  0.00000000000E+00 0. -1.
          1    1    1    2  502    0  0.60475224322E+01 -0.20260461032E+02 -0.43637924808E+02  0.48490486597E+02  0.00000000000E+00 0. -1.
         -1    1    1    2    0  501 -0.60475224322E+01  0.20260461032E+02 -0.25013043034E+02  0.32752269091E+02  0.00000000000E+00 0.  1.
</event>
<event>
 4    1  0.6740123E+001  0.2672802E+02  0.7546771E-02  0.1450360E+00
          2   -1    0    0  502    0  0.00000000000E+00  0.00000000000E+00  0.10878484212E+01  0.10878484212E+01  0.00000000000E+00 0.  1.
         -2   -1    0    0    0  501 -0.00000000000E+00 -0.00000000000E+00 -0.65866321752E+03  0.65866321752E+03  0.00000000000E+00 0. -1.
          1    1    1    2  502    0 -0.45251476056E+01 -0.26342170600E+02 -0.34681048138E+03  0.34783889504E+03  0.00000000000E+00 0.  1.
         -1    1    1    2    0  501  0.45251476056E+01  0.26342170600E+02 -0.31076488772E+03  0.31191217090E+03  0.00000000000E+00 0. -1.
</event>
<event>
 4    1  0.6740123E+001  0.4856102E+02  0.7546771E-02  0.1304535E+00
          2   -1    0    0  502    0  0.00000000000E+00  0.00000000000E+00  0.11566375420E+02  0.11566375420E+02  0.00000000000E+00 0.  1.
         -2   -1    0    0    0  501 -0.00000000000E+00 -0.00000000000E+00 -0.21421186063E+03  0.21421186063E+03  0.00000000000E+00 0. -1.
          1    1    1    2  502    0  0.35900419369E+02 -0.32700650292E+02 -0.12611312421E+03  0.13513953063E+03  0.00000000000E+00 0. -1.
         -1    1    1    2    0  501 -0.35900419369E+02  0.32700650292E+02 -0.76532360999E+02  0.90638705422E+02  0.00000000000E+00 0.  1.
</event>
<event>
 4    1  0.6740123E+001  0.3095930E+02  0.7546771E-02  0.1411439E+00
          2   -1    0    0  502    0  0.00000000000E+00  0.00000000000E+00  0.14694745083E+03  0.14694745083E+03  0.00000000000E+00 0. -1.
         -2   -1    0    0    0  501 -0.00000000000E+00 -0.00000000000E+00 -0.67320646823E+01  0.67320646823E+01  0.00000000000E+00 0.  1.
          1    1    1    2  502    0  0.30430134831E+02  0.56995914737E+01  0.56553481433E+02  0.64473054147E+02  0.00000000000E+00 0.  1.
         -1    1    1    2    0  501 -0.30430134831E+02 -0.56995914737E+01  0.83661904711E+02  0.89206461361E+02  0.00000000000E+00 0. -1.
</event>
<event>
 4    1  0.6740123E+001  0.3112357E+02  0.7546771E-02  0.1410077E+00
          2   -1    0    0  502    0  0.00000000000E+00  0.00000000000E+00  0.33125967178E+01  0.33125967178E+01  0.00000000000E+00 0.  1.
         -2   -1    0    0    0  501 -0.00000000000E+00 -0.00000000000E+00 -0.30454355716E+03  0.30454355716E+03  0.00000000000E+00 0. -1.
          1    1    1    2  502    0 -0.21024326884E+02  0.22948952778E+02 -0.18132472338E+03  0.18397644432E+03  0.00000000000E+00 0. -1.
         -1    1    1    2    0  501  0.21024326884E+02 -0.22948952778E+02 -0.11990623706E+03  0.12387970956E+03  0.00000000000E+00 0.  1.
</event>
<event>
 4    1  0.6740123E+001  0.4212755E+02  0.7546771E-02  0.1336450E+00
          2   -1    0    0  502    0  0.00000000000E+00  0.00000000000E+00  0.13311890773E+04  0.13311890773E+04  0.00000000000E+00 0.  1.
         -2   -1    0    0    0  501 -0.00000000000E+00 -0.00000000000E+00 -0.13423569779E+01  0.13423569779E+01  0.00000000000E+00 0. -1.
          1    1    1    2  502    0  0.41938451102E+02 -0.39870371736E+01  0.71997721660E+03  0.72120865397E+03  0.00000000000E+00 0. -1.
         -1    1    1    2    0  501 -0.41938451102E+02  0.39870371736E+01  0.60986950375E+03  0.61132278033E+03  0.00000000000E+00 0.  1.
</event>
<event>
 4    1  0.6740123E+001  0.5317229E+02  0.7546771E-02  0.1284975E+00
          2   -1    0    0  502    0  0.00000000000E+00  0.00000000000E+00  0.84491751669E+03  0.84491751669E+03  0.00000000000E+00 0.  1.
         -2   -1    0    0    0  501 -0.00000000000E+00 -0.00000000000E+00 -0.37417869741E+01  0.37417869741E+01  0.00000000000E+00 0. -1.
          1    1    1    2  502    0  0.44043688906E+02 -0.29790029383E+02  0.55855185581E+03  0.56107706067E+03  0.00000000000E+00 0. -1.
         -1    1    1    2    0  501 -0.44043688906E+02  0.29790029383E+02  0.28262387391E+03  0.28758224299E+03  0.00000000000E+00 0.  1.
</event>
<event>
 4    1  0.6740123E+001  0.2620620E+02  0.7546771E-02  0.1455749E+00
          2   -1    0    0  502    0  0.00000000000E+00  0.00000000000E+00  0.33144629046E+01  0.33144629046E+01  0.00000000000E+00 0. -1.
         -2   -1    0    0    0  501 -0.00000000000E+00 -0.00000000000E+00 -0.41391210196E+03  0.41391210196E+03  0.00000000000E+00 0.  1.
          1    1    1    2  502    0 -0.12036503701E+02 -0.23278481298E+02 -0.35272281725E+03  0.35369499703E+03  0.00000000000E+00 0.  1.
         -1    1    1    2    0  501  0.12036503701E+02  0.23278481298E+02 -0.57874821802E+02  0.63531567835E+02  0.00000000000E+00 0. -1.
</event>
<event>
 4    1  0.6740123E+001  0.8407919E+02  0.7546771E-02  0.1194681E+00
          2   -1    0    0  502    0  0.00000000000E+00  0.00000000000E+00  0.29484920275E+04  0.29484920275E+04  0.00000000000E+00 0. -1.
         -2   -1    0    0    0  501 -0.00000000000E+00 -0.00000000000E+00 -0.26383252797E+01  0.26383252797E+01  0.00000000000E+00 0.  1.
          1    1    1    2  502    0 -0.29792798790E+02 -0.78623779873E+02  0.10272156930E+04  0.10306509543E+04  0.00000000000E+00 0.  1.
         -1    1    1    2    0  501  0.29792798790E+02  0.78623779873E+02  0.19186380093E+04  0.19204793986E+04  0.00000000000E+00 0. -1.
</event>
<event>
 4    1  0.6740123E+001  0.2425626E+02  0.7546771E-02  0.1477298E+00
          2   -1    0    0  502    0  0.00000000000E+00  0.00000000000E+00  0.40200661049E+02  0.40200661049E+02  0.00000000000E+00 0.  1.
         -2   -1    0    0    0  501 -0.00000000000E+00 -0.00000000000E+00 -0.32865534087E+02  0.32865534087E+02  0.00000000000E+00 0. -1.
          1    1    1    2  502    0  0.10095873634E+02  0.22055377711E+02 -0.23541090188E+02  0.33801616494E+02  0.00000000000E+00 0. -1.
         -1    1    1    2    0  501 -0.10095873634E+02 -0.22055377711E+02  0.30876217149E+02  0.39264578641E+02  0.00000000000E+00 0.  1.
</event>
<event>
 4    1  0.6740123E+001  0.2854318E+02  0.7546771E-02  0.1432693E+00
          2   -1    0    0  502    0  0.00000000000E+00  0.00000000000E+00  0.11505489661E+03  0.11505489661E+03  0.00000000000E+00 0. -1.
         -2   -1    0    0    0  501 -0.00000000000E+00 -0.00000000000E+00 -0.86593029139E+01  0.86593029139E+01  0.00000000000E+00 0.  1.
          1    1    1    2  502    0 -0.26233739409E+02 -0.11247405823E+02  0.79605577779E+02  0.84568086384E+02  0.00000000000E+00 0. -1.
         -1    1    1    2    0  501  0.26233739409E+02  0.11247405823E+02  0.26790015917E+02  0.39146113140E+02  0.00000000000E+00 0.  1.
</event>
<event>
 4    1  0.6740123E+001  0.2057068E+02  0.7546771E-02  0.1525483E+00
          2   -1    0    0  502    0  0.00000000000E+00  0.00000000000E+00  0.86235256435E+01  0.86235256435E+01  0.00000000000E+00 0.  1.
         -2   -1    0    0    0  501 -0.00000000000E+00 -0.00000000000E+00 -0.81659919078E+02  0.81659919078E+02  0.00000000000E+00 0. -1.
          1    1    1    2  502    0 -0.64616548697E+01  0.19529466887E+02 -0.65036118702E+02  0.68211801005E+02  0.00000000000E+00 0. -1.
         -1    1    1    2    0  501  0.64616548697E+01 -0.19529466887E+02 -0.80002747330E+01  0.22071643717E+02  0.00000000000E+00 0.  1.
</event>
<event>
 4    1  0.6740123E+001  0.2401830E+02  0.7546771E-02  0.1480092E+00
          2   -1    0    0  502    0  0.00000000000E+00  0.00000000000E+00  0.95158899150E+01  0.95158899150E+01  0.00000000000E+00 0.  1.
         -2   -1    0    0    0  501 -0.00000000000E+00 -0.00000000000E+00 -0.67863017386E+02  0.67863017386E+02  0.00000000000E+00 0. -1.
          1    1    1    2  502    0 -0.59795972344E+01 -0.23262050987E+02 -0.41810910104E+02  0.48218573215E+02  0.00000000000E+00 0.  1.
         -1    1    1    2    0  501  0.59795972344E+01  0.23262050987E+02 -0.16536217367E+02  0.29160334086E+02  0.00000000000E+00 0. -1.
</event>
<event>
 4    1  0.6740123E+001  0.2228789E+02  0.7546771E-02  0.1501639E+00
          2   -1    0    0  502    0  0.00000000000E+00  0.00000000000E+00  0.13824628048E+03  0.13824628048E+03  0.00000000000E+00 0. -1.
         -2   -1    0    0    0  501 -0.00000000000E+00 -0.00000000000E+00 -0.73811199518E+01  0.73811199518E+01  0.00000000000E+00 0.  1.
          1    1    1    2  502    0  0.18716669439E+01 -0.22209157940E+02  0.11759419155E+03  0.11968769243E+03  0.00000000000E+00 0. -1.
         -1    1    1    2    0  501 -0.18716669439E+01  0.22209157940E+02  0.13270968982E+02  0.25939708003E+02  0.00000000000E+00 0.  1.
</event>
<event>
 4    1  0.6740123E+001  0.2049475E+02  0.7546771E-02  0.1526602E+00
          2   -1    0    0  502    0  0.00000000000E+00  0.00000000000E+00  0.58700560100E+03  0.58700560100E+03  0.00000000000E+00 0. -1.
         -2   -1    0    0    0  501 -0.00000000000E+00 -0.00000000000E+00 -0.71560088604E+00  0.71560088604E+00  0.00000000000E+00 0.  1.
          1    1    1    2  502    0  0.65201671617E+01 -0.19429927095E+02  0.29550450532E+03  0.29621436041E+03  0.00000000000E+00 0. -1.
         -1    1    1    2    0  501 -0.65201671617E+01  0.19429927095E+02  0.29078549479E+03  0.29150684148E+03  0.00000000000E+00 0.  1.
</event>
<event>
 4    1  0.6740123E+001  0.6014078E+02  0.7546771E-02  0.1259355E+00
          2   -1    0    0  502    0  0.00000000000E+00  0.00000000000E+00  0.18909046293E+04  0.18909046293E+04  0.00000000000E+00 0.  1.
         -2   -1    0    0    0  501 -0.00000000000E+00 -0.00000000000E+00 -0.39834107508E+01  0.39834107508E+01  0.00000000000E+00 0. -1.
          1    1    1    2  502    0  0.35701475830E+02  0.48397497619E+02  0.26037402300E+03  0.26722938649E+03  0.00000000000E+00 0. -1.
         -1    1    1    2    0  501 -0.35701475830E+02 -0.48397497619E+02  0.16265471956E+04  0.16276586536E+04  0.00000000000E+00 0.  1.
</event>
<event>
 4    1  0.6740123E+001  0.3266165E+02  0.7546771E-02  0.1397792E+00
          2   -1    0    0  502    0  0.00000000000E+00  0.00000000000E+00  0.62989820174E+03  0.62989820174E+03  0.00000000000E+00 0. -1.
         -2   -1    0    0    0  501 -0.00000000000E+00 -0.00000000000E+00 -0.26360417611E+01  0.26360417611E+01  0.00000000000E+00 0.  1.
          1    1    1    2  502    0  0.16881064562E+02  0.27960917033E+02  0.12452317220E+03  0.12873540165E+03  0.00000000000E+00 0.  1.
         -1    1    1    2    0  501 -0.16881064562E+02 -0.27960917033E+02  0.50273898778E+03  0.50379884186E+03  0.00000000000E+00 0. -1.
</event>
<event>
 4    1  0.6740123E+001  0.2320644E+02  0.7546771E-02  0.1489922E+00
          2   -1    0    0  502    0  0.00000000000E+00  0.00000000000E+00  0.16787561565E+04  0.16787561565E+04  0.00000000000E+00 0.  1.
         -2   -1    0    0    0  501 -0.00000000000E+00 -0.00000000000E+00 -0.52522951029E+00  0.52522951029E+00  0.00000000000E+00 0. -1.
          1    1    1    2  502    0 -0.69478319457E+00  0.23196039222E+02  0.31528045517E+03  0.31613336485E+03  0.00000000000E+00 0. -1.
         -1    1    1    2    0  501  0.69478319457E+00 -0.23196039222E+02  0.13629504718E+04  0.13631480211E+04  0.00000000000E+00 0.  1.
</event>
<event>
 4    1  0.6740123E+001  0.2177677E+02  0.7546771E-02  0.1508457E+00
          2   -1    0    0  502    0  0.00000000000E+00  0.00000000000E+00  0.25397670779E+02  0.25397670779E+02  0.00000000000E+00 0.  1.
         -2   -1    0    0    0  501 -0.00000000000E+00 -0.00000000000E+00 -0.20946108925E+02  0.20946108925E+02  0.00000000000E+00 0. -1.
          1    1    1    2  502    0 -0.19138027892E+02  0.10390543886E+02 -0.54091852520E+01  0.22438511513E+02  0.00000000000E+00 0. -1.
         -1    1    1    2    0  501  0.19138027892E+02 -0.10390543886E+02  0.98607471058E+01  0.23905268191E+02  0.00000000000E+00 0.  1.
</event>
<event>
 4    1  0.6740123E+001  0.2180315E+02  0.7546771E-02  0.1508100E+00
          2   -1    0    0  502    0  0.00000000000E+00  0.00000000000E+00  0.62686715772E+03  0.62686715772E+03  0.00000000000E+00 0. -1.
         -2   -1    0    0    0  501 -0.00000000000E+00 -0.00000000000E+00 -0.81258370696E+00  0.81258370696E+00  0.00000000000E+00 0.  1.
          1    1    1    2  502    0  0.10826827956E+01 -0.21776248621E+02  0.39411529358E+03  0.39471792693E+03  0.00000000000E+00 0.  1.
         -1    1    1    2    0  501 -0.10826827956E+01  0.21776248621E+02  0.23193928043E+03  0.23296181449E+03  0.00000000000E+00 0. -1.
</event>
<event>
 4    1  0.6740123E+001  0.2155553E+02  0.7546771E-02  0.1511479E+00
          2   -1    0    0  502    0  0.00000000000E+00  0.00000000000E+00  0.52914867034E+03  0.52914867034E+03  0.00000000000E+00 0.  1.
         -2   -1    0    0    0  501 -0.00000000000E+00 -0.00000000000E+00 -0.90824650822E+00  0.90824650822E+00  0.00000000000E+00 0. -1.
          1    1    1    2  502    0 -0.77524931684E+01  0.20113177553E+02  0.21582891776E+03  0.21690265743E+03  0.00000000000E+00 0.  1.
         -1    1    1    2    0  501  0.77524931684E+01 -0.20113177553E+02  0.31241150607E+03  0.31315425941E+03  0.00000000000E+00 0. -1.
</event>
<event>
 4    1  0.6740123E+001  0.2123131E+02  0.7546771E-02  0.1515988E+00
          2   -1    0    0  502    0  0.00000000000E+00  0.00000000000E+00  0.21337122249E+01  0.21337122249E+01  0.00000000000E+00 0. -1.
         -2   -1    0    0    0  501 -0.00000000000E+00 -0.00000000000E+00 -0.21363612241E+03  0.21363612241E+03  0.00000000000E+00 0.  1.
          1    1    1    2  502    0 -0.87523867869E+01  0.19343329996E+02 -0.94374142157E+02  0.96732866171E+02  0.00000000000E+00 0.  1.
         -1    1    1    2    0  501  0.87523867869E+01 -0.19343329996E+02 -0.11712826803E+03  0.11903696846E+03  0.00000000000E+00 0. -1.
</event>
<event>
 4    1  0.6740123E+001  0.2250645E+02  0.7546771E-02  0.1498790E+00
          2   -1    0    0  502    0  0.00000000000E+00  0.00000000000E+00  0.40620275526E+01  0.40620275526E+01  0.00000000000E+00 0.  1.
         -2   -1    0    0    0  501 -0.00000000000E+00 -0.00000000000E+00 -0.12589355232E+03  0.12589355232E+03  0.00000000000E+00 0. -1.
          1    1    1    2  502    0 -0.19461856389E+02 -0.11303826891E+02 -0.54592568229E+02  0.59049884525E+02  0.00000000000E+00 0.  1.
         -1    1    1    2    0  501  0.19461856389E+02  0.11303826891E+02 -0.67238956537E+02  0.70905695347E+02  0.00000000000E+00 0. -1.
</event>
<event>
 4    1  0.6740123E+001  0.2439884E+02  0.7546771E-02  0.1475642E+00
          2   -1    0    0  502    0  0.00000000000E+00  0.00000000000E+00  0.25075349774E+01  0.25075349774E+01  0.00000000000E+00 0. -1.
         -2   -1    0    0    0  501 -0.00000000000E+00 -0.00000000000E+00 -0.24560549098E+03  0.24560549098E+03  0.00000000000E+00 0.  1.
          1    1    1    2  502    0 -0.23811613276E+02 -0.53207576037E+01 -0.98881727509E+02  0.10184743209E+03  0.00000000000E+00 0.  1.
         -1    1    1    2    0  501  0.23811613276E+02  0.53207576037E+01 -0.14421622849E+03  0.14626559386E+03  0.00000000000E+00 0. -1.
</event>
<event>
 4    1  0.6740123E+001  0.3096327E+02  0.7546771E-02  0.1411406E+00
          2   -1    0    0  502    0  0.00000000000E+00  0.00000000000E+00  0.64355677517E+03  0.64355677517E+03  0.00000000000E+00 0. -1.
         -2   -1    0    0    0  501 -0.00000000000E+00 -0.00000000000E+00 -0.25092112368E+01  0.25092112368E+01  0.00000000000E+00 0.  1.
          1    1    1    2  502    0 -0.11148894003E+02 -0.28886434944E+02  0.52642954793E+03  0.52733935269E+03  0.00000000000E+00 0. -1.
         -1    1    1    2    0  501  0.11148894003E+02  0.28886434944E+02  0.11461801600E+03  0.11872663372E+03  0.00000000000E+00 0.  1.
</event>
<event>
 4    1  0.6740123E+001  0.4496358E+02  0.7546771E-02  0.1321622E+00
          2   -1    0    0  502    0  0.00000000000E+00  0.00000000000E+00  0.20769626041E+03  0.20769626041E+03  0.00000000000E+00 0. -1.
         -2   -1    0    0    0  501 -0.00000000000E+00 -0.00000000000E+00 -0.97345804968E+01  0.97345804968E+01  0.00000000000E+00 0.  1.
          1    1    1    2  502    0 -0.92801884036E+01  0.43995477845E+02  0.98171699921E+02  0.10797873232E+03  0.00000000000E+00 0. -1.
         -1    1    1    2    0  501  0.92801884036E+01 -0.43995477845E+02  0.99789979988E+02  0.10945210858E+03  0.00000000000E+00 0.  1.
</event>
<event>
 4    1  0.6740123E+001  0.2530088E+02  0.7546771E-02  0.1465465E+00
          2   -1    0    0  502    0  0.00000000000E+00  0.00000000000E+00  0.54230716587E+01  0.54230716587E+01  0.00000000000E+00 0.  1.
         -2   -1    0    0    0  501 -0.00000000000E+00 -0.00000000000E+00 -0.11900549122E+03  0.11900549122E+03  0.00000000000E+00 0. -1.
          1    1    1    2  502    0 -0.12529361899E+02  0.21980666831E+02 -0.62397529375E+02  0.67331911424E+02  0.00000000000E+00 0.  1.
         -1    1    1    2    0  501  0.12529361899E+02 -0.21980666831E+02 -0.51184890184E+02  0.57096651452E+02  0.00000000000E+00 0. -1.
</event>
<event>
 4    1  0.6740123E+001  0.4631593E+02  0.7546771E-02  0.1314987E+00
          2   -1    0    0  502    0  0.00000000000E+00  0.00000000000E+00  0.24742341853E+02  0.24742341853E+02  0.00000000000E+00 0. -1.
         -2   -1    0    0    0  501 -0.00000000000E+00 -0.00000000000E+00 -0.88247250154E+02  0.88247250154E+02  0.00000000000E+00 0.  1.
          1    1    1    2  502    0  0.16926776459E+02 -0.43112062800E+02 -0.39232625818E+02  0.60698967444E+02  0.00000000000E+00 0.  1.
         -1    1    1    2    0  501 -0.16926776459E+02  0.43112062800E+02 -0.24272282483E+02  0.52290624563E+02  0.00000000000E+00 0. -1.
</event>
<event>
 4    1  0.6740123E+001  0.2288962E+02  0.7546771E-02  0.1493889E+00
          2   -1    0    0  502    0  0.00000000000E+00  0.00000000000E+00  0.46243052709E+03  0.46243052709E+03  0.00000000000E+00 0.  1.
         -2   -1    0    0    0  501 -0.00000000000E+00 -0.00000000000E+00 -0.11766168963E+01  0.11766168963E+01  0.00000000000E+00 0. -1.
          1    1    1    2  502    0 -0.64332351671E+01 -0.21966975819E+02  0.27525643685E+03  0.27620651797E+03  0.00000000000E+00 0.  1.
         -1    1    1    2    0  501  0.64332351671E+01  0.21966975819E+02  0.18599747334E+03  0.18740062601E+03  0.00000000000E+00 0. -1.
</event>
<event>
 4    1  0.6740123E+001  0.2139383E+02  0.7546771E-02  0.1513716E+00
          2   -1    0    0  502    0  0.00000000000E+00  0.00000000000E+00  0.70930223575E+03  0.70930223575E+03  0.00000000000E+00 0.  1.
         -2   -1    0    0    0  501 -0.00000000000E+00 -0.00000000000E+00 -0.74634412528E+00  0.74634412528E+00  0.00000000000E+00 0. -1.
          1    1    1    2  502    0 -0.55307038961E+01 -0.20666573910E+02  0.48492356331E+03  0.48539525978E+03  0.00000000000E+00 0. -1.
         -1    1    1    2    0  501  0.55307038961E+01  0.20666573910E+02  0.22363232832E+03  0.22465332010E+03  0.00000000000E+00 0.  1.
</event>
<event>
 4    1  0.6740123E+001  0.3235459E+02  0.7546771E-02  0.1400180E+00
          2   -1    0    0  502    0  0.00000000000E+00  0.00000000000E+00  0.26458907033E+04  0.26458907033E+04  0.00000000000E+00 0. -1.
         -2   -1    0    0    0  501 -0.00000000000E+00 -0.00000000000E+00 -0.39911421072E+00  0.39911421072E+00  0.00000000000E+00 0.  1.
          1    1    1    2  502    0  0.32208294212E+02 -0.30733297950E+01  0.14461988020E+04  0.14465606777E+04  0.00000000000E+00 0.  1.
         -1    1    1    2    0  501 -0.32208294212E+02  0.30733297950E+01  0.11992927871E+04  0.11997291398E+04  0.00000000000E+00 0. -1.
</event>
<event>
 4    1  0.6740123E+001  0.2852984E+02  0.7546771E-02  0.1432818E+00
          2   -1    0    0  502    0  0.00000000000E+00  0.00000000000E+00  0.10305144852E+03  0.10305144852E+03  0.00000000000E+00 0.  1.
         -2   -1    0    0    0  501 -0.00000000000E+00 -0.00000000000E+00 -0.79345608635E+01  0.79345608635E+01  0.00000000000E+00 0. -1.
          1    1    1    2  502    0 -0.52107570600E+01 -0.28049952658E+02  0.51299521907E+02  0.58699171895E+02  0.00000000000E+00 0.  1.
         -1    1    1    2    0  501  0.52107570600E+01  0.28049952658E+02  0.43817365745E+02  0.52286837484E+02  0.00000000000E+00 0. -1.
</event>
<event>
 4    1  0.6740123E+001  0.3104978E+02  0.7546771E-02  0.1410688E+00
          2   -1    0    0  502    0  0.00000000000E+00  0.00000000000E+00  0.20741926088E+04  0.20741926088E+04  0.00000000000E+00 0. -1.
         -2   -1    0    0    0  501 -0.00000000000E+00 -0.00000000000E+00 -0.46516249766E+00  0.46516249766E+00  0.00000000000E+00 0.  1.
          1    1    1    2  502    0 -0.24485166148E+02 -0.19093598618E+02  0.10657416733E+04  0.10661938863E+04  0.00000000000E+00 0. -1.
         -1    1    1    2    0  501  0.24485166148E+02  0.19093598618E+02  0.10079857730E+04  0.10084638850E+04  0.00000000000E+00 0.  1.
</event>
<event>
 4    1  0.6740123E+001  0.6136687E+02  0.7546771E-02  0.1255258E+00
          2   -1    0    0  502    0  0.00000000000E+00  0.00000000000E+00  0.10902913878E+04  0.10902913878E+04  0.00000000000E+00 0.  1.
         -2   -1    0    0    0  501 -0.00000000000E+00 -0.00000000000E+00 -0.35622846587E+01  0.35622846587E+01  0.00000000000E+00 0. -1.
          1    1    1    2  502    0  0.58029544639E+02  0.19961569361E+02  0.63871019229E+03  0.64165146461E+03  0.00000000000E+00 0. -1.
         -1    1    1    2    0  501 -0.58029544639E+02 -0.19961569361E+02  0.44801891089E+03  0.45220220789E+03  0.00000000000E+00 0.  1.
</event>
<event>
 4    1  0.6740123E+001  0.2527899E+02  0.7546771E-02  0.1465706E+00
          2   -1    0    0  502    0  0.00000000000E+00  0.00000000000E+00  0.19132742690E+03  0.19132742690E+03  0.00000000000E+00 0. -1.
         -2   -1    0    0    0  501 -0.00000000000E+00 -0.00000000000E+00 -0.35460445215E+01  0.35460445215E+01  0.00000000000E+00 0.  1.
          1    1    1    2  502    0  0.18387832180E+02  0.17346893788E+02  0.11737982614E+03  0.12007102349E+03  0.00000000000E+00 0. -1.
         -1    1    1    2    0  501 -0.18387832180E+02 -0.17346893788E+02  0.70401556244E+02  0.74802447941E+02  0.00000000000E+00 0.  1.
</event>
<event>
 4    1  0.6740123E+001  0.3024585E+02  0.7546771E-02  0.1417472E+00
          2   -1    0    0  502    0  0.00000000000E+00  0.00000000000E+00  0.20334941146E+04  0.20334941146E+04  0.00000000000E+00 0.  1.
         -2   -1    0    0    0  501 -0.00000000000E+00 -0.00000000000E+00 -0.65000511095E+00  0.65000511095E+00  0.00000000000E+00 0. -1.
          1    1    1    2  502    0 -0.59001881995E+01 -0.29664781832E+02  0.45206610059E+03  0.45307678246E+03  0.00000000000E+00 0. -1.
         -1    1    1    2    0  501  0.59001881995E+01  0.29664781832E+02  0.15807780089E+04  0.15810673373E+04  0.00000000000E+00 0.  1.
</event>
<event>
 4    1  0.6740123E+001  0.2089948E+02  0.7546771E-02  0.1520705E+00
          2   -1    0    0  502    0  0.00000000000E+00  0.00000000000E+00  0.11625922559E+04  0.11625922559E+04  0.00000000000E+00 0.  1.
         -2   -1    0    0    0  501 -0.00000000000E+00 -0.00000000000E+00 -0.48513475989E+00  0.48513475989E+00  0.00000000000E+00 0. -1.
          1    1    1    2  502    0  0.19590368179E+02  0.72804973077E+01  0.30485512414E+03  0.30557067084E+03  0.00000000000E+00 0. -1.
         -1    1    1    2    0  501 -0.19590368179E+02 -0.72804973077E+01  0.85725199704E+03  0.85750671985E+03  0.00000000000E+00 0.  1.
</event>
<event>
 4    1  0.6740123E+001  0.2539187E+02  0.7546771E-02  0.1464467E+00
          2   -1    0    0  502    0  0.00000000000E+00  0.00000000000E+00  0.91414355822E+03  0.91414355822E+03  0.00000000000E+00 0.  1.
         -2   -1    0    0    0  501 -0.00000000000E+00 -0.00000000000E+00 -0.12563505113E+01  0.12563505113E+01  0.00000000000E+00 0. -1.
          1    1    1    2  502    0 -0.23878150595E+02  0.86360406140E+01  0.15331956543E+03  0.15540796767E+03  0.00000000000E+00 0. -1.
         -1    1    1    2    0  501  0.23878150595E+02 -0.86360406140E+01  0.75956764228E+03  0.75999194106E+03  0.00000000000E+00 0.  1.
</event>
<event>
 4    1  0.6740123E+001  0.2132476E+02  0.7546771E-02  0.1514678E+00
          2   -1    0    0  502    0  0.00000000000E+00  0.00000000000E+00  0.80111339453E+01  0.80111339453E+01  0.00000000000E+00 0. -1.
         -2   -1    0    0    0  501 -0.00000000000E+00 -0.00000000000E+00 -0.56768578660E+02  0.56768578660E+02  0.00000000000E+00 0.  1.
          1    1    1    2  502    0 -0.21317571642E+02  0.55359352319E+00 -0.24664330482E+02  0.32604823641E+02  0.00000000000E+00 0. -1.
         -1    1    1    2    0  501  0.21317571642E+02 -0.55359352319E+00 -0.24093114233E+02  0.32174888965E+02  0.00000000000E+00 0.  1.
</event>
<event>
 4    1  0.6740123E+001  0.3475904E+02  0.7546771E-02  0.1382265E+00
          2   -1    0    0  502    0  0.00000000000E+00  0.00000000000E+00  0.61510104085E+03  0.61510104085E+03  0.00000000000E+00 0.  1.
         -2   -1    0    0    0  501 -0.00000000000E+00 -0.00000000000E+00 -0.21583908345E+01  0.21583908345E+01  0.00000000000E+00 0. -1.
          1    1    1    2  502    0  0.15378310153E+00  0.34758704643E+02  0.39904113318E+03  0.40055214039E+03  0.00000000000E+00 0.  1.
         -1    1    1    2    0  501 -0.15378310153E+00 -0.34758704643E+02  0.21390151684E+03  0.21670729130E+03  0.00000000000E+00 0. -1.
</event>
<event>
 4    1  0.6740123E+001  0.2292361E+02  0.7546771E-02  0.1493460E+00
          2   -1    0    0  502    0  0.00000000000E+00  0.00000000000E+00  0.57371172942E+03  0.57371172942E+03  0.00000000000E+00 0.  1.
         -2   -1    0    0    0  501 -0.00000000000E+00 -0.00000000000E+00 -0.14024106025E+01  0.14024106025E+01  0.00000000000E+00 0. -1.
          1    1    1    2  502    0  0.90951028651E+01  0.21042127077E+02  0.11679510197E+03  0.11902347605E+03  0.00000000000E+00 0. -1.
         -1    1    1    2    0  501 -0.90951028651E+01 -0.21042127077E+02  0.45551421686E+03  0.45609066398E+03  0.00000000000E+00 0.  1.
</event>
<event>
 4    1  0.6740123E+001  0.2398331E+02  0.7546771E-02  0.1480507E+00
          2   -1    0    0  502    0  0.00000000000E+00  0.00000000000E+00  0.63950616852E+01  0.63950616852E+01  0.00000000000E+00 0. -1.
         -2   -1    0    0    0  501 -0.00000000000E+00 -0.00000000000E+00 -0.12674361779E+03  0.12674361779E+03  0.00000000000E+00 0.  1.
          1    1    1    2  502    0 -0.22146621541E+02  0.92046808313E+01 -0.24304275457E+02  0.34145231005E+02  0.00000000000E+00 0. -1.
         -1    1    1    2    0  501  0.22146621541E+02 -0.92046808313E+01 -0.96044280643E+02  0.98993448466E+02  0.00000000000E+00 0.  1.
</event>
<event>
 4    1  0.6740123E+001  0.2455511E+02  0.7546771E-02  0.1473842E+00
          2   -1    0    0  502    0  0.00000000000E+00  0.00000000000E+00  0.48033271606E+01  0.48033271606E+01  0.00000000000E+00 0.  1.
         -2   -1    0    0    0  501 -0.00000000000E+00 -0.00000000000E+00 -0.14829543435E+03  0.14829543435E+03  0.00000000000E+00 0. -1.
          1    1    1    2  502    0 -0.20903290794E+02  0.12884319207E+02 -0.41752186413E+02  0.48437571344E+02  0.00000000000E+00 0. -1.
         -1    1    1    2    0  501  0.20903290794E+02 -0.12884319207E+02 -0.10173992078E+03  0.10466119017E+03  0.00000000000E+00 0.  1.
</event>
<event>
 4    1  0.6740123E+001  0.2041246E+02  0.7546771E-02  0.1527821E+00
          2   -1    0    0  502    0  0.00000000000E+00  0.00000000000E+00  0.74523688705E+02  0.74523688705E+02  0.00000000000E+00 0.  1.
         -2   -1    0    0    0  501 -0.00000000000E+00 -0.00000000000E+00 -0.55970866673E+01  0.55970866673E+01  0.00000000000E+00 0. -1.
          1    1    1    2  502    0  0.63410474623E+01  0.19402564289E+02  0.33151648802E+02  0.38931994583E+02  0.00000000000E+00 0.  1.
         -1    1    1    2    0  501 -0.63410474623E+01 -0.19402564289E+02  0.35774953236E+02  0.41188780790E+02  0.00000000000E+00 0. -1.
</event>
<event>
 4    1  0.6740123E+001  0.3041477E+02  0.7546771E-02  0.1416026E+00
          2   -1    0    0  502    0  0.00000000000E+00  0.00000000000E+00  0.19029003515E+02  0.19029003515E+02  0.00000000000E+00 0. -1.
         -2   -1    0    0    0  501 -0.00000000000E+00 -0.00000000000E+00 -0.51559001250E+02  0.51559001250E+02  0.00000000000E+00 0.  1.
          1    1    1    2  502    0 -0.88640386854E+00  0.30401849481E+02 -0.78285356671E+01  0.31406116194E+02  0.00000000000E+00 0. -1.
         -1    1    1    2    0  501  0.88640386854E+00 -0.30401849481E+02 -0.24701462068E+02  0.39181888571E+02  0.00000000000E+00 0.  1.
</event>
<event>
 4    1  0.6740123E+001  0.2067770E+02  0.7546771E-02  0.1523917E+00
          2   -1    0    0  502    0  0.00000000000E+00  0.00000000000E+00  0.89150626920E+01  0.89150626920E+01  0.00000000000E+00 0.  1.
         -2   -1    0    0    0  501 -0.00000000000E+00 -0.00000000000E+00 -0.51516176221E+02  0.51516176221E+02  0.00000000000E+00 0. -1.
          1    1    1    2  502    0 -0.20495029073E+02  0.27424581033E+01 -0.13361932316E+02  0.24619271484E+02  0.00000000000E+00 0.  1.
         -1    1    1    2    0  501  0.20495029073E+02 -0.27424581033E+01 -0.29239181213E+02  0.35811967430E+02  0.00000000000E+00 0. -1.
</event>
<event>
 4    1  0.6740123E+001  0.3583869E+02  0.7546771E-02  0.1374761E+00
          2   -1    0    0  502    0  0.00000000000E+00  0.00000000000E+00  0.64150345013E+02  0.64150345013E+02  0.00000000000E+00 0.  1.
         -2   -1    0    0    0  501 -0.00000000000E+00 -0.00000000000E+00 -0.44346544428E+02  0.44346544428E+02  0.00000000000E+00 0. -1.
          1    1    1    2  502    0 -0.71688659254E+01 -0.35114374006E+02 -0.30275389243E+02  0.46914934662E+02  0.00000000000E+00 0. -1.
         -1    1    1    2    0  501  0.71688659254E+01  0.35114374006E+02  0.50079189829E+02  0.61581954779E+02  0.00000000000E+00 0.  1.
</event>
<event>
 4    1  0.6740123E+001  0.2998281E+02  0.7546771E-02  0.1419746E+00
          2   -1    0    0  502    0  0.00000000000E+00  0.00000000000E+00  0.14944066202E+04  0.14944066202E+04  0.00000000000E+00 0.  1.
         -2   -1    0    0    0  501 -0.00000000000E+00 -0.00000000000E+00 -0.11376683043E+01  0.11376683043E+01  0.00000000000E+00 0. -1.
          1    1    1    2  502    0 -0.10597988761E+02  0.28047310095E+02  0.23331301436E+03  0.23523165527E+03  0.00000000000E+00 0. -1.
         -1    1    1    2    0  501  0.10597988761E+02 -0.28047310095E+02  0.12599559376E+04  0.12603126333E+04  0.00000000000E+00 0.  1.
</event>
<event>
 4    1  0.6740123E+001  0.2286674E+02  0.7546771E-02  0.1494178E+00
          2   -1    0    0  502    0  0.00000000000E+00  0.00000000000E+00  0.43348645788E+02  0.43348645788E+02  0.00000000000E+00 0. -1.
         -2   -1    0    0    0  501 -0.00000000000E+00 -0.00000000000E+00 -0.12367859857E+02  0.12367859857E+02  0.00000000000E+00 0.  1.
          1    1    1    2  502    0 -0.20754331670E+02 -0.95992510616E+01  0.11112180795E+02  0.25423777572E+02  0.00000000000E+00 0. -1.
         -1    1    1    2    0  501  0.20754331670E+02  0.95992510616E+01  0.19868605136E+02  0.30292728072E+02  0.00000000000E+00 0.  1.
</event>
<event>
 4    1  0.6740123E+001  0.3303517E+02  0.7546771E-02  0.1394929E+00
          2   -1    0    0  502    0  0.00000000000E+00  0.00000000000E+00  0.24488474670E+04  0.24488474670E+04  0.00000000000E+00 0. -1.
         -2   -1    0    0    0  501 -0.00000000000E+00 -0.00000000000E+00 -0.44606429221E+00  0.44606429221E+00  0.00000000000E+00 0.  1.
          1    1    1    2  502    0  0.25840382114E+02 -0.20581473225E+02  0.12616418577E+04  0.12620742845E+04  0.00000000000E+00 0.  1.
         -1    1    1    2    0  501 -0.25840382114E+02  0.20581473225E+02  0.11867595450E+04  0.11872192468E+04  0.00000000000E+00 0. -1.
</event>
<event>
 4    1  0.6740123E+001  0.2907158E+02  0.7546771E-02  0.1427840E+00
          2   -1    0    0  502    0  0.00000000000E+00  0.00000000000E+00  0.55662954108E+03  0.55662954108E+03  0.00000000000E+00 0. -1.
         -2   -1    0    0    0  501 -0.00000000000E+00 -0.00000000000E+00 -0.18497038454E+01  0.18497038454E+01  0.00000000000E+00 0.  1.
          1    1    1    2  502    0 -0.67200899292E+01 -0.28284215990E+02  0.39557816316E+03  0.39664497936E+03  0.00000000000E+00 0. -1.
         -1    1    1    2    0  501  0.67200899292E+01  0.28284215990E+02  0.15920167407E+03  0.16183426556E+03  0.00000000000E+00 0.  1.
</event>
<event>
 4    1  0.6740123E+001  0.3492046E+02  0.7546771E-02  0.1381123E+00
          2   -1    0    0  502    0  0.00000000000E+00  0.00000000000E+00  0.15048662006E+01  0.15048662006E+01  0.00000000000E+00 0. -1.
         -2   -1    0    0    0  501 -0.00000000000E+00 -0.00000000000E+00 -0.84628898536E+03  0.84628898536E+03  0.00000000000E+00 0.  1.
          1    1    1    2  502    0  0.62881961866E+01  0.34349632293E+02 -0.50977022968E+03  0.51096489676E+03  0.00000000000E+00 0. -1.
         -1    1    1    2    0  501 -0.62881961866E+01 -0.34349632293E+02 -0.33501388947E+03  0.33682895480E+03  0.00000000000E+00 0.  1.
</event>
<event>
 4    1  0.6740123E+001  0.2751705E+02  0.7546771E-02  0.1442482E+00
          2   -1    0    0  502    0  0.00000000000E+00  0.00000000000E+00  0.65090039975E+03  0.65090039975E+03  0.00000000000E+00 0. -1.
         -2   -1    0    0    0  501 -0.00000000000E+00 -0.00000000000E+00 -0.11659393685E+01  0.11659393685E+01  0.00000000000E+00 0.  1.
          1    1    1    2  502    0 -0.24623363285E+02  0.12283249927E+02  0.30933612435E+03  0.31055760508E+03  0.00000000000E+00 0.  1.
         -1    1    1    2    0  501  0.24623363285E+02 -0.12283249927E+02  0.34039833603E+03  0.34150873403E+03  0.00000000000E+00 0. -1.
</event>
<event>
 4    1  0.6740123E+001  0.2337390E+02  0.7546771E-02  0.1487856E+00
          2   -1    0    0  502    0  0.00000000000E+00  0.00000000000E+00  0.25063634754E+03  0.25063634754E+03  0.00000000000E+00 0. -1.
         -2   -1    0    0    0  501 -0.00000000000E+00 -0.00000000000E+00 -0.22203697873E+01  0.22203697873E+01  0.00000000000E+00 0.  1.
          1    1    1    2  502    0 -0.21994864068E+02  0.79098130433E+01  0.14129589473E+03  0.14321616199E+03  0.00000000000E+00 0. -1.
         -1    1    1    2    0  501  0.21994864068E+02 -0.79098130433E+01  0.10712008302E+03  0.10964055533E+03  0.00000000000E+00 0.  1.
</event>
<event>
 4    1  0.6740123E+001  0.5497064E+02  0.7546771E-02  0.1277950E+00
          2   -1    0    0  502    0  0.00000000000E+00  0.00000000000E+00  0.42786274620E+02  0.42786274620E+02  0.00000000000E+00 0. -1.
         -2   -1    0    0    0  501 -0.00000000000E+00 -0.00000000000E+00 -0.72194688921E+02  0.72194688921E+02  0.00000000000E+00 0.  1.
          1    1    1    2  502    0 -0.51207164024E+02  0.19989926055E+02 -0.62264303672E+01  0.55322140470E+02  0.00000000000E+00 0.  1.
         -1    1    1    2    0  501  0.51207164024E+02 -0.19989926055E+02 -0.23181983934E+02  0.59658823071E+02  0.00000000000E+00 0. -1.
</event>
<event>
 4    1  0.6740123E+001  0.2317149E+02  0.7546771E-02  0.1490356E+00
          2   -1    0    0  502    0  0.00000000000E+00  0.00000000000E+00  0.11127930048E+04  0.11127930048E+04  0.00000000000E+00 0. -1.
         -2   -1    0    0    0  501 -0.00000000000E+00 -0.00000000000E+00 -0.66424357008E+00  0.66424357008E+00  0.00000000000E+00 0.  1.
          1    1    1    2  502    0 -0.60590453094E+01  0.22365287469E+02  0.84727971694E+03  0.84759650592E+03  0.00000000000E+00 0. -1.
         -1    1    1    2    0  501  0.60590453094E+01 -0.22365287469E+02  0.26484904428E+03  0.26586074243E+03  0.00000000000E+00 0.  1.
</event>
<event>
 4    1  0.6740123E+001  0.2705848E+02  0.7546771E-02  0.1447022E+00
          2   -1    0    0  502    0  0.00000000000E+00  0.00000000000E+00  0.11729683586E+03  0.11729683586E+03  0.00000000000E+00 0. -1.
         -2   -1    0    0    0  501 -0.00000000000E+00 -0.00000000000E+00 -0.62442585244E+01  0.62442585244E+01  0.00000000000E+00 0.  1.
          1    1    1    2  502    0  0.69820459898E+01 -0.26142154255E+02  0.54339046750E+02  0.60703321137E+02  0.00000000000E+00 0.  1.
         -1    1    1    2    0  501 -0.69820459898E+01  0.26142154255E+02  0.56713530583E+02  0.62837773245E+02  0.00000000000E+00 0. -1.
</event>
<event>
 4    1  0.6740123E+001  0.2892349E+02  0.7546771E-02  0.1429188E+00
          2   -1    0    0  502    0  0.00000000000E+00  0.00000000000E+00  0.11791461942E+02  0.11791461942E+02  0.00000000000E+00 0.  1.
         -2   -1    0    0    0  501 -0.00000000000E+00 -0.00000000000E+00 -0.10959229265E+03  0.10959229265E+03  0.00000000000E+00 0. -1.
          1    1    1    2  502    0  0.14386406380E+02  0.25091823035E+02 -0.12860053655E+02  0.31653581973E+02  0.00000000000E+00 0.  1.
         -1    1    1    2    0  501 -0.14386406380E+02 -0.25091823035E+02 -0.84940777050E+02  0.89730172616E+02  0.00000000000E+00 0. -1.
</event>
<event>
 4    1  0.6740123E+001  0.2172069E+02  0.7546771E-02  0.1509219E+00
          2   -1    0    0  502    0  0.00000000000E+00  0.00000000000E+00  0.62674050605E+02  0.62674050605E+02  0.00000000000E+00 0.  1.
         -2   -1    0    0    0  501 -0.00000000000E+00 -0.00000000000E+00 -0.21265593466E+02  0.21265593466E+02  0.00000000000E+00 0. -1.
          1    1    1    2  502    0  0.19875760681E+02  0.87602744793E+01  0.54437561138E+02  0.58610889213E+02  0.00000000000E+00 0.  1.
         -1    1    1    2    0  501 -0.19875760681E+02 -0.87602744793E+01 -0.13029104000E+02  0.25328754858E+02  0.00000000000E+00 0. -1.
</event>
<event>
 4    1  0.6740123E+001  0.2708046E+02  0.7546771E-02  0.1446802E+00
          2   -1    0    0  502    0  0.00000000000E+00  0.00000000000E+00  0.86456324168E+03  0.86456324168E+03  0.00000000000E+00 0. -1.
         -2   -1    0    0    0  501 -0.00000000000E+00 -0.00000000000E+00 -0.90963945716E+00  0.90963945716E+00  0.00000000000E+00 0.  1.
          1    1    1    2  502    0 -0.17194621499E+02  0.20921188497E+02  0.54426026233E+03  0.54493355952E+03  0.00000000000E+00 0. -1.
         -1    1    1    2    0  501  0.17194621499E+02 -0.20921188497E+02  0.31939333989E+03  0.32053932162E+03  0.00000000000E+00 0.  1.
</event>
<event>
 4    1  0.6740123E+001  0.8258784E+02  0.7546771E-02  0.1197964E+00
          2   -1    0    0  502    0  0.00000000000E+00  0.00000000000E+00  0.73643016426E+03  0.73643016426E+03  0.00000000000E+00 0.  1.
         -2   -1    0    0    0  501 -0.00000000000E+00 -0.00000000000E+00 -0.13740549186E+02  0.13740549186E+02  0.00000000000E+00 0. -1.
          1    1    1    2  502    0  0.41841269603E+02 -0.71204354527E+02  0.14720324492E+03  0.16878846898E+03  0.00000000000E+00 0. -1.
         -1    1    1    2    0  501 -0.41841269603E+02  0.71204354527E+02  0.57548637016E+03  0.58138224447E+03  0.00000000000E+00 0.  1.
</event>
<event>
 4    1  0.6740123E+001  0.2488496E+02  0.7546771E-02  0.1470095E+00
          2   -1    0    0  502    0  0.00000000000E+00  0.00000000000E+00  0.12360197299E+03  0.12360197299E+03  0.00000000000E+00 0.  1.
         -2   -1    0    0    0  501 -0.00000000000E+00 -0.00000000000E+00 -0.50252940698E+01  0.50252940698E+01  0.00000000000E+00 0. -1.
          1    1    1    2  502    0 -0.23340155462E+02  0.86312299593E+01  0.55754539154E+02  0.61055954859E+02  0.00000000000E+00 0.  1.
         -1    1    1    2    0  501  0.23340155462E+02 -0.86312299593E+01  0.62822139766E+02  0.67571312200E+02  0.00000000000E+00 0. -1.
</event>
<event>
 4    1  0.6740123E+001  0.2150781E+02  0.7546771E-02  0.1512137E+00
          2   -1    0    0  502    0  0.00000000000E+00  0.00000000000E+00  0.12243147177E+02  0.12243147177E+02  0.00000000000E+00 0. -1.
         -2   -1    0    0    0  501 -0.00000000000E+00 -0.00000000000E+00 -0.37880933048E+02  0.37880933048E+02  0.00000000000E+00 0.  1.
          1    1    1    2  502    0 -0.99480030986E+01  0.19068903315E+02 -0.11546195999E+02  0.24411072925E+02  0.00000000000E+00 0.  1.
         -1    1    1    2    0  501  0.99480030986E+01 -0.19068903315E+02 -0.14091589872E+02  0.25713007300E+02  0.00000000000E+00 0. -1.
</event>
<event>
 4    1  0.6740123E+001  0.6566960E+02  0.7546771E-02  0.1241697E+00
          2   -1    0    0  502    0  0.00000000000E+00  0.00000000000E+00  0.18953033132E+04  0.18953033132E+04  0.00000000000E+00 0. -1.
         -2   -1    0    0    0  501 -0.00000000000E+00 -0.00000000000E+00 -0.26681624368E+01  0.26681624368E+01  0.00000000000E+00 0.  1.
          1    1    1    2  502    0 -0.42215233994E+02 -0.50302784893E+02  0.13104346028E+04  0.13120790160E+04  0.00000000000E+00 0. -1.
         -1    1    1    2    0  501  0.42215233994E+02  0.50302784893E+02  0.58220054794E+03  0.58589245956E+03  0.00000000000E+00 0.  1.
</event>
<event>
 4    1  0.6740123E+001  0.3335545E+02  0.7546771E-02  0.1392509E+00
          2   -1    0    0  502    0  0.00000000000E+00  0.00000000000E+00  0.73976489449E+02  0.73976489449E+02  0.00000000000E+00 0.  1.
         -2   -1    0    0    0  501 -0.00000000000E+00 -0.00000000000E+00 -0.25008144064E+02  0.25008144064E+02  0.00000000000E+00 0. -1.
          1    1    1    2  502    0  0.24587451482E+02  0.22539821415E+02  0.55731301589E+02  0.64950475723E+02  0.00000000000E+00 0.  1.
         -1    1    1    2    0  501 -0.24587451482E+02 -0.22539821415E+02 -0.67629562043E+01  0.34034157789E+02  0.00000000000E+00 0. -1.
</event>
<event>
 4    1  0.6740123E+001  0.3070090E+02  0.7546771E-02  0.1413602E+00
          2   -1    0    0  502    0  0.00000000000E+00  0.00000000000E+00  0.17382514273E+02  0.17382514273E+02  0.00000000000E+00 0.  1.
         -2   -1    0    0    0  501 -0.00000000000E+00 -0.00000000000E+00 -0.93399773785E+02  0.93399773785E+02  0.00000000000E+00 0. -1.
          1    1    1    2  502    0  0.26559770771E+02  0.15398825504E+02 -0.21348155220E+01  0.30775033511E+02  0.00000000000E+00 0.  1.
         -1    1    1    2    0  501 -0.26559770771E+02 -0.15398825504E+02 -0.73882443990E+02  0.80007254547E+02  0.00000000000E+00 0. -1.
</event>
<event>
 4    1  0.6740123E+001  0.2507499E+02  0.7546771E-02  0.1467966E+00
          2   -1    0    0  502    0  0.00000000000E+00  0.00000000000E+00  0.21192126133E+03  0.21192126133E+03  0.00000000000E+00 0. -1.
         -2   -1    0    0    0  501 -0.00000000000E+00 -0.00000000000E+00 -0.29675569783E+01  0.29675569783E+01  0.00000000000E+00 0.  1.
          1    1    1    2  502    0  0.13321304891E+02  0.21243771018E+02  0.10604198476E+03  0.10896631362E+03  0.00000000000E+00 0. -1.
         -1    1    1    2    0  501 -0.13321304891E+02 -0.21243771018E+02  0.10291171959E+03  0.10592250469E+03  0.00000000000E+00 0.  1.
</event>
<event>
 4    1  0.6740123E+001  0.2401410E+02  0.7546771E-02  0.1480142E+00
          2   -1    0    0  502    0  0.00000000000E+00  0.00000000000E+00  0.33635378627E+01  0.33635378627E+01  0.00000000000E+00 0. -1.
         -2   -1    0    0    0  501 -0.00000000000E+00 -0.00000000000E+00 -0.24580583278E+03  0.24580583278E+03  0.00000000000E+00 0.  1.
          1    1    1    2  502    0 -0.23987951953E+02 -0.11204352935E+01 -0.18974271076E+03  0.19125630317E+03  0.00000000000E+00 0.  1.
         -1    1    1    2    0  501  0.23987951953E+02  0.11204352935E+01 -0.52699584152E+02  0.57913067472E+02  0.00000000000E+00 0. -1.
</event>
<event>
 4    1  0.6740123E+001  0.3917831E+02  0.7546771E-02  0.1353369E+00
          2   -1    0    0  502    0  0.00000000000E+00  0.00000000000E+00  0.65709576152E+03  0.65709576152E+03  0.00000000000E+00 0.  1.
         -2   -1    0    0    0  501 -0.00000000000E+00 -0.00000000000E+00 -0.72512269389E+01  0.72512269389E+01  0.00000000000E+00 0. -1.
          1    1    1    2  502    0  0.67479638906E+01  0.38592807370E+02  0.51437320238E+02  0.64658624410E+02  0.00000000000E+00 0. -1.
         -1    1    1    2    0  501 -0.67479638906E+01 -0.38592807370E+02  0.59840721434E+03  0.59968836405E+03  0.00000000000E+00 0.  1.
</event>
<event>
 4    1  0.6740123E+001  0.2195928E+02  0.7546771E-02  0.1505997E+00
          2   -1    0    0  502    0  0.00000000000E+00  0.00000000000E+00  0.11819474906E+04  0.11819474906E+04  0.00000000000E+00 0. -1.
         -2   -1    0    0    0  501 -0.00000000000E+00 -0.00000000000E+00 -0.60527631140E+00  0.60527631140E+00  0.00000000000E+00 0.  1.
          1    1    1    2  502    0 -0.98422745735E+01 -0.19630063456E+02  0.25309300028E+03  0.25404384769E+03  0.00000000000E+00 0.  1.
         -1    1    1    2    0  501  0.98422745735E+01  0.19630063456E+02  0.92824921399E+03  0.92850891920E+03  0.00000000000E+00 0. -1.
</event>
<event>
 4    1  0.6740123E+001  0.3122706E+02  0.7546771E-02  0.1409225E+00
          2   -1    0    0  502    0  0.00000000000E+00  0.00000000000E+00  0.13595395045E+04  0.13595395045E+04  0.00000000000E+00 0. -1.
         -2   -1    0    0    0  501 -0.00000000000E+00 -0.00000000000E+00 -0.89685413611E+00  0.89685413611E+00  0.00000000000E+00 0.  1.
          1    1    1    2  502    0  0.75437040808E+01 -0.30302169921E+02  0.98372237700E+03  0.98421788440E+03  0.00000000000E+00 0. -1.
         -1    1    1    2    0  501 -0.75437040808E+01  0.30302169921E+02  0.37492027340E+03  0.37621847427E+03  0.00000000000E+00 0.  1.
</event>
<event>
 4    1  0.6740123E+001  0.3475574E+02  0.7546771E-02  0.1382289E+00
          2   -1    0    0  502    0  0.00000000000E+00  0.00000000000E+00  0.70373985037E+03  0.70373985037E+03  0.00000000000E+00 0. -1.
         -2   -1    0    0    0  501 -0.00000000000E+00 -0.00000000000E+00 -0.22015263859E+01  0.22015263859E+01  0.00000000000E+00 0.  1.
          1    1    1    2  502    0  0.31832215234E+02  0.13952476427E+02  0.18509132322E+03  0.18832620492E+03  0.00000000000E+00 0.  1.
         -1    1    1    2    0  501 -0.31832215234E+02 -0.13952476427E+02  0.51644700076E+03  0.51761517184E+03  0.00000000000E+00 0. -1.
</event>
<event>
 4    1  0.6740123E+001  0.2546517E+02  0.7546771E-02  0.1463666E+00
          2   -1    0    0  502    0  0.00000000000E+00  0.00000000000E+00  0.66721160457E+03  0.66721160457E+03  0.00000000000E+00 0.  1.
         -2   -1    0    0    0  501 -0.00000000000E+00 -0.00000000000E+00 -0.10856140947E+01  0.10856140947E+01  0.00000000000E+00 0. -1.
          1    1    1    2  502    0 -0.38640211788E+01 -0.25170307996E+02  0.44120002102E+03  0.44193430916E+03  0.00000000000E+00 0.  1.
         -1    1    1    2    0  501  0.38640211788E+01  0.25170307996E+02  0.22492596945E+03  0.22636290950E+03  0.00000000000E+00 0. -1.
</event>
<event>
 4    1  0.6740123E+001  0.2675196E+02  0.7546771E-02  0.1450116E+00
          2   -1    0    0  502    0  0.00000000000E+00  0.00000000000E+00  0.19443537375E+02  0.19443537375E+02  0.00000000000E+00 0. -1.
         -2   -1    0    0    0  501 -0.00000000000E+00 -0.00000000000E+00 -0.37085715525E+02  0.37085715525E+02  0.00000000000E+00 0.  1.
          1    1    1    2  502    0  0.32800798208E+01  0.26550113000E+02 -0.63728501442E+01  0.27500557138E+02  0.00000000000E+00 0. -1.
         -1    1    1    2    0  501 -0.32800798208E+01 -0.26550113000E+02 -0.11269328006E+02  0.29028695762E+02  0.00000000000E+00 0.  1.
</event>
<event>
 4    1  0.6740123E+001  0.2908770E+02  0.7546771E-02  0.1427693E+00
          2   -1    0    0  502    0  0.00000000000E+00  0.00000000000E+00  0.17935137097E+03  0.17935137097E+03  0.00000000000E+00 0.  1.
         -2   -1    0    0    0  501 -0.00000000000E+00 -0.00000000000E+00 -0.47273920356E+01  0.47273920356E+01  0.00000000000E+00 0. -1.
          1    1    1    2  502    0 -0.22013447082E+02 -0.19013216931E+02  0.83106720727E+02  0.88050106760E+02  0.00000000000E+00 0.  1.
         -1    1    1    2    0  501  0.22013447082E+02  0.19013216931E+02  0.91517258204E+02  0.96028656242E+02  0.00000000000E+00 0. -1.
</event>
<event>
 4    1  0.6740123E+001  0.2158736E+02  0.7546771E-02  0.1511042E+00
          2   -1    0    0  502    0  0.00000000000E+00  0.00000000000E+00  0.13495863545E+04  0.13495863545E+04  0.00000000000E+00 0. -1.
         -2   -1    0    0    0  501 -0.00000000000E+00 -0.00000000000E+00 -0.36181350469E+00  0.36181350469E+00  0.00000000000E+00 0.  1.
          1    1    1    2  502    0 -0.21558103362E+02 -0.11234770193E+01  0.53041857121E+03  0.53085767839E+03  0.00000000000E+00 0.  1.
         -1    1    1    2    0  501  0.21558103362E+02  0.11234770193E+01  0.81880596980E+03  0.81909048963E+03  0.00000000000E+00 0. -1.
</event>
<event>
 4    1  0.6740123E+001  0.2354338E+02  0.7546771E-02  0.1485785E+00
          2   -1    0    0  502    0  0.00000000000E+00  0.00000000000E+00  0.64393599664E+02  0.64393599664E+02  0.00000000000E+00 0. -1.
         -2   -1    0    0    0  501 -0.00000000000E+00 -0.00000000000E+00 -0.99492440201E+01  0.99492440201E+01  0.00000000000E+00 0.  1.
          1    1    1    2  502    0  0.22921376263E+02 -0.53759791127E+01  0.40870894750E+02  0.47166944769E+02  0.00000000000E+00 0. -1.
         -1    1    1    2    0  501 -0.22921376263E+02  0.53759791127E+01  0.13573460894E+02  0.27175898915E+02  0.00000000000E+00 0.  1.
</event>
<event>
 4    1  0.6740123E+001  0.2401231E+02  0.7546771E-02  0.1480163E+00
          2   -1    0    0  502    0  0.00000000000E+00  0.00000000000E+00  0.71711669422E+02  0.71711669422E+02  0.00000000000E+00 0. -1.
         -2   -1    0    0    0  501 -0.00000000000E+00 -0.00000000000E+00 -0.82443611082E+01  0.82443611082E+01  0.00000000000E+00 0.  1.
          1    1    1    2  502    0  0.16277267773E+02  0.17653374228E+02  0.38021589677E+02  0.44969237811E+02  0.00000000000E+00 0. -1.
         -1    1    1    2    0  501 -0.16277267773E+02 -0.17653374228E+02  0.25445718638E+02  0.34986792719E+02  0.00000000000E+00 0.  1.
</event>
<event>
 4    1  0.6740123E+001  0.2953262E+02  0.7546771E-02  0.1423702E+00
          2   -1    0    0  502    0  0.00000000000E+00  0.00000000000E+00  0.31926333033E+02  0.31926333033E+02  0.00000000000E+00 0.  1.
         -2   -1    0    0    0  501 -0.00000000000E+00 -0.00000000000E+00 -0.32714393148E+02  0.32714393148E+02  0.00000000000E+00 0. -1.
          1    1    1    2  502    0 -0.29289478822E+02  0.37818441871E+01 -0.13520351113E+02  0.32480391152E+02  0.00000000000E+00 0. -1.
         -1    1    1    2    0  501  0.29289478822E+02 -0.37818441871E+01  0.12732290999E+02  0.32160335030E+02  0.00000000000E+00 0.  1.
</event>
<event>
 4    1  0.6740123E+001  0.3124681E+02  0.7546771E-02  0.1409062E+00
          2   -1    0    0  502    0  0.00000000000E+00  0.00000000000E+00  0.73233228767E+03  0.73233228767E+03  0.00000000000E+00 0. -1.
         -2   -1    0    0    0  501 -0.00000000000E+00 -0.00000000000E+00 -0.13554658283E+01  0.13554658283E+01  0.00000000000E+00 0.  1.
          1    1    1    2  502    0 -0.30641190653E+02 -0.61221471885E+01  0.31849698282E+03  0.32002607912E+03  0.00000000000E+00 0.  1.
         -1    1    1    2    0  501  0.30641190653E+02  0.61221471885E+01  0.41247983903E+03  0.41366167438E+03  0.00000000000E+00 0. -1.
</event>
<event>
 4    1  0.6740123E+001  0.2084799E+02  0.7546771E-02  0.1521446E+00
          2   -1    0    0  502    0  0.00000000000E+00  0.00000000000E+00  0.27346998518E+01  0.27346998518E+01  0.00000000000E+00 0.  1.
         -2   -1    0    0    0  501 -0.00000000000E+00 -0.00000000000E+00 -0.15903145439E+03  0.15903145439E+03  0.00000000000E+00 0. -1.
          1    1    1    2  502    0 -0.20588927936E+02 -0.32764187245E+01 -0.76153988960E+02  0.78956120141E+02  0.00000000000E+00 0.  1.
         -1    1    1    2    0  501  0.20588927936E+02  0.32764187245E+01 -0.80142765575E+02  0.82810034098E+02  0.00000000000E+00 0. -1.
</event>
<event>
 4    1  0.6740123E+001  0.2784608E+02  0.7546771E-02  0.1439289E+00
          2   -1    0    0  502    0  0.00000000000E+00  0.00000000000E+00  0.62448036025E+02  0.62448036025E+02  0.00000000000E+00 0.  1.
         -2   -1    0    0    0  501 -0.00000000000E+00 -0.00000000000E+00 -0.24063509004E+02  0.24063509004E+02  0.00000000000E+00 0. -1.
          1    1    1    2  502    0 -0.24825500176E+02 -0.12613437086E+02 -0.10900797196E+02  0.29903706019E+02  0.00000000000E+00 0. -1.
         -1    1    1    2    0  501  0.24825500176E+02  0.12613437086E+02  0.49285324218E+02  0.56607839010E+02  0.00000000000E+00 0.  1.
</event>
<event>
 4    1  0.6740123E+001  0.2243062E+02  0.7546771E-02  0.1499774E+00
          2   -1    0    0  502    0  0.00000000000E+00  0.00000000000E+00  0.42683524840E+03  0.42683524840E+03  0.00000000000E+00 0.  1.
         -2   -1    0    0    0  501 -0.00000000000E+00 -0.00000000000E+00 -0.11894820495E+01  0.11894820495E+01  0.00000000000E+00 0. -1.
          1    1    1    2  502    0  0.13824819054E+02  0.17663724163E+02  0.19249618101E+03  0.19379863899E+03  0.00000000000E+00 0.  1.
         -1    1    1    2    0  501 -0.13824819054E+02 -0.17663724163E+02  0.23314958535E+03  0.23422609146E+03  0.00000000000E+00 0. -1.
</event>
<event>
 4    1  0.6740123E+001  0.2031347E+02  0.7546771E-02  0.1529296E+00
          2   -1    0    0  502    0  0.00000000000E+00  0.00000000000E+00  0.55817866319E+00  0.55817866319E+00  0.00000000000E+00 0.  1.
         -2   -1    0    0    0  501 -0.00000000000E+00 -0.00000000000E+00 -0.74974010022E+03  0.74974010022E+03  0.00000000000E+00 0. -1.
          1    1    1    2  502    0 -0.19895795148E+02 -0.40980909436E+01 -0.41895293826E+03  0.41944511142E+03  0.00000000000E+00 0. -1.
         -1    1    1    2    0  501  0.19895795148E+02  0.40980909436E+01 -0.33022898329E+03  0.33085316746E+03  0.00000000000E+00 0.  1.
</event>
<event>
 4    1  0.6740123E+001  0.2048843E+02  0.7546771E-02  0.1526696E+00
          2   -1    0    0  502    0  0.00000000000E+00  0.00000000000E+00  0.40398748692E+02  0.40398748692E+02  0.00000000000E+00 0. -1.
         -2   -1    0    0    0  501 -0.00000000000E+00 -0.00000000000E+00 -0.21643285141E+02  0.21643285141E+02  0.00000000000E+00 0.  1.
          1    1    1    2  502    0 -0.56015516700E+01 -0.19707829933E+02 -0.12989815608E+02  0.24259250840E+02  0.00000000000E+00 0.  1.
         -1    1    1    2    0  501  0.56015516700E+01  0.19707829933E+02  0.31745279159E+02  0.37782782993E+02  0.00000000000E+00 0. -1.
</event>
<event>
 4    1  0.6740123E+001  0.2402773E+02  0.7546771E-02  0.1479981E+00
          2   -1    0    0  502    0  0.00000000000E+00  0.00000000000E+00  0.16960370696E+04  0.16960370696E+04  0.00000000000E+00 0.  1.
         -2   -1    0    0    0  501 -0.00000000000E+00 -0.00000000000E+00 -0.37384533799E+00  0.37384533799E+00  0.00000000000E+00 0. -1.
          1    1    1    2  502    0  0.11805656777E+02 -0.20927447312E+02  0.59413146927E+03  0.59461713258E+03  0.00000000000E+00 0. -1.
         -1    1    1    2    0  501 -0.11805656777E+02  0.20927447312E+02  0.11015317550E+04  0.11017937824E+04  0.00000000000E+00 0.  1.
</event>
<event>
 4    1  0.6740123E+001  0.5747965E+02  0.7546771E-02  0.1268645E+00
          2   -1    0    0  502    0  0.00000000000E+00  0.00000000000E+00  0.45025226677E+03  0.45025226677E+03  0.00000000000E+00 0.  1.
         -2   -1    0    0    0  501 -0.00000000000E+00 -0.00000000000E+00 -0.91376079153E+01  0.91376079153E+01  0.00000000000E+00 0. -1.
          1    1    1    2  502    0 -0.57453667185E+02  0.17279732041E+01  0.32249511552E+03  0.32757748594E+03  0.00000000000E+00 0.  1.
         -1    1    1    2    0  501  0.57453667185E+02 -0.17279732041E+01  0.11861954334E+03  0.13181238875E+03  0.00000000000E+00 0. -1.
</event>
<event>
 4    1  0.6740123E+001  0.2115416E+02  0.7546771E-02  0.1517075E+00
          2   -1    0    0  502    0  0.00000000000E+00  0.00000000000E+00  0.58160063777E+01  0.58160063777E+01  0.00000000000E+00 0. -1.
         -2   -1    0    0    0  501 -0.00000000000E+00 -0.00000000000E+00 -0.14043398994E+03  0.14043398994E+03  0.00000000000E+00 0.  1.
          1    1    1    2  502    0 -0.20129336045E+02 -0.65044861001E+01 -0.18140458618E+02  0.27867090769E+02  0.00000000000E+00 0. -1.
         -1    1    1    2    0  501  0.20129336045E+02  0.65044861001E+01 -0.11647752495E+03  0.11838290555E+03  0.00000000000E+00 0.  1.
</event>
<event>
 4    1  0.6740123E+001  0.2246187E+02  0.7546771E-02  0.1499368E+00
          2   -1    0    0  502    0  0.00000000000E+00  0.00000000000E+00  0.57903091231E+03  0.57903091231E+03  0.00000000000E+00 0.  1.
         -2   -1    0    0    0  501 -0.00000000000E+00 -0.00000000000E+00 -0.92876013779E+00  0.92876013779E+00  0.00000000000E+00 0. -1.
          1    1    1    2  502    0 -0.33965111282E+01 -0.22203592144E+02  0.21695218945E+03  0.21811187106E+03  0.00000000000E+00 0. -1.
         -1    1    1    2    0  501  0.33965111282E+01  0.22203592144E+02  0.36114996272E+03  0.36184780139E+03  0.00000000000E+00 0.  1.
</event>
<event>
 4    1  0.6740123E+001  0.2301197E+02  0.7546771E-02  0.1492348E+00
          2   -1    0    0  502    0  0.00000000000E+00  0.00000000000E+00  0.57255692992E+00  0.57255692992E+00  0.00000000000E+00 0.  1.
         -2   -1    0    0    0  501 -0.00000000000E+00 -0.00000000000E+00 -0.93721867210E+03  0.93721867210E+03  0.00000000000E+00 0. -1.
          1    1    1    2  502    0 -0.15790562990E+02  0.16739443745E+02 -0.52210723543E+03  0.52261411782E+03  0.00000000000E+00 0. -1.
         -1    1    1    2    0  501  0.15790562990E+02 -0.16739443745E+02 -0.41453887974E+03  0.41517711121E+03  0.00000000000E+00 0.  1.
</event>
<event>
 4    1  0.6740123E+001  0.2346617E+02  0.7546771E-02  0.1486726E+00
          2   -1    0    0  502    0  0.00000000000E+00  0.00000000000E+00  0.72078440969E+03  0.72078440969E+03  0.00000000000E+00 0.  1.
         -2   -1    0    0    0  501 -0.00000000000E+00 -0.00000000000E+00 -0.12505423656E+01  0.12505423656E+01  0.00000000000E+00 0. -1.
          1    1    1    2  502    0  0.20129493959E+02  0.12060861253E+02  0.58495778227E+03  0.58542827737E+03  0.00000000000E+00 0.  1.
         -1    1    1    2    0  501 -0.20129493959E+02 -0.12060861253E+02  0.13457608505E+03  0.13660667469E+03  0.00000000000E+00 0. -1.
</event>
<event>
 4    1  0.6740123E+001  0.2057348E+02  0.7546771E-02  0.1525442E+00
          2   -1    0    0  502    0  0.00000000000E+00  0.00000000000E+00  0.12548892871E+03  0.12548892871E+03  0.00000000000E+00 0.  1.
         -2   -1    0    0    0  501 -0.00000000000E+00 -0.00000000000E+00 -0.16948089387E+02  0.16948089387E+02  0.00000000000E+00 0. -1.
          1    1    1    2  502    0  0.18468587619E+02 -0.90652768997E+01  0.11800933103E+03  0.11978927407E+03  0.00000000000E+00 0.  1.
         -1    1    1    2    0  501 -0.18468587619E+02  0.90652768997E+01 -0.94684917081E+01  0.22647744019E+02  0.00000000000E+00 0. -1.
</event>
<event>
 4    1  0.6740123E+001  0.2663802E+02  0.7546771E-02  0.1451279E+00
          2   -1    0    0  502    0  0.00000000000E+00  0.00000000000E+00  0.30120151939E+01  0.30120151939E+01  0.00000000000E+00 0. -1.
         -2   -1    0    0    0  501 -0.00000000000E+00 -0.00000000000E+00 -0.41262095726E+03  0.41262095726E+03  0.00000000000E+00 0.  1.
          1    1    1    2  502    0 -0.15332957902E+02  0.21782665936E+02 -0.68680159831E+02  0.73665110383E+02  0.00000000000E+00 0. -1.
         -1    1    1    2    0  501  0.15332957902E+02 -0.21782665936E+02 -0.34092878223E+03  0.34196786207E+03  0.00000000000E+00 0.  1.
</event>
<event>
 4    1  0.6740123E+001  0.3072140E+02  0.7546771E-02  0.1413429E+00
          2   -1    0    0  502    0  0.00000000000E+00  0.00000000000E+00  0.22614331768E+03  0.22614331768E+03  0.00000000000E+00 0. -1.
         -2   -1    0    0    0  501 -0.00000000000E+00 -0.00000000000E+00 -0.42168572842E+01  0.42168572842E+01  0.00000000000E+00 0.  1.
          1    1    1    2  502    0  0.20839675699E+02  0.22572376911E+02  0.12264534459E+03  0.12643450807E+03  0.00000000000E+00 0. -1.
         -1    1    1    2    0  501 -0.20839675699E+02 -0.22572376911E+02  0.99281115805E+02  0.10392566689E+03  0.00000000000E+00 0.  1.
</event>
<event>
 4    1  0.6740123E+001  0.2683752E+02  0.7546771E-02  0.1449247E+00
          2   -1    0    0  502    0  0.00000000000E+00  0.00000000000E+00  0.52371995300E+03  0.52371995300E+03  0.00000000000E+00 0.  1.
         -2   -1    0    0    0  501 -0.00000000000E+00 -0.00000000000E+00 -0.16964359660E+01  0.16964359660E+01  0.00000000000E+00 0. -1.
          1    1    1    2  502    0 -0.25039629975E+02  0.96576074024E+01  0.37531924206E+03  0.37627753840E+03  0.00000000000E+00 0.  1.
         -1    1    1    2    0  501  0.25039629975E+02 -0.96576074024E+01  0.14670427498E+03  0.14913885056E+03  0.00000000000E+00 0. -1.
</event>
<event>
 4    1  0.6740123E+001  0.2389190E+02  0.7546771E-02  0.1481592E+00
          2   -1    0    0  502    0  0.00000000000E+00  0.00000000000E+00  0.90115307294E+03  0.90115307294E+03  0.00000000000E+00 0.  1.
         -2   -1    0    0    0  501 -0.00000000000E+00 -0.00000000000E+00 -0.12343669655E+01  0.12343669655E+01  0.00000000000E+00 0. -1.
          1    1    1    2  502    0 -0.15957293475E+02  0.17781668279E+02  0.13514600723E+03  0.13724163440E+03  0.00000000000E+00 0. -1.
         -1    1    1    2    0  501  0.15957293475E+02 -0.17781668279E+02  0.76477269874E+03  0.76514580551E+03  0.00000000000E+00 0.  1.
</event>
<event>
 4    1  0.6740123E+001  0.2133323E+02  0.7546771E-02  0.1514560E+00
          2   -1    0    0  502    0  0.00000000000E+00  0.00000000000E+00  0.28921468508E+02  0.28921468508E+02  0.00000000000E+00 0.  1.
         -2   -1    0    0    0  501 -0.00000000000E+00 -0.00000000000E+00 -0.16867007781E+02  0.16867007781E+02  0.00000000000E+00 0. -1.
          1    1    1    2  502    0  0.20052238447E+02 -0.72810931081E+01  0.11955813153E+02  0.24455020992E+02  0.00000000000E+00 0. -1.
         -1    1    1    2    0  501 -0.20052238447E+02  0.72810931081E+01  0.98647573938E-01  0.21333455297E+02  0.00000000000E+00 0.  1.
</event>
<event>
 4    1  0.6740123E+001  0.2115840E+02  0.7546771E-02  0.1517015E+00
          2   -1    0    0  502    0  0.00000000000E+00  0.00000000000E+00  0.11301786477E+04  0.11301786477E+04  0.00000000000E+00 0.  1.
         -2   -1    0    0    0  501 -0.00000000000E+00 -0.00000000000E+00 -0.42194764372E+00  0.42194764372E+00  0.00000000000E+00 0. -1.
          1    1    1    2  502    0 -0.15094785281E+02 -0.14826513210E+02  0.70475791685E+03  0.70507545653E+03  0.00000000000E+00 0.  1.
         -1    1    1    2    0  501  0.15094785281E+02  0.14826513210E+02  0.42499878326E+03  0.42552513887E+03  0.00000000000E+00 0. -1.
</event>
<event>
 4    1  0.6740123E+001  0.3550442E+02  0.7546771E-02  0.1377051E+00
          2   -1    0    0  502    0  0.00000000000E+00  0.00000000000E+00  0.54956607518E+01  0.54956607518E+01  0.00000000000E+00 0.  1.
         -2   -1    0    0    0  501 -0.00000000000E+00 -0.00000000000E+00 -0.23539852311E+03  0.23539852311E+03  0.00000000000E+00 0. -1.
          1    1    1    2  502    0  0.13071251174E+02 -0.33010699892E+02 -0.95683229041E+02  0.10205804346E+03  0.00000000000E+00 0. -1.
         -1    1    1    2    0  501 -0.13071251174E+02  0.33010699892E+02 -0.13421963332E+03  0.13883614040E+03  0.00000000000E+00 0.  1.
</event>
<event>
 4    1  0.6740123E+001  0.2099932E+02  0.7546771E-02  0.1519274E+00
          2   -1    0    0  502    0  0.00000000000E+00  0.00000000000E+00  0.30609018006E+01  0.30609018006E+01  0.00000000000E+00 0.  1.
         -2   -1    0    0    0  501 -0.00000000000E+00 -0.00000000000E+00 -0.17247250309E+03  0.17247250309E+03  0.00000000000E+00 0. -1.
          1    1    1    2  502    0  0.20915213367E+02  0.18776012117E+01 -0.49086975520E+02  0.53390099290E+02  0.00000000000E+00 0.  1.
         -1    1    1    2    0  501 -0.20915213367E+02 -0.18776012117E+01 -0.12032462577E+03  0.12214330560E+03  0.00000000000E+00 0. -1.
</event>
<event>
 4    1  0.6740123E+001  0.2482206E+02  0.7546771E-02  0.1470804E+00
          2   -1    0    0  502    0  0.00000000000E+00  0.00000000000E+00  0.55160256580E+02  0.55160256580E+02  0.00000000000E+00 0. -1.
         -2   -1    0    0    0  501 -0.00000000000E+00 -0.00000000000E+00 -0.11462416858E+02  0.11462416858E+02  0.00000000000E+00 0.  1.
          1    1    1    2  502    0 -0.23444170243E+02  0.81550949344E+01  0.16527500292E+02  0.29821015370E+02  0.00000000000E+00 0. -1.
         -1    1    1    2    0  501  0.23444170243E+02 -0.81550949344E+01  0.27170339430E+02  0.36801658068E+02  0.00000000000E+00 0.  1.
</event>
<event>
 4    1  0.6740123E+001  0.3627219E+02  0.7546771E-02  0.1371833E+00
          2   -1    0    0  502    0  0.00000000000E+00  0.00000000000E+00  0.11705686160E+04  0.11705686160E+04  0.00000000000E+00 0.  1.
         -2   -1    0    0    0  501 -0.00000000000E+00 -0.00000000000E+00 -0.11283757792E+01  0.11283757792E+01  0.00000000000E+00 0. -1.
          1    1    1    2  502    0  0.23628914348E+02  0.27519923446E+02  0.54806927114E+03  0.54926823842E+03  0.00000000000E+00 0.  1.
         -1    1    1    2    0  501 -0.23628914348E+02 -0.27519923446E+02  0.62137096908E+03  0.62242875335E+03  0.00000000000E+00 0. -1.
</event>
<event>
 4    1  0.6740123E+001  0.5084150E+02  0.7546771E-02  0.1294565E+00
          2   -1    0    0  502    0  0.00000000000E+00  0.00000000000E+00  0.22368530583E+02  0.22368530583E+02  0.00000000000E+00 0. -1.
         -2   -1    0    0    0  501 -0.00000000000E+00 -0.00000000000E+00 -0.13688223354E+03  0.13688223354E+03  0.00000000000E+00 0.  1.
          1    1    1    2  502    0  0.30958790937E+02 -0.40328794476E+02 -0.25828858990E+02  0.57026207633E+02  0.00000000000E+00 0. -1.
         -1    1    1    2    0  501 -0.30958790937E+02  0.40328794476E+02 -0.88684843963E+02  0.10222455649E+03  0.00000000000E+00 0.  1.
</event>
<event>
 4    1  0.6740123E+001  0.2019796E+02  0.7546771E-02  0.1531031E+00
          2   -1    0    0  502    0  0.00000000000E+00  0.00000000000E+00  0.15156356100E+03  0.15156356100E+03  0.00000000000E+00 0.  1.
         -2   -1    0    0    0  501 -0.00000000000E+00 -0.00000000000E+00 -0.68987113699E+01  0.68987113699E+01  0.00000000000E+00 0. -1.
          1    1    1    2  502    0  0.12950492202E+02 -0.15499751126E+02  0.13420537408E+03  0.13571676375E+03  0.00000000000E+00 0.  1.
         -1    1    1    2    0  501 -0.12950492202E+02  0.15499751126E+02  0.10459475552E+02  0.22745508613E+02  0.00000000000E+00 0. -1.
</event>
<event>
 4    1  0.6740123E+001  0.2277356E+02  0.7546771E-02  0.1495361E+00
          2   -1    0    0  502    0  0.00000000000E+00  0.00000000000E+00  0.23933481059E+03  0.23933481059E+03  0.00000000000E+00 0.  1.
         -2   -1    0    0    0  501 -0.00000000000E+00 -0.00000000000E+00 -0.30488652352E+01  0.30488652352E+01  0.00000000000E+00 0. -1.
          1    1    1    2  502    0  0.20779825038E+02 -0.93184800778E+01  0.52963806576E+02  0.57652406772E+02  0.00000000000E+00 0. -1.
         -1    1    1    2    0  501 -0.20779825038E+02  0.93184800778E+01  0.18332213878E+03  0.18473126905E+03  0.00000000000E+00 0.  1.
</event>
<event>
 4    1  0.6740123E+001  0.2129545E+02  0.7546771E-02  0.1515088E+00
          2   -1    0    0  502    0  0.00000000000E+00  0.00000000000E+00  0.10108362059E+03  0.10108362059E+03  0.00000000000E+00 0. -1.
         -2   -1    0    0    0  501 -0.00000000000E+00 -0.00000000000E+00 -0.48291518492E+01  0.48291518492E+01  0.00000000000E+00 0.  1.
          1    1    1    2  502    0 -0.19607237776E+02 -0.83097659517E+01  0.34017860766E+02  0.40133662111E+02  0.00000000000E+00 0.  1.
         -1    1    1    2    0  501  0.19607237776E+02  0.83097659517E+01  0.62236607979E+02  0.65779110332E+02  0.00000000000E+00 0. -1.
</event>
<event>
 4    1  0.6740123E+001  0.3312546E+02  0.7546771E-02  0.1394243E+00
          2   -1    0    0  502    0  0.00000000000E+00  0.00000000000E+00  0.15427122177E+02  0.15427122177E+02  0.00000000000E+00 0. -1.
         -2   -1    0    0    0  501 -0.00000000000E+00 -0.00000000000E+00 -0.75842671048E+02  0.75842671048E+02  0.00000000000E+00 0.  1.
          1    1    1    2  502    0  0.81229118705E+01 -0.32114080268E+02 -0.41586126998E+02  0.53166735911E+02  0.00000000000E+00 0.  1.
         -1    1    1    2    0  501 -0.81229118705E+01  0.32114080268E+02 -0.18829421873E+02  0.38103057315E+02  0.00000000000E+00 0. -1.
</event>
<event>
 4    1  0.6740123E+001  0.2576089E+02  0.7546771E-02  0.1460469E+00
          2   -1    0    0  502    0  0.00000000000E+00  0.00000000000E+00  0.26023181016E+03  0.26023181016E+03  0.00000000000E+00 0.  1.
         -2   -1    0    0    0  501 -0.00000000000E+00 -0.00000000000E+00 -0.39054589696E+01  0.39054589696E+01  0.00000000000E+00 0. -1.
          1    1    1    2  502    0 -0.50084881483E+01 -0.25269314692E+02  0.50361836460E+02  0.56567992629E+02  0.00000000000E+00 0. -1.
         -1    1    1    2    0  501  0.50084881483E+01  0.25269314692E+02  0.20596451473E+03  0.20756927650E+03  0.00000000000E+00 0.  1.
</event>
<event>
 4    1  0.6740123E+001  0.2057470E+02  0.7546771E-02  0.1525425E+00
          2   -1    0    0  502    0  0.00000000000E+00  0.00000000000E+00  0.14872146133E+04  0.14872146133E+04  0.00000000000E+00 0.  1.
         -2   -1    0    0    0  501 -0.00000000000E+00 -0.00000000000E+00 -0.39459790831E+00  0.39459790831E+00  0.00000000000E+00 0. -1.
          1    1    1    2  502    0  0.58427661197E+01  0.19727654227E+02  0.35076684252E+03  0.35136974268E+03  0.00000000000E+00 0. -1.
         -1    1    1    2    0  501 -0.58427661197E+01 -0.19727654227E+02  0.11360531728E+04  0.11362394685E+04  0.00000000000E+00 0.  1.
</event>
<event>
 4    1  0.6740123E+001  0.3185427E+02  0.7546771E-02  0.1404139E+00
          2   -1    0    0  502    0  0.00000000000E+00  0.00000000000E+00  0.68127140224E+01  0.68127140224E+01  0.00000000000E+00 0. -1.
         -2   -1    0    0    0  501 -0.00000000000E+00 -0.00000000000E+00 -0.15247342031E+03  0.15247342031E+03  0.00000000000E+00 0.  1.
          1    1    1    2  502    0 -0.31577571312E+02 -0.41894812973E+01 -0.84952125368E+02  0.90727935984E+02  0.00000000000E+00 0.  1.
         -1    1    1    2    0  501  0.31577571312E+02  0.41894812973E+01 -0.60708580923E+02  0.68558198351E+02  0.00000000000E+00 0. -1.
</event>
<event>
 4    1  0.6740123E+001  0.4030604E+02  0.7546771E-02  0.1346702E+00
          2   -1    0    0  502    0  0.00000000000E+00  0.00000000000E+00  0.47278314043E+02  0.47278314043E+02  0.00000000000E+00 0. -1.
         -2   -1    0    0    0  501 -0.00000000000E+00 -0.00000000000E+00 -0.49196478331E+02  0.49196478331E+02  0.00000000000E+00 0.  1.
          1    1    1    2  502    0  0.28990849927E+02 -0.28001921228E+02  0.25529159482E+02  0.47710742562E+02  0.00000000000E+00 0. -1.
         -1    1    1    2    0  501 -0.28990849927E+02  0.28001921228E+02 -0.27447323770E+02  0.48764049812E+02  0.00000000000E+00 0.  1.
</event>
<event>
 4    1  0.6740123E+001  0.2143328E+02  0.7546771E-02  0.1513168E+00
          2   -1    0    0  502    0  0.00000000000E+00  0.00000000000E+00  0.11652221314E+04  0.11652221314E+04  0.00000000000E+00 0. -1.
         -2   -1    0    0    0  501 -0.00000000000E+00 -0.00000000000E+00 -0.70881983304E+00  0.70881983304E+00  0.00000000000E+00 0.  1.
          1    1    1    2  502    0 -0.20477868277E+02  0.63279130932E+01  0.97061743864E+03  0.97085405586E+03  0.00000000000E+00 0. -1.
         -1    1    1    2    0  501  0.20477868277E+02 -0.63279130932E+01  0.19389587297E+03  0.19507689542E+03  0.00000000000E+00 0.  1.
</event>
<event>
 4    1  0.6740123E+001  0.2019624E+02  0.7546771E-02  0.1531057E+00
          2   -1    0    0  502    0  0.00000000000E+00  0.00000000000E+00  0.15188441622E+03  0.15188441622E+03  0.00000000000E+00 0. -1.
         -2   -1    0    0    0  501 -0.00000000000E+00 -0.00000000000E+00 -0.34639919698E+01  0.34639919698E+01  0.00000000000E+00 0.  1.
          1    1    1    2  502    0 -0.52546079189E+01  0.19500702515E+02  0.37387948948E+02  0.42494082288E+02  0.00000000000E+00 0.  1.
         -1    1    1    2    0  501  0.52546079189E+01 -0.19500702515E+02  0.11103247530E+03  0.11285432590E+03  0.00000000000E+00 0. -1.
</event>
<event>
 4    1  0.6740123E+001  0.4065632E+02  0.7546771E-02  0.1344682E+00
          2   -1    0    0  502    0  0.00000000000E+00  0.00000000000E+00  0.18898513277E+03  0.18898513277E+03  0.00000000000E+00 0. -1.
         -2   -1    0    0    0  501 -0.00000000000E+00 -0.00000000000E+00 -0.12776545464E+02  0.12776545464E+02  0.00000000000E+00 0.  1.
          1    1    1    2  502    0 -0.27700767109E+02  0.29759091240E+02  0.14476256737E+03  0.15036334967E+03  0.00000000000E+00 0. -1.
         -1    1    1    2    0  501  0.27700767109E+02 -0.29759091240E+02  0.31446019928E+02  0.51398328564E+02  0.00000000000E+00 0.  1.
</event>
<event>
 4    1  0.6740123E+001  0.3032765E+02  0.7546771E-02  0.1416770E+00
          2   -1    0    0  502    0  0.00000000000E+00  0.00000000000E+00  0.12326146625E+03  0.12326146625E+03  0.00000000000E+00 0. -1.
         -2   -1    0    0    0  501 -0.00000000000E+00 -0.00000000000E+00 -0.11498468286E+02  0.11498468286E+02  0.00000000000E+00 0.  1.
          1    1    1    2  502    0 -0.29255822106E+02 -0.79914609409E+01  0.15959144309E+02  0.34270407966E+02  0.00000000000E+00 0.  1.
         -1    1    1    2    0  501  0.29255822106E+02  0.79914609409E+01  0.95803853654E+02  0.10048952657E+03  0.00000000000E+00 0. -1.
</event>
<event>
 4    1  0.6740123E+001  0.4198231E+02  0.7546771E-02  0.1337245E+00
          2   -1    0    0  502    0  0.00000000000E+00  0.00000000000E+00  0.37707126816E+04  0.37707126816E+04  0.00000000000E+00 0. -1.
         -2   -1    0    0    0  501 -0.00000000000E+00 -0.00000000000E+00 -0.65752988049E+00  0.65752988049E+00  0.00000000000E+00 0.  1.
          1    1    1    2  502    0  0.75023195565E+01  0.41306527081E+02  0.28989658327E+04  0.28992698068E+04  0.00000000000E+00 0. -1.
         -1    1    1    2    0  501 -0.75023195565E+01 -0.41306527081E+02  0.87108931904E+03  0.87210040461E+03  0.00000000000E+00 0.  1.
</event>
<event>
 4    1  0.6740123E+001  0.4035657E+02  0.7546771E-02  0.1346409E+00
          2   -1    0    0  502    0  0.00000000000E+00  0.00000000000E+00  0.95684814912E+03  0.95684814912E+03  0.00000000000E+00 0. -1.
         -2   -1    0    0    0  501 -0.00000000000E+00 -0.00000000000E+00 -0.25630179255E+01  0.25630179255E+01  0.00000000000E+00 0.  1.
          1    1    1    2  502    0  0.10537374480E+02 -0.38956596446E+02  0.75516474868E+03  0.75624232248E+03  0.00000000000E+00 0. -1.
         -1    1    1    2    0  501 -0.10537374480E+02  0.38956596446E+02  0.19912038251E+03  0.20316884456E+03  0.00000000000E+00 0.  1.
</event>
<event>
 4    1  0.6740123E+001  0.4463468E+02  0.7546771E-02  0.1323276E+00
          2   -1    0    0  502    0  0.00000000000E+00  0.00000000000E+00  0.32821652893E+03  0.32821652893E+03  0.00000000000E+00 0. -1.
         -2   -1    0    0    0  501 -0.00000000000E+00 -0.00000000000E+00 -0.66215796555E+01  0.66215796555E+01  0.00000000000E+00 0.  1.
          1    1    1    2  502    0  0.44421087974E+02 -0.43614182926E+01  0.11247475669E+03  0.12100754488E+03  0.00000000000E+00 0.  1.
         -1    1    1    2    0  501 -0.44421087974E+02  0.43614182926E+01  0.20912019259E+03  0.21383056371E+03  0.00000000000E+00 0. -1.
</event>
<event>
 4    1  0.6740123E+001  0.2795722E+02  0.7546771E-02  0.1438223E+00
          2   -1    0    0  502    0  0.00000000000E+00  0.00000000000E+00  0.11747856499E+04  0.11747856499E+04  0.00000000000E+00 0. -1.
         -2   -1    0    0    0  501 -0.00000000000E+00 -0.00000000000E+00 -0.24731020333E+01  0.24731020333E+01  0.00000000000E+00 0.  1.
          1    1    1    2  502    0 -0.30379564420E+01 -0.27791666205E+02  0.10894183481E+04  0.10897770153E+04  0.00000000000E+00 0. -1.
         -1    1    1    2    0  501  0.30379564420E+01  0.27791666205E+02  0.82894199726E+02  0.87481736597E+02  0.00000000000E+00 0.  1.
</event>
<event>
 4    1  0.6740123E+001  0.2156763E+02  0.7546771E-02  0.1511313E+00
          2   -1    0    0  502    0  0.00000000000E+00  0.00000000000E+00  0.14857324838E+02  0.14857324838E+02  0.00000000000E+00 0.  1.
         -2   -1    0    0    0  501 -0.00000000000E+00 -0.00000000000E+00 -0.38847313502E+02  0.38847313502E+02  0.00000000000E+00 0. -1.
          1    1    1    2  502    0  0.56680141524E+01 -0.20809521868E+02 -0.16597151733E+00  0.21568266768E+02  0.00000000000E+00 0.  1.
         -1    1    1    2    0  501 -0.56680141524E+01  0.20809521868E+02 -0.23824017146E+02  0.32136371572E+02  0.00000000000E+00 0. -1.
</event>
<event>
 4    1  0.6740123E+001  0.3215659E+02  0.7546771E-02  0.1401737E+00
          2   -1    0    0  502    0  0.00000000000E+00  0.00000000000E+00  0.29823563217E+03  0.29823563217E+03  0.00000000000E+00 0.  1.
         -2   -1    0    0    0  501 -0.00000000000E+00 -0.00000000000E+00 -0.15515267587E+02  0.15515267587E+02  0.00000000000E+00 0. -1.
          1    1    1    2  502    0 -0.23782194547E+02  0.21643780067E+02  0.27960021909E+03  0.28144329537E+03  0.00000000000E+00 0.  1.
         -1    1    1    2    0  501  0.23782194547E+02 -0.21643780067E+02  0.31201454868E+01  0.32307604382E+02  0.00000000000E+00 0. -1.
</event>
<event>
 4    1  0.6740123E+001  0.2690701E+02  0.7546771E-02  0.1448544E+00
          2   -1    0    0  502    0  0.00000000000E+00  0.00000000000E+00  0.92962987873E+03  0.92962987873E+03  0.00000000000E+00 0. -1.
         -2   -1    0    0    0  501 -0.00000000000E+00 -0.00000000000E+00 -0.82447862395E+00  0.82447862395E+00  0.00000000000E+00 0.  1.
          1    1    1    2  502    0  0.26867538225E+02 -0.14568969412E+01  0.35488714484E+03  0.35590570765E+03  0.00000000000E+00 0.  1.
         -1    1    1    2    0  501 -0.26867538225E+02  0.14568969412E+01  0.57391825526E+03  0.57454864971E+03  0.00000000000E+00 0. -1.
</event>
<event>
 4    1  0.6740123E+001  0.2329161E+02  0.7546771E-02  0.1488868E+00
          2   -1    0    0  502    0  0.00000000000E+00  0.00000000000E+00  0.25040591741E+03  0.25040591741E+03  0.00000000000E+00 0.  1.
         -2   -1    0    0    0  501 -0.00000000000E+00 -0.00000000000E+00 -0.21720853465E+01  0.21720853465E+01  0.00000000000E+00 0. -1.
          1    1    1    2  502    0 -0.22433969251E+02  0.62622926592E+01  0.11770115990E+03  0.11998359191E+03  0.00000000000E+00 0. -1.
         -1    1    1    2    0  501  0.22433969251E+02 -0.62622926592E+01  0.13053267216E+03  0.13259441084E+03  0.00000000000E+00 0.  1.
</event>
<event>
 4    1  0.6740123E+001  0.3884636E+02  0.7546771E-02  0.1355382E+00
          2   -1    0    0  502    0  0.00000000000E+00  0.00000000000E+00  0.17734204876E+04  0.17734204876E+04  0.00000000000E+00 0. -1.
         -2   -1    0    0    0  501 -0.00000000000E+00 -0.00000000000E+00 -0.86754750453E+00  0.86754750453E+00  0.00000000000E+00 0.  1.
          1    1    1    2  502    0  0.21015071190E+02  0.32671186228E+02  0.10090928050E+04  0.10098402492E+04  0.00000000000E+00 0.  1.
         -1    1    1    2    0  501 -0.21015071190E+02 -0.32671186228E+02  0.76346013504E+03  0.76444778594E+03  0.00000000000E+00 0. -1.
</event>
<event>
 4    1  0.6740123E+001  0.2217479E+02  0.7546771E-02  0.1503129E+00
          2   -1    0    0  502    0  0.00000000000E+00  0.00000000000E+00  0.22401479700E+01  0.22401479700E+01  0.00000000000E+00 0.  1.
         -2   -1    0    0    0  501 -0.00000000000E+00 -0.00000000000E+00 -0.22379138741E+03  0.22379138741E+03  0.00000000000E+00 0. -1.
          1    1    1    2  502    0  0.51456859693E+01 -0.21569499157E+02 -0.95132797051E+02  0.97683010051E+02  0.00000000000E+00 0.  1.
         -1    1    1    2    0  501 -0.51456859693E+01  0.21569499157E+02 -0.12641844239E+03  0.12834852533E+03  0.00000000000E+00 0. -1.
</event>
<event>
 4    1  0.6740123E+001  0.3379940E+02  0.7546771E-02  0.1389206E+00
          2   -1    0    0  502    0  0.00000000000E+00  0.00000000000E+00  0.20892535194E+02  0.20892535194E+02  0.00000000000E+00 0. -1.
         -2   -1    0    0    0  501 -0.00000000000E+00 -0.00000000000E+00 -0.71663334219E+02  0.71663334219E+02  0.00000000000E+00 0.  1.
          1    1    1    2  502    0 -0.16240024781E+02  0.29642218258E+02 -0.28565204639E+01  0.33919894123E+02  0.00000000000E+00 0. -1.
         -1    1    1    2    0  501  0.16240024781E+02 -0.29642218258E+02 -0.47914278562E+02  0.58635975290E+02  0.00000000000E+00 0.  1.
</event>
<event>
 4    1  0.6740123E+001  0.2020048E+02  0.7546771E-02  0.1530993E+00
          2   -1    0    0  502    0  0.00000000000E+00  0.00000000000E+00  0.15580000822E+01  0.15580000822E+01  0.00000000000E+00 0. -1.
         -2   -1    0    0    0  501 -0.00000000000E+00 -0.00000000000E+00 -0.26584034524E+03  0.26584034524E+03  0.00000000000E+00 0.  1.
          1    1    1    2  502    0  0.13757747045E+02  0.14791335865E+02 -0.11588896534E+03  0.11763635283E+03  0.00000000000E+00 0.  1.
         -1    1    1    2    0  501 -0.13757747045E+02 -0.14791335865E+02 -0.14839337982E+03  0.14976199249E+03  0.00000000000E+00 0. -1.
</event>
<event>
 4    1  0.6740123E+001  0.2181530E+02  0.7546771E-02  0.1507935E+00
          2   -1    0    0  502    0  0.00000000000E+00  0.00000000000E+00  0.25167890056E+02  0.25167890056E+02  0.00000000000E+00 0. -1.
         -2   -1    0    0    0  501 -0.00000000000E+00 -0.00000000000E+00 -0.23476479921E+02  0.23476479921E+02  0.00000000000E+00 0.  1.
          1    1    1    2  502    0  0.18878345128E+02  0.10932310288E+02 -0.98820758154E+01  0.23949170037E+02  0.00000000000E+00 0.  1.
         -1    1    1    2    0  501 -0.18878345128E+02 -0.10932310288E+02  0.11573485951E+02  0.24695199940E+02  0.00000000000E+00 0. -1.
</event>
<event>
 4    1  0.6740123E+001  0.2050794E+02  0.7546771E-02  0.1526407E+00
          2   -1    0    0  502    0  0.00000000000E+00  0.00000000000E+00  0.42574807493E+03  0.42574807493E+03  0.00000000000E+00 0. -1.
         -2   -1    0    0    0  501 -0.00000000000E+00 -0.00000000000E+00 -0.10673856342E+01  0.10673856342E+01  0.00000000000E+00 0.  1.
          1    1    1    2  502    0  0.19774033645E+02  0.54371999692E+01  0.15408599892E+03  0.15544475100E+03  0.00000000000E+00 0.  1.
         -1    1    1    2    0  501 -0.19774033645E+02 -0.54371999692E+01  0.27059469038E+03  0.27137070957E+03  0.00000000000E+00 0. -1.
</event>
<event>
 4    1  0.6740123E+001  0.2447059E+02  0.7546771E-02  0.1474814E+00
          2   -1    0    0  502    0  0.00000000000E+00  0.00000000000E+00  0.52378528421E+03  0.52378528421E+03  0.00000000000E+00 0. -1.
         -2   -1    0    0    0  501 -0.00000000000E+00 -0.00000000000E+00 -0.11667888538E+01  0.11667888538E+01  0.00000000000E+00 0.  1.
          1    1    1    2  502    0  0.98858792779E+01  0.22384800149E+02  0.22401681761E+03  0.22534938309E+03  0.00000000000E+00 0. -1.
         -1    1    1    2    0  501 -0.98858792779E+01 -0.22384800149E+02  0.29860167774E+03  0.29960268997E+03  0.00000000000E+00 0.  1.
</event>
<event>
 4    1  0.6740123E+001  0.2486920E+02  0.7546771E-02  0.1470272E+00
          2   -1    0    0  502    0  0.00000000000E+00  0.00000000000E+00  0.23033719519E+02  0.23033719519E+02  0.00000000000E+00 0. -1.
         -2   -1    0    0    0  501 -0.00000000000E+00 -0.00000000000E+00 -0.38138431337E+02  0.38138431337E+02  0.00000000000E+00 0.  1.
          1    1    1    2  502    0  0.20734111202E+02 -0.13732220686E+02 -0.24191878580E+02  0.34694729304E+02  0.00000000000E+00 0. -1.
         -1    1    1    2    0  501 -0.20734111202E+02  0.13732220686E+02  0.90871667615E+01  0.26477421552E+02  0.00000000000E+00 0.  1.
</event>
<event>
 4    1  0.6740123E+001  0.2001736E+02  0.7546771E-02  0.1533770E+00
          2   -1    0    0  502    0  0.00000000000E+00  0.00000000000E+00  0.37380156706E+03  0.37380156706E+03  0.00000000000E+00 0. -1.
         -2   -1    0    0    0  501 -0.00000000000E+00 -0.00000000000E+00 -0.10822249119E+01  0.10822249119E+01  0.00000000000E+00 0.  1.
          1    1    1    2  502    0 -0.15873653774E+01 -0.19954318877E+02  0.20462851581E+03  0.20560526271E+03  0.00000000000E+00 0. -1.
         -1    1    1    2    0  501  0.15873653774E+01  0.19954318877E+02  0.16809082634E+03  0.16927852927E+03  0.00000000000E+00 0.  1.
</event>
<event>
 4    1  0.6740123E+001  0.2410606E+02  0.7546771E-02  0.1479057E+00
          2   -1    0    0  502    0  0.00000000000E+00  0.00000000000E+00  0.16104598353E+01  0.16104598353E+01  0.00000000000E+00 0. -1.
         -2   -1    0    0    0  501 -0.00000000000E+00 -0.00000000000E+00 -0.41345925033E+03  0.41345925033E+03  0.00000000000E+00 0.  1.
          1    1    1    2  502    0 -0.20108127539E+02 -0.13295315570E+02 -0.27996812981E+03  0.28100401406E+03  0.00000000000E+00 0.  1.
         -1    1    1    2    0  501  0.20108127539E+02  0.13295315570E+02 -0.13188066069E+03  0.13406569611E+03  0.00000000000E+00 0. -1.
</event>
<event>
 4    1  0.6740123E+001  0.2546189E+02  0.7546771E-02  0.1463702E+00
          2   -1    0    0  502    0  0.00000000000E+00  0.00000000000E+00  0.33474084640E+03  0.33474084640E+03  0.00000000000E+00 0. -1.
         -2   -1    0    0    0  501 -0.00000000000E+00 -0.00000000000E+00 -0.63509701031E+01  0.63509701031E+01  0.00000000000E+00 0.  1.
          1    1    1    2  502    0  0.66463905621E+01  0.24579127280E+02  0.30637819485E+03  0.30743439347E+03  0.00000000000E+00 0. -1.
         -1    1    1    2    0  501 -0.66463905621E+01 -0.24579127280E+02  0.22011681441E+02  0.33657423033E+02  0.00000000000E+00 0.  1.
</event>
<event>
 4    1  0.6740123E+001  0.2331434E+02  0.7546771E-02  0.1488588E+00
          2   -1    0    0  502    0  0.00000000000E+00  0.00000000000E+00  0.10058477763E+03  0.10058477763E+03  0.00000000000E+00 0.  1.
         -2   -1    0    0    0  501 -0.00000000000E+00 -0.00000000000E+00 -0.18558416643E+02  0.18558416643E+02  0.00000000000E+00 0. -1.
          1    1    1    2  502    0 -0.21679843105E+02  0.85757152974E+01 -0.91407357941E+01  0.25042195207E+02  0.00000000000E+00 0. -1.
         -1    1    1    2    0  501  0.21679843105E+02 -0.85757152974E+01  0.91167096785E+02  0.94100999070E+02  0.00000000000E+00 0.  1.
</event>
<event>
 4    1  0.6740123E+001  0.1167045E+03  0.7546771E-02  0.1137646E+00
          2   -1    0    0  502    0  0.00000000000E+00  0.00000000000E+00  0.39038723778E+03  0.39038723778E+03  0.00000000000E+00 0. -1.
         -2   -1    0    0    0  501 -0.00000000000E+00 -0.00000000000E+00 -0.36349302342E+02  0.36349302342E+02  0.00000000000E+00 0.  1.
          1    1    1    2  502    0 -0.10952184521E+03  0.40310117635E+02  0.21979592417E+03  0.24885776750E+03  0.00000000000E+00 0. -1.
         -1    1    1    2    0  501  0.10952184521E+03 -0.40310117635E+02  0.13424201127E+03  0.17787877263E+03  0.00000000000E+00 0.  1.
</event>
<event>
 4    1  0.6740123E+001  0.2530213E+02  0.7546771E-02  0.1465452E+00
          2   -1    0    0  502    0  0.00000000000E+00  0.00000000000E+00  0.42980254479E+03  0.42980254479E+03  0.00000000000E+00 0.  1.
         -2   -1    0    0    0  501 -0.00000000000E+00 -0.00000000000E+00 -0.15671663364E+01  0.15671663364E+01  0.00000000000E+00 0. -1.
          1    1    1    2  502    0  0.12396945949E+01 -0.25271739251E+02  0.26212800420E+03  0.26334632755E+03  0.00000000000E+00 0.  1.
         -1    1    1    2    0  501 -0.12396945949E+01  0.25271739251E+02  0.16610737426E+03  0.16802338358E+03  0.00000000000E+00 0. -1.
</event>
<event>
 4    1  0.6740123E+001  0.3131851E+02  0.7546771E-02  0.1408474E+00
          2   -1    0    0  502    0  0.00000000000E+00  0.00000000000E+00  0.38341166155E+04  0.38341166155E+04  0.00000000000E+00 0. -1.
         -2   -1    0    0    0  501 -0.00000000000E+00 -0.00000000000E+00 -0.26590118407E+00  0.26590118407E+00  0.00000000000E+00 0.  1.
          1    1    1    2  502    0  0.19055850557E+02 -0.24854040803E+02  0.22902035167E+04  0.22904176468E+04  0.00000000000E+00 0. -1.
         -1    1    1    2    0  501 -0.19055850557E+02  0.24854040803E+02  0.15436471976E+04  0.15439648699E+04  0.00000000000E+00 0.  1.
</event>
<event>
 4    1  0.6740123E+001  0.2844209E+02  0.7546771E-02  0.1433636E+00
          2   -1    0    0  502    0  0.00000000000E+00  0.00000000000E+00  0.51673797629E+02  0.51673797629E+02  0.00000000000E+00 0.  1.
         -2   -1    0    0    0  501 -0.00000000000E+00 -0.00000000000E+00 -0.23742172112E+02  0.23742172112E+02  0.00000000000E+00 0. -1.
          1    1    1    2  502    0  0.15765467511E+02 -0.23672825425E+02  0.35973367563E+02  0.45858868317E+02  0.00000000000E+00 0.  1.
         -1    1    1    2    0  501 -0.15765467511E+02  0.23672825425E+02 -0.80417420454E+01  0.29557101424E+02  0.00000000000E+00 0. -1.
</event>
<event>
 4    1  0.6740123E+001  0.2128211E+02  0.7546771E-02  0.1515275E+00
          2   -1    0    0  502    0  0.00000000000E+00  0.00000000000E+00  0.80564944888E+03  0.80564944888E+03  0.00000000000E+00 0. -1.
         -2   -1    0    0    0  501 -0.00000000000E+00 -0.00000000000E+00 -0.60227411140E+00  0.60227411140E+00  0.00000000000E+00 0.  1.
          1    1    1    2  502    0 -0.94080313027E+01  0.19089707899E+02  0.29852435922E+03  0.29928200923E+03  0.00000000000E+00 0. -1.
         -1    1    1    2    0  501  0.94080313027E+01 -0.19089707899E+02  0.50652281554E+03  0.50696971376E+03  0.00000000000E+00 0.  1.
</event>
<event>
 4    1  0.6740123E+001  0.2067121E+02  0.7546771E-02  0.1524011E+00
          2   -1    0    0  502    0  0.00000000000E+00  0.00000000000E+00  0.16679286918E+01  0.16679286918E+01  0.00000000000E+00 0. -1.
         -2   -1    0    0    0  501 -0.00000000000E+00 -0.00000000000E+00 -0.29838994447E+03  0.29838994447E+03  0.00000000000E+00 0.  1.
          1    1    1    2  502    0 -0.11151705727E+02  0.17405119317E+02 -0.20478494020E+03  0.20582558260E+03  0.00000000000E+00 0.  1.
         -1    1    1    2    0  501  0.11151705727E+02 -0.17405119317E+02 -0.91937075572E+02  0.94232290558E+02  0.00000000000E+00 0. -1.
</event>
<event>
 4    1  0.6740123E+001  0.2736665E+02  0.7546771E-02  0.1443959E+00
          2   -1    0    0  502    0  0.00000000000E+00  0.00000000000E+00  0.61397995337E+03  0.61397995337E+03  0.00000000000E+00 0.  1.
         -2   -1    0    0    0  501 -0.00000000000E+00 -0.00000000000E+00 -0.12401693670E+01  0.12401693670E+01  0.00000000000E+00 0. -1.
          1    1    1    2  502    0  0.22770119906E+02 -0.15180756188E+02  0.34579128144E+03  0.34687251842E+03  0.00000000000E+00 0.  1.
         -1    1    1    2    0  501 -0.22770119906E+02  0.15180756188E+02  0.26694850256E+03  0.26834760431E+03  0.00000000000E+00 0. -1.
</event>
<event>
 4    1  0.6740123E+001  0.3080131E+02  0.7546771E-02  0.1412758E+00
          2   -1    0    0  502    0  0.00000000000E+00  0.00000000000E+00  0.63657023864E+03  0.63657023864E+03  0.00000000000E+00 0. -1.
         -2   -1    0    0    0  501 -0.00000000000E+00 -0.00000000000E+00 -0.15024330391E+01  0.15024330391E+01  0.00000000000E+00 0.  1.
          1    1    1    2  502    0  0.30297833445E+02 -0.55463484553E+01  0.28893838296E+03  0.29057548045E+03  0.00000000000E+00 0.  1.
         -1    1    1    2    0  501 -0.30297833445E+02  0.55463484553E+01  0.34612942264E+03  0.34749719123E+03  0.00000000000E+00 0. -1.
</event>
<event>
 4    1  0.6740123E+001  0.2614430E+02  0.7546771E-02  0.1456398E+00
          2   -1    0    0  502    0  0.00000000000E+00  0.00000000000E+00  0.13089040381E+04  0.13089040381E+04  0.00000000000E+00 0.  1.
         -2   -1    0    0    0  501 -0.00000000000E+00 -0.00000000000E+00 -0.10052096116E+01  0.10052096116E+01  0.00000000000E+00 0. -1.
          1    1    1    2  502    0 -0.18040922605E+02  0.18922193636E+02  0.19994950716E+03  0.20165150560E+03  0.00000000000E+00 0. -1.
         -1    1    1    2    0  501  0.18040922605E+02 -0.18922193636E+02  0.11079493214E+04  0.11082577421E+04  0.00000000000E+00 0.  1.
</event>
<event>
 4    1  0.6740123E+001  0.2287935E+02  0.7546771E-02  0.1494019E+00
          2   -1    0    0  502    0  0.00000000000E+00  0.00000000000E+00  0.45778315152E+03  0.45778315152E+03  0.00000000000E+00 0.  1.
         -2   -1    0    0    0  501 -0.00000000000E+00 -0.00000000000E+00 -0.11449824177E+01  0.11449824177E+01  0.00000000000E+00 0. -1.
          1    1    1    2  502    0 -0.57155050180E+01 -0.22153951627E+02  0.21999908851E+03  0.22118558614E+03  0.00000000000E+00 0.  1.
         -1    1    1    2    0  501  0.57155050180E+01  0.22153951627E+02  0.23663908059E+03  0.23774254780E+03  0.00000000000E+00 0. -1.
</event>
<event>
 4    1  0.6740123E+001  0.2592631E+02  0.7546771E-02  0.1458702E+00
          2   -1    0    0  502    0  0.00000000000E+00  0.00000000000E+00  0.20196061158E+03  0.20196061158E+03  0.00000000000E+00 0. -1.
         -2   -1    0    0    0  501 -0.00000000000E+00 -0.00000000000E+00 -0.33595621739E+01  0.33595621739E+01  0.00000000000E+00 0.  1.
          1    1    1    2  502    0  0.66204620563E+01  0.25066767706E+02  0.89387935996E+02  0.93071888681E+02  0.00000000000E+00 0. -1.
         -1    1    1    2    0  501 -0.66204620563E+01 -0.25066767706E+02  0.10921311341E+03  0.11224828507E+03  0.00000000000E+00 0.  1.
</event>
<event>
 4    1  0.6740123E+001  0.2418020E+02  0.7546771E-02  0.1478187E+00
          2   -1    0    0  502    0  0.00000000000E+00  0.00000000000E+00  0.76226021995E+03  0.76226021995E+03  0.00000000000E+00 0.  1.
         -2   -1    0    0    0  501 -0.00000000000E+00 -0.00000000000E+00 -0.10985795071E+01  0.10985795071E+01  0.00000000000E+00 0. -1.
          1    1    1    2  502    0 -0.10762188424E+02 -0.21653119396E+02  0.59025848159E+03  0.59075355044E+03  0.00000000000E+00 0.  1.
         -1    1    1    2    0  501  0.10762188424E+02  0.21653119396E+02  0.17090315886E+03  0.17260524901E+03  0.00000000000E+00 0. -1.
</event>
<event>
 4    1  0.6740123E+001  0.2705087E+02  0.7546771E-02  0.1447098E+00
          2   -1    0    0  502    0  0.00000000000E+00  0.00000000000E+00  0.40392603956E+01  0.40392603956E+01  0.00000000000E+00 0.  1.
         -2   -1    0    0    0  501 -0.00000000000E+00 -0.00000000000E+00 -0.18171453496E+03  0.18171453496E+03  0.00000000000E+00 0. -1.
          1    1    1    2  502    0 -0.18250726500E+02  0.19966490491E+02 -0.83703891325E+02  0.87966420771E+02  0.00000000000E+00 0.  1.
         -1    1    1    2    0  501  0.18250726500E+02 -0.19966490491E+02 -0.93971383243E+02  0.97787374588E+02  0.00000000000E+00 0. -1.
</event>
<event>
 4    1  0.6740123E+001  0.3224770E+02  0.7546771E-02  0.1401019E+00
          2   -1    0    0  502    0  0.00000000000E+00  0.00000000000E+00  0.31247979768E+02  0.31247979768E+02  0.00000000000E+00 0.  1.
         -2   -1    0    0    0  501 -0.00000000000E+00 -0.00000000000E+00 -0.43759479755E+02  0.43759479755E+02  0.00000000000E+00 0. -1.
          1    1    1    2  502    0  0.19628340073E+02  0.25585981998E+02 -0.24609320005E+02  0.40565167816E+02  0.00000000000E+00 0. -1.
         -1    1    1    2    0  501 -0.19628340073E+02 -0.25585981998E+02  0.12097820018E+02  0.34442291707E+02  0.00000000000E+00 0.  1.
</event>
<event>
 4    1  0.6740123E+001  0.3274904E+02  0.7546771E-02  0.1397118E+00
          2   -1    0    0  502    0  0.00000000000E+00  0.00000000000E+00  0.15245749097E+02  0.15245749097E+02  0.00000000000E+00 0. -1.
         -2   -1    0    0    0  501 -0.00000000000E+00 -0.00000000000E+00 -0.77262918692E+02  0.77262918692E+02  0.00000000000E+00 0.  1.
          1    1    1    2  502    0 -0.87513360715E+01 -0.31558101054E+02 -0.44846720238E+02  0.55531323965E+02  0.00000000000E+00 0.  1.
         -1    1    1    2    0  501  0.87513360715E+01  0.31558101054E+02 -0.17170449357E+02  0.36977343824E+02  0.00000000000E+00 0. -1.
</event>
<event>
 4    1  0.6740123E+001  0.2005427E+02  0.7546771E-02  0.1533208E+00
          2   -1    0    0  502    0  0.00000000000E+00  0.00000000000E+00  0.26359782250E+03  0.26359782250E+03  0.00000000000E+00 0.  1.
         -2   -1    0    0    0  501 -0.00000000000E+00 -0.00000000000E+00 -0.26125827155E+01  0.26125827155E+01  0.00000000000E+00 0. -1.
          1    1    1    2  502    0 -0.19678936192E+02 -0.38617457874E+01  0.21634444238E+03  0.21727192952E+03  0.00000000000E+00 0.  1.
         -1    1    1    2    0  501  0.19678936192E+02  0.38617457874E+01  0.44640797412E+02  0.48938475699E+02  0.00000000000E+00 0. -1.
</event>
<event>
 4    1  0.6740123E+001  0.2609325E+02  0.7546771E-02  0.1456936E+00
          2   -1    0    0  502    0  0.00000000000E+00  0.00000000000E+00  0.18286961131E+04  0.18286961131E+04  0.00000000000E+00 0. -1.
         -2   -1    0    0    0  501 -0.00000000000E+00 -0.00000000000E+00 -0.37238595264E+00  0.37238595264E+00  0.00000000000E+00 0.  1.
          1    1    1    2  502    0 -0.86760424861E+01 -0.24608611713E+02  0.92646581251E+03  0.92683318846E+03  0.00000000000E+00 0.  1.
         -1    1    1    2    0  501  0.86760424861E+01  0.24608611713E+02  0.90185791465E+03  0.90223531061E+03  0.00000000000E+00 0. -1.
</event>
<event>
 4    1  0.6740123E+001  0.2250392E+02  0.7546771E-02  0.1498823E+00
          2   -1    0    0  502    0  0.00000000000E+00  0.00000000000E+00  0.19091131245E+04  0.19091131245E+04  0.00000000000E+00 0.  1.
         -2   -1    0    0    0  501 -0.00000000000E+00 -0.00000000000E+00 -0.28272676364E+00  0.28272676364E+00  0.00000000000E+00 0. -1.
          1    1    1    2  502    0  0.17614850420E+02  0.14005123262E+02  0.11916566008E+04  0.11918690703E+04  0.00000000000E+00 0.  1.
         -1    1    1    2    0  501 -0.17614850420E+02 -0.14005123262E+02  0.71717379696E+03  0.71752678102E+03  0.00000000000E+00 0. -1.
</event>
<event>
 4    1  0.6740123E+001  0.5869733E+02  0.7546771E-02  0.1264324E+00
          2   -1    0    0  502    0  0.00000000000E+00  0.00000000000E+00  0.11717659880E+02  0.11717659880E+02  0.00000000000E+00 0.  1.
         -2   -1    0    0    0  501 -0.00000000000E+00 -0.00000000000E+00 -0.46017053061E+03  0.46017053061E+03  0.00000000000E+00 0. -1.
          1    1    1    2  502    0 -0.25989222917E+02 -0.52630185371E+02 -0.82456587426E+02  0.10121494420E+03  0.00000000000E+00 0.  1.
         -1    1    1    2    0  501  0.25989222917E+02  0.52630185371E+02 -0.36599628331E+03  0.37067324629E+03  0.00000000000E+00 0. -1.
</event>
<event>
 4    1  0.6740123E+001  0.3788939E+02  0.7546771E-02  0.1361318E+00
          2   -1    0    0  502    0  0.00000000000E+00  0.00000000000E+00  0.90072765975E+03  0.90072765975E+03  0.00000000000E+00 0. -1.
         -2   -1    0    0    0  501 -0.00000000000E+00 -0.00000000000E+00 -0.22228748584E+01  0.22228748584E+01  0.00000000000E+00 0.  1.
          1    1    1    2  502    0  0.29696394092E+02  0.23531470424E+02  0.68942174574E+03  0.69046212744E+03  0.00000000000E+00 0. -1.
         -1    1    1    2    0  501 -0.29696394092E+02 -0.23531470424E+02  0.20908303915E+03  0.21248840717E+03  0.00000000000E+00 0.  1.
</event>
<event>
 4    1  0.6740123E+001  0.3033532E+02  0.7546771E-02  0.1416704E+00
          2   -1    0    0  502    0  0.00000000000E+00  0.00000000000E+00  0.40015794255E+01  0.40015794255E+01  0.00000000000E+00 0.  1.
         -2   -1    0    0    0  501 -0.00000000000E+00 -0.00000000000E+00 -0.75130323434E+03  0.75130323434E+03  0.00000000000E+00 0. -1.
          1    1    1    2  502    0 -0.21874471558E+02 -0.21017592377E+02 -0.59061827307E+02  0.66396770554E+02  0.00000000000E+00 0.  1.
         -1    1    1    2    0  501  0.21874471558E+02  0.21017592377E+02 -0.68823982761E+03  0.68890804321E+03  0.00000000000E+00 0. -1.
</event>
<event>
 4    1  0.6740123E+001  0.2823130E+02  0.7546771E-02  0.1435617E+00
          2   -1    0    0  502    0  0.00000000000E+00  0.00000000000E+00  0.14683306236E+04  0.14683306236E+04  0.00000000000E+00 0. -1.
         -2   -1    0    0    0  501 -0.00000000000E+00 -0.00000000000E+00 -0.12856490193E+01  0.12856490193E+01  0.00000000000E+00 0.  1.
          1    1    1    2  502    0  0.20844804115E+02 -0.19039444381E+02  0.12920746417E+04  0.12923830260E+04  0.00000000000E+00 0. -1.
         -1    1    1    2    0  501 -0.20844804115E+02  0.19039444381E+02  0.17497033293E+03  0.17723324661E+03  0.00000000000E+00 0.  1.
</event>
<event>
 4    1  0.6740123E+001  0.2158319E+02  0.7546771E-02  0.1511099E+00
          2   -1    0    0  502    0  0.00000000000E+00  0.00000000000E+00  0.16965849742E+03  0.16965849742E+03  0.00000000000E+00 0.  1.
         -2   -1    0    0    0  501 -0.00000000000E+00 -0.00000000000E+00 -0.32489188594E+01  0.32489188594E+01  0.00000000000E+00 0. -1.
          1    1    1    2  502    0  0.14138336094E+02 -0.16307710847E+02  0.11722883255E+03  0.11919913239E+03  0.00000000000E+00 0. -1.
         -1    1    1    2    0  501 -0.14138336094E+02  0.16307710847E+02  0.49180746008E+02  0.53708283891E+02  0.00000000000E+00 0.  1.
</event>
<event>
 4    1  0.6740123E+001  0.2346767E+02  0.7546771E-02  0.1486708E+00
          2   -1    0    0  502    0  0.00000000000E+00  0.00000000000E+00  0.65319726583E+03  0.65319726583E+03  0.00000000000E+00 0.  1.
         -2   -1    0    0    0  501 -0.00000000000E+00 -0.00000000000E+00 -0.94278566849E+00  0.94278566849E+00  0.00000000000E+00 0. -1.
          1    1    1    2  502    0 -0.18836980509E+02 -0.13996419707E+02  0.43246331618E+03  0.43309958605E+03  0.00000000000E+00 0.  1.
         -1    1    1    2    0  501  0.18836980509E+02  0.13996419707E+02  0.21979116399E+03  0.22104046545E+03  0.00000000000E+00 0. -1.
</event>
<event>
 4    1  0.6740123E+001  0.2626141E+02  0.7546771E-02  0.1455172E+00
          2   -1    0    0  502    0  0.00000000000E+00  0.00000000000E+00  0.77368625754E+03  0.77368625754E+03  0.00000000000E+00 0. -1.
         -2   -1    0    0    0  501 -0.00000000000E+00 -0.00000000000E+00 -0.10623441944E+01  0.10623441944E+01  0.00000000000E+00 0.  1.
          1    1    1    2  502    0 -0.25077372460E+02  0.77965914047E+01  0.54170423545E+03  0.54234042828E+03  0.00000000000E+00 0.  1.
         -1    1    1    2    0  501  0.25077372460E+02 -0.77965914047E+01  0.23091967790E+03  0.23240817345E+03  0.00000000000E+00 0. -1.
</event>
<event>
 4    1  0.6740123E+001  0.2538090E+02  0.7546771E-02  0.1464587E+00
          2   -1    0    0  502    0  0.00000000000E+00  0.00000000000E+00  0.87883557759E+02  0.87883557759E+02  0.00000000000E+00 0. -1.
         -2   -1    0    0    0  501 -0.00000000000E+00 -0.00000000000E+00 -0.95630530266E+01  0.95630530266E+01  0.00000000000E+00 0.  1.
          1    1    1    2  502    0 -0.17734597834E+02  0.18156935683E+02  0.62704443768E+02  0.67646415589E+02  0.00000000000E+00 0. -1.
         -1    1    1    2    0  501  0.17734597834E+02 -0.18156935683E+02  0.15616060964E+02  0.29800195197E+02  0.00000000000E+00 0.  1.
</event>
<event>
 4    1  0.6740123E+001  0.2428084E+02  0.7546771E-02  0.1477012E+00
          2   -1    0    0  502    0  0.00000000000E+00  0.00000000000E+00  0.20148849837E+03  0.20148849837E+03  0.00000000000E+00 0.  1.
         -2   -1    0    0    0  501 -0.00000000000E+00 -0.00000000000E+00 -0.71304366322E+01  0.71304366322E+01  0.00000000000E+00 0. -1.
          1    1    1    2  502    0 -0.20566418678E+02 -0.12906641678E+02  0.17081589893E+02  0.29687365830E+02  0.00000000000E+00 0. -1.
         -1    1    1    2    0  501  0.20566418678E+02  0.12906641678E+02  0.17727647184E+03  0.17893156917E+03  0.00000000000E+00 0.  1.
</event>
<event>
 4    1  0.6740123E+001  0.2883712E+02  0.7546771E-02  0.1429978E+00
          2   -1    0    0  502    0  0.00000000000E+00  0.00000000000E+00  0.19369122794E+04  0.19369122794E+04  0.00000000000E+00 0.  1.
         -2   -1    0    0    0  501 -0.00000000000E+00 -0.00000000000E+00 -0.45818308953E+00  0.45818308953E+00  0.00000000000E+00 0. -1.
          1    1    1    2  502    0  0.24243920850E+02 -0.15614468717E+02  0.72515180541E+03  0.72572496183E+03  0.00000000000E+00 0. -1.
         -1    1    1    2    0  501 -0.24243920850E+02  0.15614468717E+02  0.12113022909E+04  0.12116455007E+04  0.00000000000E+00 0.  1.
</event>
<event>
 4    1  0.6740123E+001  0.2041382E+02  0.7546771E-02  0.1527801E+00
          2   -1    0    0  502    0  0.00000000000E+00  0.00000000000E+00  0.84014457932E+03  0.84014457932E+03  0.00000000000E+00 0.  1.
         -2   -1    0    0    0  501 -0.00000000000E+00 -0.00000000000E+00 -0.59840516947E+00  0.59840516947E+00  0.00000000000E+00 0. -1.
          1    1    1    2  502    0 -0.70454997013E+01  0.19159461886E+02  0.24588677577E+03  0.24673271073E+03  0.00000000000E+00 0. -1.
         -1    1    1    2    0  501  0.70454997013E+01 -0.19159461886E+02  0.59365939837E+03  0.59401027375E+03  0.00000000000E+00 0.  1.
</event>
<event>
 4    1  0.6740123E+001  0.2258378E+02  0.7546771E-02  0.1497792E+00
          2   -1    0    0  502    0  0.00000000000E+00  0.00000000000E+00  0.57861923481E+00  0.57861923481E+00  0.00000000000E+00 0. -1.
         -2   -1    0    0    0  501 -0.00000000000E+00 -0.00000000000E+00 -0.98041836022E+03  0.98041836022E+03  0.00000000000E+00 0.  1.
          1    1    1    2  502    0 -0.22446371701E+02  0.24875146959E+01 -0.33408407477E+03  0.33484652655E+03  0.00000000000E+00 0. -1.
         -1    1    1    2    0  501  0.22446371701E+02 -0.24875146959E+01 -0.64575566622E+03  0.64615045291E+03  0.00000000000E+00 0.  1.
</event>
<event>
 4    1  0.6740123E+001  0.2064843E+02  0.7546771E-02  0.1524344E+00
          2   -1    0    0  502    0  0.00000000000E+00  0.00000000000E+00  0.86135506345E+03  0.86135506345E+03  0.00000000000E+00 0. -1.
         -2   -1    0    0    0  501 -0.00000000000E+00 -0.00000000000E+00 -0.23924143357E+01  0.23924143357E+01  0.00000000000E+00 0.  1.
          1    1    1    2  502    0 -0.20473586377E+02 -0.26814279411E+01  0.44870582867E+02  0.49393592720E+02  0.00000000000E+00 0.  1.
         -1    1    1    2    0  501  0.20473586377E+02  0.26814279411E+01  0.81409206625E+03  0.81435388507E+03  0.00000000000E+00 0. -1.
</event>
<event>
 4    1  0.6740123E+001  0.2099075E+02  0.7546771E-02  0.1519397E+00
          2   -1    0    0  502    0  0.00000000000E+00  0.00000000000E+00  0.23534546152E+01  0.23534546152E+01  0.00000000000E+00 0. -1.
         -2   -1    0    0    0  501 -0.00000000000E+00 -0.00000000000E+00 -0.25890719166E+03  0.25890719166E+03  0.00000000000E+00 0.  1.
          1    1    1    2  502    0  0.60498117187E+01  0.20100031627E+02 -0.19701467390E+03  0.19812973836E+03  0.00000000000E+00 0.  1.
         -1    1    1    2    0  501 -0.60498117187E+01 -0.20100031627E+02 -0.59539063149E+02  0.63130907913E+02  0.00000000000E+00 0. -1.
</event>
<event>
 4    1  0.6740123E+001  0.2460379E+02  0.7546771E-02  0.1473285E+00
          2   -1    0    0  502    0  0.00000000000E+00  0.00000000000E+00  0.24281335073E+02  0.24281335073E+02  0.00000000000E+00 0. -1.
         -2   -1    0    0    0  501 -0.00000000000E+00 -0.00000000000E+00 -0.31514451176E+02  0.31514451176E+02  0.00000000000E+00 0.  1.
          1    1    1    2  502    0  0.17847612575E+01  0.24538974973E+02 -0.16367982143E+02  0.29550930695E+02  0.00000000000E+00 0.  1.
         -1    1    1    2    0  501 -0.17847612575E+01 -0.24538974973E+02  0.91348660395E+01  0.26244855554E+02  0.00000000000E+00 0. -1.
</event>
<event>
 4    1  0.6740123E+001  0.2033985E+02  0.7546771E-02  0.1528902E+00
          2   -1    0    0  502    0  0.00000000000E+00  0.00000000000E+00  0.47517309148E+01  0.47517309148E+01  0.00000000000E+00 0. -1.
         -2   -1    0    0    0  501 -0.00000000000E+00 -0.00000000000E+00 -0.10236249692E+03  0.10236249692E+03  0.00000000000E+00 0.  1.
          1    1    1    2  502    0  0.64284848354E+00 -0.20329690508E+02 -0.69509492898E+02  0.72424299605E+02  0.00000000000E+00 0.  1.
         -1    1    1    2    0  501 -0.64284848354E+00  0.20329690508E+02 -0.28101273103E+02  0.34689928226E+02  0.00000000000E+00 0. -1.
</event>
<event>
 4    1  0.6740123E+001  0.7718636E+02  0.7546771E-02  0.1210535E+00
          2   -1    0    0  502    0  0.00000000000E+00  0.00000000000E+00  0.23818931393E+04  0.23818931393E+04  0.00000000000E+00 0. -1.
         -2   -1    0    0    0  501 -0.00000000000E+00 -0.00000000000E+00 -0.31069044621E+01  0.31069044621E+01  0.00000000000E+00 0.  1.
          1    1    1    2  502    0 -0.14883592168E+02  0.75737790664E+02  0.17158990739E+04  0.17176342352E+04  0.00000000000E+00 0. -1.
         -1    1    1    2    0  501  0.14883592168E+02 -0.75737790664E+02  0.66288716090E+03  0.66736580848E+03  0.00000000000E+00 0.  1.
</event>
<event>
 4    1  0.6740123E+001  0.2352321E+02  0.7546771E-02  0.1486031E+00
          2   -1    0    0  502    0  0.00000000000E+00  0.00000000000E+00  0.78338888893E+03  0.78338888893E+03  0.00000000000E+00 0. -1.
         -2   -1    0    0    0  501 -0.00000000000E+00 -0.00000000000E+00 -0.20161489721E+01  0.20161489721E+01  0.00000000000E+00 0.  1.
          1    1    1    2  502    0 -0.16097521732E+02  0.17152590836E+02  0.70720974874E+03  0.70760085521E+03  0.00000000000E+00 0. -1.
         -1    1    1    2    0  501  0.16097521732E+02 -0.17152590836E+02  0.74162991220E+02  0.77804182696E+02  0.00000000000E+00 0.  1.
</event>
<event>
 4    1  0.6740123E+001  0.2941592E+02  0.7546771E-02  0.1424741E+00
          2   -1    0    0  502    0  0.00000000000E+00  0.00000000000E+00  0.29910684359E+03  0.29910684359E+03  0.00000000000E+00 0. -1.
         -2   -1    0    0    0  501 -0.00000000000E+00 -0.00000000000E+00 -0.41546143275E+01  0.41546143275E+01  0.00000000000E+00 0.  1.
          1    1    1    2  502    0  0.22832246955E+02 -0.18546824381E+02  0.63916462278E+02  0.70360573802E+02  0.00000000000E+00 0.  1.
         -1    1    1    2    0  501 -0.22832246955E+02  0.18546824381E+02  0.23103576699E+03  0.23290088412E+03  0.00000000000E+00 0. -1.
</event>
<event>
 4    1  0.6740123E+001  0.3269839E+02  0.7546771E-02  0.1397509E+00
          2   -1    0    0  502    0  0.00000000000E+00  0.00000000000E+00  0.64110217123E+02  0.64110217123E+02  0.00000000000E+00 0. -1.
         -2   -1    0    0    0  501 -0.00000000000E+00 -0.00000000000E+00 -0.16943571834E+02  0.16943571834E+02  0.00000000000E+00 0.  1.
          1    1    1    2  502    0  0.24157656567E+02  0.22036152866E+02  0.18502720822E+02  0.37570401671E+02  0.00000000000E+00 0.  1.
         -1    1    1    2    0  501 -0.24157656567E+02 -0.22036152866E+02  0.28663924468E+02  0.43483387285E+02  0.00000000000E+00 0. -1.
</event>
<event>
 4    1  0.6740123E+001  0.4612657E+02  0.7546771E-02  0.1315900E+00
          2   -1    0    0  502    0  0.00000000000E+00  0.00000000000E+00  0.63163690168E+03  0.63163690168E+03  0.00000000000E+00 0. -1.
         -2   -1    0    0    0  501 -0.00000000000E+00 -0.00000000000E+00 -0.35263739423E+01  0.35263739423E+01  0.00000000000E+00 0.  1.
          1    1    1    2  502    0  0.29533157487E+02  0.35432366990E+02  0.38125472166E+03  0.38403492395E+03  0.00000000000E+00 0.  1.
         -1    1    1    2    0  501 -0.29533157487E+02 -0.35432366990E+02  0.24685580607E+03  0.25112835167E+03  0.00000000000E+00 0. -1.
</event>
<event>
 4    1  0.6740123E+001  0.2118787E+02  0.7546771E-02  0.1516599E+00
          2   -1    0    0  502    0  0.00000000000E+00  0.00000000000E+00  0.86325604781E+03  0.86325604781E+03  0.00000000000E+00 0. -1.
         -2   -1    0    0    0  501 -0.00000000000E+00 -0.00000000000E+00 -0.69829351561E+00  0.69829351561E+00  0.00000000000E+00 0.  1.
          1    1    1    2  502    0  0.18590176903E+02  0.10165190655E+02  0.64953353436E+03  0.64987901800E+03  0.00000000000E+00 0. -1.
         -1    1    1    2    0  501 -0.18590176903E+02 -0.10165190655E+02  0.21302421993E+03  0.21407532332E+03  0.00000000000E+00 0.  1.
</event>
<event>
 4    1  0.6740123E+001  0.3523880E+02  0.7546771E-02  0.1378892E+00
          2   -1    0    0  502    0  0.00000000000E+00  0.00000000000E+00  0.39266939862E+01  0.39266939862E+01  0.00000000000E+00 0. -1.
         -2   -1    0    0    0  501 -0.00000000000E+00 -0.00000000000E+00 -0.37716916674E+03  0.37716916674E+03  0.00000000000E+00 0.  1.
          1    1    1    2  502    0 -0.25067981081E+02  0.24766298469E+02 -0.26320784527E+03  0.26555628975E+03  0.00000000000E+00 0.  1.
         -1    1    1    2    0  501  0.25067981081E+02 -0.24766298469E+02 -0.11003462748E+03  0.11553957097E+03  0.00000000000E+00 0. -1.
</event>
<event>
 4    1  0.6740123E+001  0.2104613E+02  0.7546771E-02  0.1518607E+00
          2   -1    0    0  502    0  0.00000000000E+00  0.00000000000E+00  0.67849654820E+02  0.67849654820E+02  0.00000000000E+00 0. -1.
         -2   -1    0    0    0  501 -0.00000000000E+00 -0.00000000000E+00 -0.67355155437E+01  0.67355155437E+01  0.00000000000E+00 0.  1.
          1    1    1    2  502    0  0.11738812338E+02  0.17468256269E+02  0.24015261590E+02  0.31932310932E+02  0.00000000000E+00 0.  1.
         -1    1    1    2    0  501 -0.11738812338E+02 -0.17468256269E+02  0.37098877686E+02  0.42652859432E+02  0.00000000000E+00 0. -1.
</event>
<event>
 4    1  0.6740123E+001  0.2466638E+02  0.7546771E-02  0.1472570E+00
          2   -1    0    0  502    0  0.00000000000E+00  0.00000000000E+00  0.29499813565E+01  0.29499813565E+01  0.00000000000E+00 0.  1.
         -2   -1    0    0    0  501 -0.00000000000E+00 -0.00000000000E+00 -0.20626713078E+03  0.20626713078E+03  0.00000000000E+00 0. -1.
          1    1    1    2  502    0 -0.23119677170E+02 -0.85971388527E+01 -0.10067383157E+03  0.10365158287E+03  0.00000000000E+00 0.  1.
         -1    1    1    2    0  501  0.23119677170E+02  0.85971388527E+01 -0.10264331785E+03  0.10556552926E+03  0.00000000000E+00 0. -1.
</event>
<event>
 4    1  0.6740123E+001  0.2152753E+02  0.7546771E-02  0.1511865E+00
          2   -1    0    0  502    0  0.00000000000E+00  0.00000000000E+00  0.21499918888E+03  0.21499918888E+03  0.00000000000E+00 0. -1.
         -2   -1    0    0    0  501 -0.00000000000E+00 -0.00000000000E+00 -0.77893943880E+01  0.77893943880E+01  0.00000000000E+00 0.  1.
          1    1    1    2  502    0 -0.19231961509E+02 -0.96729641168E+01  0.19834083409E+03  0.19950569176E+03  0.00000000000E+00 0. -1.
         -1    1    1    2    0  501  0.19231961509E+02  0.96729641168E+01  0.88689604044E+01  0.23282891507E+02  0.00000000000E+00 0.  1.
</event>
<event>
 4    1  0.6740123E+001  0.2085644E+02  0.7546771E-02  0.1521324E+00
          2   -1    0    0  502    0  0.00000000000E+00  0.00000000000E+00  0.14530316039E+04  0.14530316039E+04  0.00000000000E+00 0. -1.
         -2   -1    0    0    0  501 -0.00000000000E+00 -0.00000000000E+00 -0.39519313583E+00  0.39519313583E+00  0.00000000000E+00 0.  1.
          1    1    1    2  502    0  0.52545199122E+01 -0.20183687058E+02  0.10841658264E+04  0.10843664188E+04  0.00000000000E+00 0.  1.
         -1    1    1    2    0  501 -0.52545199122E+01  0.20183687058E+02  0.36847058443E+03  0.36906037825E+03  0.00000000000E+00 0. -1.
</event>
<event>
 4    1  0.6740123E+001  0.4177505E+02  0.7546771E-02  0.1338387E+00
          2   -1    0    0  502    0  0.00000000000E+00  0.00000000000E+00  0.14298184543E+04  0.14298184543E+04  0.00000000000E+00 0.  1.
         -2   -1    0    0    0  501 -0.00000000000E+00 -0.00000000000E+00 -0.13530548559E+01  0.13530548559E+01  0.00000000000E+00 0. -1.
          1    1    1    2  502    0  0.25004391801E+02 -0.33465429491E+02  0.93817272629E+03  0.93910234742E+03  0.00000000000E+00 0.  1.
         -1    1    1    2    0  501 -0.25004391801E+02  0.33465429491E+02  0.49029267318E+03  0.49206916176E+03  0.00000000000E+00 0. -1.
</event>
<event>
 4    1  0.6740123E+001  0.2128023E+02  0.7546771E-02  0.1515301E+00
          2   -1    0    0  502    0  0.00000000000E+00  0.00000000000E+00  0.16728204134E+03  0.16728204134E+03  0.00000000000E+00 0. -1.
         -2   -1    0    0    0  501 -0.00000000000E+00 -0.00000000000E+00 -0.27071394208E+01  0.27071394208E+01  0.00000000000E+00 0.  1.
          1    1    1    2  502    0 -0.16265137843E+02 -0.13722009219E+02  0.82634781253E+02  0.85330857952E+02  0.00000000000E+00 0. -1.
         -1    1    1    2    0  501  0.16265137843E+02  0.13722009219E+02  0.81940120666E+02  0.84658322809E+02  0.00000000000E+00 0.  1.
</event>
<event>
 4    1  0.6740123E+001  0.2408796E+02  0.7546771E-02  0.1479270E+00
          2   -1    0    0  502    0  0.00000000000E+00  0.00000000000E+00  0.11843818983E+04  0.11843818983E+04  0.00000000000E+00 0. -1.
         -2   -1    0    0    0  501 -0.00000000000E+00 -0.00000000000E+00 -0.11057869648E+01  0.11057869648E+01  0.00000000000E+00 0.  1.
          1    1    1    2  502    0 -0.10063982189E+02 -0.21884838277E+02  0.10340037803E+04  0.10342843166E+04  0.00000000000E+00 0. -1.
         -1    1    1    2    0  501  0.10063982189E+02  0.21884838277E+02  0.14927233106E+03  0.15120336869E+03  0.00000000000E+00 0.  1.
</event>
<event>
 4    1  0.6740123E+001  0.2403167E+02  0.7546771E-02  0.1479934E+00
          2   -1    0    0  502    0  0.00000000000E+00  0.00000000000E+00  0.58538393908E+02  0.58538393908E+02  0.00000000000E+00 0. -1.
         -2   -1    0    0    0  501 -0.00000000000E+00 -0.00000000000E+00 -0.16430850069E+02  0.16430850069E+02  0.00000000000E+00 0.  1.
          1    1    1    2  502    0 -0.31619397294E+01  0.23822748161E+02  0.44748189377E+02  0.50792929088E+02  0.00000000000E+00 0. -1.
         -1    1    1    2    0  501  0.31619397294E+01 -0.23822748161E+02 -0.26406455371E+01  0.24176314889E+02  0.00000000000E+00 0.  1.
</event>
<event>
 4    1  0.6740123E+001  0.2127737E+02  0.7546771E-02  0.1515341E+00
          2   -1    0    0  502    0  0.00000000000E+00  0.00000000000E+00  0.84145458095E+02  0.84145458095E+02  0.00000000000E+00 0. -1.
         -2   -1    0    0    0  501 -0.00000000000E+00 -0.00000000000E+00 -0.66843458618E+01  0.66843458618E+01  0.00000000000E+00 0.  1.
          1    1    1    2  502    0  0.97203020924E+01  0.18927289523E+02  0.18671161389E+02  0.28307928731E+02  0.00000000000E+00 0.  1.
         -1    1    1    2    0  501 -0.97203020924E+01 -0.18927289523E+02  0.58789950845E+02  0.62521875226E+02  0.00000000000E+00 0. -1.
</event>
<event>
 4    1  0.6740123E+001  0.2902879E+02  0.7546771E-02  0.1428228E+00
          2   -1    0    0  502    0  0.00000000000E+00  0.00000000000E+00  0.79871738848E+02  0.79871738848E+02  0.00000000000E+00 0.  1.
         -2   -1    0    0    0  501 -0.00000000000E+00 -0.00000000000E+00 -0.14259873985E+02  0.14259873985E+02  0.00000000000E+00 0. -1.
          1    1    1    2  502    0 -0.66538778465E+01 -0.28255912329E+02  0.88004865242E+01  0.30333467243E+02  0.00000000000E+00 0. -1.
         -1    1    1    2    0  501  0.66538778465E+01  0.28255912329E+02  0.56811378339E+02  0.63798145590E+02  0.00000000000E+00 0.  1.
</event>
<event>
 4    1  0.6740123E+001  0.2849252E+02  0.7546771E-02  0.1433165E+00
          2   -1    0    0  502    0  0.00000000000E+00  0.00000000000E+00  0.12667730040E+03  0.12667730040E+03  0.00000000000E+00 0. -1.
         -2   -1    0    0    0  501 -0.00000000000E+00 -0.00000000000E+00 -0.74585474521E+01  0.74585474521E+01  0.00000000000E+00 0.  1.
          1    1    1    2  502    0  0.15192728512E+02 -0.24104037695E+02  0.84772952344E+02  0.89433087176E+02  0.00000000000E+00 0. -1.
         -1    1    1    2    0  501 -0.15192728512E+02  0.24104037695E+02  0.34445800608E+02  0.44702760680E+02  0.00000000000E+00 0.  1.
</event>
<event>
 4    1  0.6740123E+001  0.6311890E+02  0.7546771E-02  0.1249589E+00
          2   -1    0    0  502    0  0.00000000000E+00  0.00000000000E+00  0.23121302756E+02  0.23121302756E+02  0.00000000000E+00 0. -1.
         -2   -1    0    0    0  501 -0.00000000000E+00 -0.00000000000E+00 -0.20683738137E+03  0.20683738137E+03  0.00000000000E+00 0.  1.
          1    1    1    2  502    0 -0.14222417089E+02 -0.61495672809E+02 -0.44879758207E+02  0.77447967170E+02  0.00000000000E+00 0. -1.
         -1    1    1    2    0  501  0.14222417089E+02  0.61495672809E+02 -0.13883632041E+03  0.15251071696E+03  0.00000000000E+00 0.  1.
</event>
<event>
 4    1  0.6740123E+001  0.2937105E+02  0.7546771E-02  0.1425142E+00
          2   -1    0    0  502    0  0.00000000000E+00  0.00000000000E+00  0.24544736479E+04  0.24544736479E+04  0.00000000000E+00 0.  1.
         -2   -1    0    0    0  501 -0.00000000000E+00 -0.00000000000E+00 -0.47459342748E+00  0.47459342748E+00  0.00000000000E+00 0. -1.
          1    1    1    2  502    0  0.25343074604E+02  0.14845432417E+02  0.60177931041E+03  0.60249564042E+03  0.00000000000E+00 0. -1.
         -1    1    1    2    0  501 -0.25343074604E+02 -0.14845432417E+02  0.18522197441E+04  0.18524526009E+04  0.00000000000E+00 0.  1.
</event>
<event>
 4    1  0.6740123E+001  0.3032295E+02  0.7546771E-02  0.1416810E+00
          2   -1    0    0  502    0  0.00000000000E+00  0.00000000000E+00  0.22572416807E+03  0.22572416807E+03  0.00000000000E+00 0. -1.
         -2   -1    0    0    0  501 -0.00000000000E+00 -0.00000000000E+00 -0.48179727717E+01  0.48179727717E+01  0.00000000000E+00 0.  1.
          1    1    1    2  502    0 -0.94578855646E+01 -0.28810241034E+02  0.65140383824E+02  0.71852287316E+02  0.00000000000E+00 0. -1.
         -1    1    1    2    0  501  0.94578855646E+01  0.28810241034E+02  0.15576581147E+03  0.15868985352E+03  0.00000000000E+00 0.  1.
</event>
<event>
 4    1  0.6740123E+001  0.2301189E+02  0.7546771E-02  0.1492349E+00
          2   -1    0    0  502    0  0.00000000000E+00  0.00000000000E+00  0.95481025255E+01  0.95481025255E+01  0.00000000000E+00 0. -1.
         -2   -1    0    0    0  501 -0.00000000000E+00 -0.00000000000E+00 -0.12569029614E+03  0.12569029614E+03  0.00000000000E+00 0.  1.
          1    1    1    2  502    0  0.11236069171E+02  0.20082275725E+02 -0.75260744263E+01  0.24211337117E+02  0.00000000000E+00 0. -1.
         -1    1    1    2    0  501 -0.11236069171E+02 -0.20082275725E+02 -0.10861611919E+03  0.11102706155E+03  0.00000000000E+00 0.  1.
</event>
<event>
 4    1  0.6740123E+001  0.2354161E+02  0.7546771E-02  0.1485807E+00
          2   -1    0    0  502    0  0.00000000000E+00  0.00000000000E+00  0.12888293274E+03  0.12888293274E+03  0.00000000000E+00 0.  1.
         -2   -1    0    0    0  501 -0.00000000000E+00 -0.00000000000E+00 -0.46310927045E+01  0.46310927045E+01  0.00000000000E+00 0. -1.
          1    1    1    2  502    0 -0.22032348183E+02 -0.82935471802E+01  0.44278493374E+02  0.50147704501E+02  0.00000000000E+00 0. -1.
         -1    1    1    2    0  501  0.22032348183E+02  0.82935471802E+01  0.79973346657E+02  0.83366320938E+02  0.00000000000E+00 0.  1.
</event>
<event>
 4    1  0.6740123E+001  0.2855198E+02  0.7546771E-02  0.1432612E+00
          2   -1    0    0  502    0  0.00000000000E+00  0.00000000000E+00  0.14307088948E+04  0.14307088948E+04  0.00000000000E+00 0. -1.
         -2   -1    0    0    0  501 -0.00000000000E+00 -0.00000000000E+00 -0.61722311587E+00  0.61722311587E+00  0.00000000000E+00 0.  1.
          1    1    1    2  502    0 -0.28544148950E+02 -0.66886320594E+00  0.51666975421E+03  0.51745806664E+03  0.00000000000E+00 0.  1.
         -1    1    1    2    0  501  0.28544148950E+02  0.66886320594E+00  0.91342191750E+03  0.91386805130E+03  0.00000000000E+00 0. -1.
</event>
<event>
 4    1  0.6740123E+001  0.3162836E+02  0.7546771E-02  0.1405955E+00
          2   -1    0    0  502    0  0.00000000000E+00  0.00000000000E+00  0.17322440800E+02  0.17322440800E+02  0.00000000000E+00 0. -1.
         -2   -1    0    0    0  501 -0.00000000000E+00 -0.00000000000E+00 -0.14779776358E+03  0.14779776358E+03  0.00000000000E+00 0.  1.
          1    1    1    2  502    0  0.36672823734E+01 -0.31415034312E+02 -0.79474173048E+00  0.31638346279E+02  0.00000000000E+00 0. -1.
         -1    1    1    2    0  501 -0.36672823734E+01  0.31415034312E+02 -0.12968058105E+03  0.13348185810E+03  0.00000000000E+00 0.  1.
</event>
<event>
 4    1  0.6740123E+001  0.2111379E+02  0.7546771E-02  0.1517646E+00
          2   -1    0    0  502    0  0.00000000000E+00  0.00000000000E+00  0.25130283680E+03  0.25130283680E+03  0.00000000000E+00 0.  1.
         -2   -1    0    0    0  501 -0.00000000000E+00 -0.00000000000E+00 -0.18415456098E+01  0.18415456098E+01  0.00000000000E+00 0. -1.
          1    1    1    2  502    0  0.12600101603E+02 -0.16941951623E+02  0.14898489687E+03  0.15047355841E+03  0.00000000000E+00 0. -1.
         -1    1    1    2    0  501 -0.12600101603E+02  0.16941951623E+02  0.10047639432E+03  0.10267082400E+03  0.00000000000E+00 0.  1.
</event>
<event>
 4    1  0.6740123E+001  0.3433266E+02  0.7546771E-02  0.1385316E+00
          2   -1    0    0  502    0  0.00000000000E+00  0.00000000000E+00  0.16489737927E+04  0.16489737927E+04  0.00000000000E+00 0. -1.
         -2   -1    0    0    0  501 -0.00000000000E+00 -0.00000000000E+00 -0.12086763410E+01  0.12086763410E+01  0.00000000000E+00 0.  1.
          1    1    1    2  502    0 -0.32446886968E+01 -0.34178989070E+02  0.29647770777E+03  0.29845897960E+03  0.00000000000E+00 0.  1.
         -1    1    1    2    0  501  0.32446886968E+01  0.34178989070E+02  0.13512874086E+04  0.13517234894E+04  0.00000000000E+00 0. -1.
</event>
<event>
 4    1  0.6740123E+001  0.2093644E+02  0.7546771E-02  0.1520174E+00
          2   -1    0    0  502    0  0.00000000000E+00  0.00000000000E+00  0.19582563760E+01  0.19582563760E+01  0.00000000000E+00 0.  1.
         -2   -1    0    0    0  501 -0.00000000000E+00 -0.00000000000E+00 -0.22407862140E+03  0.22407862140E+03  0.00000000000E+00 0. -1.
          1    1    1    2  502    0 -0.31025072169E+01 -0.20705290713E+02 -0.10736618728E+03  0.10938844905E+03  0.00000000000E+00 0.  1.
         -1    1    1    2    0  501  0.31025072169E+01  0.20705290713E+02 -0.11475417775E+03  0.11664842873E+03  0.00000000000E+00 0. -1.
</event>
<event>
 4    1  0.6740123E+001  0.7599890E+02  0.7546771E-02  0.1213454E+00
          2   -1    0    0  502    0  0.00000000000E+00  0.00000000000E+00  0.61658288126E+03  0.61658288126E+03  0.00000000000E+00 0. -1.
         -2   -1    0    0    0  501 -0.00000000000E+00 -0.00000000000E+00 -0.20023289308E+02  0.20023289308E+02  0.00000000000E+00 0.  1.
          1    1    1    2  502    0 -0.52314657513E+02 -0.55127210225E+02  0.66077668009E+02  0.10070794858E+03  0.00000000000E+00 0.  1.
         -1    1    1    2    0  501  0.52314657513E+02  0.55127210225E+02  0.53048192395E+03  0.53589822199E+03  0.00000000000E+00 0. -1.
</event>
<event>
 4    1  0.6740123E+001  0.2217969E+02  0.7546771E-02  0.1503064E+00
          2   -1    0    0  502    0  0.00000000000E+00  0.00000000000E+00  0.82334393255E+02  0.82334393255E+02  0.00000000000E+00 0.  1.
         -2   -1    0    0    0  501 -0.00000000000E+00 -0.00000000000E+00 -0.20079432690E+02  0.20079432690E+02  0.00000000000E+00 0. -1.
          1    1    1    2  502    0 -0.78017096519E+01 -0.20762270053E+02 -0.11789826207E+02  0.25118489868E+02  0.00000000000E+00 0. -1.
         -1    1    1    2    0  501  0.78017096519E+01  0.20762270053E+02  0.74044786772E+02  0.77295336078E+02  0.00000000000E+00 0.  1.
</event>
<event>
 4    1  0.6740123E+001  0.2382015E+02  0.7546771E-02  0.1482449E+00
          2   -1    0    0  502    0  0.00000000000E+00  0.00000000000E+00  0.98523860891E+02  0.98523860891E+02  0.00000000000E+00 0.  1.
         -2   -1    0    0    0  501 -0.00000000000E+00 -0.00000000000E+00 -0.72247291261E+01  0.72247291261E+01  0.00000000000E+00 0. -1.
          1    1    1    2  502    0  0.20095307361E+02  0.12789759132E+02  0.21834046336E+02  0.32312921502E+02  0.00000000000E+00 0. -1.
         -1    1    1    2    0  501 -0.20095307361E+02 -0.12789759132E+02  0.69465085429E+02  0.73435668515E+02  0.00000000000E+00 0.  1.
</event>
<event>
 4    1  0.6740123E+001  0.2321244E+02  0.7546771E-02  0.1489848E+00
          2   -1    0    0  502    0  0.00000000000E+00  0.00000000000E+00  0.21780215350E+04  0.21780215350E+04  0.00000000000E+00 0. -1.
         -2   -1    0    0    0  501 -0.00000000000E+00 -0.00000000000E+00 -0.24806067816E+00  0.24806067816E+00  0.00000000000E+00 0.  1.
          1    1    1    2  502    0 -0.19808449225E+02  0.12101352227E+02  0.10321899009E+04  0.10324508749E+04  0.00000000000E+00 0. -1.
         -1    1    1    2    0  501  0.19808449225E+02 -0.12101352227E+02  0.11455835734E+04  0.11458187209E+04  0.00000000000E+00 0.  1.
</event>
<event>
 4    1  0.6740123E+001  0.2206478E+02  0.7546771E-02  0.1504588E+00
          2   -1    0    0  502    0  0.00000000000E+00  0.00000000000E+00  0.79148718461E+02  0.79148718461E+02  0.00000000000E+00 0.  1.
         -2   -1    0    0    0  501 -0.00000000000E+00 -0.00000000000E+00 -0.82535475686E+01  0.82535475686E+01  0.00000000000E+00 0. -1.
          1    1    1    2  502    0  0.20706199925E+02 -0.76228565611E+01  0.57503804779E+02  0.61591738257E+02  0.00000000000E+00 0.  1.
         -1    1    1    2    0  501 -0.20706199925E+02  0.76228565611E+01  0.13391366113E+02  0.25810527772E+02  0.00000000000E+00 0. -1.
</event>
<event>
 4    1  0.6740123E+001  0.2510051E+02  0.7546771E-02  0.1467682E+00
          2   -1    0    0  502    0  0.00000000000E+00  0.00000000000E+00  0.29806225784E+04  0.29806225784E+04  0.00000000000E+00 0. -1.
         -2   -1    0    0    0  501 -0.00000000000E+00 -0.00000000000E+00 -0.22186936652E+00  0.22186936652E+00  0.00000000000E+00 0.  1.
          1    1    1    2  502    0  0.47611593777E+01 -0.24644820394E+02  0.11660905638E+04  0.11663606813E+04  0.00000000000E+00 0.  1.
         -1    1    1    2    0  501 -0.47611593777E+01  0.24644820394E+02  0.18143101452E+04  0.18144837665E+04  0.00000000000E+00 0. -1.
</event>
<event>
 4    1  0.6740123E+001  0.2302395E+02  0.7546771E-02  0.1492198E+00
          2   -1    0    0  502    0  0.00000000000E+00  0.00000000000E+00  0.64969235578E+03  0.64969235578E+03  0.00000000000E+00 0.  1.
         -2   -1    0    0    0  501 -0.00000000000E+00 -0.00000000000E+00 -0.81752713915E+00  0.81752713915E+00  0.00000000000E+00 0. -1.
          1    1    1    2  502    0  0.22923906047E+02  0.21439857867E+01  0.31005192965E+03  0.31090561465E+03  0.00000000000E+00 0.  1.
         -1    1    1    2    0  501 -0.22923906047E+02 -0.21439857867E+01  0.33882289899E+03  0.33960426826E+03  0.00000000000E+00 0. -1.
</event>
<event>
 4    1  0.6740123E+001  0.2504865E+02  0.7546771E-02  0.1468260E+00
          2   -1    0    0  502    0  0.00000000000E+00  0.00000000000E+00  0.27723864945E+03  0.27723864945E+03  0.00000000000E+00 0.  1.
         -2   -1    0    0    0  501 -0.00000000000E+00 -0.00000000000E+00 -0.24859925002E+01  0.24859925002E+01  0.00000000000E+00 0. -1.
          1    1    1    2  502    0  0.71406128953E+01 -0.24009302233E+02  0.95502587500E+02  0.98732867706E+02  0.00000000000E+00 0. -1.
         -1    1    1    2    0  501 -0.71406128953E+01  0.24009302233E+02  0.17925006945E+03  0.18099177424E+03  0.00000000000E+00 0.  1.
</event>
<event>
 4    1  0.6740123E+001  0.6504905E+02  0.7546771E-02  0.1243580E+00
          2   -1    0    0  502    0  0.00000000000E+00  0.00000000000E+00  0.38810690226E+03  0.38810690226E+03  0.00000000000E+00 0.  1.
         -2   -1    0    0    0  501 -0.00000000000E+00 -0.00000000000E+00 -0.11189898644E+02  0.11189898644E+02  0.00000000000E+00 0. -1.
          1    1    1    2  502    0 -0.62974775948E+02 -0.16295900846E+02  0.22044825037E+03  0.22984518677E+03  0.00000000000E+00 0.  1.
         -1    1    1    2    0  501  0.62974775948E+02  0.16295900846E+02  0.15646875324E+03  0.16945161413E+03  0.00000000000E+00 0. -1.
</event>
<event>
 4    1  0.6740123E+001  0.2364940E+02  0.7546771E-02  0.1484501E+00
          2   -1    0    0  502    0  0.00000000000E+00  0.00000000000E+00  0.42982803017E+03  0.42982803017E+03  0.00000000000E+00 0.  1.
         -2   -1    0    0    0  501 -0.00000000000E+00 -0.00000000000E+00 -0.29099168486E+01  0.29099168486E+01  0.00000000000E+00 0. -1.
          1    1    1    2  502    0 -0.23487222093E+01 -0.23532480136E+02  0.52582075371E+02  0.57655604825E+02  0.00000000000E+00 0. -1.
         -1    1    1    2    0  501  0.23487222093E+01  0.23532480136E+02  0.37433603795E+03  0.37508234219E+03  0.00000000000E+00 0.  1.
</event>
<event>
 4    1  0.6740123E+001  0.4421545E+02  0.7546771E-02  0.1325409E+00
          2   -1    0    0  502    0  0.00000000000E+00  0.00000000000E+00  0.20393829777E+04  0.20393829777E+04  0.00000000000E+00 0.  1.
         -2   -1    0    0    0  501 -0.00000000000E+00 -0.00000000000E+00 -0.18563432606E+01  0.18563432606E+01  0.00000000000E+00 0. -1.
          1    1    1    2  502    0  0.10361384153E+01  0.44203309509E+02  0.30901478540E+03  0.31216204726E+03  0.00000000000E+00 0. -1.
         -1    1    1    2    0  501 -0.10361384153E+01 -0.44203309509E+02  0.17285118491E+04  0.17290772737E+04  0.00000000000E+00 0.  1.
</event>
<event>
 4    1  0.6740123E+001  0.5788533E+02  0.7546771E-02  0.1267192E+00
          2   -1    0    0  502    0  0.00000000000E+00  0.00000000000E+00  0.97252665033E+03  0.97252665033E+03  0.00000000000E+00 0. -1.
         -2   -1    0    0    0  501 -0.00000000000E+00 -0.00000000000E+00 -0.52951882818E+01  0.52951882818E+01  0.00000000000E+00 0.  1.
          1    1    1    2  502    0 -0.46720493392E+02  0.34174647991E+02  0.19464494554E+03  0.20306985471E+03  0.00000000000E+00 0.  1.
         -1    1    1    2    0  501  0.46720493392E+02 -0.34174647991E+02  0.77258651651E+03  0.77475198390E+03  0.00000000000E+00 0. -1.
</event>
<event>
 4    1  0.6740123E+001  0.4786474E+02  0.7546771E-02  0.1307705E+00
          2   -1    0    0  502    0  0.00000000000E+00  0.00000000000E+00  0.10726715402E+03  0.10726715402E+03  0.00000000000E+00 0. -1.
         -2   -1    0    0    0  501 -0.00000000000E+00 -0.00000000000E+00 -0.21559701568E+02  0.21559701568E+02  0.00000000000E+00 0.  1.
          1    1    1    2  502    0 -0.44605427581E+02  0.17360571083E+02  0.49080908106E+02  0.68556320924E+02  0.00000000000E+00 0.  1.
         -1    1    1    2    0  501  0.44605427581E+02 -0.17360571083E+02  0.36626544348E+02  0.60270534666E+02  0.00000000000E+00 0. -1.
</event>
<event>
 4    1  0.6740123E+001  0.2845811E+02  0.7546771E-02  0.1433486E+00
          2   -1    0    0  502    0  0.00000000000E+00  0.00000000000E+00  0.14848376272E+04  0.14848376272E+04  0.00000000000E+00 0.  1.
         -2   -1    0    0    0  501 -0.00000000000E+00 -0.00000000000E+00 -0.71932164996E+00  0.71932164996E+00  0.00000000000E+00 0. -1.
          1    1    1    2  502    0  0.10089004604E+01 -0.28440222954E+02  0.37684616673E+03  0.37791916799E+03  0.00000000000E+00 0.  1.
         -1    1    1    2    0  501 -0.10089004604E+01  0.28440222954E+02  0.11072721388E+04  0.11076377808E+04  0.00000000000E+00 0. -1.
</event>
<event>
 4    1  0.6740123E+001  0.2112847E+02  0.7546771E-02  0.1517438E+00
          2   -1    0    0  502    0  0.00000000000E+00  0.00000000000E+00  0.29232120054E+02  0.29232120054E+02  0.00000000000E+00 0. -1.
         -2   -1    0    0    0  501 -0.00000000000E+00 -0.00000000000E+00 -0.23167823585E+02  0.23167823585E+02  0.00000000000E+00 0.  1.
          1    1    1    2  502    0  0.20096754622E+02  0.65217117608E+01  0.18328095093E+02  0.27970186634E+02  0.00000000000E+00 0. -1.
         -1    1    1    2    0  501 -0.20096754622E+02 -0.65217117608E+01 -0.12263798624E+02  0.24429757005E+02  0.00000000000E+00 0.  1.
</event>
<event>
 4    1  0.6740123E+001  0.2498444E+02  0.7546771E-02  0.1468978E+00
          2   -1    0    0  502    0  0.00000000000E+00  0.00000000000E+00  0.69014856139E+03  0.69014856139E+03  0.00000000000E+00 0.  1.
         -2   -1    0    0    0  501 -0.00000000000E+00 -0.00000000000E+00 -0.12666571921E+01  0.12666571921E+01  0.00000000000E+00 0. -1.
          1    1    1    2  502    0  0.24929764345E+02 -0.16519293608E+01  0.15958091973E+03  0.16152489580E+03  0.00000000000E+00 0. -1.
         -1    1    1    2    0  501 -0.24929764345E+02  0.16519293608E+01  0.52930098447E+03  0.52989032278E+03  0.00000000000E+00 0.  1.
</event>
<event>
 4    1  0.6740123E+001  0.2287902E+02  0.7546771E-02  0.1494023E+00
          2   -1    0    0  502    0  0.00000000000E+00  0.00000000000E+00  0.81027800919E+03  0.81027800919E+03  0.00000000000E+00 0. -1.
         -2   -1    0    0    0  501 -0.00000000000E+00 -0.00000000000E+00 -0.70205737292E+00  0.70205737292E+00  0.00000000000E+00 0.  1.
          1    1    1    2  502    0  0.12602307953E+02  0.19095318177E+02  0.29021989329E+03  0.29112031156E+03  0.00000000000E+00 0. -1.
         -1    1    1    2    0  501 -0.12602307953E+02 -0.19095318177E+02  0.51935605853E+03  0.51985975501E+03  0.00000000000E+00 0.  1.
</event>
<event>
 4    1  0.6740123E+001  0.2085262E+02  0.7546771E-02  0.1521379E+00
          2   -1    0    0  502    0  0.00000000000E+00  0.00000000000E+00  0.12236640364E+02  0.12236640364E+02  0.00000000000E+00 0. -1.
         -2   -1    0    0    0  501 -0.00000000000E+00 -0.00000000000E+00 -0.63275727235E+02  0.63275727235E+02  0.00000000000E+00 0.  1.
          1    1    1    2  502    0 -0.11843703138E+02  0.17162709819E+02 -0.52031604930E+00  0.20859114103E+02  0.00000000000E+00 0. -1.
         -1    1    1    2    0  501  0.11843703138E+02 -0.17162709819E+02 -0.50518770822E+02  0.54653253496E+02  0.00000000000E+00 0.  1.
</event>
<event>
 4    1  0.6740123E+001  0.2207231E+02  0.7546771E-02  0.1504488E+00
          2   -1    0    0  502    0  0.00000000000E+00  0.00000000000E+00  0.50795145472E+03  0.50795145472E+03  0.00000000000E+00 0.  1.
         -2   -1    0    0    0  501 -0.00000000000E+00 -0.00000000000E+00 -0.16934642620E+01  0.16934642620E+01  0.00000000000E+00 0. -1.
          1    1    1    2  502    0  0.19699728453E+02  0.99552706682E+01  0.42093185349E+03  0.42151015646E+03  0.00000000000E+00 0.  1.
         -1    1    1    2    0  501 -0.19699728453E+02 -0.99552706682E+01  0.85326136971E+02  0.88134762526E+02  0.00000000000E+00 0. -1.
</event>
<event>
 4    1  0.6740123E+001  0.4430715E+02  0.7546771E-02  0.1324940E+00
          2   -1    0    0  502    0  0.00000000000E+00  0.00000000000E+00  0.38730211303E+03  0.38730211303E+03  0.00000000000E+00 0. -1.
         -2   -1    0    0    0  501 -0.00000000000E+00 -0.00000000000E+00 -0.16010708958E+02  0.16010708958E+02  0.00000000000E+00 0.  1.
          1    1    1    2  502    0  0.39332064295E+02 -0.20398836670E+02  0.18938256012E+02  0.48184866504E+02  0.00000000000E+00 0. -1.
         -1    1    1    2    0  501 -0.39332064295E+02  0.20398836670E+02  0.35235314806E+03  0.35512795549E+03  0.00000000000E+00 0.  1.
</event>
<event>
 4    1  0.6740123E+001  0.3147361E+02  0.7546771E-02  0.1407209E+00
          2   -1    0    0  502    0  0.00000000000E+00  0.00000000000E+00  0.44144029138E+03  0.44144029138E+03  0.00000000000E+00 0.  1.
         -2   -1    0    0    0  501 -0.00000000000E+00 -0.00000000000E+00 -0.28284978922E+01  0.28284978922E+01  0.00000000000E+00 0. -1.
          1    1    1    2  502    0  0.12276833906E+02 -0.28980466793E+02  0.32028526332E+03  0.32182796337E+03  0.00000000000E+00 0.  1.
         -1    1    1    2    0  501 -0.12276833906E+02  0.28980466793E+02  0.11832653017E+03  0.12244082590E+03  0.00000000000E+00 0. -1.
</event>
<event>
 4    1  0.6740123E+001  0.2211815E+02  0.7546771E-02  0.1503879E+00
          2   -1    0    0  502    0  0.00000000000E+00  0.00000000000E+00  0.73191362245E+01  0.73191362245E+01  0.00000000000E+00 0. -1.
         -2   -1    0    0    0  501 -0.00000000000E+00 -0.00000000000E+00 -0.94514994408E+02  0.94514994408E+02  0.00000000000E+00 0.  1.
          1    1    1    2  502    0  0.79331950799E+01 -0.20646474658E+02 -0.71150063018E+02  0.74508683839E+02  0.00000000000E+00 0.  1.
         -1    1    1    2    0  501 -0.79331950799E+01  0.20646474658E+02 -0.16045795166E+02  0.27325446794E+02  0.00000000000E+00 0. -1.
</event>
<event>
 4    1  0.6740123E+001  0.2936632E+02  0.7546771E-02  0.1425184E+00
          2   -1    0    0  502    0  0.00000000000E+00  0.00000000000E+00  0.47832544133E+03  0.47832544133E+03  0.00000000000E+00 0. -1.
         -2   -1    0    0    0  501 -0.00000000000E+00 -0.00000000000E+00 -0.18613314012E+01  0.18613314012E+01  0.00000000000E+00 0.  1.
          1    1    1    2  502    0 -0.29045517428E+02 -0.43288181073E+01  0.19569858615E+03  0.19788965958E+03  0.00000000000E+00 0.  1.
         -1    1    1    2    0  501  0.29045517428E+02  0.43288181073E+01  0.28076552378E+03  0.28229711315E+03  0.00000000000E+00 0. -1.
</event>
<event>
 4    1  0.6740123E+001  0.3334038E+02  0.7546771E-02  0.1392622E+00
          2   -1    0    0  502    0  0.00000000000E+00  0.00000000000E+00  0.12940399986E+04  0.12940399986E+04  0.00000000000E+00 0.  1.
         -2   -1    0    0    0  501 -0.00000000000E+00 -0.00000000000E+00 -0.92649260401E+00  0.92649260401E+00  0.00000000000E+00 0. -1.
          1    1    1    2  502    0 -0.28695398898E+02  0.16975130744E+02  0.47179994640E+03  0.47297650090E+03  0.00000000000E+00 0. -1.
         -1    1    1    2    0  501  0.28695398898E+02 -0.16975130744E+02  0.82131355955E+03  0.82198999026E+03  0.00000000000E+00 0.  1.
</event>
<event>
 4    1  0.6740123E+001  0.2938840E+02  0.7546771E-02  0.1424987E+00
          2   -1    0    0  502    0  0.00000000000E+00  0.00000000000E+00  0.12696931445E+04  0.12696931445E+04  0.00000000000E+00 0. -1.
         -2   -1    0    0    0  501 -0.00000000000E+00 -0.00000000000E+00 -0.78336613638E+00  0.78336613638E+00  0.00000000000E+00 0.  1.
          1    1    1    2  502    0 -0.21459242187E+02 -0.20079322774E+02  0.86495339562E+03  0.86545251451E+03  0.00000000000E+00 0. -1.
         -1    1    1    2    0  501  0.21459242187E+02  0.20079322774E+02  0.40395638274E+03  0.40502399613E+03  0.00000000000E+00 0.  1.
</event>
<event>
 4    1  0.6740123E+001  0.2276283E+02  0.7546771E-02  0.1495498E+00
          2   -1    0    0  502    0  0.00000000000E+00  0.00000000000E+00  0.48980032260E+02  0.48980032260E+02  0.00000000000E+00 0.  1.
         -2   -1    0    0    0  501 -0.00000000000E+00 -0.00000000000E+00 -0.12305818520E+02  0.12305818520E+02  0.00000000000E+00 0. -1.
          1    1    1    2  502    0 -0.67530143705E+00  0.22752812745E+02  0.68573599819E+01  0.23773302374E+02  0.00000000000E+00 0. -1.
         -1    1    1    2    0  501  0.67530143705E+00 -0.22752812745E+02  0.29816853758E+02  0.37512548406E+02  0.00000000000E+00 0.  1.
</event>
<event>
 4    1  0.6740123E+001  0.2454588E+02  0.7546771E-02  0.1473948E+00
          2   -1    0    0  502    0  0.00000000000E+00  0.00000000000E+00  0.13608819372E+03  0.13608819372E+03  0.00000000000E+00 0. -1.
         -2   -1    0    0    0  501 -0.00000000000E+00 -0.00000000000E+00 -0.63435877013E+01  0.63435877013E+01  0.00000000000E+00 0.  1.
          1    1    1    2  502    0  0.79026267641E+01 -0.23238947793E+02  0.25730363916E+02  0.35560537560E+02  0.00000000000E+00 0.  1.
         -1    1    1    2    0  501 -0.79026267641E+01  0.23238947793E+02  0.10401424210E+03  0.10687124386E+03  0.00000000000E+00 0. -1.
</event>
<event>
 4    1  0.6740123E+001  0.2022777E+02  0.7546771E-02  0.1530582E+00
          2   -1    0    0  502    0  0.00000000000E+00  0.00000000000E+00  0.52296283243E+03  0.52296283243E+03  0.00000000000E+00 0.  1.
         -2   -1    0    0    0  501 -0.00000000000E+00 -0.00000000000E+00 -0.15531103629E+01  0.15531103629E+01  0.00000000000E+00 0. -1.
          1    1    1    2  502    0 -0.12521168086E+02  0.15886570509E+02  0.44545081736E+03  0.44590984903E+03  0.00000000000E+00 0.  1.
         -1    1    1    2    0  501  0.12521168086E+02 -0.15886570509E+02  0.75958904701E+02  0.78606093760E+02  0.00000000000E+00 0. -1.
</event>
<event>
 4    1  0.6740123E+001  0.2353339E+02  0.7546771E-02  0.1485907E+00
          2   -1    0    0  502    0  0.00000000000E+00  0.00000000000E+00  0.14750219257E+02  0.14750219257E+02  0.00000000000E+00 0. -1.
         -2   -1    0    0    0  501 -0.00000000000E+00 -0.00000000000E+00 -0.53044596366E+02  0.53044596366E+02  0.00000000000E+00 0.  1.
          1    1    1    2  502    0 -0.17820754227E+02  0.15370135654E+02 -0.37469653971E+02  0.44246980914E+02  0.00000000000E+00 0.  1.
         -1    1    1    2    0  501  0.17820754227E+02 -0.15370135654E+02 -0.82472313777E+00  0.23547834709E+02  0.00000000000E+00 0. -1.
</event>
<event>
 4    1  0.6740123E+001  0.5856059E+02  0.7546771E-02  0.1264803E+00
          2   -1    0    0  502    0  0.00000000000E+00  0.00000000000E+00  0.23330637297E+03  0.23330637297E+03  0.00000000000E+00 0.  1.
         -2   -1    0    0    0  501 -0.00000000000E+00 -0.00000000000E+00 -0.16180375968E+02  0.16180375968E+02  0.00000000000E+00 0. -1.
          1    1    1    2  502    0 -0.42983700471E+02  0.39771144183E+02  0.70816784485E+02  0.91893195508E+02  0.00000000000E+00 0. -1.
         -1    1    1    2    0  501  0.42983700471E+02 -0.39771144183E+02  0.14630921252E+03  0.15759355343E+03  0.00000000000E+00 0.  1.
</event>
<event>
 4    1  0.6740123E+001  0.2135878E+02  0.7546771E-02  0.1514204E+00
          2   -1    0    0  502    0  0.00000000000E+00  0.00000000000E+00  0.11124397422E+02  0.11124397422E+02  0.00000000000E+00 0. -1.
         -2   -1    0    0    0  501 -0.00000000000E+00 -0.00000000000E+00 -0.47183068005E+02  0.47183068005E+02  0.00000000000E+00 0.  1.
          1    1    1    2  502    0 -0.93095152506E+01 -0.19223176716E+02 -0.28575527654E+02  0.35675739347E+02  0.00000000000E+00 0.  1.
         -1    1    1    2    0  501  0.93095152506E+01  0.19223176716E+02 -0.74831429293E+01  0.22631726080E+02  0.00000000000E+00 0. -1.
</event>
<event>
 4    1  0.6740123E+001  0.2458390E+02  0.7546771E-02  0.1473512E+00
          2   -1    0    0  502    0  0.00000000000E+00  0.00000000000E+00  0.11292536247E+04  0.11292536247E+04  0.00000000000E+00 0.  1.
         -2   -1    0    0    0  501 -0.00000000000E+00 -0.00000000000E+00 -0.60339302485E+00  0.60339302485E+00  0.00000000000E+00 0. -1.
          1    1    1    2  502    0 -0.18757505238E+02  0.15891011925E+02  0.37439813458E+03  0.37520438622E+03  0.00000000000E+00 0. -1.
         -1    1    1    2    0  501  0.18757505238E+02 -0.15891011925E+02  0.75425209710E+03  0.75465263151E+03  0.00000000000E+00 0.  1.
</event>
<event>
 4    1  0.6740123E+001  0.2268825E+02  0.7546771E-02  0.1496450E+00
          2   -1    0    0  502    0  0.00000000000E+00  0.00000000000E+00  0.31562769685E+03  0.31562769685E+03  0.00000000000E+00 0.  1.
         -2   -1    0    0    0  501 -0.00000000000E+00 -0.00000000000E+00 -0.47573329318E+01  0.47573329318E+01  0.00000000000E+00 0. -1.
          1    1    1    2  502    0  0.22546535528E+02  0.25319080205E+01  0.25572283919E+02  0.34186233010E+02  0.00000000000E+00 0. -1.
         -1    1    1    2    0  501 -0.22546535528E+02 -0.25319080205E+01  0.28529808000E+03  0.28619879678E+03  0.00000000000E+00 0.  1.
</event>
<event>
 4    1  0.6740123E+001  0.2001633E+02  0.7546771E-02  0.1533786E+00
          2   -1    0    0  502    0  0.00000000000E+00  0.00000000000E+00  0.53515309272E+01  0.53515309272E+01  0.00000000000E+00 0.  1.
         -2   -1    0    0    0  501 -0.00000000000E+00 -0.00000000000E+00 -0.86259117217E+02  0.86259117217E+02  0.00000000000E+00 0. -1.
          1    1    1    2  502    0 -0.14353827570E+02 -0.13950670511E+02 -0.57099945671E+02  0.60506672105E+02  0.00000000000E+00 0. -1.
         -1    1    1    2    0  501  0.14353827570E+02  0.13950670511E+02 -0.23807640619E+02  0.31103976039E+02  0.00000000000E+00 0.  1.
</event>
<event>
 4    1  0.6740123E+001  0.2655059E+02  0.7546771E-02  0.1452175E+00
          2   -1    0    0  502    0  0.00000000000E+00  0.00000000000E+00  0.11073651708E+02  0.11073651708E+02  0.00000000000E+00 0.  1.
         -2   -1    0    0    0  501 -0.00000000000E+00 -0.00000000000E+00 -0.73166540195E+02  0.73166540195E+02  0.00000000000E+00 0. -1.
          1    1    1    2  502    0 -0.17660906784E+02  0.19824891675E+02 -0.15862846979E+02  0.30928366796E+02  0.00000000000E+00 0. -1.
         -1    1    1    2    0  501  0.17660906784E+02 -0.19824891675E+02 -0.46230041508E+02  0.53311825107E+02  0.00000000000E+00 0.  1.
</event>
<event>
 4    1  0.6740123E+001  0.2618155E+02  0.7546771E-02  0.1456007E+00
          2   -1    0    0  502    0  0.00000000000E+00  0.00000000000E+00  0.45009541513E+01  0.45009541513E+01  0.00000000000E+00 0. -1.
         -2   -1    0    0    0  501 -0.00000000000E+00 -0.00000000000E+00 -0.16061296694E+03  0.16061296694E+03  0.00000000000E+00 0.  1.
          1    1    1    2  502    0 -0.26105944065E+02  0.19882313552E+01 -0.59268519125E+02  0.64793755399E+02  0.00000000000E+00 0.  1.
         -1    1    1    2    0  501  0.26105944065E+02 -0.19882313552E+01 -0.96843493660E+02  0.10032016569E+03  0.00000000000E+00 0. -1.
</event>
<event>
 4    1  0.6740123E+001  0.2386283E+02  0.7546771E-02  0.1481939E+00
          2   -1    0    0  502    0  0.00000000000E+00  0.00000000000E+00  0.12782407341E+04  0.12782407341E+04  0.00000000000E+00 0. -1.
         -2   -1    0    0    0  501 -0.00000000000E+00 -0.00000000000E+00 -0.44641377202E+00  0.44641377202E+00  0.00000000000E+00 0.  1.
          1    1    1    2  502    0 -0.98848286867E+01  0.21719228654E+02  0.66808809571E+03  0.66851412727E+03  0.00000000000E+00 0.  1.
         -1    1    1    2    0  501  0.98848286867E+01 -0.21719228654E+02  0.60970622464E+03  0.61017302062E+03  0.00000000000E+00 0. -1.
</event>
<event>
 4    1  0.6740123E+001  0.8221413E+02  0.7546771E-02  0.1198799E+00
          2   -1    0    0  502    0  0.00000000000E+00  0.00000000000E+00  0.17457787244E+03  0.17457787244E+03  0.00000000000E+00 0. -1.
         -2   -1    0    0    0  501 -0.00000000000E+00 -0.00000000000E+00 -0.49847698904E+02  0.49847698904E+02  0.00000000000E+00 0.  1.
          1    1    1    2  502    0  0.49158903407E+02 -0.65898149645E+02  0.93404892838E+01  0.82743027808E+02  0.00000000000E+00 0.  1.
         -1    1    1    2    0  501 -0.49158903407E+02  0.65898149645E+02  0.11538968425E+03  0.14168254353E+03  0.00000000000E+00 0. -1.
</event>
<event>
 4    1  0.6740123E+001  0.2063795E+02  0.7546771E-02  0.1524497E+00
          2   -1    0    0  502    0  0.00000000000E+00  0.00000000000E+00  0.14965214079E+04  0.14965214079E+04  0.00000000000E+00 0.  1.
         -2   -1    0    0    0  501 -0.00000000000E+00 -0.00000000000E+00 -0.37496597067E+00  0.37496597067E+00  0.00000000000E+00 0. -1.
          1    1    1    2  502    0 -0.12002372007E+02  0.16788925580E+02  0.11154775285E+04  0.11156684282E+04  0.00000000000E+00 0. -1.
         -1    1    1    2    0  501  0.12002372007E+02 -0.16788925580E+02  0.38066891344E+03  0.38122794574E+03  0.00000000000E+00 0.  1.
</event>
<event>
 4    1  0.6740123E+001  0.4351100E+02  0.7546771E-02  0.1329055E+00
          2   -1    0    0  502    0  0.00000000000E+00  0.00000000000E+00  0.17809582428E+03  0.17809582428E+03  0.00000000000E+00 0. -1.
         -2   -1    0    0    0  501 -0.00000000000E+00 -0.00000000000E+00 -0.10757957559E+02  0.10757957559E+02  0.00000000000E+00 0.  1.
          1    1    1    2  502    0  0.26043540208E+02  0.34856008796E+02  0.73381690848E+02  0.85311663256E+02  0.00000000000E+00 0.  1.
         -1    1    1    2    0  501 -0.26043540208E+02 -0.34856008796E+02  0.93956175875E+02  0.10354211858E+03  0.00000000000E+00 0. -1.
</event>
<event>
 4    1  0.6740123E+001  0.2906413E+02  0.7546771E-02  0.1427907E+00
          2   -1    0    0  502    0  0.00000000000E+00  0.00000000000E+00  0.32995493891E+03  0.32995493891E+03  0.00000000000E+00 0. -1.
         -2   -1    0    0    0  501 -0.00000000000E+00 -0.00000000000E+00 -0.33652886716E+01  0.33652886716E+01  0.00000000000E+00 0.  1.
          1    1    1    2  502    0 -0.11495837272E+01 -0.29041388869E+02  0.24481484864E+03  0.24653404212E+03  0.00000000000E+00 0.  1.
         -1    1    1    2    0  501  0.11495837272E+01  0.29041388869E+02  0.81774801593E+02  0.86786185455E+02  0.00000000000E+00 0. -1.
</event>
<event>
 4    1  0.6740123E+001  0.2243941E+02  0.7546771E-02  0.1499660E+00
          2   -1    0    0  502    0  0.00000000000E+00  0.00000000000E+00  0.18630083958E+02  0.18630083958E+02  0.00000000000E+00 0. -1.
         -2   -1    0    0    0  501 -0.00000000000E+00 -0.00000000000E+00 -0.30073657231E+02  0.30073657231E+02  0.00000000000E+00 0.  1.
          1    1    1    2  502    0  0.21980979414E+01 -0.22331494208E+02 -0.13471847816E+02  0.26172847604E+02  0.00000000000E+00 0.  1.
         -1    1    1    2    0  501 -0.21980979414E+01  0.22331494208E+02  0.20282745428E+01  0.22530893586E+02  0.00000000000E+00 0. -1.
</event>
<event>
 4    1  0.6740123E+001  0.2311371E+02  0.7546771E-02  0.1491075E+00
          2   -1    0    0  502    0  0.00000000000E+00  0.00000000000E+00  0.20868656416E+04  0.20868656416E+04  0.00000000000E+00 0.  1.
         -2   -1    0    0    0  501 -0.00000000000E+00 -0.00000000000E+00 -0.26199280666E+00  0.26199280666E+00  0.00000000000E+00 0. -1.
          1    1    1    2  502    0 -0.51762127465E+01  0.22526657707E+02  0.88550897614E+03  0.88581058376E+03  0.00000000000E+00 0. -1.
         -1    1    1    2    0  501  0.51762127465E+01 -0.22526657707E+02  0.12010946727E+04  0.12013170507E+04  0.00000000000E+00 0.  1.
</event>
<event>
 4    1  0.6740123E+001  0.2309999E+02  0.7546771E-02  0.1491246E+00
          2   -1    0    0  502    0  0.00000000000E+00  0.00000000000E+00  0.94643486185E+02  0.94643486185E+02  0.00000000000E+00 0.  1.
         -2   -1    0    0    0  501 -0.00000000000E+00 -0.00000000000E+00 -0.61094705001E+01  0.61094705001E+01  0.00000000000E+00 0. -1.
          1    1    1    2  502    0 -0.68234547512E+01  0.22069205350E+02  0.58259903858E+02  0.62672368370E+02  0.00000000000E+00 0.  1.
         -1    1    1    2    0  501  0.68234547512E+01 -0.22069205350E+02  0.30274111827E+02  0.38080588315E+02  0.00000000000E+00 0. -1.
</event>
<event>
 4    1  0.6740123E+001  0.3964035E+02  0.7546771E-02  0.1350606E+00
          2   -1    0    0  502    0  0.00000000000E+00  0.00000000000E+00  0.14630941948E+04  0.14630941948E+04  0.00000000000E+00 0. -1.
         -2   -1    0    0    0  501 -0.00000000000E+00 -0.00000000000E+00 -0.10751293801E+01  0.10751293801E+01  0.00000000000E+00 0.  1.
          1    1    1    2  502    0 -0.34084776976E+02 -0.20238204755E+02  0.70723752738E+03  0.70834756799E+03  0.00000000000E+00 0. -1.
         -1    1    1    2    0  501  0.34084776976E+02  0.20238204755E+02  0.75478153800E+03  0.75582175615E+03  0.00000000000E+00 0.  1.
</event>
<event>
 4    1  0.6740123E+001  0.2471915E+02  0.7546771E-02  0.1471970E+00
          2   -1    0    0  502    0  0.00000000000E+00  0.00000000000E+00  0.14164130638E+04  0.14164130638E+04  0.00000000000E+00 0. -1.
         -2   -1    0    0    0  501 -0.00000000000E+00 -0.00000000000E+00 -0.49437946353E+00  0.49437946353E+00  0.00000000000E+00 0.  1.
          1    1    1    2  502    0  0.23965284252E+02 -0.60581945548E+01  0.45509327640E+03  0.45576411311E+03  0.00000000000E+00 0.  1.
         -1    1    1    2    0  501 -0.23965284252E+02  0.60581945548E+01  0.96082540792E+03  0.96114333014E+03  0.00000000000E+00 0. -1.
</event>
<event>
 4    1  0.6740123E+001  0.2298066E+02  0.7546771E-02  0.1492741E+00
          2   -1    0    0  502    0  0.00000000000E+00  0.00000000000E+00  0.58638173542E+03  0.58638173542E+03  0.00000000000E+00 0. -1.
         -2   -1    0    0    0  501 -0.00000000000E+00 -0.00000000000E+00 -0.22356627932E+01  0.22356627932E+01  0.00000000000E+00 0.  1.
          1    1    1    2  502    0  0.15518037538E+02 -0.16949958925E+02  0.64643650726E+02  0.68606939706E+02  0.00000000000E+00 0.  1.
         -1    1    1    2    0  501 -0.15518037538E+02  0.16949958925E+02  0.51950242190E+03  0.52001045851E+03  0.00000000000E+00 0. -1.
</event>
<event>
 4    1  0.6740123E+001  0.2452467E+02  0.7546771E-02  0.1474192E+00
          2   -1    0    0  502    0  0.00000000000E+00  0.00000000000E+00  0.18558326824E+04  0.18558326824E+04  0.00000000000E+00 0. -1.
         -2   -1    0    0    0  501 -0.00000000000E+00 -0.00000000000E+00 -0.18333901664E+01  0.18333901664E+01  0.00000000000E+00 0.  1.
          1    1    1    2  502    0  0.16588591170E+02 -0.18063169177E+02  0.84251488946E+02  0.87748349428E+02  0.00000000000E+00 0.  1.
         -1    1    1    2    0  501 -0.16588591170E+02  0.18063169177E+02  0.17697478033E+04  0.17699177232E+04  0.00000000000E+00 0. -1.
</event>
<event>
 4    1  0.6740123E+001  0.2199350E+02  0.7546771E-02  0.1505539E+00
          2   -1    0    0  502    0  0.00000000000E+00  0.00000000000E+00  0.30533525138E+02  0.30533525138E+02  0.00000000000E+00 0. -1.
         -2   -1    0    0    0  501 -0.00000000000E+00 -0.00000000000E+00 -0.16269868642E+02  0.16269868642E+02  0.00000000000E+00 0.  1.
          1    1    1    2  502    0 -0.11897093333E+02 -0.18497925464E+02  0.33371252261E+01  0.22245235018E+02  0.00000000000E+00 0.  1.
         -1    1    1    2    0  501  0.11897093333E+02  0.18497925464E+02  0.10926531269E+02  0.24558158763E+02  0.00000000000E+00 0. -1.
</event>
<event>
 4    1  0.6740123E+001  0.2775789E+02  0.7546771E-02  0.1440140E+00
          2   -1    0    0  502    0  0.00000000000E+00  0.00000000000E+00  0.22120741760E+01  0.22120741760E+01  0.00000000000E+00 0. -1.
         -2   -1    0    0    0  501 -0.00000000000E+00 -0.00000000000E+00 -0.35760046369E+03  0.35760046369E+03  0.00000000000E+00 0.  1.
          1    1    1    2  502    0  0.27235786907E+02 -0.53583803285E+01 -0.14870534638E+03  0.15127385884E+03  0.00000000000E+00 0. -1.
         -1    1    1    2    0  501 -0.27235786907E+02  0.53583803285E+01 -0.20668304313E+03  0.20853867902E+03  0.00000000000E+00 0.  1.
</event>
<event>
 4    1  0.6740123E+001  0.3086269E+02  0.7546771E-02  0.1412245E+00
          2   -1    0    0  502    0  0.00000000000E+00  0.00000000000E+00  0.11378200283E+02  0.11378200283E+02  0.00000000000E+00 0. -1.
         -2   -1    0    0    0  501 -0.00000000000E+00 -0.00000000000E+00 -0.83953736736E+02  0.83953736736E+02  0.00000000000E+00 0.  1.
          1    1    1    2  502    0 -0.30839684898E+02  0.11914959575E+01 -0.33736491373E+02  0.45723699296E+02  0.00000000000E+00 0.  1.
         -1    1    1    2    0  501  0.30839684898E+02 -0.11914959575E+01 -0.38839045080E+02  0.49608237722E+02  0.00000000000E+00 0. -1.
</event>
<event>
 4    1  0.6740123E+001  0.3396480E+02  0.7546771E-02  0.1387991E+00
          2   -1    0    0  502    0  0.00000000000E+00  0.00000000000E+00  0.71768158874E+03  0.71768158874E+03  0.00000000000E+00 0. -1.
         -2   -1    0    0    0  501 -0.00000000000E+00 -0.00000000000E+00 -0.17586291377E+01  0.17586291377E+01  0.00000000000E+00 0.  1.
          1    1    1    2  502    0  0.24363283296E+02 -0.23665118697E+02  0.25247828936E+03  0.25475261336E+03  0.00000000000E+00 0.  1.
         -1    1    1    2    0  501 -0.24363283296E+02  0.23665118697E+02  0.46344467023E+03  0.46468760451E+03  0.00000000000E+00 0. -1.
</event>
<event>
 4    1  0.6740123E+001  0.2222936E+02  0.7546771E-02  0.1502409E+00
          2   -1    0    0  502    0  0.00000000000E+00  0.00000000000E+00  0.63577745340E+03  0.63577745340E+03  0.00000000000E+00 0.  1.
         -2   -1    0    0    0  501 -0.00000000000E+00 -0.00000000000E+00 -0.79287679863E+00  0.79287679863E+00  0.00000000000E+00 0. -1.
          1    1    1    2  502    0 -0.13812986388E+02  0.17416823871E+02  0.36220667909E+03  0.36288816835E+03  0.00000000000E+00 0. -1.
         -1    1    1    2    0  501  0.13812986388E+02 -0.17416823871E+02  0.27277789751E+03  0.27368216186E+03  0.00000000000E+00 0.  1.
</event>
<event>
 4    1  0.6740123E+001  0.2171341E+02  0.7546771E-02  0.1509318E+00
          2   -1    0    0  502    0  0.00000000000E+00  0.00000000000E+00  0.83184730132E+02  0.83184730132E+02  0.00000000000E+00 0.  1.
         -2   -1    0    0    0  501 -0.00000000000E+00 -0.00000000000E+00 -0.60669952026E+01  0.60669952026E+01  0.00000000000E+00 0. -1.
          1    1    1    2  502    0 -0.11019951625E+02 -0.18709170061E+02  0.27111496309E+02  0.34734789625E+02  0.00000000000E+00 0. -1.
         -1    1    1    2    0  501  0.11019951625E+02  0.18709170061E+02  0.50006238621E+02  0.54516935710E+02  0.00000000000E+00 0.  1.
</event>
<event>
 4    1  0.6740123E+001  0.2515207E+02  0.7546771E-02  0.1467109E+00
          2   -1    0    0  502    0  0.00000000000E+00  0.00000000000E+00  0.17386695377E+04  0.17386695377E+04  0.00000000000E+00 0.  1.
         -2   -1    0    0    0  501 -0.00000000000E+00 -0.00000000000E+00 -0.44676249626E+00  0.44676249626E+00  0.00000000000E+00 0. -1.
          1    1    1    2  502    0  0.18155662697E+01  0.25086457640E+02  0.49452446944E+03  0.49516368759E+03  0.00000000000E+00 0. -1.
         -1    1    1    2    0  501 -0.18155662697E+01 -0.25086457640E+02  0.12436983057E+04  0.12439526126E+04  0.00000000000E+00 0.  1.
</event>
<event>
 4    1  0.6740123E+001  0.3446234E+02  0.7546771E-02  0.1384383E+00
          2   -1    0    0  502    0  0.00000000000E+00  0.00000000000E+00  0.97646718428E+01  0.97646718428E+01  0.00000000000E+00 0. -1.
         -2   -1    0    0    0  501 -0.00000000000E+00 -0.00000000000E+00 -0.12162875395E+03  0.12162875395E+03  0.00000000000E+00 0.  1.
          1    1    1    2  502    0 -0.16935927556E+02  0.30013785504E+02 -0.55724028878E+02  0.65519618107E+02  0.00000000000E+00 0. -1.
         -1    1    1    2    0  501  0.16935927556E+02 -0.30013785504E+02 -0.56140053228E+02  0.65873807685E+02  0.00000000000E+00 0.  1.
</event>
<event>
 4    1  0.6740123E+001  0.2001927E+02  0.7546771E-02  0.1533741E+00
          2   -1    0    0  502    0  0.00000000000E+00  0.00000000000E+00  0.35049217752E+03  0.35049217752E+03  0.00000000000E+00 0. -1.
         -2   -1    0    0    0  501 -0.00000000000E+00 -0.00000000000E+00 -0.43331617324E+01  0.43331617324E+01  0.00000000000E+00 0.  1.
          1    1    1    2  502    0 -0.86847868744E+01 -0.18037344323E+02  0.20864421416E+02  0.28915314183E+02  0.00000000000E+00 0.  1.
         -1    1    1    2    0  501  0.86847868744E+01  0.18037344323E+02  0.32529459438E+03  0.32591002507E+03  0.00000000000E+00 0. -1.
</event>
<event>
 4    1  0.6740123E+001  0.4908189E+02  0.7546771E-02  0.1302203E+00
          2   -1    0    0  502    0  0.00000000000E+00  0.00000000000E+00  0.24171928930E+03  0.24171928930E+03  0.00000000000E+00 0. -1.
         -2   -1    0    0    0  501 -0.00000000000E+00 -0.00000000000E+00 -0.10337552901E+02  0.10337552901E+02  0.00000000000E+00 0.  1.
          1    1    1    2  502    0 -0.13847462345E+02  0.47088001025E+02  0.91805573713E+02  0.10410233148E+03  0.00000000000E+00 0.  1.
         -1    1    1    2    0  501  0.13847462345E+02 -0.47088001025E+02  0.13957616269E+03  0.14795451073E+03  0.00000000000E+00 0. -1.
</event>
<event>
 4    1  0.6740123E+001  0.2905626E+02  0.7546771E-02  0.1427979E+00
          2   -1    0    0  502    0  0.00000000000E+00  0.00000000000E+00  0.19839065091E+03  0.19839065091E+03  0.00000000000E+00 0.  1.
         -2   -1    0    0    0  501 -0.00000000000E+00 -0.00000000000E+00 -0.91919302218E+01  0.91919302218E+01  0.00000000000E+00 0. -1.
          1    1    1    2  502    0  0.17205070409E+02  0.23414773971E+02  0.18538575838E+02  0.34466576302E+02  0.00000000000E+00 0. -1.
         -1    1    1    2    0  501 -0.17205070409E+02 -0.23414773971E+02  0.17066014485E+03  0.17311600483E+03  0.00000000000E+00 0.  1.
</event>
<event>
 4    1  0.6740123E+001  0.4307809E+02  0.7546771E-02  0.1331335E+00
          2   -1    0    0  502    0  0.00000000000E+00  0.00000000000E+00  0.27207700361E+04  0.27207700361E+04  0.00000000000E+00 0. -1.
         -2   -1    0    0    0  501 -0.00000000000E+00 -0.00000000000E+00 -0.68460960864E+00  0.68460960864E+00  0.00000000000E+00 0.  1.
          1    1    1    2  502    0 -0.93263024185E+01  0.42056411485E+02  0.12769625250E+04  0.12776889339E+04  0.00000000000E+00 0.  1.
         -1    1    1    2    0  501  0.93263024185E+01 -0.42056411485E+02  0.14431229015E+04  0.14437657118E+04  0.00000000000E+00 0. -1.
</event>
<event>
 4    1  0.6740123E+001  0.2695437E+02  0.7546771E-02  0.1448067E+00
          2   -1    0    0  502    0  0.00000000000E+00  0.00000000000E+00  0.22033700031E+03  0.22033700031E+03  0.00000000000E+00 0. -1.
         -2   -1    0    0    0  501 -0.00000000000E+00 -0.00000000000E+00 -0.33021710134E+01  0.33021710134E+01  0.00000000000E+00 0.  1.
          1    1    1    2  502    0  0.22027251252E+02 -0.15535059615E+02  0.11277048014E+03  0.11594705285E+03  0.00000000000E+00 0. -1.
         -1    1    1    2    0  501 -0.22027251252E+02  0.15535059615E+02  0.10426434916E+03  0.10769211847E+03  0.00000000000E+00 0.  1.
</event>
<event>
 4    1  0.6740123E+001  0.2951307E+02  0.7546771E-02  0.1423876E+00
          2   -1    0    0  502    0  0.00000000000E+00  0.00000000000E+00  0.19211352469E+04  0.19211352469E+04  0.00000000000E+00 0.  1.
         -2   -1    0    0    0  501 -0.00000000000E+00 -0.00000000000E+00 -0.45340720107E+00  0.45340720107E+00  0.00000000000E+00 0. -1.
          1    1    1    2  502    0 -0.29045304226E+02  0.52337016914E+01  0.96645072901E+03  0.96690125294E+03  0.00000000000E+00 0. -1.
         -1    1    1    2    0  501  0.29045304226E+02 -0.52337016914E+01  0.95423111069E+03  0.95468740116E+03  0.00000000000E+00 0.  1.
</event>
<event>
 4    1  0.6740123E+001  0.2811834E+02  0.7546771E-02  0.1436686E+00
          2   -1    0    0  502    0  0.00000000000E+00  0.00000000000E+00  0.34502062570E+01  0.34502062570E+01  0.00000000000E+00 0.  1.
         -2   -1    0    0    0  501 -0.00000000000E+00 -0.00000000000E+00 -0.27044832661E+03  0.27044832661E+03  0.00000000000E+00 0. -1.
          1    1    1    2  502    0 -0.20308834406E+02  0.19447170390E+02 -0.18701011476E+03  0.18911220007E+03  0.00000000000E+00 0. -1.
         -1    1    1    2    0  501  0.20308834406E+02 -0.19447170390E+02 -0.79988005590E+02  0.84786332798E+02  0.00000000000E+00 0.  1.
</event>
<event>
 4    1  0.6740123E+001  0.2215327E+02  0.7546771E-02  0.1503413E+00
          2   -1    0    0  502    0  0.00000000000E+00  0.00000000000E+00  0.54298484154E+03  0.54298484154E+03  0.00000000000E+00 0.  1.
         -2   -1    0    0    0  501 -0.00000000000E+00 -0.00000000000E+00 -0.92650331467E+00  0.92650331467E+00  0.00000000000E+00 0. -1.
          1    1    1    2  502    0 -0.19006774516E+02  0.11380235671E+02  0.31357040034E+03  0.31435197345E+03  0.00000000000E+00 0. -1.
         -1    1    1    2    0  501  0.19006774516E+02 -0.11380235671E+02  0.22848793788E+03  0.22955937140E+03  0.00000000000E+00 0.  1.
</event>
<event>
 4    1  0.6740123E+001  0.4833950E+02  0.7546771E-02  0.1305537E+00
          2   -1    0    0  502    0  0.00000000000E+00  0.00000000000E+00  0.52238645728E+03  0.52238645728E+03  0.00000000000E+00 0. -1.
         -2   -1    0    0    0  501 -0.00000000000E+00 -0.00000000000E+00 -0.96210314470E+01  0.96210314470E+01  0.00000000000E+00 0.  1.
          1    1    1    2  502    0  0.39421690671E+02  0.27975665453E+02  0.61805651776E+02  0.78464298534E+02  0.00000000000E+00 0.  1.
         -1    1    1    2    0  501 -0.39421690671E+02 -0.27975665453E+02  0.45095977406E+03  0.45354319020E+03  0.00000000000E+00 0. -1.
</event>
<event>
 4    1  0.6740123E+001  0.2920234E+02  0.7546771E-02  0.1426657E+00
          2   -1    0    0  502    0  0.00000000000E+00  0.00000000000E+00  0.13476342518E+03  0.13476342518E+03  0.00000000000E+00 0. -1.
         -2   -1    0    0    0  501 -0.00000000000E+00 -0.00000000000E+00 -0.72769191203E+01  0.72769191203E+01  0.00000000000E+00 0.  1.
          1    1    1    2  502    0 -0.17386557093E+02  0.23462405415E+02  0.38096467745E+02  0.48001225922E+02  0.00000000000E+00 0.  1.
         -1    1    1    2    0  501  0.17386557093E+02 -0.23462405415E+02  0.89390038316E+02  0.94039118379E+02  0.00000000000E+00 0. -1.
</event>
<event>
 4    1  0.6740123E+001  0.2242987E+02  0.7546771E-02  0.1499784E+00
          2   -1    0    0  502    0  0.00000000000E+00  0.00000000000E+00  0.17682998777E+04  0.17682998777E+04  0.00000000000E+00 0.  1.
         -2   -1    0    0    0  501 -0.00000000000E+00 -0.00000000000E+00 -0.43384771323E+00  0.43384771323E+00  0.00000000000E+00 0. -1.
          1    1    1    2  502    0 -0.92345362421E+01 -0.20440708356E+02  0.14027908423E+04  0.14029701517E+04  0.00000000000E+00 0.  1.
         -1    1    1    2    0  501  0.92345362421E+01  0.20440708356E+02  0.36507518769E+03  0.36576357376E+03  0.00000000000E+00 0. -1.
</event>
<event>
 4    1  0.6740123E+001  0.2672542E+02  0.7546771E-02  0.1450386E+00
          2   -1    0    0  502    0  0.00000000000E+00  0.00000000000E+00  0.67762196161E+01  0.67762196161E+01  0.00000000000E+00 0.  1.
         -2   -1    0    0    0  501 -0.00000000000E+00 -0.00000000000E+00 -0.18716219614E+03  0.18716219614E+03  0.00000000000E+00 0. -1.
          1    1    1    2  502    0  0.20037219029E+02 -0.17684959456E+02 -0.15428259058E+03  0.15658022127E+03  0.00000000000E+00 0. -1.
         -1    1    1    2    0  501 -0.20037219029E+02  0.17684959456E+02 -0.26103385943E+02  0.37358194483E+02  0.00000000000E+00 0.  1.
</event>
<event>
 4    1  0.6740123E+001  0.2610782E+02  0.7546771E-02  0.1456782E+00
          2   -1    0    0  502    0  0.00000000000E+00  0.00000000000E+00  0.17521253236E+04  0.17521253236E+04  0.00000000000E+00 0.  1.
         -2   -1    0    0    0  501 -0.00000000000E+00 -0.00000000000E+00 -0.51775028497E+00  0.51775028497E+00  0.00000000000E+00 0. -1.
          1    1    1    2  502    0  0.26075311517E+02  0.13023704051E+01  0.43884783014E+03  0.43962374373E+03  0.00000000000E+00 0. -1.
         -1    1    1    2    0  501 -0.26075311517E+02 -0.13023704051E+01  0.13127597432E+04  0.13130193302E+04  0.00000000000E+00 0.  1.
</event>
<event>
 4    1  0.6740123E+001  0.3530238E+02  0.7546771E-02  0.1378450E+00
          2   -1    0    0  502    0  0.00000000000E+00  0.00000000000E+00  0.28974482442E+03  0.28974482442E+03  0.00000000000E+00 0.  1.
         -2   -1    0    0    0  501 -0.00000000000E+00 -0.00000000000E+00 -0.89105361371E+01  0.89105361371E+01  0.00000000000E+00 0. -1.
          1    1    1    2  502    0 -0.28141715416E+02  0.21314359648E+02  0.33016632701E+02  0.48335867725E+02  0.00000000000E+00 0. -1.
         -1    1    1    2    0  501  0.28141715416E+02 -0.21314359648E+02  0.24781765558E+03  0.25031949283E+03  0.00000000000E+00 0.  1.
</event>
<event>
 4    1  0.6740123E+001  0.2117303E+02  0.7546771E-02  0.1516809E+00
          2   -1    0    0  502    0  0.00000000000E+00  0.00000000000E+00  0.13377925974E+04  0.13377925974E+04  0.00000000000E+00 0. -1.
         -2   -1    0    0    0  501 -0.00000000000E+00 -0.00000000000E+00 -0.69673717999E+00  0.69673717999E+00  0.00000000000E+00 0.  1.
          1    1    1    2  502    0 -0.21097513568E+02  0.17866729726E+01  0.11507017654E+04  0.11508965419E+04  0.00000000000E+00 0. -1.
         -1    1    1    2    0  501  0.21097513568E+02 -0.17866729726E+01  0.18639409483E+03  0.18759279269E+03  0.00000000000E+00 0.  1.
</event>
<event>
 4    1  0.6740123E+001  0.2046706E+02  0.7546771E-02  0.1527012E+00
          2   -1    0    0  502    0  0.00000000000E+00  0.00000000000E+00  0.19063246719E+01  0.19063246719E+01  0.00000000000E+00 0.  1.
         -2   -1    0    0    0  501 -0.00000000000E+00 -0.00000000000E+00 -0.36365904985E+03  0.36365904985E+03  0.00000000000E+00 0. -1.
          1    1    1    2  502    0  0.20427755675E+02 -0.12678597279E+01 -0.65890848330E+02  0.68996409789E+02  0.00000000000E+00 0.  1.
         -1    1    1    2    0  501 -0.20427755675E+02  0.12678597279E+01 -0.29586187685E+03  0.29656896474E+03  0.00000000000E+00 0. -1.
</event>
<event>
 4    1  0.6740123E+001  0.2108958E+02  0.7546771E-02  0.1517990E+00
          2   -1    0    0  502    0  0.00000000000E+00  0.00000000000E+00  0.10285127664E+04  0.10285127664E+04  0.00000000000E+00 0.  1.
         -2   -1    0    0    0  501 -0.00000000000E+00 -0.00000000000E+00 -0.47249073017E+00  0.47249073017E+00  0.00000000000E+00 0. -1.
          1    1    1    2  502    0  0.37539593116E+01  0.20752783061E+02  0.66381154992E+03  0.66414647783E+03  0.00000000000E+00 0.  1.
         -1    1    1    2    0  501 -0.37539593116E+01 -0.20752783061E+02  0.36422872580E+03  0.36483877934E+03  0.00000000000E+00 0. -1.
</event>
<event>
 4    1  0.6740123E+001  0.3421605E+02  0.7546771E-02  0.1386160E+00
          2   -1    0    0  502    0  0.00000000000E+00  0.00000000000E+00  0.63426572345E+03  0.63426572345E+03  0.00000000000E+00 0.  1.
         -2   -1    0    0    0  501 -0.00000000000E+00 -0.00000000000E+00 -0.23990993000E+01  0.23990993000E+01  0.00000000000E+00 0. -1.
          1    1    1    2  502    0 -0.26456801472E+02 -0.21697372296E+02  0.46880611414E+03  0.47005309377E+03  0.00000000000E+00 0.  1.
         -1    1    1    2    0  501  0.26456801472E+02  0.21697372296E+02  0.16306051001E+03  0.16661172898E+03  0.00000000000E+00 0. -1.
</event>
<event>
 4    1  0.6740123E+001  0.2152931E+02  0.7546771E-02  0.1511840E+00
          2   -1    0    0  502    0  0.00000000000E+00  0.00000000000E+00  0.22216124926E+01  0.22216124926E+01  0.00000000000E+00 0.  1.
         -2   -1    0    0    0  501 -0.00000000000E+00 -0.00000000000E+00 -0.21992307230E+03  0.21992307230E+03  0.00000000000E+00 0. -1.
          1    1    1    2  502    0 -0.19566516227E+02 -0.89812393195E+01 -0.13401221709E+03  0.13573056232E+03  0.00000000000E+00 0.  1.
         -1    1    1    2    0  501  0.19566516227E+02  0.89812393195E+01 -0.83689242719E+02  0.86414122479E+02  0.00000000000E+00 0. -1.
</event>
<event>
 4    1  0.6740123E+001  0.4825404E+02  0.7546771E-02  0.1305925E+00
          2   -1    0    0  502    0  0.00000000000E+00  0.00000000000E+00  0.77497103890E+03  0.77497103890E+03  0.00000000000E+00 0.  1.
         -2   -1    0    0    0  501 -0.00000000000E+00 -0.00000000000E+00 -0.30048862677E+01  0.30048862677E+01  0.00000000000E+00 0. -1.
          1    1    1    2  502    0  0.47933042210E+02  0.55565963752E+01  0.38999356022E+03  0.39296746597E+03  0.00000000000E+00 0.  1.
         -1    1    1    2    0  501 -0.47933042210E+02 -0.55565963752E+01  0.38197259241E+03  0.38500845920E+03  0.00000000000E+00 0. -1.
</event>
<event>
 4    1  0.6740123E+001  0.3163247E+02  0.7546771E-02  0.1405921E+00
          2   -1    0    0  502    0  0.00000000000E+00  0.00000000000E+00  0.20925467269E+03  0.20925467269E+03  0.00000000000E+00 0. -1.
         -2   -1    0    0    0  501 -0.00000000000E+00 -0.00000000000E+00 -0.59074696321E+01  0.59074696321E+01  0.00000000000E+00 0.  1.
          1    1    1    2  502    0  0.50795151744E+00 -0.31628395664E+02  0.54712193170E+02  0.63198397990E+02  0.00000000000E+00 0.  1.
         -1    1    1    2    0  501 -0.50795151744E+00  0.31628395664E+02  0.14863500989E+03  0.15196374433E+03  0.00000000000E+00 0. -1.
</event>
<event>
 4    1  0.6740123E+001  0.6107332E+02  0.7546771E-02  0.1256229E+00
          2   -1    0    0  502    0  0.00000000000E+00  0.00000000000E+00  0.61185559659E+03  0.61185559659E+03  0.00000000000E+00 0. -1.
         -2   -1    0    0    0  501 -0.00000000000E+00 -0.00000000000E+00 -0.71567667697E+01  0.71567667697E+01  0.00000000000E+00 0.  1.
          1    1    1    2  502    0  0.16654227621E+01  0.61050604853E+02  0.42149958331E+03  0.42590121943E+03  0.00000000000E+00 0. -1.
         -1    1    1    2    0  501 -0.16654227621E+01 -0.61050604853E+02  0.18319924651E+03  0.19311114393E+03  0.00000000000E+00 0.  1.
</event>
<event>
 4    1  0.6740123E+001  0.2742272E+02  0.7546771E-02  0.1443407E+00
          2   -1    0    0  502    0  0.00000000000E+00  0.00000000000E+00  0.35813244406E+03  0.35813244406E+03  0.00000000000E+00 0. -1.
         -2   -1    0    0    0  501 -0.00000000000E+00 -0.00000000000E+00 -0.23474775276E+01  0.23474775276E+01  0.00000000000E+00 0.  1.
          1    1    1    2  502    0 -0.81400771969E+01  0.26186730357E+02  0.23643826764E+03  0.23802323439E+03  0.00000000000E+00 0. -1.
         -1    1    1    2    0  501  0.81400771969E+01 -0.26186730357E+02  0.11934669889E+03  0.12245668720E+03  0.00000000000E+00 0.  1.
</event>
<event>
 4    1  0.6740123E+001  0.3650507E+02  0.7546771E-02  0.1370280E+00
          2   -1    0    0  502    0  0.00000000000E+00  0.00000000000E+00  0.47701686556E+01  0.47701686556E+01  0.00000000000E+00 0. -1.
         -2   -1    0    0    0  501 -0.00000000000E+00 -0.00000000000E+00 -0.28571435600E+03  0.28571435600E+03  0.00000000000E+00 0.  1.
          1    1    1    2  502    0 -0.21812443136E+01  0.36439847221E+02 -0.11882116288E+03  0.12430240963E+03  0.00000000000E+00 0. -1.
         -1    1    1    2    0  501  0.21812443136E+01 -0.36439847221E+02 -0.16212302447E+03  0.16618211503E+03  0.00000000000E+00 0.  1.
</event>
<event>
 4    1  0.6740123E+001  0.2653220E+02  0.7546771E-02  0.1452365E+00
          2   -1    0    0  502    0  0.00000000000E+00  0.00000000000E+00  0.19693430478E+03  0.19693430478E+03  0.00000000000E+00 0. -1.
         -2   -1    0    0    0  501 -0.00000000000E+00 -0.00000000000E+00 -0.31836590895E+02  0.31836590895E+02  0.00000000000E+00 0.  1.
          1    1    1    2  502    0  0.61922675478E+01  0.25799490378E+02 -0.25223904418E+02  0.36608786312E+02  0.00000000000E+00 0.  1.
         -1    1    1    2    0  501 -0.61922675478E+01 -0.25799490378E+02  0.19032161830E+03  0.19216210936E+03  0.00000000000E+00 0. -1.
</event>
<event>
 4    1  0.6740123E+001  0.2118759E+02  0.7546771E-02  0.1516603E+00
          2   -1    0    0  502    0  0.00000000000E+00  0.00000000000E+00  0.15029114345E+04  0.15029114345E+04  0.00000000000E+00 0. -1.
         -2   -1    0    0    0  501 -0.00000000000E+00 -0.00000000000E+00 -0.29872911487E+00  0.29872911487E+00  0.00000000000E+00 0.  1.
          1    1    1    2  502    0  0.21161790462E+02  0.10452849708E+01  0.75919087867E+03  0.75948647404E+03  0.00000000000E+00 0. -1.
         -1    1    1    2    0  501 -0.21161790462E+02 -0.10452849708E+01  0.74342182672E+03  0.74372368958E+03  0.00000000000E+00 0.  1.
</event>
<event>
 4    1  0.6740123E+001  0.4428539E+02  0.7546771E-02  0.1325052E+00
          2   -1    0    0  502    0  0.00000000000E+00  0.00000000000E+00  0.17662834122E+04  0.17662834122E+04  0.00000000000E+00 0.  1.
         -2   -1    0    0    0  501 -0.00000000000E+00 -0.00000000000E+00 -0.20992497578E+01  0.20992497578E+01  0.00000000000E+00 0. -1.
          1    1    1    2  502    0  0.90194721068E+01  0.43357176452E+02  0.14889541299E+04  0.14896125659E+04  0.00000000000E+00 0.  1.
         -1    1    1    2    0  501 -0.90194721068E+01 -0.43357176452E+02  0.27523003257E+03  0.27877009605E+03  0.00000000000E+00 0. -1.
</event>
<event>
 4    1  0.6740123E+001  0.2580749E+02  0.7546771E-02  0.1459969E+00
          2   -1    0    0  502    0  0.00000000000E+00  0.00000000000E+00  0.21099107434E+01  0.21099107434E+01  0.00000000000E+00 0.  1.
         -2   -1    0    0    0  501 -0.00000000000E+00 -0.00000000000E+00 -0.31823389911E+03  0.31823389911E+03  0.00000000000E+00 0. -1.
          1    1    1    2  502    0 -0.12215810064E+02  0.22733247869E+02 -0.14367326103E+03  0.14597271152E+03  0.00000000000E+00 0. -1.
         -1    1    1    2    0  501  0.12215810064E+02 -0.22733247869E+02 -0.17245072734E+03  0.17437109833E+03  0.00000000000E+00 0.  1.
</event>
<event>
 4    1  0.6740123E+001  0.5033073E+02  0.7546771E-02  0.1296745E+00
          2   -1    0    0  502    0  0.00000000000E+00  0.00000000000E+00  0.31099913379E+03  0.31099913379E+03  0.00000000000E+00 0.  1.
         -2   -1    0    0    0  501 -0.00000000000E+00 -0.00000000000E+00 -0.10709631867E+02  0.10709631867E+02  0.00000000000E+00 0. -1.
          1    1    1    2  502    0 -0.13530810990E+02  0.48477827770E+02  0.22885519536E+03  0.23432431175E+03  0.00000000000E+00 0.  1.
         -1    1    1    2    0  501  0.13530810990E+02 -0.48477827770E+02  0.71434306562E+02  0.87384453911E+02  0.00000000000E+00 0. -1.
</event>
<event>
 4    1  0.6740123E+001  0.3733397E+02  0.7546771E-02  0.1364859E+00
          2   -1    0    0  502    0  0.00000000000E+00  0.00000000000E+00  0.23192866874E+04  0.23192866874E+04  0.00000000000E+00 0. -1.
         -2   -1    0    0    0  501 -0.00000000000E+00 -0.00000000000E+00 -0.10238645204E+01  0.10238645204E+01  0.00000000000E+00 0.  1.
          1    1    1    2  502    0  0.35907688637E+02  0.10220718700E+02  0.19047386788E+04  0.19051045272E+04  0.00000000000E+00 0. -1.
         -1    1    1    2    0  501 -0.35907688637E+02 -0.10220718700E+02  0.41352414406E+03  0.41520602466E+03  0.00000000000E+00 0.  1.
</event>
<event>
 4    1  0.6740123E+001  0.2815613E+02  0.7546771E-02  0.1436328E+00
          2   -1    0    0  502    0  0.00000000000E+00  0.00000000000E+00  0.67889689570E+03  0.67889689570E+03  0.00000000000E+00 0.  1.
         -2   -1    0    0    0  501 -0.00000000000E+00 -0.00000000000E+00 -0.13643830184E+01  0.13643830184E+01  0.00000000000E+00 0. -1.
          1    1    1    2  502    0  0.11225413061E+02 -0.25821658036E+02  0.20963586115E+03  0.21151823137E+03  0.00000000000E+00 0. -1.
         -1    1    1    2    0  501 -0.11225413061E+02  0.25821658036E+02  0.46789665153E+03  0.46874304735E+03  0.00000000000E+00 0.  1.
</event>
<event>
 4    1  0.6740123E+001  0.2109147E+02  0.7546771E-02  0.1517963E+00
          2   -1    0    0  502    0  0.00000000000E+00  0.00000000000E+00  0.22618586422E+03  0.22618586422E+03  0.00000000000E+00 0.  1.
         -2   -1    0    0    0  501 -0.00000000000E+00 -0.00000000000E+00 -0.45056174324E+01  0.45056174324E+01  0.00000000000E+00 0. -1.
          1    1    1    2  502    0  0.20772683558E+02 -0.36531613822E+01  0.24254691810E+02  0.32142495937E+02  0.00000000000E+00 0. -1.
         -1    1    1    2    0  501 -0.20772683558E+02  0.36531613822E+01  0.19742555497E+03  0.19854898571E+03  0.00000000000E+00 0.  1.
</event>
<event>
 4    1  0.6740123E+001  0.2321162E+02  0.7546771E-02  0.1489858E+00
          2   -1    0    0  502    0  0.00000000000E+00  0.00000000000E+00  0.77509197050E+01  0.77509197050E+01  0.00000000000E+00 0.  1.
         -2   -1    0    0    0  501 -0.00000000000E+00 -0.00000000000E+00 -0.69566117365E+02  0.69566117365E+02  0.00000000000E+00 0. -1.
          1    1    1    2  502    0 -0.20031894775E+02 -0.11726136659E+02 -0.29825715095E+02  0.37793549319E+02  0.00000000000E+00 0.  1.
         -1    1    1    2    0  501  0.20031894775E+02  0.11726136659E+02 -0.31989482565E+02  0.39523487751E+02  0.00000000000E+00 0. -1.
</event>
<event>
 4    1  0.6740123E+001  0.2402120E+02  0.7546771E-02  0.1480058E+00
          2   -1    0    0  502    0  0.00000000000E+00  0.00000000000E+00  0.11049348590E+04  0.11049348590E+04  0.00000000000E+00 0. -1.
         -2   -1    0    0    0  501 -0.00000000000E+00 -0.00000000000E+00 -0.17650071637E+01  0.17650071637E+01  0.00000000000E+00 0.  1.
          1    1    1    2  502    0  0.19117705651E+02 -0.14544110325E+02  0.10159132810E+04  0.10161972310E+04  0.00000000000E+00 0. -1.
         -1    1    1    2    0  501 -0.19117705651E+02  0.14544110325E+02  0.87256570857E+02  0.90502635167E+02  0.00000000000E+00 0.  1.
</event>
<event>
 4    1  0.6740123E+001  0.2514466E+02  0.7546771E-02  0.1467192E+00
          2   -1    0    0  502    0  0.00000000000E+00  0.00000000000E+00  0.74890735952E+01  0.74890735952E+01  0.00000000000E+00 0. -1.
         -2   -1    0    0    0  501 -0.00000000000E+00 -0.00000000000E+00 -0.85134401439E+02  0.85134401439E+02  0.00000000000E+00 0.  1.
          1    1    1    2  502    0  0.24464855527E+02  0.58073049740E+01 -0.34590744190E+02  0.42764161756E+02  0.00000000000E+00 0. -1.
         -1    1    1    2    0  501 -0.24464855527E+02 -0.58073049740E+01 -0.43054583653E+02  0.49859313278E+02  0.00000000000E+00 0.  1.
</event>
<event>
 4    1  0.6740123E+001  0.2009558E+02  0.7546771E-02  0.1532580E+00
          2   -1    0    0  502    0  0.00000000000E+00  0.00000000000E+00  0.31820870224E+02  0.31820870224E+02  0.00000000000E+00 0.  1.
         -2   -1    0    0    0  501 -0.00000000000E+00 -0.00000000000E+00 -0.16597229373E+02  0.16597229373E+02  0.00000000000E+00 0. -1.
          1    1    1    2  502    0  0.17188760256E+02  0.10410515007E+02 -0.41330959976E+01  0.20516207846E+02  0.00000000000E+00 0. -1.
         -1    1    1    2    0  501 -0.17188760256E+02 -0.10410515007E+02  0.19356736849E+02  0.27901891751E+02  0.00000000000E+00 0.  1.
</event>
<event>
 4    1  0.6740123E+001  0.2326166E+02  0.7546771E-02  0.1489238E+00
          2   -1    0    0  502    0  0.00000000000E+00  0.00000000000E+00  0.87509893637E+02  0.87509893637E+02  0.00000000000E+00 0. -1.
         -2   -1    0    0    0  501 -0.00000000000E+00 -0.00000000000E+00 -0.90489053136E+01  0.90489053136E+01  0.00000000000E+00 0.  1.
          1    1    1    2  502    0  0.62160722173E+01  0.22415738628E+02  0.66399123179E+02  0.70355870053E+02  0.00000000000E+00 0.  1.
         -1    1    1    2    0  501 -0.62160722173E+01 -0.22415738628E+02  0.12061865144E+02  0.26202928897E+02  0.00000000000E+00 0. -1.
</event>
<event>
 4    1  0.6740123E+001  0.2217454E+02  0.7546771E-02  0.1503132E+00
          2   -1    0    0  502    0  0.00000000000E+00  0.00000000000E+00  0.12345982353E+04  0.12345982353E+04  0.00000000000E+00 0.  1.
         -2   -1    0    0    0  501 -0.00000000000E+00 -0.00000000000E+00 -0.42233085653E+00  0.42233085653E+00  0.00000000000E+00 0. -1.
          1    1    1    2  502    0  0.21564117299E+02  0.51671087546E+01  0.46971284383E+03  0.47023596824E+03  0.00000000000E+00 0.  1.
         -1    1    1    2    0  501 -0.21564117299E+02 -0.51671087546E+01  0.76446306058E+03  0.76478459788E+03  0.00000000000E+00 0. -1.
</event>
<event>
 4    1  0.6740123E+001  0.2417839E+02  0.7546771E-02  0.1478208E+00
          2   -1    0    0  502    0  0.00000000000E+00  0.00000000000E+00  0.64770789388E+03  0.64770789388E+03  0.00000000000E+00 0.  1.
         -2   -1    0    0    0  501 -0.00000000000E+00 -0.00000000000E+00 -0.92806310110E+00  0.92806310110E+00  0.00000000000E+00 0. -1.
          1    1    1    2  502    0 -0.11286124086E+02 -0.21382651975E+02  0.37715368797E+03  0.37792790153E+03  0.00000000000E+00 0.  1.
         -1    1    1    2    0  501  0.11286124086E+02  0.21382651975E+02  0.26962614281E+03  0.27070805545E+03  0.00000000000E+00 0. -1.
</event>
<event>
 4    1  0.6740123E+001  0.2721223E+02  0.7546771E-02  0.1445488E+00
          2   -1    0    0  502    0  0.00000000000E+00  0.00000000000E+00  0.45329970204E+03  0.45329970204E+03  0.00000000000E+00 0.  1.
         -2   -1    0    0    0  501 -0.00000000000E+00 -0.00000000000E+00 -0.19425154644E+01  0.19425154644E+01  0.00000000000E+00 0. -1.
          1    1    1    2  502    0  0.23195024112E+02 -0.14230119162E+02  0.13490535986E+03  0.13762253287E+03  0.00000000000E+00 0. -1.
         -1    1    1    2    0  501 -0.23195024112E+02  0.14230119162E+02  0.31645182672E+03  0.31761968464E+03  0.00000000000E+00 0.  1.
</event>
<event>
 4    1  0.6740123E+001  0.3483922E+02  0.7546771E-02  0.1381697E+00
          2   -1    0    0  502    0  0.00000000000E+00  0.00000000000E+00  0.17089159999E+03  0.17089159999E+03  0.00000000000E+00 0.  1.
         -2   -1    0    0    0  501 -0.00000000000E+00 -0.00000000000E+00 -0.81136588131E+01  0.81136588131E+01  0.00000000000E+00 0. -1.
          1    1    1    2  502    0  0.27976868845E+02 -0.20762125978E+02  0.11298410253E+03  0.11823357598E+03  0.00000000000E+00 0.  1.
         -1    1    1    2    0  501 -0.27976868845E+02  0.20762125978E+02  0.49793838650E+02  0.60771682821E+02  0.00000000000E+00 0. -1.
</event>
<event>
 4    1  0.6740123E+001  0.2943134E+02  0.7546771E-02  0.1424603E+00
          2   -1    0    0  502    0  0.00000000000E+00  0.00000000000E+00  0.93597763429E+03  0.93597763429E+03  0.00000000000E+00 0. -1.
         -2   -1    0    0    0  501 -0.00000000000E+00 -0.00000000000E+00 -0.93237035921E+00  0.93237035921E+00  0.00000000000E+00 0.  1.
          1    1    1    2  502    0 -0.27799058310E+02  0.96652064039E+01  0.42717431436E+03  0.42818699036E+03  0.00000000000E+00 0.  1.
         -1    1    1    2    0  501  0.27799058310E+02 -0.96652064039E+01  0.50787094957E+03  0.50872301429E+03  0.00000000000E+00 0. -1.
</event>
<event>
 4    1  0.6740123E+001  0.4647100E+02  0.7546771E-02  0.1314243E+00
          2   -1    0    0  502    0  0.00000000000E+00  0.00000000000E+00  0.68737270613E+03  0.68737270613E+03  0.00000000000E+00 0. -1.
         -2   -1    0    0    0  501 -0.00000000000E+00 -0.00000000000E+00 -0.31643186993E+01  0.31643186993E+01  0.00000000000E+00 0.  1.
          1    1    1    2  502    0  0.22148446594E+02  0.40853401998E+02  0.31294624645E+03  0.31637779206E+03  0.00000000000E+00 0.  1.
         -1    1    1    2    0  501 -0.22148446594E+02 -0.40853401998E+02  0.37126214098E+03  0.37415923277E+03  0.00000000000E+00 0. -1.
</event>
<event>
 4    1  0.6740123E+001  0.6142361E+02  0.7546771E-02  0.1255071E+00
          2   -1    0    0  502    0  0.00000000000E+00  0.00000000000E+00  0.32275455500E+03  0.32275455500E+03  0.00000000000E+00 0.  1.
         -2   -1    0    0    0  501 -0.00000000000E+00 -0.00000000000E+00 -0.16341102004E+02  0.16341102004E+02  0.00000000000E+00 0. -1.
          1    1    1    2  502    0  0.14711981395E+02 -0.59635702387E+02  0.24366534264E+03  0.25128799931E+03  0.00000000000E+00 0.  1.
         -1    1    1    2    0  501 -0.14711981395E+02  0.59635702387E+02  0.62748110361E+02  0.87807657694E+02  0.00000000000E+00 0. -1.
</event>
<event>
 4    1  0.6740123E+001  0.2296644E+02  0.7546771E-02  0.1492920E+00
          2   -1    0    0  502    0  0.00000000000E+00  0.00000000000E+00  0.49425855223E+01  0.49425855223E+01  0.00000000000E+00 0.  1.
         -2   -1    0    0    0  501 -0.00000000000E+00 -0.00000000000E+00 -0.25162829011E+03  0.25162829011E+03  0.00000000000E+00 0. -1.
          1    1    1    2  502    0  0.11584753324E+02 -0.19830555248E+02 -0.25989955027E+02  0.34683356143E+02  0.00000000000E+00 0.  1.
         -1    1    1    2    0  501 -0.11584753324E+02  0.19830555248E+02 -0.22069574956E+03  0.22188751949E+03  0.00000000000E+00 0. -1.
</event>
<event>
 4    1  0.6740123E+001  0.2110921E+02  0.7546771E-02  0.1517711E+00
          2   -1    0    0  502    0  0.00000000000E+00  0.00000000000E+00  0.83645774732E+03  0.83645774732E+03  0.00000000000E+00 0. -1.
         -2   -1    0    0    0  501 -0.00000000000E+00 -0.00000000000E+00 -0.54861906990E+00  0.54861906990E+00  0.00000000000E+00 0.  1.
          1    1    1    2  502    0 -0.20471468119E+02 -0.51495361285E+01  0.48919614207E+03  0.48965137000E+03  0.00000000000E+00 0. -1.
         -1    1    1    2    0  501  0.20471468119E+02  0.51495361285E+01  0.34671298618E+03  0.34735499639E+03  0.00000000000E+00 0.  1.
</event>
<event>
 4    1  0.6740123E+001  0.2131288E+02  0.7546771E-02  0.1514844E+00
          2   -1    0    0  502    0  0.00000000000E+00  0.00000000000E+00  0.10162698411E+04  0.10162698411E+04  0.00000000000E+00 0. -1.
         -2   -1    0    0    0  501 -0.00000000000E+00 -0.00000000000E+00 -0.58195090953E+00  0.58195090953E+00  0.00000000000E+00 0.  1.
          1    1    1    2  502    0  0.21286679356E+02 -0.10565308371E+01  0.26297954063E+03  0.26384176653E+03  0.00000000000E+00 0.  1.
         -1    1    1    2    0  501 -0.21286679356E+02  0.10565308371E+01  0.75270834960E+03  0.75301002552E+03  0.00000000000E+00 0. -1.
</event>
<event>
 4    1  0.6740123E+001  0.2320212E+02  0.7546771E-02  0.1489976E+00
          2   -1    0    0  502    0  0.00000000000E+00  0.00000000000E+00  0.58975425886E+02  0.58975425886E+02  0.00000000000E+00 0. -1.
         -2   -1    0    0    0  501 -0.00000000000E+00 -0.00000000000E+00 -0.10729678334E+02  0.10729678334E+02  0.00000000000E+00 0.  1.
          1    1    1    2  502    0  0.18925390717E+02 -0.13422660543E+02  0.10657926786E+02  0.25532912744E+02  0.00000000000E+00 0.  1.
         -1    1    1    2    0  501 -0.18925390717E+02  0.13422660543E+02  0.37587820766E+02  0.44172191476E+02  0.00000000000E+00 0. -1.
</event>
<event>
 4    1  0.6740123E+001  0.2563793E+02  0.7546771E-02  0.1461792E+00
          2   -1    0    0  502    0  0.00000000000E+00  0.00000000000E+00  0.84638567873E+03  0.84638567873E+03  0.00000000000E+00 0. -1.
         -2   -1    0    0    0  501 -0.00000000000E+00 -0.00000000000E+00 -0.95395204567E+00  0.95395204567E+00  0.00000000000E+00 0.  1.
          1    1    1    2  502    0  0.96666388879E+01  0.23745730846E+02  0.60539190677E+03  0.60593453806E+03  0.00000000000E+00 0. -1.
         -1    1    1    2    0  501 -0.96666388879E+01 -0.23745730846E+02  0.24003981992E+03  0.24140509271E+03  0.00000000000E+00 0.  1.
</event>
<event>
 4    1  0.6740123E+001  0.2071260E+02  0.7546771E-02  0.1523408E+00
          2   -1    0    0  502    0  0.00000000000E+00  0.00000000000E+00  0.38332693440E+03  0.38332693440E+03  0.00000000000E+00 0.  1.
         -2   -1    0    0    0  501 -0.00000000000E+00 -0.00000000000E+00 -0.11318104593E+01  0.11318104593E+01  0.00000000000E+00 0. -1.
          1    1    1    2  502    0  0.12494690241E+02  0.16519520567E+02  0.17079072792E+03  0.17204210121E+03  0.00000000000E+00 0. -1.
         -1    1    1    2    0  501 -0.12494690241E+02 -0.16519520567E+02  0.21140439602E+03  0.21241664365E+03  0.00000000000E+00 0.  1.
</event>
<event>
 4    1  0.6740123E+001  0.3379657E+02  0.7546771E-02  0.1389227E+00
          2   -1    0    0  502    0  0.00000000000E+00  0.00000000000E+00  0.59572425406E+02  0.59572425406E+02  0.00000000000E+00 0. -1.
         -2   -1    0    0    0  501 -0.00000000000E+00 -0.00000000000E+00 -0.19243944706E+02  0.19243944706E+02  0.00000000000E+00 0.  1.
          1    1    1    2  502    0 -0.93602205914E+00  0.33783609129E+02  0.22549553441E+02  0.40628693598E+02  0.00000000000E+00 0. -1.
         -1    1    1    2    0  501  0.93602205914E+00 -0.33783609129E+02  0.17778927259E+02  0.38187676514E+02  0.00000000000E+00 0.  1.
</event>
<event>
 4    1  0.6740123E+001  0.3733612E+02  0.7546771E-02  0.1364845E+00
          2   -1    0    0  502    0  0.00000000000E+00  0.00000000000E+00  0.36373375236E+04  0.36373375236E+04  0.00000000000E+00 0. -1.
         -2   -1    0    0    0  501 -0.00000000000E+00 -0.00000000000E+00 -0.46606112634E+00  0.46606112634E+00  0.00000000000E+00 0.  1.
          1    1    1    2  502    0  0.25409942665E+02  0.27355449981E+02  0.10516936554E+04  0.10523561805E+04  0.00000000000E+00 0.  1.
         -1    1    1    2    0  501 -0.25409942665E+02 -0.27355449981E+02  0.25851778070E+04  0.25854474042E+04  0.00000000000E+00 0. -1.
</event>
<event>
 4    1  0.6740123E+001  0.6729939E+02  0.7546771E-02  0.1236864E+00
          2   -1    0    0  502    0  0.00000000000E+00  0.00000000000E+00  0.18289269902E+03  0.18289269902E+03  0.00000000000E+00 0. -1.
         -2   -1    0    0    0  501 -0.00000000000E+00 -0.00000000000E+00 -0.27708211027E+02  0.27708211027E+02  0.00000000000E+00 0.  1.
          1    1    1    2  502    0 -0.35300367365E+02 -0.57298267151E+02  0.11191556303E+03  0.13059211539E+03  0.00000000000E+00 0. -1.
         -1    1    1    2    0  501  0.35300367365E+02  0.57298267151E+02  0.43268924965E+02  0.80008794656E+02  0.00000000000E+00 0.  1.
</event>
<event>
 4    1  0.6740123E+001  0.2466520E+02  0.7546771E-02  0.1472584E+00
          2   -1    0    0  502    0  0.00000000000E+00  0.00000000000E+00  0.12393978836E+04  0.12393978836E+04  0.00000000000E+00 0. -1.
         -2   -1    0    0    0  501 -0.00000000000E+00 -0.00000000000E+00 -0.65379941244E+00  0.65379941244E+00  0.00000000000E+00 0.  1.
          1    1    1    2  502    0 -0.22238950929E+02  0.10667759802E+02  0.30984448636E+03  0.31082467368E+03  0.00000000000E+00 0.  1.
         -1    1    1    2    0  501  0.22238950929E+02 -0.10667759802E+02  0.92889959781E+03  0.92922700932E+03  0.00000000000E+00 0. -1.
</event>
<event>
 4    1  0.6740123E+001  0.2214108E+02  0.7546771E-02  0.1503575E+00
          2   -1    0    0  502    0  0.00000000000E+00  0.00000000000E+00  0.38949942912E+03  0.38949942912E+03  0.00000000000E+00 0.  1.
         -2   -1    0    0    0  501 -0.00000000000E+00 -0.00000000000E+00 -0.12735596384E+01  0.12735596384E+01  0.00000000000E+00 0. -1.
          1    1    1    2  502    0  0.16861057190E+02  0.14350336232E+02  0.21528279676E+03  0.21641836794E+03  0.00000000000E+00 0. -1.
         -1    1    1    2    0  501 -0.16861057190E+02 -0.14350336232E+02  0.17294307272E+03  0.17435462082E+03  0.00000000000E+00 0.  1.
</event>
<event>
 4    1  0.6740123E+001  0.2934761E+02  0.7546771E-02  0.1425352E+00
          2   -1    0    0  502    0  0.00000000000E+00  0.00000000000E+00  0.20767867803E+02  0.20767867803E+02  0.00000000000E+00 0.  1.
         -2   -1    0    0    0  501 -0.00000000000E+00 -0.00000000000E+00 -0.42299597979E+02  0.42299597979E+02  0.00000000000E+00 0. -1.
          1    1    1    2  502    0  0.20298550396E+02  0.21195537626E+02 -0.63546776999E+01  0.30027718729E+02  0.00000000000E+00 0.  1.
         -1    1    1    2    0  501 -0.20298550396E+02 -0.21195537626E+02 -0.15177052476E+02  0.33039747052E+02  0.00000000000E+00 0. -1.
</event>
<event>
 4    1  0.6740123E+001  0.3025612E+02  0.7546771E-02  0.1417383E+00
          2   -1    0    0  502    0  0.00000000000E+00  0.00000000000E+00  0.69858023173E+02  0.69858023173E+02  0.00000000000E+00 0.  1.
         -2   -1    0    0    0  501 -0.00000000000E+00 -0.00000000000E+00 -0.15689265071E+02  0.15689265071E+02  0.00000000000E+00 0. -1.
          1    1    1    2  502    0 -0.79377116992E+01 -0.29196327997E+02  0.97219094226E+01  0.31779684680E+02  0.00000000000E+00 0. -1.
         -1    1    1    2    0  501  0.79377116992E+01  0.29196327997E+02  0.44446848679E+02  0.53767603564E+02  0.00000000000E+00 0.  1.
</event>
<event>
 4    1  0.6740123E+001  0.2135043E+02  0.7546771E-02  0.1514320E+00
          2   -1    0    0  502    0  0.00000000000E+00  0.00000000000E+00  0.38769993940E+03  0.38769993940E+03  0.00000000000E+00 0.  1.
         -2   -1    0    0    0  501 -0.00000000000E+00 -0.00000000000E+00 -0.12094212762E+01  0.12094212762E+01  0.00000000000E+00 0. -1.
          1    1    1    2  502    0  0.13165272000E+02 -0.16808227576E+02  0.22568777415E+03  0.22669541747E+03  0.00000000000E+00 0.  1.
         -1    1    1    2    0  501 -0.13165272000E+02  0.16808227576E+02  0.16080274397E+03  0.16221394321E+03  0.00000000000E+00 0. -1.
</event>
<event>
 4    1  0.6740123E+001  0.2666743E+02  0.7546771E-02  0.1450978E+00
          2   -1    0    0  502    0  0.00000000000E+00  0.00000000000E+00  0.37698570247E+01  0.37698570247E+01  0.00000000000E+00 0. -1.
         -2   -1    0    0    0  501 -0.00000000000E+00 -0.00000000000E+00 -0.19694306787E+03  0.19694306787E+03  0.00000000000E+00 0.  1.
          1    1    1    2  502    0 -0.43222621117E+01  0.26314817822E+02 -0.75982472513E+02  0.80526316916E+02  0.00000000000E+00 0.  1.
         -1    1    1    2    0  501  0.43222621117E+01 -0.26314817822E+02 -0.11719073833E+03  0.12018660798E+03  0.00000000000E+00 0. -1.
</event>
<event>
 4    1  0.6740123E+001  0.2429002E+02  0.7546771E-02  0.1476905E+00
          2   -1    0    0  502    0  0.00000000000E+00  0.00000000000E+00  0.10283830944E+04  0.10283830944E+04  0.00000000000E+00 0. -1.
         -2   -1    0    0    0  501 -0.00000000000E+00 -0.00000000000E+00 -0.66388102535E+00  0.66388102535E+00  0.00000000000E+00 0.  1.
          1    1    1    2  502    0 -0.15541109581E+02 -0.18667592568E+02  0.70347203660E+03  0.70389126389E+03  0.00000000000E+00 0. -1.
         -1    1    1    2    0  501  0.15541109581E+02  0.18667592568E+02  0.32424717680E+03  0.32515571156E+03  0.00000000000E+00 0.  1.
</event>
<event>
 4    1  0.6740123E+001  0.3458046E+02  0.7546771E-02  0.1383537E+00
          2   -1    0    0  502    0  0.00000000000E+00  0.00000000000E+00  0.10222317233E+02  0.10222317233E+02  0.00000000000E+00 0. -1.
         -2   -1    0    0    0  501 -0.00000000000E+00 -0.00000000000E+00 -0.15587857140E+03  0.15587857140E+03  0.00000000000E+00 0.  1.
          1    1    1    2  502    0  0.34274780672E+02  0.45877914281E+01 -0.31340879629E+02  0.46669681338E+02  0.00000000000E+00 0. -1.
         -1    1    1    2    0  501 -0.34274780672E+02 -0.45877914281E+01 -0.11431537454E+03  0.11943120729E+03  0.00000000000E+00 0.  1.
</event>
<event>
 4    1  0.6740123E+001  0.2001939E+02  0.7546771E-02  0.1533739E+00
          2   -1    0    0  502    0  0.00000000000E+00  0.00000000000E+00  0.38183781935E+02  0.38183781935E+02  0.00000000000E+00 0.  1.
         -2   -1    0    0    0  501 -0.00000000000E+00 -0.00000000000E+00 -0.10676726379E+02  0.10676726379E+02  0.00000000000E+00 0. -1.
          1    1    1    2  502    0  0.18089090021E+02  0.85767643785E+01  0.16932218992E+02  0.26219765540E+02  0.00000000000E+00 0. -1.
         -1    1    1    2    0  501 -0.18089090021E+02 -0.85767643785E+01  0.10574836564E+02  0.22640742774E+02  0.00000000000E+00 0.  1.
</event>
<event>
 4    1  0.6740123E+001  0.2360919E+02  0.7546771E-02  0.1484987E+00
          2   -1    0    0  502    0  0.00000000000E+00  0.00000000000E+00  0.12782667540E+04  0.12782667540E+04  0.00000000000E+00 0. -1.
         -2   -1    0    0    0  501 -0.00000000000E+00 -0.00000000000E+00 -0.79811460224E+00  0.79811460224E+00  0.00000000000E+00 0.  1.
          1    1    1    2  502    0 -0.21442667276E+01  0.23511616440E+02  0.10694793479E+04  0.10697399074E+04  0.00000000000E+00 0. -1.
         -1    1    1    2    0  501  0.21442667276E+01 -0.23511616440E+02  0.20798929151E+03  0.20932496118E+03  0.00000000000E+00 0.  1.
</event>
<event>
 4    1  0.6740123E+001  0.2064223E+02  0.7546771E-02  0.1524435E+00
          2   -1    0    0  502    0  0.00000000000E+00  0.00000000000E+00  0.50927831964E+02  0.50927831964E+02  0.00000000000E+00 0. -1.
         -2   -1    0    0    0  501 -0.00000000000E+00 -0.00000000000E+00 -0.17371597535E+02  0.17371597535E+02  0.00000000000E+00 0.  1.
          1    1    1    2  502    0  0.11536003135E+02 -0.17117889878E+02  0.41365079187E+02  0.46229550056E+02  0.00000000000E+00 0. -1.
         -1    1    1    2    0  501 -0.11536003135E+02  0.17117889878E+02 -0.78088447574E+01  0.22069879443E+02  0.00000000000E+00 0.  1.
</event>
<event>
 4    1  0.6740123E+001  0.2607410E+02  0.7546771E-02  0.1457137E+00
          2   -1    0    0  502    0  0.00000000000E+00  0.00000000000E+00  0.53612225622E+02  0.53612225622E+02  0.00000000000E+00 0. -1.
         -2   -1    0    0    0  501 -0.00000000000E+00 -0.00000000000E+00 -0.12737768924E+02  0.12737768924E+02  0.00000000000E+00 0.  1.
          1    1    1    2  502    0 -0.25420260575E+02 -0.58025197432E+01  0.22651133221E+02  0.34538858106E+02  0.00000000000E+00 0. -1.
         -1    1    1    2    0  501  0.25420260575E+02  0.58025197432E+01  0.18223323477E+02  0.31811136440E+02  0.00000000000E+00 0.  1.
</event>
<event>
 4    1  0.6740123E+001  0.2723377E+02  0.7546771E-02  0.1445274E+00
          2   -1    0    0  502    0  0.00000000000E+00  0.00000000000E+00  0.46940889468E+01  0.46940889468E+01  0.00000000000E+00 0. -1.
         -2   -1    0    0    0  501 -0.00000000000E+00 -0.00000000000E+00 -0.22575354493E+03  0.22575354493E+03  0.00000000000E+00 0.  1.
          1    1    1    2  502    0  0.11249348182E+02 -0.24801816958E+02 -0.17365203324E+03  0.17577459034E+03  0.00000000000E+00 0.  1.
         -1    1    1    2    0  501 -0.11249348182E+02  0.24801816958E+02 -0.47407422741E+02  0.54673043540E+02  0.00000000000E+00 0. -1.
</event>
<event>
 4    1  0.6740123E+001  0.2223297E+02  0.7546771E-02  0.1502361E+00
          2   -1    0    0  502    0  0.00000000000E+00  0.00000000000E+00  0.84551810253E+03  0.84551810253E+03  0.00000000000E+00 0. -1.
         -2   -1    0    0    0  501 -0.00000000000E+00 -0.00000000000E+00 -0.25531411135E+01  0.25531411135E+01  0.00000000000E+00 0.  1.
          1    1    1    2  502    0 -0.17095856793E+02 -0.14213958540E+02  0.49146322844E+02  0.53941319839E+02  0.00000000000E+00 0.  1.
         -1    1    1    2    0  501  0.17095856793E+02  0.14213958540E+02  0.79381863857E+03  0.79412992380E+03  0.00000000000E+00 0. -1.
</event>
<event>
 4    1  0.6740123E+001  0.2525847E+02  0.7546771E-02  0.1465932E+00
          2   -1    0    0  502    0  0.00000000000E+00  0.00000000000E+00  0.20909447144E+02  0.20909447144E+02  0.00000000000E+00 0.  1.
         -2   -1    0    0    0  501 -0.00000000000E+00 -0.00000000000E+00 -0.31754311672E+02  0.31754311672E+02  0.00000000000E+00 0. -1.
          1    1    1    2  502    0  0.23381434910E+02 -0.95550499636E+01 -0.10630586765E+02  0.27404376535E+02  0.00000000000E+00 0.  1.
         -1    1    1    2    0  501 -0.23381434910E+02  0.95550499636E+01 -0.21427776199E+00  0.25259382281E+02  0.00000000000E+00 0. -1.
</event>
<event>
 4    1  0.6740123E+001  0.2288024E+02  0.7546771E-02  0.1494007E+00
          2   -1    0    0  502    0  0.00000000000E+00  0.00000000000E+00  0.15338557485E+03  0.15338557485E+03  0.00000000000E+00 0.  1.
         -2   -1    0    0    0  501 -0.00000000000E+00 -0.00000000000E+00 -0.35213812736E+01  0.35213812736E+01  0.00000000000E+00 0. -1.
          1    1    1    2  502    0  0.27170794417E+00  0.22878625316E+02  0.61168619519E+02  0.65307773928E+02  0.00000000000E+00 0. -1.
         -1    1    1    2    0  501 -0.27170794417E+00 -0.22878625316E+02  0.88695574062E+02  0.91599182200E+02  0.00000000000E+00 0.  1.
</event>
<event>
 4    1  0.6740123E+001  0.2005854E+02  0.7546771E-02  0.1533143E+00
          2   -1    0    0  502    0  0.00000000000E+00  0.00000000000E+00  0.37836360484E+03  0.37836360484E+03  0.00000000000E+00 0.  1.
         -2   -1    0    0    0  501 -0.00000000000E+00 -0.00000000000E+00 -0.12772228832E+01  0.12772228832E+01  0.00000000000E+00 0. -1.
          1    1    1    2  502    0 -0.14472626076E+02  0.13888409721E+02  0.26621358743E+03  0.26696819841E+03  0.00000000000E+00 0. -1.
         -1    1    1    2    0  501  0.14472626076E+02 -0.13888409721E+02  0.11087279453E+03  0.11267262932E+03  0.00000000000E+00 0.  1.
</event>
<event>
 4    1  0.6740123E+001  0.2028312E+02  0.7546771E-02  0.1529751E+00
          2   -1    0    0  502    0  0.00000000000E+00  0.00000000000E+00  0.14573222385E+03  0.14573222385E+03  0.00000000000E+00 0.  1.
         -2   -1    0    0    0  501 -0.00000000000E+00 -0.00000000000E+00 -0.36423213099E+01  0.36423213099E+01  0.00000000000E+00 0. -1.
          1    1    1    2  502    0 -0.14798920259E+02 -0.13870727632E+02  0.10646743722E+03  0.10838228783E+03  0.00000000000E+00 0.  1.
         -1    1    1    2    0  501  0.14798920259E+02  0.13870727632E+02  0.35622465311E+02  0.40992257326E+02  0.00000000000E+00 0. -1.
</event>
<event>
 4    1  0.6740123E+001  0.2395581E+02  0.7546771E-02  0.1480832E+00
          2   -1    0    0  502    0  0.00000000000E+00  0.00000000000E+00  0.16382425657E+02  0.16382425657E+02  0.00000000000E+00 0.  1.
         -2   -1    0    0    0  501 -0.00000000000E+00 -0.00000000000E+00 -0.35051222011E+02  0.35051222011E+02  0.00000000000E+00 0. -1.
          1    1    1    2  502    0 -0.14873721705E+02  0.18779067707E+02 -0.99629775043E+01  0.25944978359E+02  0.00000000000E+00 0.  1.
         -1    1    1    2    0  501  0.14873721705E+02 -0.18779067707E+02 -0.87058188489E+01  0.25488669309E+02  0.00000000000E+00 0. -1.
</event>
<event>
 4    1  0.6740123E+001  0.2797142E+02  0.7546771E-02  0.1438087E+00
          2   -1    0    0  502    0  0.00000000000E+00  0.00000000000E+00  0.82538987804E+02  0.82538987804E+02  0.00000000000E+00 0.  1.
         -2   -1    0    0    0  501 -0.00000000000E+00 -0.00000000000E+00 -0.96734119788E+01  0.96734119788E+01  0.00000000000E+00 0. -1.
          1    1    1    2  502    0 -0.12685558584E+02 -0.24929440855E+02  0.29899222687E+02  0.40943423589E+02  0.00000000000E+00 0. -1.
         -1    1    1    2    0  501  0.12685558584E+02  0.24929440855E+02  0.42966353138E+02  0.51268976193E+02  0.00000000000E+00 0.  1.
</event>
<event>
 4    1  0.6740123E+001  0.2274852E+02  0.7546771E-02  0.1495680E+00
          2   -1    0    0  502    0  0.00000000000E+00  0.00000000000E+00  0.80829780545E+02  0.80829780545E+02  0.00000000000E+00 0. -1.
         -2   -1    0    0    0  501 -0.00000000000E+00 -0.00000000000E+00 -0.10481679284E+02  0.10481679284E+02  0.00000000000E+00 0.  1.
          1    1    1    2  502    0  0.31019977518E+01  0.22536037561E+02  0.63656520114E+02  0.67599171089E+02  0.00000000000E+00 0. -1.
         -1    1    1    2    0  501 -0.31019977518E+01 -0.22536037561E+02  0.66915811474E+01  0.23712288739E+02  0.00000000000E+00 0.  1.
</event>
<event>
 4    1  0.6740123E+001  0.2286347E+02  0.7546771E-02  0.1494220E+00
          2   -1    0    0  502    0  0.00000000000E+00  0.00000000000E+00  0.70984878704E+01  0.70984878704E+01  0.00000000000E+00 0. -1.
         -2   -1    0    0    0  501 -0.00000000000E+00 -0.00000000000E+00 -0.91119251215E+02  0.91119251215E+02  0.00000000000E+00 0.  1.
          1    1    1    2  502    0 -0.22320276381E+02 -0.49541562777E+01 -0.63518687608E+02  0.67508237109E+02  0.00000000000E+00 0.  1.
         -1    1    1    2    0  501  0.22320276381E+02  0.49541562777E+01 -0.20502075737E+02  0.30709501976E+02  0.00000000000E+00 0. -1.
</event>
<event>
 4    1  0.6740123E+001  0.4878745E+02  0.7546771E-02  0.1303517E+00
          2   -1    0    0  502    0  0.00000000000E+00  0.00000000000E+00  0.84683525754E+01  0.84683525754E+01  0.00000000000E+00 0. -1.
         -2   -1    0    0    0  501 -0.00000000000E+00 -0.00000000000E+00 -0.49017647905E+03  0.49017647905E+03  0.00000000000E+00 0.  1.
          1    1    1    2  502    0  0.46504309024E+02 -0.14750081025E+02 -0.78011885830E+02  0.92011249197E+02  0.00000000000E+00 0. -1.
         -1    1    1    2    0  501 -0.46504309024E+02  0.14750081025E+02 -0.40369624065E+03  0.40663358243E+03  0.00000000000E+00 0.  1.
</event>
<event>
 4    1  0.6740123E+001  0.2003074E+02  0.7546771E-02  0.1533566E+00
          2   -1    0    0  502    0  0.00000000000E+00  0.00000000000E+00  0.84422941073E+01  0.84422941073E+01  0.00000000000E+00 0.  1.
         -2   -1    0    0    0  501 -0.00000000000E+00 -0.00000000000E+00 -0.63406947462E+02  0.63406947462E+02  0.00000000000E+00 0. -1.
          1    1    1    2  502    0 -0.16776944130E+02 -0.10943699369E+02 -0.45461049258E+02  0.49678339444E+02  0.00000000000E+00 0. -1.
         -1    1    1    2    0  501  0.16776944130E+02  0.10943699369E+02 -0.95036040968E+01  0.22170902126E+02  0.00000000000E+00 0.  1.
</event>
<event>
 4    1  0.6740123E+001  0.2054968E+02  0.7546771E-02  0.1525792E+00
          2   -1    0    0  502    0  0.00000000000E+00  0.00000000000E+00  0.64435220850E+01  0.64435220850E+01  0.00000000000E+00 0.  1.
         -2   -1    0    0    0  501 -0.00000000000E+00 -0.00000000000E+00 -0.81915268581E+02  0.81915268581E+02  0.00000000000E+00 0. -1.
          1    1    1    2  502    0  0.27435266740E+01  0.20365720865E+02 -0.57490574756E+02  0.61052892730E+02  0.00000000000E+00 0. -1.
         -1    1    1    2    0  501 -0.27435266740E+01 -0.20365720865E+02 -0.17981171741E+02  0.27305897937E+02  0.00000000000E+00 0.  1.
</event>
<event>
 4    1  0.6740123E+001  0.3114415E+02  0.7546771E-02  0.1409908E+00
          2   -1    0    0  502    0  0.00000000000E+00  0.00000000000E+00  0.24671518541E+03  0.24671518541E+03  0.00000000000E+00 0. -1.
         -2   -1    0    0    0  501 -0.00000000000E+00 -0.00000000000E+00 -0.56424096780E+01  0.56424096780E+01  0.00000000000E+00 0.  1.
          1    1    1    2  502    0  0.16955418048E+02 -0.26124168356E+02  0.19001783277E+03  0.19255320082E+03  0.00000000000E+00 0. -1.
         -1    1    1    2    0  501 -0.16955418048E+02  0.26124168356E+02  0.51054942958E+02  0.59804394269E+02  0.00000000000E+00 0.  1.
</event>
<event>
 4    1  0.6740123E+001  0.3514857E+02  0.7546771E-02  0.1379522E+00
          2   -1    0    0  502    0  0.00000000000E+00  0.00000000000E+00  0.93529807171E+01  0.93529807171E+01  0.00000000000E+00 0.  1.
         -2   -1    0    0    0  501 -0.00000000000E+00 -0.00000000000E+00 -0.33367541050E+03  0.33367541050E+03  0.00000000000E+00 0. -1.
          1    1    1    2  502    0  0.28877423232E+02 -0.20037879995E+02 -0.29547314519E+03  0.29755638413E+03  0.00000000000E+00 0. -1.
         -1    1    1    2    0  501 -0.28877423232E+02  0.20037879995E+02 -0.28849284596E+02  0.45472007092E+02  0.00000000000E+00 0.  1.
</event>
<event>
 4    1  0.6740123E+001  0.2588763E+02  0.7546771E-02  0.1459114E+00
          2   -1    0    0  502    0  0.00000000000E+00  0.00000000000E+00  0.42588180695E+03  0.42588180695E+03  0.00000000000E+00 0. -1.
         -2   -1    0    0    0  501 -0.00000000000E+00 -0.00000000000E+00 -0.29744594960E+01  0.29744594960E+01  0.00000000000E+00 0.  1.
          1    1    1    2  502    0 -0.93784697582E+01 -0.24129102214E+02  0.35860846974E+03  0.35954165800E+03  0.00000000000E+00 0. -1.
         -1    1    1    2    0  501  0.93784697582E+01  0.24129102214E+02  0.64298877719E+02  0.69314608450E+02  0.00000000000E+00 0.  1.
</event>
<event>
 4    1  0.6740123E+001  0.4390359E+02  0.7546771E-02  0.1327014E+00
          2   -1    0    0  502    0  0.00000000000E+00  0.00000000000E+00  0.17051333556E+04  0.17051333556E+04  0.00000000000E+00 0.  1.
         -2   -1    0    0    0  501 -0.00000000000E+00 -0.00000000000E+00 -0.13168169995E+01  0.13168169995E+01  0.00000000000E+00 0. -1.
          1    1    1    2  502    0 -0.70972241915E+01  0.43326138836E+02  0.53090100357E+03  0.53271324414E+03  0.00000000000E+00 0. -1.
         -1    1    1    2    0  501  0.70972241915E+01 -0.43326138836E+02  0.11729155351E+04  0.11737369285E+04  0.00000000000E+00 0.  1.
</event>
<event>
 4    1  0.6740123E+001  0.2164840E+02  0.7546771E-02  0.1510205E+00
          2   -1    0    0  502    0  0.00000000000E+00  0.00000000000E+00  0.64525617071E+02  0.64525617071E+02  0.00000000000E+00 0.  1.
         -2   -1    0    0    0  501 -0.00000000000E+00 -0.00000000000E+00 -0.76903089247E+01  0.76903089247E+01  0.00000000000E+00 0. -1.
          1    1    1    2  502    0 -0.21490667424E+02  0.26085381261E+01  0.19906804189E+02  0.29409762164E+02  0.00000000000E+00 0. -1.
         -1    1    1    2    0  501  0.21490667424E+02 -0.26085381261E+01  0.36928503957E+02  0.42806163832E+02  0.00000000000E+00 0.  1.
</event>
<event>
 4    1  0.6740123E+001  0.2505749E+02  0.7546771E-02  0.1468161E+00
          2   -1    0    0  502    0  0.00000000000E+00  0.00000000000E+00  0.19419050174E+02  0.19419050174E+02  0.00000000000E+00 0.  1.
         -2   -1    0    0    0  501 -0.00000000000E+00 -0.00000000000E+00 -0.37043741820E+02  0.37043741820E+02  0.00000000000E+00 0. -1.
          1    1    1    2  502    0  0.24792762071E+02  0.36327670485E+01  0.12550020283E+01  0.25088903476E+02  0.00000000000E+00 0.  1.
         -1    1    1    2    0  501 -0.24792762071E+02 -0.36327670485E+01 -0.18879693674E+02  0.31373888518E+02  0.00000000000E+00 0. -1.
</event>
<event>
 4    1  0.6740123E+001  0.2062156E+02  0.7546771E-02  0.1524737E+00
          2   -1    0    0  502    0  0.00000000000E+00  0.00000000000E+00  0.10501696814E+03  0.10501696814E+03  0.00000000000E+00 0.  1.
         -2   -1    0    0    0  501 -0.00000000000E+00 -0.00000000000E+00 -0.44763837429E+01  0.44763837429E+01  0.00000000000E+00 0. -1.
          1    1    1    2  502    0  0.20507229281E+02  0.21685124761E+01  0.33360714792E+02  0.39219716860E+02  0.00000000000E+00 0.  1.
         -1    1    1    2    0  501 -0.20507229281E+02 -0.21685124761E+01  0.67179869603E+02  0.70273635020E+02  0.00000000000E+00 0. -1.
</event>
<event>
 4    1  0.6740123E+001  0.2069362E+02  0.7546771E-02  0.1523684E+00
          2   -1    0    0  502    0  0.00000000000E+00  0.00000000000E+00  0.33174700701E+00  0.33174700701E+00  0.00000000000E+00 0. -1.
         -2   -1    0    0    0  501 -0.00000000000E+00 -0.00000000000E+00 -0.15987945704E+04  0.15987945704E+04  0.00000000000E+00 0.  1.
          1    1    1    2  502    0  0.20683219712E+02 -0.65613708670E+00 -0.44830748930E+03  0.44878483826E+03  0.00000000000E+00 0. -1.
         -1    1    1    2    0  501 -0.20683219712E+02  0.65613708670E+00 -0.11501553341E+04  0.11503414792E+04  0.00000000000E+00 0.  1.
</event>
<event>
 4    1  0.6740123E+001  0.2201031E+02  0.7546771E-02  0.1505314E+00
          2   -1    0    0  502    0  0.00000000000E+00  0.00000000000E+00  0.68920649782E+03  0.68920649782E+03  0.00000000000E+00 0.  1.
         -2   -1    0    0    0  501 -0.00000000000E+00 -0.00000000000E+00 -0.10863443296E+01  0.10863443296E+01  0.00000000000E+00 0. -1.
          1    1    1    2  502    0 -0.21992630382E+02 -0.88190700246E+00  0.13900887596E+03  0.14074061655E+03  0.00000000000E+00 0. -1.
         -1    1    1    2    0  501  0.21992630382E+02  0.88190700246E+00  0.54911127753E+03  0.54955222560E+03  0.00000000000E+00 0.  1.
</event>
<event>
 4    1  0.6740123E+001  0.2502783E+02  0.7546771E-02  0.1468492E+00
          2   -1    0    0  502    0  0.00000000000E+00  0.00000000000E+00  0.63273230648E+03  0.63273230648E+03  0.00000000000E+00 0.  1.
         -2   -1    0    0    0  501 -0.00000000000E+00 -0.00000000000E+00 -0.10628195677E+01  0.10628195677E+01  0.00000000000E+00 0. -1.
          1    1    1    2  502    0 -0.11030446722E+02  0.22466013324E+02  0.39879535724E+03  0.39957994127E+03  0.00000000000E+00 0.  1.
         -1    1    1    2    0  501  0.11030446722E+02 -0.22466013324E+02  0.23287412967E+03  0.23421518477E+03  0.00000000000E+00 0. -1.
</event>
<event>
 4    1  0.6740123E+001  0.2339844E+02  0.7546771E-02  0.1487555E+00
          2   -1    0    0  502    0  0.00000000000E+00  0.00000000000E+00  0.50687234019E+02  0.50687234019E+02  0.00000000000E+00 0. -1.
         -2   -1    0    0    0  501 -0.00000000000E+00 -0.00000000000E+00 -0.18534765876E+02  0.18534765876E+02  0.00000000000E+00 0.  1.
          1    1    1    2  502    0  0.12198922097E+02  0.19966802361E+02  0.38432965199E+02  0.44995329878E+02  0.00000000000E+00 0. -1.
         -1    1    1    2    0  501 -0.12198922097E+02 -0.19966802361E+02 -0.62804970559E+01  0.24226670017E+02  0.00000000000E+00 0.  1.
</event>
<event>
 4    1  0.6740123E+001  0.3351556E+02  0.7546771E-02  0.1391311E+00
          2   -1    0    0  502    0  0.00000000000E+00  0.00000000000E+00  0.85303865486E+03  0.85303865486E+03  0.00000000000E+00 0. -1.
         -2   -1    0    0    0  501 -0.00000000000E+00 -0.00000000000E+00 -0.13494028594E+01  0.13494028594E+01  0.00000000000E+00 0.  1.
          1    1    1    2  502    0 -0.28056514812E+02  0.18333705031E+02  0.35945615177E+03  0.36101525980E+03  0.00000000000E+00 0.  1.
         -1    1    1    2    0  501  0.28056514812E+02 -0.18333705031E+02  0.49223310023E+03  0.49337279792E+03  0.00000000000E+00 0. -1.
</event>
<event>
 4    1  0.6740123E+001  0.2633168E+02  0.7546771E-02  0.1454440E+00
          2   -1    0    0  502    0  0.00000000000E+00  0.00000000000E+00  0.91500198891E+03  0.91500198891E+03  0.00000000000E+00 0.  1.
         -2   -1    0    0    0  501 -0.00000000000E+00 -0.00000000000E+00 -0.15692357650E+01  0.15692357650E+01  0.00000000000E+00 0. -1.
          1    1    1    2  502    0  0.18877857001E+02 -0.18357114141E+02  0.78627173333E+03  0.78671252422E+03  0.00000000000E+00 0.  1.
         -1    1    1    2    0  501 -0.18877857001E+02  0.18357114141E+02  0.12716101981E+03  0.12985870046E+03  0.00000000000E+00 0. -1.
</event>
<event>
 4    1  0.6740123E+001  0.2088021E+02  0.7546771E-02  0.1520982E+00
          2   -1    0    0  502    0  0.00000000000E+00  0.00000000000E+00  0.14590994111E+01  0.14590994111E+01  0.00000000000E+00 0.  1.
         -2   -1    0    0    0  501 -0.00000000000E+00 -0.00000000000E+00 -0.30021429201E+03  0.30021429201E+03  0.00000000000E+00 0. -1.
          1    1    1    2  502    0 -0.14571309807E+02  0.14955270671E+02 -0.15971971132E+03  0.16107876761E+03  0.00000000000E+00 0.  1.
         -1    1    1    2    0  501  0.14571309807E+02 -0.14955270671E+02 -0.13903548127E+03  0.14059462381E+03  0.00000000000E+00 0. -1.
</event>
<event>
 4    1  0.6740123E+001  0.3178141E+02  0.7546771E-02  0.1404723E+00
          2   -1    0    0  502    0  0.00000000000E+00  0.00000000000E+00  0.45786001372E+03  0.45786001372E+03  0.00000000000E+00 0.  1.
         -2   -1    0    0    0  501 -0.00000000000E+00 -0.00000000000E+00 -0.25825489804E+01  0.25825489804E+01  0.00000000000E+00 0. -1.
          1    1    1    2  502    0  0.22296107547E+02 -0.22648215080E+02  0.31554263483E+03  0.31713910584E+03  0.00000000000E+00 0.  1.
         -1    1    1    2    0  501 -0.22296107547E+02  0.22648215080E+02  0.13973482991E+03  0.14330345686E+03  0.00000000000E+00 0. -1.
</event>
<event>
 4    1  0.6740123E+001  0.2098490E+02  0.7546771E-02  0.1519480E+00
          2   -1    0    0  502    0  0.00000000000E+00  0.00000000000E+00  0.54998051606E+02  0.54998051606E+02  0.00000000000E+00 0.  1.
         -2   -1    0    0    0  501 -0.00000000000E+00 -0.00000000000E+00 -0.84828720763E+01  0.84828720763E+01  0.00000000000E+00 0. -1.
          1    1    1    2  502    0  0.20127125957E+02 -0.59384148496E+01  0.15739364370E+02  0.26231537527E+02  0.00000000000E+00 0.  1.
         -1    1    1    2    0  501 -0.20127125957E+02  0.59384148496E+01  0.30775815159E+02  0.37249386155E+02  0.00000000000E+00 0. -1.
</event>
<event>
 4    1  0.6740123E+001  0.3365496E+02  0.7546771E-02  0.1390274E+00
          2   -1    0    0  502    0  0.00000000000E+00  0.00000000000E+00  0.23936045490E+02  0.23936045490E+02  0.00000000000E+00 0.  1.
         -2   -1    0    0    0  501 -0.00000000000E+00 -0.00000000000E+00 -0.72557344013E+02  0.72557344013E+02  0.00000000000E+00 0. -1.
          1    1    1    2  502    0  0.33620522129E+02 -0.15220660099E+01 -0.52764942033E+02  0.62584305548E+02  0.00000000000E+00 0. -1.
         -1    1    1    2    0  501 -0.33620522129E+02  0.15220660099E+01  0.41436435093E+01  0.33909083955E+02  0.00000000000E+00 0.  1.
</event>
<event>
 4    1  0.6740123E+001  0.3085535E+02  0.7546771E-02  0.1412306E+00
          2   -1    0    0  502    0  0.00000000000E+00  0.00000000000E+00  0.86840395351E+02  0.86840395351E+02  0.00000000000E+00 0.  1.
         -2   -1    0    0    0  501 -0.00000000000E+00 -0.00000000000E+00 -0.10963833267E+02  0.10963833267E+02  0.00000000000E+00 0. -1.
          1    1    1    2  502    0  0.18092576939E+02 -0.24994223084E+02  0.37580066482E+02  0.48624211301E+02  0.00000000000E+00 0.  1.
         -1    1    1    2    0  501 -0.18092576939E+02  0.24994223084E+02  0.38296495602E+02  0.49180017316E+02  0.00000000000E+00 0. -1.
</event>
<event>
 4    1  0.6740123E+001  0.2604534E+02  0.7546771E-02  0.1457441E+00
          2   -1    0    0  502    0  0.00000000000E+00  0.00000000000E+00  0.24601431072E+03  0.24601431072E+03  0.00000000000E+00 0. -1.
         -2   -1    0    0    0  501 -0.00000000000E+00 -0.00000000000E+00 -0.34612971034E+01  0.34612971034E+01  0.00000000000E+00 0.  1.
          1    1    1    2  502    0  0.24983960922E+02 -0.73594316725E+01  0.65025066407E+02  0.70047261182E+02  0.00000000000E+00 0.  1.
         -1    1    1    2    0  501 -0.24983960922E+02  0.73594316725E+01  0.17752794721E+03  0.17942834665E+03  0.00000000000E+00 0. -1.
</event>
<event>
 4    1  0.6740123E+001  0.2852070E+02  0.7546771E-02  0.1432903E+00
          2   -1    0    0  502    0  0.00000000000E+00  0.00000000000E+00  0.13497377634E+04  0.13497377634E+04  0.00000000000E+00 0. -1.
         -2   -1    0    0    0  501 -0.00000000000E+00 -0.00000000000E+00 -0.77228383095E+00  0.77228383095E+00  0.00000000000E+00 0.  1.
          1    1    1    2  502    0  0.17352091290E+02  0.22634823203E+02  0.99094747052E+03  0.99135781614E+03  0.00000000000E+00 0. -1.
         -1    1    1    2    0  501 -0.17352091290E+02 -0.22634823203E+02  0.35801800905E+03  0.35915223109E+03  0.00000000000E+00 0.  1.
</event>
<event>
 4    1  0.6740123E+001  0.2111166E+02  0.7546771E-02  0.1517677E+00
          2   -1    0    0  502    0  0.00000000000E+00  0.00000000000E+00  0.66072752486E+03  0.66072752486E+03  0.00000000000E+00 0. -1.
         -2   -1    0    0    0  501 -0.00000000000E+00 -0.00000000000E+00 -0.11375081509E+01  0.11375081509E+01  0.00000000000E+00 0.  1.
          1    1    1    2  502    0 -0.14724544608E+02 -0.15129106265E+02  0.54091392339E+03  0.54132575644E+03  0.00000000000E+00 0. -1.
         -1    1    1    2    0  501  0.14724544608E+02  0.15129106265E+02  0.11867609332E+03  0.12053927657E+03  0.00000000000E+00 0.  1.
</event>
<event>
 4    1  0.6740123E+001  0.2124851E+02  0.7546771E-02  0.1515746E+00
          2   -1    0    0  502    0  0.00000000000E+00  0.00000000000E+00  0.85429834117E+01  0.85429834117E+01  0.00000000000E+00 0.  1.
         -2   -1    0    0    0  501 -0.00000000000E+00 -0.00000000000E+00 -0.58088834621E+02  0.58088834621E+02  0.00000000000E+00 0. -1.
          1    1    1    2  502    0  0.17360821461E+02 -0.12251578983E+02 -0.14768091546E+02  0.25876549950E+02  0.00000000000E+00 0.  1.
         -1    1    1    2    0  501 -0.17360821461E+02  0.12251578983E+02 -0.34777759663E+02  0.40755268083E+02  0.00000000000E+00 0. -1.
</event>
<event>
 4    1  0.6740123E+001  0.2314465E+02  0.7546771E-02  0.1490690E+00
          2   -1    0    0  502    0  0.00000000000E+00  0.00000000000E+00  0.24653833597E+03  0.24653833597E+03  0.00000000000E+00 0.  1.
         -2   -1    0    0    0  501 -0.00000000000E+00 -0.00000000000E+00 -0.21938762057E+01  0.21938762057E+01  0.00000000000E+00 0. -1.
          1    1    1    2  502    0 -0.11848872640E+02 -0.19881625508E+02  0.10997823648E+03  0.11238722042E+03  0.00000000000E+00 0. -1.
         -1    1    1    2    0  501  0.11848872640E+02  0.19881625508E+02  0.13436622328E+03  0.13634499175E+03  0.00000000000E+00 0.  1.
</event>
<event>
 4    1  0.6740123E+001  0.2963954E+02  0.7546771E-02  0.1422755E+00
          2   -1    0    0  502    0  0.00000000000E+00  0.00000000000E+00  0.46654671690E+03  0.46654671690E+03  0.00000000000E+00 0. -1.
         -2   -1    0    0    0  501 -0.00000000000E+00 -0.00000000000E+00 -0.28186932551E+01  0.28186932551E+01  0.00000000000E+00 0.  1.
          1    1    1    2  502    0 -0.23454459089E+02 -0.18121555438E+02  0.96648524896E+02  0.10109124486E+03  0.00000000000E+00 0.  1.
         -1    1    1    2    0  501  0.23454459089E+02  0.18121555438E+02  0.36707949875E+03  0.36827416530E+03  0.00000000000E+00 0. -1.
</event>
<event>
 4    1  0.6740123E+001  0.2575394E+02  0.7546771E-02  0.1460543E+00
          2   -1    0    0  502    0  0.00000000000E+00  0.00000000000E+00  0.33194121509E+01  0.33194121509E+01  0.00000000000E+00 0. -1.
         -2   -1    0    0    0  501 -0.00000000000E+00 -0.00000000000E+00 -0.31005007189E+03  0.31005007189E+03  0.00000000000E+00 0.  1.
          1    1    1    2  502    0 -0.23574371085E+02  0.10368906788E+02 -0.59938299183E+02  0.65236990342E+02  0.00000000000E+00 0. -1.
         -1    1    1    2    0  501  0.23574371085E+02 -0.10368906788E+02 -0.24679236056E+03  0.24813249370E+03  0.00000000000E+00 0.  1.
</event>
<event>
 4    1  0.6740123E+001  0.5623429E+02  0.7546771E-02  0.1273193E+00
          2   -1    0    0  502    0  0.00000000000E+00  0.00000000000E+00  0.40363868280E+02  0.40363868280E+02  0.00000000000E+00 0. -1.
         -2   -1    0    0    0  501 -0.00000000000E+00 -0.00000000000E+00 -0.86270284263E+02  0.86270284263E+02  0.00000000000E+00 0.  1.
          1    1    1    2  502    0  0.17262546173E+02  0.53519156908E+02 -0.37618574120E+01  0.56359978954E+02  0.00000000000E+00 0. -1.
         -1    1    1    2    0  501 -0.17262546173E+02 -0.53519156908E+02 -0.42144558570E+02  0.70274173589E+02  0.00000000000E+00 0.  1.
</event>
<event>
 4    1  0.6740123E+001  0.3175414E+02  0.7546771E-02  0.1404942E+00
          2   -1    0    0  502    0  0.00000000000E+00  0.00000000000E+00  0.86755497827E+03  0.86755497827E+03  0.00000000000E+00 0.  1.
         -2   -1    0    0    0  501 -0.00000000000E+00 -0.00000000000E+00 -0.12207471815E+01  0.12207471815E+01  0.00000000000E+00 0. -1.
          1    1    1    2  502    0  0.46928278113E+01 -0.31405458349E+02  0.52824749199E+03  0.52920103764E+03  0.00000000000E+00 0. -1.
         -1    1    1    2    0  501 -0.46928278113E+01  0.31405458349E+02  0.33808673909E+03  0.33957468780E+03  0.00000000000E+00 0.  1.
</event>
<event>
 4    1  0.6740123E+001  0.2839777E+02  0.7546771E-02  0.1434051E+00
          2   -1    0    0  502    0  0.00000000000E+00  0.00000000000E+00  0.33977355201E+02  0.33977355201E+02  0.00000000000E+00 0.  1.
         -2   -1    0    0    0  501 -0.00000000000E+00 -0.00000000000E+00 -0.25956024310E+02  0.25956024310E+02  0.00000000000E+00 0. -1.
          1    1    1    2  502    0  0.27884635620E+02 -0.53740619609E+01 -0.47563392064E+01  0.28793336178E+02  0.00000000000E+00 0.  1.
         -1    1    1    2    0  501 -0.27884635620E+02  0.53740619609E+01  0.12777670097E+02  0.31140043332E+02  0.00000000000E+00 0. -1.
</event>
<event>
 4    1  0.6740123E+001  0.2282793E+02  0.7546771E-02  0.1494670E+00
          2   -1    0    0  502    0  0.00000000000E+00  0.00000000000E+00  0.23809863951E+04  0.23809863951E+04  0.00000000000E+00 0. -1.
         -2   -1    0    0    0  501 -0.00000000000E+00 -0.00000000000E+00 -0.24385953798E+00  0.24385953798E+00  0.00000000000E+00 0.  1.
          1    1    1    2  502    0  0.22340053461E+02 -0.46942842461E+01  0.15715469206E+04  0.15717127084E+04  0.00000000000E+00 0. -1.
         -1    1    1    2    0  501 -0.22340053461E+02  0.46942842461E+01  0.80919561500E+03  0.80951754622E+03  0.00000000000E+00 0.  1.
</event>
<event>
 4    1  0.6740123E+001  0.2512813E+02  0.7546771E-02  0.1467375E+00
          2   -1    0    0  502    0  0.00000000000E+00  0.00000000000E+00  0.13196629441E+04  0.13196629441E+04  0.00000000000E+00 0.  1.
         -2   -1    0    0    0  501 -0.00000000000E+00 -0.00000000000E+00 -0.11684134853E+01  0.11684134853E+01  0.00000000000E+00 0. -1.
          1    1    1    2  502    0 -0.25018586288E+02  0.23437184876E+01  0.11667343661E+04  0.11670049287E+04  0.00000000000E+00 0.  1.
         -1    1    1    2    0  501  0.25018586288E+02 -0.23437184876E+01  0.15176016450E+03  0.15382642883E+03  0.00000000000E+00 0. -1.
</event>
<event>
 4    1  0.6740123E+001  0.2101469E+02  0.7546771E-02  0.1519055E+00
          2   -1    0    0  502    0  0.00000000000E+00  0.00000000000E+00  0.44512663159E+03  0.44512663159E+03  0.00000000000E+00 0. -1.
         -2   -1    0    0    0  501 -0.00000000000E+00 -0.00000000000E+00 -0.10165381717E+01  0.10165381717E+01  0.00000000000E+00 0.  1.
          1    1    1    2  502    0  0.12584577205E+02 -0.16829902526E+02  0.25663111134E+03  0.25749008624E+03  0.00000000000E+00 0. -1.
         -1    1    1    2    0  501 -0.12584577205E+02  0.16829902526E+02  0.18747898207E+03  0.18865308352E+03  0.00000000000E+00 0.  1.
</event>
<event>
 4    1  0.6740123E+001  0.2005101E+02  0.7546771E-02  0.1533257E+00
          2   -1    0    0  502    0  0.00000000000E+00  0.00000000000E+00  0.10500922883E+03  0.10500922883E+03  0.00000000000E+00 0. -1.
         -2   -1    0    0    0  501 -0.00000000000E+00 -0.00000000000E+00 -0.44162932472E+01  0.44162932472E+01  0.00000000000E+00 0.  1.
          1    1    1    2  502    0 -0.19120223318E+02  0.60382122960E+01  0.30338386154E+02  0.36365651677E+02  0.00000000000E+00 0.  1.
         -1    1    1    2    0  501  0.19120223318E+02 -0.60382122960E+01  0.70254549430E+02  0.73059870402E+02  0.00000000000E+00 0. -1.
</event>
<event>
 4    1  0.6740123E+001  0.3017107E+02  0.7546771E-02  0.1418116E+00
          2   -1    0    0  502    0  0.00000000000E+00  0.00000000000E+00  0.49190884170E+03  0.49190884170E+03  0.00000000000E+00 0.  1.
         -2   -1    0    0    0  501 -0.00000000000E+00 -0.00000000000E+00 -0.21518229978E+01  0.21518229978E+01  0.00000000000E+00 0. -1.
          1    1    1    2  502    0  0.24002335212E+02  0.18280624570E+02  0.33731419806E+03  0.33866083556E+03  0.00000000000E+00 0.  1.
         -1    1    1    2    0  501 -0.24002335212E+02 -0.18280624570E+02  0.15244282065E+03  0.15539982914E+03  0.00000000000E+00 0. -1.
</event>
<event>
 4    1  0.6740123E+001  0.4405758E+02  0.7546771E-02  0.1326219E+00
          2   -1    0    0  502    0  0.00000000000E+00  0.00000000000E+00  0.13824249303E+04  0.13824249303E+04  0.00000000000E+00 0.  1.
         -2   -1    0    0    0  501 -0.00000000000E+00 -0.00000000000E+00 -0.14242653646E+01  0.14242653646E+01  0.00000000000E+00 0. -1.
          1    1    1    2  502    0  0.43395659618E+02 -0.76083841639E+01  0.60818049462E+03  0.60977420807E+03  0.00000000000E+00 0. -1.
         -1    1    1    2    0  501 -0.43395659618E+02  0.76083841639E+01  0.77282017028E+03  0.77407498757E+03  0.00000000000E+00 0.  1.
</event>
<event>
 4    1  0.6740123E+001  0.2516282E+02  0.7546771E-02  0.1466990E+00
          2   -1    0    0  502    0  0.00000000000E+00  0.00000000000E+00  0.91713768104E+02  0.91713768104E+02  0.00000000000E+00 0.  1.
         -2   -1    0    0    0  501 -0.00000000000E+00 -0.00000000000E+00 -0.11601069667E+02  0.11601069667E+02  0.00000000000E+00 0. -1.
          1    1    1    2  502    0  0.17929528873E+02 -0.17655014967E+02  0.72927085525E+02  0.77146142886E+02  0.00000000000E+00 0.  1.
         -1    1    1    2    0  501 -0.17929528873E+02  0.17655014967E+02  0.71856129116E+01  0.26168694885E+02  0.00000000000E+00 0. -1.
</event>
<event>
 4    1  0.6740123E+001  0.2147367E+02  0.7546771E-02  0.1512608E+00
          2   -1    0    0  502    0  0.00000000000E+00  0.00000000000E+00  0.15394044776E+04  0.15394044776E+04  0.00000000000E+00 0.  1.
         -2   -1    0    0    0  501 -0.00000000000E+00 -0.00000000000E+00 -0.46089224564E+00  0.46089224564E+00  0.00000000000E+00 0. -1.
          1    1    1    2  502    0 -0.72257249573E+01  0.20221464251E+02  0.31392210389E+03  0.31465569441E+03  0.00000000000E+00 0. -1.
         -1    1    1    2    0  501  0.72257249573E+01 -0.20221464251E+02  0.12250214815E+04  0.12252096754E+04  0.00000000000E+00 0.  1.
</event>
<event>
 4    1  0.6740123E+001  0.2055340E+02  0.7546771E-02  0.1525738E+00
          2   -1    0    0  502    0  0.00000000000E+00  0.00000000000E+00  0.47798347338E+02  0.47798347338E+02  0.00000000000E+00 0. -1.
         -2   -1    0    0    0  501 -0.00000000000E+00 -0.00000000000E+00 -0.10252038754E+02  0.10252038754E+02  0.00000000000E+00 0.  1.
          1    1    1    2  502    0  0.63098879324E+01  0.19560870409E+02  0.79936470543E+01  0.22053134247E+02  0.00000000000E+00 0.  1.
         -1    1    1    2    0  501 -0.63098879324E+01 -0.19560870409E+02  0.29552661530E+02  0.35997251845E+02  0.00000000000E+00 0. -1.
</event>
<event>
 4    1  0.6740123E+001  0.2051727E+02  0.7546771E-02  0.1526270E+00
          2   -1    0    0  502    0  0.00000000000E+00  0.00000000000E+00  0.64668787638E+03  0.64668787638E+03  0.00000000000E+00 0.  1.
         -2   -1    0    0    0  501 -0.00000000000E+00 -0.00000000000E+00 -0.11589979352E+01  0.11589979352E+01  0.00000000000E+00 0. -1.
          1    1    1    2  502    0 -0.15601829442E+02  0.13324469273E+02  0.10829999101E+03  0.11022634266E+03  0.00000000000E+00 0. -1.
         -1    1    1    2    0  501  0.15601829442E+02 -0.13324469273E+02  0.53722888743E+03  0.53762053165E+03  0.00000000000E+00 0.  1.
</event>
<event>
 4    1  0.6740123E+001  0.2318896E+02  0.7546771E-02  0.1490139E+00
          2   -1    0    0  502    0  0.00000000000E+00  0.00000000000E+00  0.19834424399E+04  0.19834424399E+04  0.00000000000E+00 0.  1.
         -2   -1    0    0    0  501 -0.00000000000E+00 -0.00000000000E+00 -0.32914432461E+00  0.32914432461E+00  0.00000000000E+00 0. -1.
          1    1    1    2  502    0 -0.23150251684E+02 -0.13393480259E+01  0.57505497540E+03  0.57552233036E+03  0.00000000000E+00 0. -1.
         -1    1    1    2    0  501  0.23150251684E+02  0.13393480259E+01  0.14080583202E+04  0.14082492538E+04  0.00000000000E+00 0.  1.
</event>
<event>
 4    1  0.6740123E+001  0.2471338E+02  0.7546771E-02  0.1472035E+00
          2   -1    0    0  502    0  0.00000000000E+00  0.00000000000E+00  0.15900156122E+04  0.15900156122E+04  0.00000000000E+00 0.  1.
         -2   -1    0    0    0  501 -0.00000000000E+00 -0.00000000000E+00 -0.67234522340E+00  0.67234522340E+00  0.00000000000E+00 0. -1.
          1    1    1    2  502    0 -0.15635231253E+02 -0.19138716189E+02  0.13154196393E+04  0.13156517694E+04  0.00000000000E+00 0.  1.
         -1    1    1    2    0  501  0.15635231253E+02  0.19138716189E+02  0.27392362771E+03  0.27503618804E+03  0.00000000000E+00 0. -1.
</event>
<event>
 4    1  0.6740123E+001  0.3187112E+02  0.7546771E-02  0.1404004E+00
          2   -1    0    0  502    0  0.00000000000E+00  0.00000000000E+00  0.37714100454E+02  0.37714100454E+02  0.00000000000E+00 0. -1.
         -2   -1    0    0    0  501 -0.00000000000E+00 -0.00000000000E+00 -0.53165124384E+02  0.53165124384E+02  0.00000000000E+00 0.  1.
          1    1    1    2  502    0  0.30402320190E+02 -0.95638520071E+01 -0.39643444799E+02  0.50866207385E+02  0.00000000000E+00 0.  1.
         -1    1    1    2    0  501 -0.30402320190E+02  0.95638520071E+01  0.24192420869E+02  0.40013017453E+02  0.00000000000E+00 0. -1.
</event>
<event>
 4    1  0.6740123E+001  0.2668629E+02  0.7546771E-02  0.1450785E+00
          2   -1    0    0  502    0  0.00000000000E+00  0.00000000000E+00  0.42574569537E+03  0.42574569537E+03  0.00000000000E+00 0. -1.
         -2   -1    0    0    0  501 -0.00000000000E+00 -0.00000000000E+00 -0.25575366811E+01  0.25575366811E+01  0.00000000000E+00 0.  1.
          1    1    1    2  502    0  0.20571156906E+02  0.16999573802E+02  0.33755458091E+03  0.33860781607E+03  0.00000000000E+00 0. -1.
         -1    1    1    2    0  501 -0.20571156906E+02 -0.16999573802E+02  0.85633577771E+02  0.89695415980E+02  0.00000000000E+00 0.  1.
</event>
<event>
 4    1  0.6740123E+001  0.2381202E+02  0.7546771E-02  0.1482546E+00
          2   -1    0    0  502    0  0.00000000000E+00  0.00000000000E+00  0.12028569532E+04  0.12028569532E+04  0.00000000000E+00 0.  1.
         -2   -1    0    0    0  501 -0.00000000000E+00 -0.00000000000E+00 -0.57520584995E+00  0.57520584995E+00  0.00000000000E+00 0. -1.
          1    1    1    2  502    0 -0.22355716802E+02 -0.81996431451E+01  0.85677344002E+03  0.85710427589E+03  0.00000000000E+00 0.  1.
         -1    1    1    2    0  501  0.22355716802E+02  0.81996431451E+01  0.34550830729E+03  0.34632788312E+03  0.00000000000E+00 0. -1.
</event>
<event>
 4    1  0.6740123E+001  0.2039314E+02  0.7546771E-02  0.1528108E+00
          2   -1    0    0  502    0  0.00000000000E+00  0.00000000000E+00  0.72464585823E+01  0.72464585823E+01  0.00000000000E+00 0. -1.
         -2   -1    0    0    0  501 -0.00000000000E+00 -0.00000000000E+00 -0.59471379047E+02  0.59471379047E+02  0.00000000000E+00 0.  1.
          1    1    1    2  502    0  0.16662288472E+02 -0.11757897363E+02 -0.32351974164E+02  0.38243041718E+02  0.00000000000E+00 0.  1.
         -1    1    1    2    0  501 -0.16662288472E+02  0.11757897363E+02 -0.19872946300E+02  0.28474795911E+02  0.00000000000E+00 0. -1.
</event>
<event>
 4    1  0.6740123E+001  0.3146626E+02  0.7546771E-02  0.1407269E+00
          2   -1    0    0  502    0  0.00000000000E+00  0.00000000000E+00  0.20953766358E+03  0.20953766358E+03  0.00000000000E+00 0. -1.
         -2   -1    0    0    0  501 -0.00000000000E+00 -0.00000000000E+00 -0.47913400413E+01  0.47913400413E+01  0.00000000000E+00 0.  1.
          1    1    1    2  502    0  0.29896414538E+02  0.98147950518E+01  0.89790699903E+02  0.95144603595E+02  0.00000000000E+00 0. -1.
         -1    1    1    2    0  501 -0.29896414538E+02 -0.98147950518E+01  0.11495562363E+03  0.11918440002E+03  0.00000000000E+00 0.  1.
</event>
<event>
 4    1  0.6740123E+001  0.2102839E+02  0.7546771E-02  0.1518860E+00
          2   -1    0    0  502    0  0.00000000000E+00  0.00000000000E+00  0.70073119736E+03  0.70073119736E+03  0.00000000000E+00 0. -1.
         -2   -1    0    0    0  501 -0.00000000000E+00 -0.00000000000E+00 -0.83900374029E+00  0.83900374029E+00  0.00000000000E+00 0.  1.
          1    1    1    2  502    0 -0.22934674110E+00 -0.21027141759E+02  0.52458750507E+03  0.52500880352E+03  0.00000000000E+00 0. -1.
         -1    1    1    2    0  501  0.22934674110E+00  0.21027141759E+02  0.17530468855E+03  0.17656139759E+03  0.00000000000E+00 0.  1.
</event>
<event>
 4    1  0.6740123E+001  0.2066094E+02  0.7546771E-02  0.1524161E+00
          2   -1    0    0  502    0  0.00000000000E+00  0.00000000000E+00  0.39967804536E+02  0.39967804536E+02  0.00000000000E+00 0. -1.
         -2   -1    0    0    0  501 -0.00000000000E+00 -0.00000000000E+00 -0.11270798422E+02  0.11270798422E+02  0.00000000000E+00 0.  1.
          1    1    1    2  502    0  0.57298862066E+01  0.19850510670E+02  0.84852044477E+01  0.22335466513E+02  0.00000000000E+00 0.  1.
         -1    1    1    2    0  501 -0.57298862066E+01 -0.19850510670E+02  0.20211801666E+02  0.28903136446E+02  0.00000000000E+00 0. -1.
</event>
<event>
 4    1  0.6740123E+001  0.3036327E+02  0.7546771E-02  0.1416465E+00
          2   -1    0    0  502    0  0.00000000000E+00  0.00000000000E+00  0.47332689218E+02  0.47332689218E+02  0.00000000000E+00 0.  1.
         -2   -1    0    0    0  501 -0.00000000000E+00 -0.00000000000E+00 -0.25932123716E+02  0.25932123716E+02  0.00000000000E+00 0. -1.
          1    1    1    2  502    0 -0.18837196134E+02 -0.23813613331E+02 -0.75755776383E+01  0.31294049189E+02  0.00000000000E+00 0. -1.
         -1    1    1    2    0  501  0.18837196134E+02  0.23813613331E+02  0.28976143140E+02  0.41970763745E+02  0.00000000000E+00 0.  1.
</event>
<event>
 4    1  0.6740123E+001  0.2062520E+02  0.7546771E-02  0.1524684E+00
          2   -1    0    0  502    0  0.00000000000E+00  0.00000000000E+00  0.96614103401E+03  0.96614103401E+03  0.00000000000E+00 0.  1.
         -2   -1    0    0    0  501 -0.00000000000E+00 -0.00000000000E+00 -0.48902287257E+00  0.48902287257E+00  0.00000000000E+00 0. -1.
          1    1    1    2  502    0 -0.15205306792E+01  0.20569073531E+02  0.33028018484E+03  0.33092355506E+03  0.00000000000E+00 0. -1.
         -1    1    1    2    0  501  0.15205306792E+01 -0.20569073531E+02  0.63537182630E+03  0.63570650182E+03  0.00000000000E+00 0.  1.
</event>
<event>
 4    1  0.6740123E+001  0.2667195E+02  0.7546771E-02  0.1450932E+00
          2   -1    0    0  502    0  0.00000000000E+00  0.00000000000E+00  0.37552761343E+02  0.37552761343E+02  0.00000000000E+00 0. -1.
         -2   -1    0    0    0  501 -0.00000000000E+00 -0.00000000000E+00 -0.19109699107E+02  0.19109699107E+02  0.00000000000E+00 0.  1.
          1    1    1    2  502    0  0.24818009572E+02  0.97703180213E+01  0.65819459473E+01  0.27472071742E+02  0.00000000000E+00 0.  1.
         -1    1    1    2    0  501 -0.24818009572E+02 -0.97703180213E+01  0.11861116288E+02  0.29190388708E+02  0.00000000000E+00 0. -1.
</event>
<event>
 4    1  0.6740123E+001  0.2146301E+02  0.7546771E-02  0.1512756E+00
          2   -1    0    0  502    0  0.00000000000E+00  0.00000000000E+00  0.29256941577E+03  0.29256941577E+03  0.00000000000E+00 0. -1.
         -2   -1    0    0    0  501 -0.00000000000E+00 -0.00000000000E+00 -0.16910675609E+01  0.16910675609E+01  0.00000000000E+00 0.  1.
          1    1    1    2  502    0 -0.20693142663E+02 -0.56968800424E+01  0.10681614588E+03  0.10895113407E+03  0.00000000000E+00 0.  1.
         -1    1    1    2    0  501  0.20693142663E+02  0.56968800424E+01  0.18406220234E+03  0.18530934926E+03  0.00000000000E+00 0. -1.
</event>
<event>
 4    1  0.6740123E+001  0.4140051E+02  0.7546771E-02  0.1340469E+00
          2   -1    0    0  502    0  0.00000000000E+00  0.00000000000E+00  0.10693286658E+04  0.10693286658E+04  0.00000000000E+00 0.  1.
         -2   -1    0    0    0  501 -0.00000000000E+00 -0.00000000000E+00 -0.16030041497E+01  0.16030041497E+01  0.00000000000E+00 0. -1.
          1    1    1    2  502    0 -0.41189915259E+02 -0.41705061111E+01  0.52909242357E+03  0.53070970871E+03  0.00000000000E+00 0. -1.
         -1    1    1    2    0  501  0.41189915259E+02  0.41705061111E+01  0.53863323806E+03  0.54022196122E+03  0.00000000000E+00 0.  1.
</event>
<event>
 4    1  0.6740123E+001  0.3881679E+02  0.7546771E-02  0.1355562E+00
          2   -1    0    0  502    0  0.00000000000E+00  0.00000000000E+00  0.33953626572E+03  0.33953626572E+03  0.00000000000E+00 0.  1.
         -2   -1    0    0    0  501 -0.00000000000E+00 -0.00000000000E+00 -0.44461540838E+01  0.44461540838E+01  0.00000000000E+00 0. -1.
          1    1    1    2  502    0  0.26293573645E+02  0.28555059510E+02  0.17506653078E+03  0.17931824681E+03  0.00000000000E+00 0.  1.
         -1    1    1    2    0  501 -0.26293573645E+02 -0.28555059510E+02  0.16002358086E+03  0.16466417300E+03  0.00000000000E+00 0. -1.
</event>
<event>
 4    1  0.6740123E+001  0.2643430E+02  0.7546771E-02  0.1453375E+00
          2   -1    0    0  502    0  0.00000000000E+00  0.00000000000E+00  0.82206978959E+00  0.82206978959E+00  0.00000000000E+00 0.  1.
         -2   -1    0    0    0  501 -0.00000000000E+00 -0.00000000000E+00 -0.15276195601E+04  0.15276195601E+04  0.00000000000E+00 0. -1.
          1    1    1    2  502    0 -0.20624524117E+02 -0.16534855498E+02 -0.25442062968E+03  0.25579020554E+03  0.00000000000E+00 0.  1.
         -1    1    1    2    0  501  0.20624524117E+02  0.16534855498E+02 -0.12723768606E+04  0.12726514243E+04  0.00000000000E+00 0. -1.
</event>
<event>
 4    1  0.6740123E+001  0.2116612E+02  0.7546771E-02  0.1516906E+00
          2   -1    0    0  502    0  0.00000000000E+00  0.00000000000E+00  0.21313920889E+03  0.21313920889E+03  0.00000000000E+00 0.  1.
         -2   -1    0    0    0  501 -0.00000000000E+00 -0.00000000000E+00 -0.21097652173E+01  0.21097652173E+01  0.00000000000E+00 0. -1.
          1    1    1    2  502    0  0.67001381167E+01 -0.20077666848E+02  0.98957682873E+02  0.10119598587E+03  0.00000000000E+00 0. -1.
         -1    1    1    2    0  501 -0.67001381167E+01  0.20077666848E+02  0.11207176080E+03  0.11405298824E+03  0.00000000000E+00 0.  1.
</event>
<event>
 4    1  0.6740123E+001  0.2048569E+02  0.7546771E-02  0.1526736E+00
          2   -1    0    0  502    0  0.00000000000E+00  0.00000000000E+00  0.50480556567E+02  0.50480556567E+02  0.00000000000E+00 0.  1.
         -2   -1    0    0    0  501 -0.00000000000E+00 -0.00000000000E+00 -0.83510921125E+01  0.83510921125E+01  0.00000000000E+00 0. -1.
          1    1    1    2  502    0 -0.77055432858E+01  0.18981258534E+02  0.23041720817E+02  0.30831549930E+02  0.00000000000E+00 0.  1.
         -1    1    1    2    0  501  0.77055432858E+01 -0.18981258534E+02  0.19087743638E+02  0.28000098750E+02  0.00000000000E+00 0. -1.
</event>
<event>
 4    1  0.6740123E+001  0.2282368E+02  0.7546771E-02  0.1494724E+00
          2   -1    0    0  502    0  0.00000000000E+00  0.00000000000E+00  0.18323607429E+02  0.18323607429E+02  0.00000000000E+00 0. -1.
         -2   -1    0    0    0  501 -0.00000000000E+00 -0.00000000000E+00 -0.38114492276E+02  0.38114492276E+02  0.00000000000E+00 0.  1.
          1    1    1    2  502    0  0.22689399766E+02  0.24721150769E+01 -0.24120700369E+02  0.33207354622E+02  0.00000000000E+00 0.  1.
         -1    1    1    2    0  501 -0.22689399766E+02 -0.24721150769E+01  0.43298155222E+01  0.23230745084E+02  0.00000000000E+00 0. -1.
</event>
<event>
 4    1  0.6740123E+001  0.3204076E+02  0.7546771E-02  0.1402654E+00
          2   -1    0    0  502    0  0.00000000000E+00  0.00000000000E+00  0.33235617163E+03  0.33235617163E+03  0.00000000000E+00 0.  1.
         -2   -1    0    0    0  501 -0.00000000000E+00 -0.00000000000E+00 -0.30946377662E+01  0.30946377662E+01  0.00000000000E+00 0. -1.
          1    1    1    2  502    0 -0.80757459284E+00  0.32030578769E+02  0.15739950405E+03  0.16062756310E+03  0.00000000000E+00 0. -1.
         -1    1    1    2    0  501  0.80757459284E+00 -0.32030578769E+02  0.17186202982E+03  0.17482324630E+03  0.00000000000E+00 0.  1.
</event>
<event>
 4    1  0.6740123E+001  0.2439911E+02  0.7546771E-02  0.1475639E+00
          2   -1    0    0  502    0  0.00000000000E+00  0.00000000000E+00  0.79980984701E+01  0.79980984701E+01  0.00000000000E+00 0.  1.
         -2   -1    0    0    0  501 -0.00000000000E+00 -0.00000000000E+00 -0.12077499469E+03  0.12077499469E+03  0.00000000000E+00 0. -1.
          1    1    1    2  502    0 -0.23489101520E+02 -0.66014323736E+01 -0.16504577542E+02  0.29457051438E+02  0.00000000000E+00 0.  1.
         -1    1    1    2    0  501  0.23489101520E+02  0.66014323736E+01 -0.96272318681E+02  0.99316041724E+02  0.00000000000E+00 0. -1.
</event>
<event>
 4    1  0.6740123E+001  0.2373754E+02  0.7546771E-02  0.1483439E+00
          2   -1    0    0  502    0  0.00000000000E+00  0.00000000000E+00  0.23918151794E+03  0.23918151794E+03  0.00000000000E+00 0. -1.
         -2   -1    0    0    0  501 -0.00000000000E+00 -0.00000000000E+00 -0.23560039276E+01  0.23560039276E+01  0.00000000000E+00 0.  1.
          1    1    1    2  502    0  0.12122045873E+02 -0.20408992910E+02  0.11737501142E+03  0.11975126010E+03  0.00000000000E+00 0.  1.
         -1    1    1    2    0  501 -0.12122045873E+02  0.20408992910E+02  0.11945050259E+03  0.12178626177E+03  0.00000000000E+00 0. -1.
</event>
<event>
 4    1  0.6740123E+001  0.2197841E+02  0.7546771E-02  0.1505741E+00
          2   -1    0    0  502    0  0.00000000000E+00  0.00000000000E+00  0.49063813386E+02  0.49063813386E+02  0.00000000000E+00 0.  1.
         -2   -1    0    0    0  501 -0.00000000000E+00 -0.00000000000E+00 -0.98560627957E+01  0.98560627957E+01  0.00000000000E+00 0. -1.
          1    1    1    2  502    0 -0.11365411551E+01  0.21949006302E+02  0.18632798226E+02  0.28813742783E+02  0.00000000000E+00 0. -1.
         -1    1    1    2    0  501  0.11365411551E+01 -0.21949006302E+02  0.20574952364E+02  0.30106133398E+02  0.00000000000E+00 0.  1.
</event>
<event>
 4    1  0.6740123E+001  0.2180925E+02  0.7546771E-02  0.1508017E+00
          2   -1    0    0  502    0  0.00000000000E+00  0.00000000000E+00  0.76636582340E+03  0.76636582340E+03  0.00000000000E+00 0.  1.
         -2   -1    0    0    0  501 -0.00000000000E+00 -0.00000000000E+00 -0.72358275965E+00  0.72358275965E+00  0.00000000000E+00 0. -1.
          1    1    1    2  502    0  0.20122262317E+02 -0.84105824009E+01  0.52748267475E+03  0.52793334380E+03  0.00000000000E+00 0.  1.
         -1    1    1    2    0  501 -0.20122262317E+02  0.84105824009E+01  0.23815956589E+03  0.23915606236E+03  0.00000000000E+00 0. -1.
</event>
<event>
 4    1  0.6740123E+001  0.2240093E+02  0.7546771E-02  0.1500161E+00
          2   -1    0    0  502    0  0.00000000000E+00  0.00000000000E+00  0.25176785377E+02  0.25176785377E+02  0.00000000000E+00 0.  1.
         -2   -1    0    0    0  501 -0.00000000000E+00 -0.00000000000E+00 -0.21770282746E+02  0.21770282746E+02  0.00000000000E+00 0. -1.
          1    1    1    2  502    0  0.62951485081E+01  0.21498198958E+02  0.85259609486E+01  0.23968593269E+02  0.00000000000E+00 0.  1.
         -1    1    1    2    0  501 -0.62951485081E+01 -0.21498198958E+02 -0.51194583172E+01  0.22978474855E+02  0.00000000000E+00 0. -1.
</event>
<event>
 4    1  0.6740123E+001  0.2253235E+02  0.7546771E-02  0.1498455E+00
          2   -1    0    0  502    0  0.00000000000E+00  0.00000000000E+00  0.48671637856E+03  0.48671637856E+03  0.00000000000E+00 0. -1.
         -2   -1    0    0    0  501 -0.00000000000E+00 -0.00000000000E+00 -0.60749079718E+01  0.60749079718E+01  0.00000000000E+00 0.  1.
          1    1    1    2  502    0  0.22138026098E+02  0.41969956076E+01  0.46456639148E+03  0.46511250152E+03  0.00000000000E+00 0. -1.
         -1    1    1    2    0  501 -0.22138026098E+02 -0.41969956076E+01  0.16075079104E+02  0.27678785014E+02  0.00000000000E+00 0.  1.
</event>
<event>
 4    1  0.6740123E+001  0.6473884E+02  0.7546771E-02  0.1244529E+00
          2   -1    0    0  502    0  0.00000000000E+00  0.00000000000E+00  0.56034310418E+02  0.56034310418E+02  0.00000000000E+00 0.  1.
         -2   -1    0    0    0  501 -0.00000000000E+00 -0.00000000000E+00 -0.74972056806E+02  0.74972056806E+02  0.00000000000E+00 0. -1.
          1    1    1    2  502    0 -0.15003703877E+02  0.62976233282E+02 -0.12647158975E+02  0.65962623648E+02  0.00000000000E+00 0.  1.
         -1    1    1    2    0  501  0.15003703877E+02 -0.62976233282E+02 -0.62905874128E+01  0.65043743576E+02  0.00000000000E+00 0. -1.
</event>
<event>
 4    1  0.6740123E+001  0.3116477E+02  0.7546771E-02  0.1409738E+00
          2   -1    0    0  502    0  0.00000000000E+00  0.00000000000E+00  0.58778961570E+02  0.58778961570E+02  0.00000000000E+00 0.  1.
         -2   -1    0    0    0  501 -0.00000000000E+00 -0.00000000000E+00 -0.26557768897E+02  0.26557768897E+02  0.00000000000E+00 0. -1.
          1    1    1    2  502    0 -0.30774731643E+02 -0.49151361088E+01 -0.10116484123E+02  0.32765621033E+02  0.00000000000E+00 0. -1.
         -1    1    1    2    0  501  0.30774731643E+02  0.49151361088E+01  0.42337676796E+02  0.52571109434E+02  0.00000000000E+00 0.  1.
</event>
<event>
 4    1  0.6740123E+001  0.2577399E+02  0.7546771E-02  0.1460328E+00
          2   -1    0    0  502    0  0.00000000000E+00  0.00000000000E+00  0.11162044302E+03  0.11162044302E+03  0.00000000000E+00 0. -1.
         -2   -1    0    0    0  501 -0.00000000000E+00 -0.00000000000E+00 -0.13724809227E+02  0.13724809227E+02  0.00000000000E+00 0.  1.
          1    1    1    2  502    0 -0.10560822807E+02 -0.23511013491E+02  0.17816815422E+01  0.25835501212E+02  0.00000000000E+00 0.  1.
         -1    1    1    2    0  501  0.10560822807E+02  0.23511013491E+02  0.96113952250E+02  0.99509751034E+02  0.00000000000E+00 0. -1.
</event>
<event>
 4    1  0.6740123E+001  0.2797344E+02  0.7546771E-02  0.1438067E+00
          2   -1    0    0  502    0  0.00000000000E+00  0.00000000000E+00  0.60555031219E+01  0.60555031219E+01  0.00000000000E+00 0.  1.
         -2   -1    0    0    0  501 -0.00000000000E+00 -0.00000000000E+00 -0.12955598090E+03  0.12955598090E+03  0.00000000000E+00 0. -1.
          1    1    1    2  502    0  0.42803601799E+01  0.27644015621E+02 -0.65185385908E+02  0.70934107585E+02  0.00000000000E+00 0.  1.
         -1    1    1    2    0  501 -0.42803601799E+01 -0.27644015621E+02 -0.58315091872E+02  0.64677376439E+02  0.00000000000E+00 0. -1.
</event>
<event>
 4    1  0.6740123E+001  0.2651489E+02  0.7546771E-02  0.1452543E+00
          2   -1    0    0  502    0  0.00000000000E+00  0.00000000000E+00  0.41792587053E+03  0.41792587053E+03  0.00000000000E+00 0.  1.
         -2   -1    0    0    0  501 -0.00000000000E+00 -0.00000000000E+00 -0.16928951947E+01  0.16928951947E+01  0.00000000000E+00 0. -1.
          1    1    1    2  502    0  0.77280503243E+01  0.25363690414E+02  0.22478427739E+03  0.22634268470E+03  0.00000000000E+00 0.  1.
         -1    1    1    2    0  501 -0.77280503243E+01 -0.25363690414E+02  0.19144869794E+03  0.19327608102E+03  0.00000000000E+00 0. -1.
</event>
<event>
 4    1  0.6740123E+001  0.4740540E+02  0.7546771E-02  0.1309831E+00
          2   -1    0    0  502    0  0.00000000000E+00  0.00000000000E+00  0.13680078243E+03  0.13680078243E+03  0.00000000000E+00 0. -1.
         -2   -1    0    0    0  501 -0.00000000000E+00 -0.00000000000E+00 -0.44113604540E+02  0.44113604540E+02  0.00000000000E+00 0.  1.
          1    1    1    2  502    0 -0.48156432743E+00 -0.47402955089E+02  0.11800561305E+03  0.12717152499E+03  0.00000000000E+00 0. -1.
         -1    1    1    2    0  501  0.48156432743E+00  0.47402955089E+02 -0.25318435161E+02  0.53742861986E+02  0.00000000000E+00 0.  1.
</event>
<event>
 4    1  0.6740123E+001  0.2074585E+02  0.7546771E-02  0.1522925E+00
          2   -1    0    0  502    0  0.00000000000E+00  0.00000000000E+00  0.86716454530E+02  0.86716454530E+02  0.00000000000E+00 0. -1.
         -2   -1    0    0    0  501 -0.00000000000E+00 -0.00000000000E+00 -0.97093326349E+01  0.97093326349E+01  0.00000000000E+00 0.  1.
          1    1    1    2  502    0 -0.14027968819E+02 -0.15284183087E+02  0.72212023239E+02  0.75132991835E+02  0.00000000000E+00 0. -1.
         -1    1    1    2    0  501  0.14027968819E+02  0.15284183087E+02  0.47950986558E+01  0.21292795330E+02  0.00000000000E+00 0.  1.
</event>
<event>
 4    1  0.6740123E+001  0.2261791E+02  0.7546771E-02  0.1497353E+00
          2   -1    0    0  502    0  0.00000000000E+00  0.00000000000E+00  0.63922561362E+02  0.63922561362E+02  0.00000000000E+00 0. -1.
         -2   -1    0    0    0  501 -0.00000000000E+00 -0.00000000000E+00 -0.82750859667E+01  0.82750859667E+01  0.00000000000E+00 0.  1.
          1    1    1    2  502    0 -0.12280906640E+02  0.18993397023E+02  0.34369957420E+02  0.41144425763E+02  0.00000000000E+00 0. -1.
         -1    1    1    2    0  501  0.12280906640E+02 -0.18993397023E+02  0.21277517975E+02  0.31053221565E+02  0.00000000000E+00 0.  1.
</event>
<event>
 4    1  0.6740123E+001  0.4274869E+02  0.7546771E-02  0.1333090E+00
          2   -1    0    0  502    0  0.00000000000E+00  0.00000000000E+00  0.59416938239E+03  0.59416938239E+03  0.00000000000E+00 0.  1.
         -2   -1    0    0    0  501 -0.00000000000E+00 -0.00000000000E+00 -0.82102725388E+01  0.82102725388E+01  0.00000000000E+00 0. -1.
          1    1    1    2  502    0  0.17212929245E+02  0.39130111080E+02  0.53116555946E+03  0.53288300975E+03  0.00000000000E+00 0.  1.
         -1    1    1    2    0  501 -0.17212929245E+02 -0.39130111080E+02  0.54793550391E+02  0.69496645177E+02  0.00000000000E+00 0. -1.
</event>
<event>
 4    1  0.6740123E+001  0.2520236E+02  0.7546771E-02  0.1466552E+00
          2   -1    0    0  502    0  0.00000000000E+00  0.00000000000E+00  0.17477798490E+04  0.17477798490E+04  0.00000000000E+00 0.  1.
         -2   -1    0    0    0  501 -0.00000000000E+00 -0.00000000000E+00 -0.37042971365E+00  0.37042971365E+00  0.00000000000E+00 0. -1.
          1    1    1    2  502    0 -0.57029471996E+01  0.24548628853E+02  0.75337053053E+03  0.75379195741E+03  0.00000000000E+00 0.  1.
         -1    1    1    2    0  501  0.57029471996E+01 -0.24548628853E+02  0.99403888874E+03  0.99435832129E+03  0.00000000000E+00 0. -1.
</event>
<event>
 4    1  0.6740123E+001  0.2371442E+02  0.7546771E-02  0.1483717E+00
          2   -1    0    0  502    0  0.00000000000E+00  0.00000000000E+00  0.54229422199E+03  0.54229422199E+03  0.00000000000E+00 0.  1.
         -2   -1    0    0    0  501 -0.00000000000E+00 -0.00000000000E+00 -0.13571360921E+01  0.13571360921E+01  0.00000000000E+00 0. -1.
          1    1    1    2  502    0 -0.22166415847E+02  0.84275575511E+01  0.40248492503E+03  0.40318294680E+03  0.00000000000E+00 0.  1.
         -1    1    1    2    0  501  0.22166415847E+02 -0.84275575511E+01  0.13845216087E+03  0.14046841128E+03  0.00000000000E+00 0. -1.
</event>
<event>
 4    1  0.6740123E+001  0.2446452E+02  0.7546771E-02  0.1474884E+00
          2   -1    0    0  502    0  0.00000000000E+00  0.00000000000E+00  0.24057154856E+03  0.24057154856E+03  0.00000000000E+00 0. -1.
         -2   -1    0    0    0  501 -0.00000000000E+00 -0.00000000000E+00 -0.28757389094E+01  0.28757389094E+01  0.00000000000E+00 0.  1.
          1    1    1    2  502    0  0.33519747361E+01  0.24233795811E+02  0.74144728350E+02  0.78076586351E+02  0.00000000000E+00 0. -1.
         -1    1    1    2    0  501 -0.33519747361E+01 -0.24233795811E+02  0.16355108130E+03  0.16537070112E+03  0.00000000000E+00 0.  1.
</event>
<event>
 4    1  0.6740123E+001  0.2265679E+02  0.7546771E-02  0.1496853E+00
          2   -1    0    0  502    0  0.00000000000E+00  0.00000000000E+00  0.32716807960E+02  0.32716807960E+02  0.00000000000E+00 0.  1.
         -2   -1    0    0    0  501 -0.00000000000E+00 -0.00000000000E+00 -0.15819027603E+02  0.15819027603E+02  0.00000000000E+00 0. -1.
          1    1    1    2  502    0  0.48722976937E+01  0.22126696027E+02  0.10639761902E+02  0.25030671090E+02  0.00000000000E+00 0.  1.
         -1    1    1    2    0  501 -0.48722976937E+01 -0.22126696027E+02  0.62580184550E+01  0.23505164473E+02  0.00000000000E+00 0. -1.
</event>
<event>
 4    1  0.6740123E+001  0.3746327E+02  0.7546771E-02  0.1364028E+00
          2   -1    0    0  502    0  0.00000000000E+00  0.00000000000E+00  0.11904709719E+04  0.11904709719E+04  0.00000000000E+00 0.  1.
         -2   -1    0    0    0  501 -0.00000000000E+00 -0.00000000000E+00 -0.55250425627E+01  0.55250425627E+01  0.00000000000E+00 0. -1.
          1    1    1    2  502    0  0.24920030717E+02  0.27973005306E+02  0.62099512037E+02  0.72524798187E+02  0.00000000000E+00 0. -1.
         -1    1    1    2    0  501 -0.24920030717E+02 -0.27973005306E+02  0.11228464173E+04  0.11234712163E+04  0.00000000000E+00 0.  1.
</event>
<event>
 4    1  0.6740123E+001  0.3354683E+02  0.7546771E-02  0.1391078E+00
          2   -1    0    0  502    0  0.00000000000E+00  0.00000000000E+00  0.61380363309E+02  0.61380363309E+02  0.00000000000E+00 0. -1.
         -2   -1    0    0    0  501 -0.00000000000E+00 -0.00000000000E+00 -0.38924658028E+02  0.38924658028E+02  0.00000000000E+00 0.  1.
          1    1    1    2  502    0  0.18265562301E+02  0.28138212383E+02 -0.25248225853E+02  0.41986458186E+02  0.00000000000E+00 0.  1.
         -1    1    1    2    0  501 -0.18265562301E+02 -0.28138212383E+02  0.47703931134E+02  0.58318563150E+02  0.00000000000E+00 0. -1.
</event>
<event>
 4    1  0.6740123E+001  0.2176269E+02  0.7546771E-02  0.1508648E+00
          2   -1    0    0  502    0  0.00000000000E+00  0.00000000000E+00  0.20576653445E+02  0.20576653445E+02  0.00000000000E+00 0. -1.
         -2   -1    0    0    0  501 -0.00000000000E+00 -0.00000000000E+00 -0.27474683112E+02  0.27474683112E+02  0.00000000000E+00 0.  1.
          1    1    1    2  502    0  0.96822397435E+01 -0.19490229752E+02 -0.13126422039E+02  0.25414912507E+02  0.00000000000E+00 0.  1.
         -1    1    1    2    0  501 -0.96822397435E+01  0.19490229752E+02  0.62283923719E+01  0.22636424050E+02  0.00000000000E+00 0. -1.
</event>
<event>
 4    1  0.6740123E+001  0.2674534E+02  0.7546771E-02  0.1450183E+00
          2   -1    0    0  502    0  0.00000000000E+00  0.00000000000E+00  0.24020155601E+02  0.24020155601E+02  0.00000000000E+00 0. -1.
         -2   -1    0    0    0  501 -0.00000000000E+00 -0.00000000000E+00 -0.46367615591E+02  0.46367615591E+02  0.00000000000E+00 0.  1.
          1    1    1    2  502    0  0.13461114096E+02  0.23110850090E+02  0.98764477926E+01  0.28510650739E+02  0.00000000000E+00 0. -1.
         -1    1    1    2    0  501 -0.13461114096E+02 -0.23110850090E+02 -0.32223907783E+02  0.41877120452E+02  0.00000000000E+00 0.  1.
</event>
<event>
 4    1  0.6740123E+001  0.2520434E+02  0.7546771E-02  0.1466530E+00
          2   -1    0    0  502    0  0.00000000000E+00  0.00000000000E+00  0.16825128190E+04  0.16825128190E+04  0.00000000000E+00 0. -1.
         -2   -1    0    0    0  501 -0.00000000000E+00 -0.00000000000E+00 -0.38723791593E+00  0.38723791593E+00  0.00000000000E+00 0.  1.
          1    1    1    2  502    0  0.24792556942E+02  0.45373695061E+01  0.70807571484E+03  0.70852415382E+03  0.00000000000E+00 0.  1.
         -1    1    1    2    0  501 -0.24792556942E+02 -0.45373695061E+01  0.97404986624E+03  0.97437590309E+03  0.00000000000E+00 0. -1.
</event>
<event>
 4    1  0.6740123E+001  0.4423940E+02  0.7546771E-02  0.1325287E+00
          2   -1    0    0  502    0  0.00000000000E+00  0.00000000000E+00  0.17381439505E+02  0.17381439505E+02  0.00000000000E+00 0.  1.
         -2   -1    0    0    0  501 -0.00000000000E+00 -0.00000000000E+00 -0.11719156934E+03  0.11719156934E+03  0.00000000000E+00 0. -1.
          1    1    1    2  502    0 -0.29025127397E+02  0.33386621473E+02 -0.63225853304E+02  0.77166268795E+02  0.00000000000E+00 0. -1.
         -1    1    1    2    0  501  0.29025127397E+02 -0.33386621473E+02 -0.36584276530E+02  0.57406740049E+02  0.00000000000E+00 0.  1.
</event>
<event>
 4    1  0.6740123E+001  0.2630436E+02  0.7546771E-02  0.1454724E+00
          2   -1    0    0  502    0  0.00000000000E+00  0.00000000000E+00  0.11810747212E+04  0.11810747212E+04  0.00000000000E+00 0.  1.
         -2   -1    0    0    0  501 -0.00000000000E+00 -0.00000000000E+00 -0.68208705764E+00  0.68208705764E+00  0.00000000000E+00 0. -1.
          1    1    1    2  502    0 -0.26150976152E+02 -0.28365304073E+01  0.36823640998E+03  0.36917471892E+03  0.00000000000E+00 0. -1.
         -1    1    1    2    0  501  0.26150976152E+02  0.28365304073E+01  0.81215622416E+03  0.81258208933E+03  0.00000000000E+00 0.  1.
</event>
<event>
 4    1  0.6740123E+001  0.2241816E+02  0.7546771E-02  0.1499937E+00
          2   -1    0    0  502    0  0.00000000000E+00  0.00000000000E+00  0.11741406265E+03  0.11741406265E+03  0.00000000000E+00 0.  1.
         -2   -1    0    0    0  501 -0.00000000000E+00 -0.00000000000E+00 -0.42924382819E+01  0.42924382819E+01  0.00000000000E+00 0. -1.
          1    1    1    2  502    0  0.13851583550E+02 -0.17626895126E+02  0.53332056790E+02  0.57852243518E+02  0.00000000000E+00 0. -1.
         -1    1    1    2    0  501 -0.13851583550E+02  0.17626895126E+02  0.59789567574E+02  0.63854257410E+02  0.00000000000E+00 0.  1.
</event>
<event>
 4    1  0.6740123E+001  0.2063752E+02  0.7546771E-02  0.1524503E+00
          2   -1    0    0  502    0  0.00000000000E+00  0.00000000000E+00  0.11954804868E+03  0.11954804868E+03  0.00000000000E+00 0.  1.
         -2   -1    0    0    0  501 -0.00000000000E+00 -0.00000000000E+00 -0.36917138760E+01  0.36917138760E+01  0.00000000000E+00 0. -1.
          1    1    1    2  502    0 -0.13500007171E+02  0.15609523589E+02  0.69449834383E+02  0.72451272702E+02  0.00000000000E+00 0.  1.
         -1    1    1    2    0  501  0.13500007171E+02 -0.15609523589E+02  0.46406500418E+02  0.50788489851E+02  0.00000000000E+00 0. -1.
</event>
<event>
 4    1  0.6740123E+001  0.2787506E+02  0.7546771E-02  0.1439011E+00
          2   -1    0    0  502    0  0.00000000000E+00  0.00000000000E+00  0.53690768599E+02  0.53690768599E+02  0.00000000000E+00 0. -1.
         -2   -1    0    0    0  501 -0.00000000000E+00 -0.00000000000E+00 -0.17077989945E+02  0.17077989945E+02  0.00000000000E+00 0.  1.
          1    1    1    2  502    0 -0.26434903027E+02  0.88439100067E+01  0.32128367406E+02  0.42535289283E+02  0.00000000000E+00 0. -1.
         -1    1    1    2    0  501  0.26434903027E+02 -0.88439100067E+01  0.44844112487E+01  0.28233469261E+02  0.00000000000E+00 0.  1.
</event>
<event>
 4    1  0.6740123E+001  0.2014312E+02  0.7546771E-02  0.1531859E+00
          2   -1    0    0  502    0  0.00000000000E+00  0.00000000000E+00  0.53064538243E+02  0.53064538243E+02  0.00000000000E+00 0. -1.
         -2   -1    0    0    0  501 -0.00000000000E+00 -0.00000000000E+00 -0.18394008909E+02  0.18394008909E+02  0.00000000000E+00 0.  1.
          1    1    1    2  502    0 -0.19627972228E+02  0.45263626152E+01 -0.99761846802E+01  0.22478200842E+02  0.00000000000E+00 0.  1.
         -1    1    1    2    0  501  0.19627972228E+02 -0.45263626152E+01  0.44646714015E+02  0.48980346310E+02  0.00000000000E+00 0. -1.
</event>
<event>
 4    1  0.6740123E+001  0.4177525E+02  0.7546771E-02  0.1338386E+00
          2   -1    0    0  502    0  0.00000000000E+00  0.00000000000E+00  0.71752294123E+01  0.71752294123E+01  0.00000000000E+00 0. -1.
         -2   -1    0    0    0  501 -0.00000000000E+00 -0.00000000000E+00 -0.25330614867E+03  0.25330614867E+03  0.00000000000E+00 0.  1.
          1    1    1    2  502    0 -0.26918265290E+02 -0.31946496931E+02 -0.97078865199E+02  0.10568574994E+03  0.00000000000E+00 0. -1.
         -1    1    1    2    0  501  0.26918265290E+02  0.31946496931E+02 -0.14905205406E+03  0.15479562814E+03  0.00000000000E+00 0.  1.
</event>
<event>
 4    1  0.6740123E+001  0.4055339E+02  0.7546771E-02  0.1345273E+00
          2   -1    0    0  502    0  0.00000000000E+00  0.00000000000E+00  0.84058738175E+01  0.84058738175E+01  0.00000000000E+00 0.  1.
         -2   -1    0    0    0  501 -0.00000000000E+00 -0.00000000000E+00 -0.20468182949E+03  0.20468182949E+03  0.00000000000E+00 0. -1.
          1    1    1    2  502    0 -0.36301523637E+02 -0.18076977001E+02 -0.12052347170E+03  0.12716322167E+03  0.00000000000E+00 0.  1.
         -1    1    1    2    0  501  0.36301523637E+02  0.18076977001E+02 -0.75752483969E+02  0.85924481630E+02  0.00000000000E+00 0. -1.
</event>
<event>
 4    1  0.6740123E+001  0.2103887E+02  0.7546771E-02  0.1518711E+00
          2   -1    0    0  502    0  0.00000000000E+00  0.00000000000E+00  0.20586803082E+04  0.20586803082E+04  0.00000000000E+00 0.  1.
         -2   -1    0    0    0  501 -0.00000000000E+00 -0.00000000000E+00 -0.21626998007E+00  0.21626998007E+00  0.00000000000E+00 0. -1.
          1    1    1    2  502    0  0.14129667251E+02 -0.15588023150E+02  0.95061254831E+03  0.95084533493E+03  0.00000000000E+00 0. -1.
         -1    1    1    2    0  501 -0.14129667251E+02  0.15588023150E+02  0.11078514899E+04  0.11080512433E+04  0.00000000000E+00 0.  1.
</event>
<event>
 4    1  0.6740123E+001  0.2308663E+02  0.7546771E-02  0.1491413E+00
          2   -1    0    0  502    0  0.00000000000E+00  0.00000000000E+00  0.55933984665E+02  0.55933984665E+02  0.00000000000E+00 0.  1.
         -2   -1    0    0    0  501 -0.00000000000E+00 -0.00000000000E+00 -0.32104917207E+02  0.32104917207E+02  0.00000000000E+00 0. -1.
          1    1    1    2  502    0  0.10641529288E+02 -0.20487808111E+02  0.48827757725E+02  0.54010576291E+02  0.00000000000E+00 0.  1.
         -1    1    1    2    0  501 -0.10641529288E+02  0.20487808111E+02 -0.24998690267E+02  0.34028325581E+02  0.00000000000E+00 0. -1.
</event>
<event>
 4    1  0.6740123E+001  0.3557667E+02  0.7546771E-02  0.1376554E+00
          2   -1    0    0  502    0  0.00000000000E+00  0.00000000000E+00  0.17568736315E+03  0.17568736315E+03  0.00000000000E+00 0.  1.
         -2   -1    0    0    0  501 -0.00000000000E+00 -0.00000000000E+00 -0.74384527819E+01  0.74384527819E+01  0.00000000000E+00 0. -1.
          1    1    1    2  502    0  0.17597167203E+02 -0.30919885671E+02  0.10037071955E+03  0.10648934673E+03  0.00000000000E+00 0.  1.
         -1    1    1    2    0  501 -0.17597167203E+02  0.30919885671E+02  0.67878190822E+02  0.76636469208E+02  0.00000000000E+00 0. -1.
</event>
<event>
 4    1  0.6740123E+001  0.2641562E+02  0.7546771E-02  0.1453568E+00
          2   -1    0    0  502    0  0.00000000000E+00  0.00000000000E+00  0.60987447287E+03  0.60987447287E+03  0.00000000000E+00 0.  1.
         -2   -1    0    0    0  501 -0.00000000000E+00 -0.00000000000E+00 -0.18516281642E+01  0.18516281642E+01  0.00000000000E+00 0. -1.
          1    1    1    2  502    0 -0.50476648079E+01  0.25928865970E+02  0.49307509497E+03  0.49378217291E+03  0.00000000000E+00 0.  1.
         -1    1    1    2    0  501  0.50476648079E+01 -0.25928865970E+02  0.11494774974E+03  0.11794392812E+03  0.00000000000E+00 0. -1.
</event>
<event>
 4    1  0.6740123E+001  0.4219782E+02  0.7546771E-02  0.1336067E+00
          2   -1    0    0  502    0  0.00000000000E+00  0.00000000000E+00  0.72449527242E+03  0.72449527242E+03  0.00000000000E+00 0. -1.
         -2   -1    0    0    0  501 -0.00000000000E+00 -0.00000000000E+00 -0.63037258639E+01  0.63037258639E+01  0.00000000000E+00 0.  1.
          1    1    1    2  502    0  0.41224119384E+02 -0.90126509922E+01  0.64450657905E+03  0.64588651197E+03  0.00000000000E+00 0. -1.
         -1    1    1    2    0  501 -0.41224119384E+02  0.90126509922E+01  0.73684967508E+02  0.84912486323E+02  0.00000000000E+00 0.  1.
</event>
<event>
 4    1  0.6740123E+001  0.2388119E+02  0.7546771E-02  0.1481720E+00
          2   -1    0    0  502    0  0.00000000000E+00  0.00000000000E+00  0.11026580182E+03  0.11026580182E+03  0.00000000000E+00 0. -1.
         -2   -1    0    0    0  501 -0.00000000000E+00 -0.00000000000E+00 -0.90523605650E+01  0.90523605650E+01  0.00000000000E+00 0.  1.
          1    1    1    2  502    0 -0.84542208770E+01  0.22334664071E+02  0.11547516894E+02  0.26526519112E+02  0.00000000000E+00 0.  1.
         -1    1    1    2    0  501  0.84542208770E+01 -0.22334664071E+02  0.89665924365E+02  0.92791643277E+02  0.00000000000E+00 0. -1.
</event>
<event>
 4    1  0.6740123E+001  0.2242663E+02  0.7546771E-02  0.1499826E+00
          2   -1    0    0  502    0  0.00000000000E+00  0.00000000000E+00  0.67229125245E+03  0.67229125245E+03  0.00000000000E+00 0.  1.
         -2   -1    0    0    0  501 -0.00000000000E+00 -0.00000000000E+00 -0.96721776982E+00  0.96721776982E+00  0.00000000000E+00 0. -1.
          1    1    1    2  502    0  0.36338971860E+01  0.22130265303E+02  0.49587941697E+03  0.49638629114E+03  0.00000000000E+00 0.  1.
         -1    1    1    2    0  501 -0.36338971860E+01 -0.22130265303E+02  0.17544461771E+03  0.17687217909E+03  0.00000000000E+00 0. -1.
</event>
<event>
 4    1  0.6740123E+001  0.2461981E+02  0.7546771E-02  0.1473102E+00
          2   -1    0    0  502    0  0.00000000000E+00  0.00000000000E+00  0.90470998496E+01  0.90470998496E+01  0.00000000000E+00 0. -1.
         -2   -1    0    0    0  501 -0.00000000000E+00 -0.00000000000E+00 -0.84229807465E+02  0.84229807465E+02  0.00000000000E+00 0.  1.
          1    1    1    2  502    0  0.11570091231E+01  0.24592605855E+02 -0.58686394346E+02  0.63641400159E+02  0.00000000000E+00 0.  1.
         -1    1    1    2    0  501 -0.11570091231E+01 -0.24592605855E+02 -0.16496313269E+02  0.29635507155E+02  0.00000000000E+00 0. -1.
</event>
<event>
 4    1  0.6740123E+001  0.3432586E+02  0.7546771E-02  0.1385365E+00
          2   -1    0    0  502    0  0.00000000000E+00  0.00000000000E+00  0.13812952718E+03  0.13812952718E+03  0.00000000000E+00 0. -1.
         -2   -1    0    0    0  501 -0.00000000000E+00 -0.00000000000E+00 -0.87009041347E+01  0.87009041347E+01  0.00000000000E+00 0.  1.
          1    1    1    2  502    0  0.10478853822E+02  0.32687281585E+02  0.74999142439E+02  0.82481125850E+02  0.00000000000E+00 0.  1.
         -1    1    1    2    0  501 -0.10478853822E+02 -0.32687281585E+02  0.54429480609E+02  0.64349305468E+02  0.00000000000E+00 0. -1.
</event>
<event>
 4    1  0.6740123E+001  0.4633973E+02  0.7546771E-02  0.1314873E+00
          2   -1    0    0  502    0  0.00000000000E+00  0.00000000000E+00  0.12599211300E+04  0.12599211300E+04  0.00000000000E+00 0.  1.
         -2   -1    0    0    0  501 -0.00000000000E+00 -0.00000000000E+00 -0.21228125327E+01  0.21228125327E+01  0.00000000000E+00 0. -1.
          1    1    1    2  502    0  0.22579812318E+02 -0.40466315077E+02  0.34873855590E+03  0.35180385295E+03  0.00000000000E+00 0. -1.
         -1    1    1    2    0  501 -0.22579812318E+02  0.40466315077E+02  0.90905976153E+03  0.91024008955E+03  0.00000000000E+00 0.  1.
</event>
<event>
 4    1  0.6740123E+001  0.2135069E+02  0.7546771E-02  0.1514316E+00
          2   -1    0    0  502    0  0.00000000000E+00  0.00000000000E+00  0.15170349001E+04  0.15170349001E+04  0.00000000000E+00 0.  1.
         -2   -1    0    0    0  501 -0.00000000000E+00 -0.00000000000E+00 -0.12624651105E+01  0.12624651105E+01  0.00000000000E+00 0. -1.
          1    1    1    2  502    0 -0.26962188984E+01  0.21179766108E+02  0.95213142362E+02  0.97577633540E+02  0.00000000000E+00 0. -1.
         -1    1    1    2    0  501  0.26962188984E+01 -0.21179766108E+02  0.14205592926E+04  0.14207197316E+04  0.00000000000E+00 0.  1.
</event>
<event>
 4    1  0.6740123E+001  0.2362552E+02  0.7546771E-02  0.1484789E+00
          2   -1    0    0  502    0  0.00000000000E+00  0.00000000000E+00  0.41595411827E+01  0.41595411827E+01  0.00000000000E+00 0. -1.
         -2   -1    0    0    0  501 -0.00000000000E+00 -0.00000000000E+00 -0.13588645113E+03  0.13588645113E+03  0.00000000000E+00 0.  1.
          1    1    1    2  502    0  0.23110355474E+02  0.49068185171E+01 -0.58037651954E+02  0.62662065418E+02  0.00000000000E+00 0.  1.
         -1    1    1    2    0  501 -0.23110355474E+02 -0.49068185171E+01 -0.73689257998E+02  0.77383926899E+02  0.00000000000E+00 0. -1.
</event>
<event>
 4    1  0.6740123E+001  0.2636404E+02  0.7546771E-02  0.1454103E+00
          2   -1    0    0  502    0  0.00000000000E+00  0.00000000000E+00  0.10538363687E+03  0.10538363687E+03  0.00000000000E+00 0. -1.
         -2   -1    0    0    0  501 -0.00000000000E+00 -0.00000000000E+00 -0.65961643515E+01  0.65961643515E+01  0.00000000000E+00 0.  1.
          1    1    1    2  502    0 -0.21524208963E+02 -0.15224032113E+02  0.49935420405E+02  0.56467769004E+02  0.00000000000E+00 0. -1.
         -1    1    1    2    0  501  0.21524208963E+02  0.15224032113E+02  0.48852052118E+02  0.55512032222E+02  0.00000000000E+00 0.  1.
</event>
<event>
 4    1  0.6740123E+001  0.2740581E+02  0.7546771E-02  0.1443574E+00
          2   -1    0    0  502    0  0.00000000000E+00  0.00000000000E+00  0.18234325967E+02  0.18234325967E+02  0.00000000000E+00 0. -1.
         -2   -1    0    0    0  501 -0.00000000000E+00 -0.00000000000E+00 -0.42132040051E+02  0.42132040051E+02  0.00000000000E+00 0.  1.
          1    1    1    2  502    0 -0.24962030522E+02 -0.11312615369E+02 -0.16461315513E+02  0.31969565882E+02  0.00000000000E+00 0.  1.
         -1    1    1    2    0  501  0.24962030522E+02  0.11312615369E+02 -0.74363985710E+01  0.28396800136E+02  0.00000000000E+00 0. -1.
</event>
<event>
 4    1  0.6740123E+001  0.2067101E+02  0.7546771E-02  0.1524014E+00
          2   -1    0    0  502    0  0.00000000000E+00  0.00000000000E+00  0.76722647824E+01  0.76722647824E+01  0.00000000000E+00 0. -1.
         -2   -1    0    0    0  501 -0.00000000000E+00 -0.00000000000E+00 -0.60668108831E+02  0.60668108831E+02  0.00000000000E+00 0.  1.
          1    1    1    2  502    0 -0.11394491854E+02 -0.17246915301E+02 -0.16712634371E+02  0.26581999165E+02  0.00000000000E+00 0. -1.
         -1    1    1    2    0  501  0.11394491854E+02  0.17246915301E+02 -0.36283209678E+02  0.41758374448E+02  0.00000000000E+00 0.  1.
</event>
<event>
 4    1  0.6740123E+001  0.2904387E+02  0.7546771E-02  0.1428091E+00
          2   -1    0    0  502    0  0.00000000000E+00  0.00000000000E+00  0.86078638226E+03  0.86078638226E+03  0.00000000000E+00 0. -1.
         -2   -1    0    0    0  501 -0.00000000000E+00 -0.00000000000E+00 -0.10744194828E+01  0.10744194828E+01  0.00000000000E+00 0.  1.
          1    1    1    2  502    0  0.23225796255E+02  0.17438709971E+02  0.55762227184E+03  0.55837813735E+03  0.00000000000E+00 0. -1.
         -1    1    1    2    0  501 -0.23225796255E+02 -0.17438709971E+02  0.30208969093E+03  0.30348266439E+03  0.00000000000E+00 0.  1.
</event>
<event>
 4    1  0.6740123E+001  0.2296782E+02  0.7546771E-02  0.1492903E+00
          2   -1    0    0  502    0  0.00000000000E+00  0.00000000000E+00  0.18019588079E+02  0.18019588079E+02  0.00000000000E+00 0.  1.
         -2   -1    0    0    0  501 -0.00000000000E+00 -0.00000000000E+00 -0.40746747015E+02  0.40746747015E+02  0.00000000000E+00 0. -1.
          1    1    1    2  502    0 -0.17321972951E+02  0.15082103557E+02  0.42272747467E+01  0.23353596006E+02  0.00000000000E+00 0.  1.
         -1    1    1    2    0  501  0.17321972951E+02 -0.15082103557E+02 -0.26954433683E+02  0.35412739089E+02  0.00000000000E+00 0. -1.
</event>
<event>
 4    1  0.6740123E+001  0.2914887E+02  0.7546771E-02  0.1427140E+00
          2   -1    0    0  502    0  0.00000000000E+00  0.00000000000E+00  0.17839025315E+02  0.17839025315E+02  0.00000000000E+00 0. -1.
         -2   -1    0    0    0  501 -0.00000000000E+00 -0.00000000000E+00 -0.56622534599E+02  0.56622534599E+02  0.00000000000E+00 0.  1.
          1    1    1    2  502    0  0.24437612746E+02  0.15888981776E+02 -0.45539258407E+01  0.29502455816E+02  0.00000000000E+00 0. -1.
         -1    1    1    2    0  501 -0.24437612746E+02 -0.15888981776E+02 -0.34229583443E+02  0.44959104098E+02  0.00000000000E+00 0.  1.
</event>
<event>
 4    1  0.6740123E+001  0.2528614E+02  0.7546771E-02  0.1465628E+00
          2   -1    0    0  502    0  0.00000000000E+00  0.00000000000E+00  0.59287858567E+03  0.59287858567E+03  0.00000000000E+00 0. -1.
         -2   -1    0    0    0  501 -0.00000000000E+00 -0.00000000000E+00 -0.13179363878E+01  0.13179363878E+01  0.00000000000E+00 0.  1.
          1    1    1    2  502    0 -0.10741417728E+02 -0.22891279244E+02  0.16913326165E+03  0.17101300804E+03  0.00000000000E+00 0. -1.
         -1    1    1    2    0  501  0.10741417728E+02  0.22891279244E+02  0.42242738763E+03  0.42318351402E+03  0.00000000000E+00 0.  1.
</event>
<event>
 4    1  0.6740123E+001  0.2454910E+02  0.7546771E-02  0.1473911E+00
          2   -1    0    0  502    0  0.00000000000E+00  0.00000000000E+00  0.94804698591E+01  0.94804698591E+01  0.00000000000E+00 0.  1.
         -2   -1    0    0    0  501 -0.00000000000E+00 -0.00000000000E+00 -0.78536465121E+03  0.78536465121E+03  0.00000000000E+00 0. -1.
          1    1    1    2  502    0  0.24240637893E+02 -0.38793998105E+01 -0.76894136999E+03  0.76933314549E+03  0.00000000000E+00 0. -1.
         -1    1    1    2    0  501 -0.24240637893E+02  0.38793998105E+01 -0.69428113616E+01  0.25511975579E+02  0.00000000000E+00 0.  1.
</event>
<event>
 4    1  0.6740123E+001  0.4477816E+02  0.7546771E-02  0.1322552E+00
          2   -1    0    0  502    0  0.00000000000E+00  0.00000000000E+00  0.11448989978E+04  0.11448989978E+04  0.00000000000E+00 0.  1.
         -2   -1    0    0    0  501 -0.00000000000E+00 -0.00000000000E+00 -0.17514799166E+01  0.17514799166E+01  0.00000000000E+00 0. -1.
          1    1    1    2  502    0 -0.37356945427E+02  0.24688913234E+02  0.57706258193E+03  0.57879729377E+03  0.00000000000E+00 0. -1.
         -1    1    1    2    0  501  0.37356945427E+02 -0.24688913234E+02  0.56608493596E+03  0.56785318395E+03  0.00000000000E+00 0.  1.
</event>
<event>
 4    1  0.6740123E+001  0.2109655E+02  0.7546771E-02  0.1517891E+00
          2   -1    0    0  502    0  0.00000000000E+00  0.00000000000E+00  0.26513759332E+04  0.26513759332E+04  0.00000000000E+00 0.  1.
         -2   -1    0    0    0  501 -0.00000000000E+00 -0.00000000000E+00 -0.16982141467E+00  0.16982141467E+00  0.00000000000E+00 0. -1.
          1    1    1    2  502    0 -0.16724136112E+02 -0.12859540896E+02  0.14680218372E+04  0.14681734159E+04  0.00000000000E+00 0. -1.
         -1    1    1    2    0  501  0.16724136112E+02  0.12859540896E+02  0.11831842746E+04  0.11833723388E+04  0.00000000000E+00 0.  1.
</event>
<event>
 4    1  0.6740123E+001  0.2179510E+02  0.7546771E-02  0.1508209E+00
          2   -1    0    0  502    0  0.00000000000E+00  0.00000000000E+00  0.28051141043E+03  0.28051141043E+03  0.00000000000E+00 0.  1.
         -2   -1    0    0    0  501 -0.00000000000E+00 -0.00000000000E+00 -0.17080417576E+01  0.17080417576E+01  0.00000000000E+00 0. -1.
          1    1    1    2  502    0  0.14314456044E+02  0.16435407372E+02  0.12634995774E+03  0.12821598218E+03  0.00000000000E+00 0. -1.
         -1    1    1    2    0  501 -0.14314456044E+02 -0.16435407372E+02  0.15245341093E+03  0.15400347000E+03  0.00000000000E+00 0.  1.
</event>
<event>
 4    1  0.6740123E+001  0.4893937E+02  0.7546771E-02  0.1302838E+00
          2   -1    0    0  502    0  0.00000000000E+00  0.00000000000E+00  0.25061500595E+03  0.25061500595E+03  0.00000000000E+00 0. -1.
         -2   -1    0    0    0  501 -0.00000000000E+00 -0.00000000000E+00 -0.59995776227E+02  0.59995776227E+02  0.00000000000E+00 0.  1.
          1    1    1    2  502    0 -0.16267329197E+02  0.46156645888E+02  0.23770948444E+03  0.24269499573E+03  0.00000000000E+00 0. -1.
         -1    1    1    2    0  501  0.16267329197E+02 -0.46156645888E+02 -0.47090254720E+02  0.67915786445E+02  0.00000000000E+00 0.  1.
</event>
<event>
 4    1  0.6740123E+001  0.2439073E+02  0.7546771E-02  0.1475736E+00
          2   -1    0    0  502    0  0.00000000000E+00  0.00000000000E+00  0.24145920303E+02  0.24145920303E+02  0.00000000000E+00 0. -1.
         -2   -1    0    0    0  501 -0.00000000000E+00 -0.00000000000E+00 -0.42140068319E+02  0.42140068319E+02  0.00000000000E+00 0.  1.
          1    1    1    2  502    0 -0.71378763641E+01 -0.23322919557E+02 -0.30356445393E+02  0.38941258744E+02  0.00000000000E+00 0.  1.
         -1    1    1    2    0  501  0.71378763641E+01  0.23322919557E+02  0.12362297377E+02  0.27344729878E+02  0.00000000000E+00 0. -1.
</event>
<event>
 4    1  0.6740123E+001  0.9073768E+02  0.7546771E-02  0.1180904E+00
          2   -1    0    0  502    0  0.00000000000E+00  0.00000000000E+00  0.12138861813E+04  0.12138861813E+04  0.00000000000E+00 0.  1.
         -2   -1    0    0    0  501 -0.00000000000E+00 -0.00000000000E+00 -0.93708657896E+01  0.93708657896E+01  0.00000000000E+00 0. -1.
          1    1    1    2  502    0  0.60435335118E+02 -0.67682319365E+02  0.92369831692E+03  0.92814433509E+03  0.00000000000E+00 0.  1.
         -1    1    1    2    0  501 -0.60435335118E+02  0.67682319365E+02  0.28081699863E+03  0.29511271203E+03  0.00000000000E+00 0. -1.
</event>
<event>
 4    1  0.6740123E+001  0.2733033E+02  0.7546771E-02  0.1444318E+00
          2   -1    0    0  502    0  0.00000000000E+00  0.00000000000E+00  0.10204250962E+04  0.10204250962E+04  0.00000000000E+00 0.  1.
         -2   -1    0    0    0  501 -0.00000000000E+00 -0.00000000000E+00 -0.76518901643E+00  0.76518901643E+00  0.00000000000E+00 0. -1.
          1    1    1    2  502    0  0.24012933415E+02 -0.13050897485E+02  0.61617491271E+03  0.61678073085E+03  0.00000000000E+00 0.  1.
         -1    1    1    2    0  501 -0.24012933415E+02  0.13050897485E+02  0.40348499442E+03  0.40440955431E+03  0.00000000000E+00 0. -1.
</event>
<event>
 4    1  0.6740123E+001  0.2187632E+02  0.7546771E-02  0.1507112E+00
          2   -1    0    0  502    0  0.00000000000E+00  0.00000000000E+00  0.94653100713E+03  0.94653100713E+03  0.00000000000E+00 0. -1.
         -2   -1    0    0    0  501 -0.00000000000E+00 -0.00000000000E+00 -0.58819086200E+00  0.58819086200E+00  0.00000000000E+00 0.  1.
          1    1    1    2  502    0  0.21598226967E+02 -0.34770497125E+01  0.65041547842E+03  0.65078327256E+03  0.00000000000E+00 0. -1.
         -1    1    1    2    0  501 -0.21598226967E+02  0.34770497125E+01  0.29552733785E+03  0.29633592542E+03  0.00000000000E+00 0.  1.
</event>
<event>
 4    1  0.6740123E+001  0.2034522E+02  0.7546771E-02  0.1528822E+00
          2   -1    0    0  502    0  0.00000000000E+00  0.00000000000E+00  0.19321243301E+04  0.19321243301E+04  0.00000000000E+00 0.  1.
         -2   -1    0    0    0  501 -0.00000000000E+00 -0.00000000000E+00 -0.30623535229E+00  0.30623535229E+00  0.00000000000E+00 0. -1.
          1    1    1    2  502    0 -0.13294670467E+01  0.20301733037E+02  0.43631636773E+03  0.43679045387E+03  0.00000000000E+00 0. -1.
         -1    1    1    2    0  501  0.13294670467E+01 -0.20301733037E+02  0.14955017270E+04  0.14956401115E+04  0.00000000000E+00 0.  1.
</event>
<event>
 4    1  0.6740123E+001  0.2138968E+02  0.7546771E-02  0.1513773E+00
          2   -1    0    0  502    0  0.00000000000E+00  0.00000000000E+00  0.98692328758E+03  0.98692328758E+03  0.00000000000E+00 0. -1.
         -2   -1    0    0    0  501 -0.00000000000E+00 -0.00000000000E+00 -0.55845944647E+00  0.55845944647E+00  0.00000000000E+00 0.  1.
          1    1    1    2  502    0 -0.20969362848E+02  0.42194922275E+01  0.28967116733E+03  0.29045981387E+03  0.00000000000E+00 0.  1.
         -1    1    1    2    0  501  0.20969362848E+02 -0.42194922275E+01  0.69669366080E+03  0.69702193315E+03  0.00000000000E+00 0. -1.
</event>
<event>
 4    1  0.6740123E+001  0.2086159E+02  0.7546771E-02  0.1521250E+00
          2   -1    0    0  502    0  0.00000000000E+00  0.00000000000E+00  0.18787873658E+01  0.18787873658E+01  0.00000000000E+00 0. -1.
         -2   -1    0    0    0  501 -0.00000000000E+00 -0.00000000000E+00 -0.46246744717E+03  0.46246744717E+03  0.00000000000E+00 0.  1.
          1    1    1    2  502    0 -0.19616831773E+02 -0.70983034856E+01 -0.66268130541E+02  0.69474247939E+02  0.00000000000E+00 0. -1.
         -1    1    1    2    0  501  0.19616831773E+02  0.70983034856E+01 -0.39432052927E+03  0.39487198660E+03  0.00000000000E+00 0.  1.
</event>
<event>
 4    1  0.6740123E+001  0.2066707E+02  0.7546771E-02  0.1524072E+00
          2   -1    0    0  502    0  0.00000000000E+00  0.00000000000E+00  0.12690294330E+04  0.12690294330E+04  0.00000000000E+00 0.  1.
         -2   -1    0    0    0  501 -0.00000000000E+00 -0.00000000000E+00 -0.35207570351E+00  0.35207570351E+00  0.00000000000E+00 0. -1.
          1    1    1    2  502    0 -0.11366220616E+02 -0.17260850714E+02  0.50117930434E+03  0.50160524622E+03  0.00000000000E+00 0. -1.
         -1    1    1    2    0  501  0.11366220616E+02  0.17260850714E+02  0.76749805296E+03  0.76777626248E+03  0.00000000000E+00 0.  1.
</event>
<event>
 4    1  0.6740123E+001  0.2021305E+02  0.7546771E-02  0.1530803E+00
          2   -1    0    0  502    0  0.00000000000E+00  0.00000000000E+00  0.95988575880E+03  0.95988575880E+03  0.00000000000E+00 0. -1.
         -2   -1    0    0    0  501 -0.00000000000E+00 -0.00000000000E+00 -0.55486925524E+00  0.55486925524E+00  0.00000000000E+00 0.  1.
          1    1    1    2  502    0  0.34740756276E+01  0.19912260345E+02  0.71141714177E+03  0.71170423415E+03  0.00000000000E+00 0. -1.
         -1    1    1    2    0  501 -0.34740756276E+01 -0.19912260345E+02  0.24791374778E+03  0.24873639390E+03  0.00000000000E+00 0.  1.
</event>
<event>
 4    1  0.6740123E+001  0.3421810E+02  0.7546771E-02  0.1386145E+00
          2   -1    0    0  502    0  0.00000000000E+00  0.00000000000E+00  0.10057462275E+01  0.10057462275E+01  0.00000000000E+00 0.  1.
         -2   -1    0    0    0  501 -0.00000000000E+00 -0.00000000000E+00 -0.21491439038E+04  0.21491439038E+04  0.00000000000E+00 0. -1.
          1    1    1    2  502    0  0.12023452194E+02 -0.32036148167E+02 -0.34626543161E+03  0.34795204745E+03  0.00000000000E+00 0.  1.
         -1    1    1    2    0  501 -0.12023452194E+02  0.32036148167E+02 -0.18018727260E+04  0.18021976026E+04  0.00000000000E+00 0. -1.
</event>
<event>
 4    1  0.6740123E+001  0.2582913E+02  0.7546771E-02  0.1459738E+00
          2   -1    0    0  502    0  0.00000000000E+00  0.00000000000E+00  0.43754183208E+03  0.43754183208E+03  0.00000000000E+00 0. -1.
         -2   -1    0    0    0  501 -0.00000000000E+00 -0.00000000000E+00 -0.15498770024E+01  0.15498770024E+01  0.00000000000E+00 0.  1.
          1    1    1    2  502    0  0.53440472118E+01  0.25270236819E+02  0.19004407394E+03  0.19179127652E+03  0.00000000000E+00 0.  1.
         -1    1    1    2    0  501 -0.53440472118E+01 -0.25270236819E+02  0.24594788115E+03  0.24730043257E+03  0.00000000000E+00 0. -1.
</event>
<event>
 4    1  0.6740123E+001  0.3433530E+02  0.7546771E-02  0.1385297E+00
          2   -1    0    0  502    0  0.00000000000E+00  0.00000000000E+00  0.21023146634E+04  0.21023146634E+04  0.00000000000E+00 0.  1.
         -2   -1    0    0    0  501 -0.00000000000E+00 -0.00000000000E+00 -0.10489693222E+01  0.10489693222E+01  0.00000000000E+00 0. -1.
          1    1    1    2  502    0  0.30877495503E+02  0.15016419430E+02  0.17681000743E+04  0.17684334269E+04  0.00000000000E+00 0.  1.
         -1    1    1    2    0  501 -0.30877495503E+02 -0.15016419430E+02  0.33316561984E+03  0.33493020590E+03  0.00000000000E+00 0. -1.
</event>
<event>
 4    1  0.6740123E+001  0.2583635E+02  0.7546771E-02  0.1459661E+00
          2   -1    0    0  502    0  0.00000000000E+00  0.00000000000E+00  0.82843415882E+03  0.82843415882E+03  0.00000000000E+00 0.  1.
         -2   -1    0    0    0  501 -0.00000000000E+00 -0.00000000000E+00 -0.13663396989E+01  0.13663396989E+01  0.00000000000E+00 0. -1.
          1    1    1    2  502    0 -0.16584425009E+02 -0.19810955617E+02  0.14777736587E+03  0.15001888874E+03  0.00000000000E+00 0. -1.
         -1    1    1    2    0  501  0.16584425009E+02  0.19810955617E+02  0.67929045325E+03  0.67978160978E+03  0.00000000000E+00 0.  1.
</event>
<event>
 4    1  0.6740123E+001  0.2087943E+02  0.7546771E-02  0.1520993E+00
          2   -1    0    0  502    0  0.00000000000E+00  0.00000000000E+00  0.73054951605E+03  0.73054951605E+03  0.00000000000E+00 0.  1.
         -2   -1    0    0    0  501 -0.00000000000E+00 -0.00000000000E+00 -0.61788830970E+00  0.61788830970E+00  0.00000000000E+00 0. -1.
          1    1    1    2  502    0 -0.81986674295E+00 -0.20863328584E+02  0.43259496327E+03  0.43309854872E+03  0.00000000000E+00 0. -1.
         -1    1    1    2    0  501  0.81986674295E+00  0.20863328584E+02  0.29733666447E+03  0.29806885564E+03  0.00000000000E+00 0.  1.
</event>
<event>
 4    1  0.6740123E+001  0.2720692E+02  0.7546771E-02  0.1445541E+00
          2   -1    0    0  502    0  0.00000000000E+00  0.00000000000E+00  0.10532906892E+04  0.10532906892E+04  0.00000000000E+00 0. -1.
         -2   -1    0    0    0  501 -0.00000000000E+00 -0.00000000000E+00 -0.91369081875E+00  0.91369081875E+00  0.00000000000E+00 0.  1.
          1    1    1    2  502    0  0.19697966221E+02  0.18767162958E+02  0.27293256841E+03  0.27428525877E+03  0.00000000000E+00 0.  1.
         -1    1    1    2    0  501 -0.19697966221E+02 -0.18767162958E+02  0.77944442995E+03  0.77991912123E+03  0.00000000000E+00 0. -1.
</event>
<event>
 4    1  0.6740123E+001  0.2922855E+02  0.7546771E-02  0.1426421E+00
          2   -1    0    0  502    0  0.00000000000E+00  0.00000000000E+00  0.96349641864E+01  0.96349641864E+01  0.00000000000E+00 0.  1.
         -2   -1    0    0    0  501 -0.00000000000E+00 -0.00000000000E+00 -0.11424647517E+03  0.11424647517E+03  0.00000000000E+00 0. -1.
          1    1    1    2  502    0  0.18864228442E+02  0.22325978141E+02 -0.81614432289E+02  0.86690391466E+02  0.00000000000E+00 0. -1.
         -1    1    1    2    0  501 -0.18864228442E+02 -0.22325978141E+02 -0.22997078695E+02  0.37191047890E+02  0.00000000000E+00 0.  1.
</event>
<event>
 4    1  0.6740123E+001  0.3340717E+02  0.7546771E-02  0.1392121E+00
          2   -1    0    0  502    0  0.00000000000E+00  0.00000000000E+00  0.39917010936E+03  0.39917010936E+03  0.00000000000E+00 0. -1.
         -2   -1    0    0    0  501 -0.00000000000E+00 -0.00000000000E+00 -0.51927369475E+01  0.51927369475E+01  0.00000000000E+00 0.  1.
          1    1    1    2  502    0  0.21938620979E+02 -0.25193960591E+02  0.59627967998E+02  0.68348615994E+02  0.00000000000E+00 0.  1.
         -1    1    1    2    0  501 -0.21938620979E+02  0.25193960591E+02  0.33434940442E+03  0.33601423032E+03  0.00000000000E+00 0. -1.
</event>
<event>
 4    1  0.6740123E+001  0.2602782E+02  0.7546771E-02  0.1457626E+00
          2   -1    0    0  502    0  0.00000000000E+00  0.00000000000E+00  0.35590919930E+03  0.35590919930E+03  0.00000000000E+00 0.  1.
         -2   -1    0    0    0  501 -0.00000000000E+00 -0.00000000000E+00 -0.22890594447E+01  0.22890594447E+01  0.00000000000E+00 0. -1.
          1    1    1    2  502    0  0.13892987459E+02  0.22009820258E+02  0.10329920211E+03  0.10652780128E+03  0.00000000000E+00 0. -1.
         -1    1    1    2    0  501 -0.13892987459E+02 -0.22009820258E+02  0.25032093775E+03  0.25167045747E+03  0.00000000000E+00 0.  1.
</event>
<event>
 4    1  0.6740123E+001  0.3021710E+02  0.7546771E-02  0.1417719E+00
          2   -1    0    0  502    0  0.00000000000E+00  0.00000000000E+00  0.14238121613E+02  0.14238121613E+02  0.00000000000E+00 0.  1.
         -2   -1    0    0    0  501 -0.00000000000E+00 -0.00000000000E+00 -0.31505719414E+03  0.31505719414E+03  0.00000000000E+00 0. -1.
          1    1    1    2  502    0 -0.15751308964E+02  0.25787001728E+02 -0.34709732229E+01  0.30415799304E+02  0.00000000000E+00 0.  1.
         -1    1    1    2    0  501  0.15751308964E+02 -0.25787001728E+02 -0.29734809931E+03  0.29887951645E+03  0.00000000000E+00 0. -1.
</event>
<event>
 4    1  0.6740123E+001  0.3110370E+02  0.7546771E-02  0.1410242E+00
          2   -1    0    0  502    0  0.00000000000E+00  0.00000000000E+00  0.46167768605E+03  0.46167768605E+03  0.00000000000E+00 0.  1.
         -2   -1    0    0    0  501 -0.00000000000E+00 -0.00000000000E+00 -0.25172017254E+01  0.25172017254E+01  0.00000000000E+00 0. -1.
          1    1    1    2  502    0 -0.71226646176E+01  0.30277185270E+02  0.13458104426E+03  0.13812855524E+03  0.00000000000E+00 0. -1.
         -1    1    1    2    0  501  0.71226646176E+01 -0.30277185270E+02  0.32457944006E+03  0.32606633253E+03  0.00000000000E+00 0.  1.
</event>
<event>
 4    1  0.6740123E+001  0.2399778E+02  0.7546771E-02  0.1480335E+00
          2   -1    0    0  502    0  0.00000000000E+00  0.00000000000E+00  0.69109190978E+01  0.69109190978E+01  0.00000000000E+00 0.  1.
         -2   -1    0    0    0  501 -0.00000000000E+00 -0.00000000000E+00 -0.23965276409E+03  0.23965276409E+03  0.00000000000E+00 0. -1.
          1    1    1    2  502    0  0.23907305682E+02 -0.20818526761E+01 -0.16803399974E+02  0.29295863637E+02  0.00000000000E+00 0.  1.
         -1    1    1    2    0  501 -0.23907305682E+02  0.20818526761E+01 -0.21593844502E+03  0.21726781955E+03  0.00000000000E+00 0. -1.
</event>
<event>
 4    1  0.6740123E+001  0.2171319E+02  0.7546771E-02  0.1509321E+00
          2   -1    0    0  502    0  0.00000000000E+00  0.00000000000E+00  0.61204884305E+03  0.61204884305E+03  0.00000000000E+00 0.  1.
         -2   -1    0    0    0  501 -0.00000000000E+00 -0.00000000000E+00 -0.10744303293E+01  0.10744303293E+01  0.00000000000E+00 0. -1.
          1    1    1    2  502    0 -0.62231718721E+01  0.20802277621E+02  0.14238609848E+03  0.14403216191E+03  0.00000000000E+00 0. -1.
         -1    1    1    2    0  501  0.62231718721E+01 -0.20802277621E+02  0.46858831424E+03  0.46909111147E+03  0.00000000000E+00 0.  1.
</event>
<event>
 4    1  0.6740123E+001  0.1172451E+03  0.7546771E-02  0.1136882E+00
          2   -1    0    0  502    0  0.00000000000E+00  0.00000000000E+00  0.12267331264E+04  0.12267331264E+04  0.00000000000E+00 0.  1.
         -2   -1    0    0    0  501 -0.00000000000E+00 -0.00000000000E+00 -0.11587902746E+02  0.11587902746E+02  0.00000000000E+00 0. -1.
          1    1    1    2  502    0  0.11167152481E+03 -0.35719579753E+02  0.72001784438E+03  0.72950127762E+03  0.00000000000E+00 0.  1.
         -1    1    1    2    0  501 -0.11167152481E+03  0.35719579753E+02  0.49512737930E+03  0.50881975155E+03  0.00000000000E+00 0. -1.
</event>
<event>
 4    1  0.6740123E+001  0.2592786E+02  0.7546771E-02  0.1458686E+00
          2   -1    0    0  502    0  0.00000000000E+00  0.00000000000E+00  0.94375284890E+01  0.94375284890E+01  0.00000000000E+00 0. -1.
         -2   -1    0    0    0  501 -0.00000000000E+00 -0.00000000000E+00 -0.11538285676E+03  0.11538285676E+03  0.00000000000E+00 0.  1.
          1    1    1    2  502    0  0.20276946055E+02 -0.16158573900E+02 -0.91578631155E+02  0.95178252432E+02  0.00000000000E+00 0.  1.
         -1    1    1    2    0  501 -0.20276946055E+02  0.16158573900E+02 -0.14366697112E+02  0.29642132813E+02  0.00000000000E+00 0. -1.
</event>
<event>
 4    1  0.6740123E+001  0.2118346E+02  0.7546771E-02  0.1516662E+00
          2   -1    0    0  502    0  0.00000000000E+00  0.00000000000E+00  0.19425889628E+04  0.19425889628E+04  0.00000000000E+00 0. -1.
         -2   -1    0    0    0  501 -0.00000000000E+00 -0.00000000000E+00 -0.29590038420E+00  0.29590038420E+00  0.00000000000E+00 0.  1.
          1    1    1    2  502    0 -0.11283689991E+02  0.17928109951E+02  0.14260996756E+04  0.14262569978E+04  0.00000000000E+00 0. -1.
         -1    1    1    2    0  501  0.11283689991E+02 -0.17928109951E+02  0.51619338674E+03  0.51662786539E+03  0.00000000000E+00 0.  1.
</event>
<event>
 4    1  0.6740123E+001  0.3668358E+02  0.7546771E-02  0.1369098E+00
          2   -1    0    0  502    0  0.00000000000E+00  0.00000000000E+00  0.47493719576E+02  0.47493719576E+02  0.00000000000E+00 0. -1.
         -2   -1    0    0    0  501 -0.00000000000E+00 -0.00000000000E+00 -0.53302672997E+02  0.53302672997E+02  0.00000000000E+00 0.  1.
          1    1    1    2  502    0  0.27754752512E+02  0.23986634455E+02  0.31589131047E+02  0.48410310057E+02  0.00000000000E+00 0. -1.
         -1    1    1    2    0  501 -0.27754752512E+02 -0.23986634455E+02 -0.37398084469E+02  0.52386082516E+02  0.00000000000E+00 0.  1.
</event>
<event>
 4    1  0.6740123E+001  0.3093572E+02  0.7546771E-02  0.1411635E+00
          2   -1    0    0  502    0  0.00000000000E+00  0.00000000000E+00  0.89779072113E+02  0.89779072113E+02  0.00000000000E+00 0.  1.
         -2   -1    0    0    0  501 -0.00000000000E+00 -0.00000000000E+00 -0.15880551496E+02  0.15880551496E+02  0.00000000000E+00 0. -1.
          1    1    1    2  502    0  0.12675133012E+02  0.28219847189E+02  0.67240466981E+02  0.74015533316E+02  0.00000000000E+00 0.  1.
         -1    1    1    2    0  501 -0.12675133012E+02 -0.28219847189E+02  0.66580536354E+01  0.31644090292E+02  0.00000000000E+00 0. -1.
</event>
<event>
 4    1  0.6740123E+001  0.1993735E+03  0.7546771E-02  0.1055581E+00
          2   -1    0    0  502    0  0.00000000000E+00  0.00000000000E+00  0.32240145968E+04  0.32240145968E+04  0.00000000000E+00 0. -1.
         -2   -1    0    0    0  501 -0.00000000000E+00 -0.00000000000E+00 -0.13588749688E+02  0.13588749688E+02  0.00000000000E+00 0.  1.
          1    1    1    2  502    0  0.11126905761E+03 -0.16543577799E+03  0.20980423428E+04  0.21074941215E+04  0.00000000000E+00 0. -1.
         -1    1    1    2    0  501 -0.11126905761E+03  0.16543577799E+03  0.11123835043E+04  0.11301092250E+04  0.00000000000E+00 0.  1.
</event>
<event>
 4    1  0.6740123E+001  0.2136545E+02  0.7546771E-02  0.1514111E+00
          2   -1    0    0  502    0  0.00000000000E+00  0.00000000000E+00  0.44025705139E+03  0.44025705139E+03  0.00000000000E+00 0. -1.
         -2   -1    0    0    0  501 -0.00000000000E+00 -0.00000000000E+00 -0.22772355086E+01  0.22772355086E+01  0.00000000000E+00 0.  1.
          1    1    1    2  502    0 -0.61554122592E+01  0.20459556244E+02  0.38229152867E+03  0.38288809780E+03  0.00000000000E+00 0. -1.
         -1    1    1    2    0  501  0.61554122592E+01 -0.20459556244E+02  0.55688287211E+02  0.59646189101E+02  0.00000000000E+00 0.  1.
</event>
<event>
 4    1  0.6740123E+001  0.2358249E+02  0.7546771E-02  0.1485310E+00
          2   -1    0    0  502    0  0.00000000000E+00  0.00000000000E+00  0.23836597150E+01  0.23836597150E+01  0.00000000000E+00 0.  1.
         -2   -1    0    0    0  501 -0.00000000000E+00 -0.00000000000E+00 -0.24752894115E+03  0.24752894115E+03  0.00000000000E+00 0. -1.
          1    1    1    2  502    0  0.15815732510E+02 -0.17492755160E+02 -0.92624869376E+02  0.95579811178E+02  0.00000000000E+00 0.  1.
         -1    1    1    2    0  501 -0.15815732510E+02  0.17492755160E+02 -0.15252041206E+03  0.15433278969E+03  0.00000000000E+00 0. -1.
</event>
