<event>
 4    1  0.3372301E+006  0.3084333E+02  0.7546771E-02  0.1412407E+00
         21   -1    0    0  503  501  0.00000000000E+00  0.00000000000E+00  0.85065994230E+02  0.85065994230E+02  0.00000000000E+00 0. -1.
         21   -1    0    0  504  502 -0.00000000000E+00 -0.00000000000E+00 -0.13661297411E+02  0.13661297411E+02  0.00000000000E+00 0. -1.
         21    1    1    2  503  502  0.30750329053E+02  0.23933303708E+01  0.14678138750E+02  0.34157847184E+02  0.00000000000E+00 0. -1.
         21    1    1    2  504  501 -0.30750329053E+02 -0.23933303708E+01  0.56726558069E+02  0.64569444457E+02  0.00000000000E+00 0. -1.
</event>
<event>
 4    1  0.3372301E+006  0.2831135E+02  0.7546771E-02  0.1434862E+00
         21   -1    0    0  504  501  0.00000000000E+00  0.00000000000E+00  0.39986361316E+02  0.39986361316E+02  0.00000000000E+00 0.  1.
         21   -1    0    0  503  502 -0.00000000000E+00 -0.00000000000E+00 -0.29041109586E+02  0.29041109586E+02  0.00000000000E+00 0.  1.
         21    1    1    2  503  501  0.10905266757E+01  0.28290335838E+02  0.24681825412E+02  0.37559617356E+02  0.00000000000E+00 0.  1.
         21    1    1    2  504  502 -0.10905266757E+01 -0.28290335838E+02 -0.13736573682E+02  0.31467853546E+02  0.00000000000E+00 0.  1.
</event>
<event>
 4    1  0.3372301E+006  0.3246350E+02  0.7546771E-02  0.1399330E+00
         21   -1    0    0  503  501  0.00000000000E+00  0.00000000000E+00  0.19545669039E+03  0.19545669039E+03  0.00000000000E+00 0. -1.
         21   -1    0    0  504  502 -0.00000000000E+00 -0.00000000000E+00 -0.21559190493E+02  0.21559190493E+02  0.00000000000E+00 0. -1.
         21    1    1    2  503  502  0.63108960806E+00 -0.32457364416E+02  0.18091333526E+03  0.18380292069E+03  0.00000000000E+00 0. -1.
         21    1    1    2  504  501 -0.63108960806E+00  0.32457364416E+02 -0.70158353631E+01  0.33212960193E+02  0.00000000000E+00 0. -1.
</event>
<event>
 4    1  0.3372301E+006  0.3552744E+02  0.7546771E-02  0.1376893E+00
         21   -1    0    0  502  501  0.00000000000E+00  0.00000000000E+00  0.11538416982E+03  0.11538416982E+03  0.00000000000E+00 0. -1.
         21   -1    0    0  504  502 -0.00000000000E+00 -0.00000000000E+00 -0.39324721836E+02  0.39324721836E+02  0.00000000000E+00 0.  1.
         21    1    1    2  503  501  0.22090470094E+02  0.27824628246E+02  0.10375034626E+03  0.10966463949E+03  0.00000000000E+00 0. -1.
         21    1    1    2  504  503 -0.22090470094E+02 -0.27824628246E+02 -0.27690898273E+02  0.45044252166E+02  0.00000000000E+00 0.  1.
</event>
<event>
 4    1  0.3372301E+006  0.3439815E+02  0.7546771E-02  0.1384844E+00
         21   -1    0    0  504  501  0.00000000000E+00  0.00000000000E+00  0.35433308586E+03  0.35433308586E+03  0.00000000000E+00 0. -1.
         21   -1    0    0  503  502 -0.00000000000E+00 -0.00000000000E+00 -0.73772869249E+01  0.73772869249E+01  0.00000000000E+00 0. -1.
         21    1    1    2  503  501  0.63619406980E+01  0.33804714721E+02  0.39675535564E+02  0.52510771743E+02  0.00000000000E+00 0. -1.
         21    1    1    2  504  502 -0.63619406980E+01 -0.33804714721E+02  0.30728026338E+03  0.30919960105E+03  0.00000000000E+00 0. -1.
</event>
<event>
 4    1  0.3372301E+006  0.2203414E+02  0.7546771E-02  0.1504996E+00
         21   -1    0    0  503  501  0.00000000000E+00  0.00000000000E+00  0.52018860459E+02  0.52018860459E+02  0.00000000000E+00 0. -1.
         21   -1    0    0  504  502 -0.00000000000E+00 -0.00000000000E+00 -0.13174848079E+03  0.13174848079E+03  0.00000000000E+00 0. -1.
         21    1    1    2  503  502  0.20731013730E+02  0.74651328692E+01  0.48704511932E+02  0.53456829513E+02  0.00000000000E+00 0. -1.
         21    1    1    2  504  501 -0.20731013730E+02 -0.74651328692E+01 -0.12843413226E+03  0.13031051174E+03  0.00000000000E+00 0. -1.
</event>
<event>
 4    1  0.3372301E+006  0.2140804E+02  0.7546771E-02  0.1513518E+00
         21   -1    0    0  504  501  0.00000000000E+00  0.00000000000E+00  0.66617640818E+01  0.66617640818E+01  0.00000000000E+00 0. -1.
         21   -1    0    0  503  502 -0.00000000000E+00 -0.00000000000E+00 -0.22624415483E+03  0.22624415483E+03  0.00000000000E+00 0. -1.
         21    1    1    2  503  501  0.99566537438E+01  0.18951761878E+02 -0.12643987933E+02  0.24863118527E+02  0.00000000000E+00 0. -1.
         21    1    1    2  504  502 -0.99566537438E+01 -0.18951761878E+02 -0.20693840281E+03  0.20804280038E+03  0.00000000000E+00 0. -1.
</event>
<event>
 4    1  0.3372301E+006  0.2147136E+02  0.7546771E-02  0.1512640E+00
         21   -1    0    0  503  501  0.00000000000E+00  0.00000000000E+00  0.77581933533E+02  0.77581933533E+02  0.00000000000E+00 0. -1.
         21   -1    0    0  501  502 -0.00000000000E+00 -0.00000000000E+00 -0.81141603996E+02  0.81141603996E+02  0.00000000000E+00 0.  1.
         21    1    1    2  503  504  0.40688639300E+01  0.21082311391E+02  0.74620680743E+02  0.77648345133E+02  0.00000000000E+00 0. -1.
         21    1    1    2  504  502 -0.40688639300E+01 -0.21082311391E+02 -0.78180351206E+02  0.81075192396E+02  0.00000000000E+00 0.  1.
</event>
<event>
 4    1  0.3372301E+006  0.2210197E+02  0.7546771E-02  0.1504094E+00
         21   -1    0    0  504  501  0.00000000000E+00  0.00000000000E+00  0.30627845927E+02  0.30627845927E+02  0.00000000000E+00 0. -1.
         21   -1    0    0  503  502 -0.00000000000E+00 -0.00000000000E+00 -0.17876362752E+02  0.17876362752E+02  0.00000000000E+00 0. -1.
         21    1    1    2  503  501  0.34667493791E+01 -0.21828387821E+02  0.14338113520E+02  0.26345367059E+02  0.00000000000E+00 0. -1.
         21    1    1    2  504  502 -0.34667493791E+01  0.21828387821E+02 -0.15866303448E+01  0.22158841621E+02  0.00000000000E+00 0. -1.
</event>
<event>
 4    1  0.3372301E+006  0.3410453E+02  0.7546771E-02  0.1386970E+00
         21   -1    0    0  502  501  0.00000000000E+00  0.00000000000E+00  0.22799338452E+02  0.22799338452E+02  0.00000000000E+00 0.  1.
         21   -1    0    0  503  502 -0.00000000000E+00 -0.00000000000E+00 -0.20275950228E+03  0.20275950228E+03  0.00000000000E+00 0. -1.
         21    1    1    2  503  504  0.34061445537E+02  0.17137319882E+01 -0.18754530934E+03  0.19062099046E+03  0.00000000000E+00 0. -1.
         21    1    1    2  504  501 -0.34061445537E+02 -0.17137319882E+01  0.75851455081E+01  0.34937850274E+02  0.00000000000E+00 0.  1.
</event>
<event>
 4    1  0.3372301E+006  0.2000765E+02  0.7546771E-02  0.1533919E+00
         21   -1    0    0  502  501  0.00000000000E+00  0.00000000000E+00  0.17652634927E+03  0.17652634927E+03  0.00000000000E+00 0. -1.
         21   -1    0    0  503  502 -0.00000000000E+00 -0.00000000000E+00 -0.92297157277E+02  0.92297157277E+02  0.00000000000E+00 0. -1.
         21    1    1    2  503  504  0.19328553476E+02  0.51684846409E+01 -0.90635680700E+02  0.92817739839E+02  0.00000000000E+00 0. -1.
         21    1    1    2  504  501 -0.19328553476E+02 -0.51684846409E+01  0.17486487269E+03  0.17600576671E+03  0.00000000000E+00 0. -1.
</event>
<event>
 4    1  0.3372301E+006  0.2744870E+02  0.7546771E-02  0.1443152E+00
         21   -1    0    0  504  501  0.00000000000E+00  0.00000000000E+00  0.28188079606E+02  0.28188079606E+02  0.00000000000E+00 0.  1.
         21   -1    0    0  503  502 -0.00000000000E+00 -0.00000000000E+00 -0.32725076256E+02  0.32725076256E+02  0.00000000000E+00 0.  1.
         21    1    1    2  503  501 -0.23213551680E+02 -0.14647948937E+02  0.10768702433E+02  0.29485527666E+02  0.00000000000E+00 0.  1.
         21    1    1    2  504  502  0.23213551680E+02  0.14647948937E+02 -0.15305699082E+02  0.31427628196E+02  0.00000000000E+00 0.  1.
</event>
<event>
 4    1  0.3372301E+006  0.2281033E+02  0.7546771E-02  0.1494894E+00
         21   -1    0    0  503  501  0.00000000000E+00  0.00000000000E+00  0.26351196303E+01  0.26351196303E+01  0.00000000000E+00 0.  1.
         21   -1    0    0  504  502 -0.00000000000E+00 -0.00000000000E+00 -0.66640240317E+03  0.66640240317E+03  0.00000000000E+00 0.  1.
         21    1    1    2  503  502 -0.77920020208E+00  0.22797012427E+02 -0.61250158256E+03  0.61292617791E+03  0.00000000000E+00 0.  1.
         21    1    1    2  504  501  0.77920020208E+00 -0.22797012427E+02 -0.51265700986E+02  0.56111344897E+02  0.00000000000E+00 0.  1.
</event>
<event>
 4    1  0.3372301E+006  0.3109923E+02  0.7546771E-02  0.1410279E+00
         21   -1    0    0  502  501  0.00000000000E+00  0.00000000000E+00  0.62233853729E+01  0.62233853729E+01  0.00000000000E+00 0.  1.
         21   -1    0    0  504  502 -0.00000000000E+00 -0.00000000000E+00 -0.10700940858E+04  0.10700940858E+04  0.00000000000E+00 0.  1.
         21    1    1    2  503  501 -0.10921459869E+02 -0.29118444409E+02 -0.34386740829E+02  0.46363887190E+02  0.00000000000E+00 0.  1.
         21    1    1    2  504  503  0.10921459869E+02  0.29118444409E+02 -0.10294839596E+04  0.10299535840E+04  0.00000000000E+00 0.  1.
</event>
<event>
 4    1  0.3372301E+006  0.2348696E+02  0.7546771E-02  0.1486472E+00
         21   -1    0    0  503  501  0.00000000000E+00  0.00000000000E+00  0.49090626690E+01  0.49090626690E+01  0.00000000000E+00 0.  1.
         21   -1    0    0  504  502 -0.00000000000E+00 -0.00000000000E+00 -0.21511045275E+03  0.21511045275E+03  0.00000000000E+00 0.  1.
         21    1    1    2  503  502  0.22791401588E+02 -0.56735666827E+01 -0.18112782864E+03  0.18264426532E+03  0.00000000000E+00 0.  1.
         21    1    1    2  504  501 -0.22791401588E+02  0.56735666827E+01 -0.29073561435E+02  0.37375250097E+02  0.00000000000E+00 0.  1.
</event>
<event>
 4    1  0.3372301E+006  0.2457025E+02  0.7546771E-02  0.1473669E+00
         21   -1    0    0  504  501  0.00000000000E+00  0.00000000000E+00  0.55599960162E+02  0.55599960162E+02  0.00000000000E+00 0. -1.
         21   -1    0    0  503  502 -0.00000000000E+00 -0.00000000000E+00 -0.78393924936E+02  0.78393924936E+02  0.00000000000E+00 0. -1.
         21    1    1    2  503  501 -0.17012662412E+02 -0.17727569819E+02 -0.73581405199E+02  0.77575257687E+02  0.00000000000E+00 0. -1.
         21    1    1    2  504  502  0.17012662412E+02  0.17727569819E+02  0.50787440425E+02  0.56418627412E+02  0.00000000000E+00 0. -1.
</event>
<event>
 4    1  0.3372301E+006  0.4770227E+02  0.7546771E-02  0.1308454E+00
         21   -1    0    0  504  501  0.00000000000E+00  0.00000000000E+00  0.67844833220E+01  0.67844833220E+01  0.00000000000E+00 0.  1.
         21   -1    0    0  503  502 -0.00000000000E+00 -0.00000000000E+00 -0.33673338503E+03  0.33673338503E+03  0.00000000000E+00 0.  1.
         21    1    1    2  503  501  0.15511861872E+02 -0.45109742732E+02 -0.17578801749E+03  0.18214536459E+03  0.00000000000E+00 0.  1.
         21    1    1    2  504  502 -0.15511861872E+02  0.45109742732E+02 -0.15416088422E+03  0.16137250377E+03  0.00000000000E+00 0.  1.
</event>
<event>
 4    1  0.3372301E+006  0.2375277E+02  0.7546771E-02  0.1483256E+00
         21   -1    0    0  503  501  0.00000000000E+00  0.00000000000E+00  0.17108259362E+03  0.17108259362E+03  0.00000000000E+00 0. -1.
         21   -1    0    0  504  502 -0.00000000000E+00 -0.00000000000E+00 -0.89886451059E+02  0.89886451059E+02  0.00000000000E+00 0.  1.
         21    1    1    2  503  502 -0.20051744876E+02  0.12732695176E+02  0.16866659464E+03  0.17033089605E+03  0.00000000000E+00 0. -1.
         21    1    1    2  504  501  0.20051744876E+02 -0.12732695176E+02 -0.87470452086E+02  0.90638148630E+02  0.00000000000E+00 0.  1.
</event>
<event>
 4    1  0.3372301E+006  0.2172824E+02  0.7546771E-02  0.1509116E+00
         21   -1    0    0  503  501  0.00000000000E+00  0.00000000000E+00  0.92358601357E+03  0.92358601357E+03  0.00000000000E+00 0.  1.
         21   -1    0    0  501  502 -0.00000000000E+00 -0.00000000000E+00 -0.75731744414E+01  0.75731744414E+01  0.00000000000E+00 0. -1.
         21    1    1    2  503  504 -0.10969771081E+02  0.18755812308E+02  0.90759856997E+03  0.90785862367E+03  0.00000000000E+00 0.  1.
         21    1    1    2  504  502  0.10969771081E+02 -0.18755812308E+02  0.84142691609E+01  0.23300564337E+02  0.00000000000E+00 0. -1.
</event>
<event>
 4    1  0.3372301E+006  0.2933067E+02  0.7546771E-02  0.1425503E+00
         21   -1    0    0  503  501  0.00000000000E+00  0.00000000000E+00  0.89961846623E+01  0.89961846623E+01  0.00000000000E+00 0. -1.
         21   -1    0    0  504  502 -0.00000000000E+00 -0.00000000000E+00 -0.12366595237E+03  0.12366595237E+03  0.00000000000E+00 0. -1.
         21    1    1    2  503  502 -0.10747399772E+02 -0.27290690616E+02 -0.88918655532E+02  0.93631275212E+02  0.00000000000E+00 0. -1.
         21    1    1    2  504  501  0.10747399772E+02  0.27290690616E+02 -0.25751112175E+02  0.39030861820E+02  0.00000000000E+00 0. -1.
</event>
<event>
 4    1  0.3372301E+006  0.2806006E+02  0.7546771E-02  0.1437241E+00
         21   -1    0    0  503  501  0.00000000000E+00  0.00000000000E+00  0.84760194016E+02  0.84760194016E+02  0.00000000000E+00 0. -1.
         21   -1    0    0  504  502 -0.00000000000E+00 -0.00000000000E+00 -0.15353721058E+02  0.15353721058E+02  0.00000000000E+00 0.  1.
         21    1    1    2  503  502 -0.27400606726E+02 -0.60476273144E+01  0.66162643798E+02  0.71866977670E+02  0.00000000000E+00 0. -1.
         21    1    1    2  504  501  0.27400606726E+02  0.60476273144E+01  0.32438291603E+01  0.28246937404E+02  0.00000000000E+00 0.  1.
</event>
<event>
 4    1  0.3372301E+006  0.2447925E+02  0.7546771E-02  0.1474714E+00
         21   -1    0    0  503  501  0.00000000000E+00  0.00000000000E+00  0.64450080466E+03  0.64450080466E+03  0.00000000000E+00 0. -1.
         21   -1    0    0  504  502 -0.00000000000E+00 -0.00000000000E+00 -0.10801987397E+01  0.10801987397E+01  0.00000000000E+00 0. -1.
         21    1    1    2  503  502  0.28534670075E+01 -0.24312372579E+02  0.44217028265E+03  0.44284736941E+03  0.00000000000E+00 0. -1.
         21    1    1    2  504  501 -0.28534670075E+01  0.24312372579E+02  0.20125032328E+03  0.20273363400E+03  0.00000000000E+00 0. -1.
</event>
<event>
 4    1  0.3372301E+006  0.2407181E+02  0.7546771E-02  0.1479461E+00
         21   -1    0    0  504  501  0.00000000000E+00  0.00000000000E+00  0.32800602913E+01  0.32800602913E+01  0.00000000000E+00 0.  1.
         21   -1    0    0  501  502 -0.00000000000E+00 -0.00000000000E+00 -0.30387001179E+03  0.30387001179E+03  0.00000000000E+00 0. -1.
         21    1    1    2  503  502  0.73011067170E+01  0.22937867615E+02 -0.24966129054E+03  0.25081908206E+03  0.00000000000E+00 0. -1.
         21    1    1    2  504  503 -0.73011067170E+01 -0.22937867615E+02 -0.50928660959E+02  0.56330990024E+02  0.00000000000E+00 0.  1.
</event>
<event>
 4    1  0.3372301E+006  0.2099223E+02  0.7546771E-02  0.1519376E+00
         21   -1    0    0  504  501  0.00000000000E+00  0.00000000000E+00  0.64660762200E+02  0.64660762200E+02  0.00000000000E+00 0. -1.
         21   -1    0    0  503  502 -0.00000000000E+00 -0.00000000000E+00 -0.72984710869E+01  0.72984710869E+01  0.00000000000E+00 0. -1.
         21    1    1    2  503  501  0.20432901213E+02 -0.48135405583E+01  0.37939902476E+02  0.43360233216E+02  0.00000000000E+00 0. -1.
         21    1    1    2  504  502 -0.20432901213E+02  0.48135405583E+01  0.19422388637E+02  0.28599000071E+02  0.00000000000E+00 0. -1.
</event>
<event>
 4    1  0.3372301E+006  0.2099415E+02  0.7546771E-02  0.1519348E+00
         21   -1    0    0  503  501  0.00000000000E+00  0.00000000000E+00  0.69337951058E+02  0.69337951058E+02  0.00000000000E+00 0.  1.
         21   -1    0    0  504  502 -0.00000000000E+00 -0.00000000000E+00 -0.10065599406E+02  0.10065599406E+02  0.00000000000E+00 0. -1.
         21    1    1    2  503  502  0.19830258713E+02  0.68931348460E+01  0.53736216209E+02  0.57691727319E+02  0.00000000000E+00 0.  1.
         21    1    1    2  504  501 -0.19830258713E+02 -0.68931348460E+01  0.55361354429E+01  0.21711823144E+02  0.00000000000E+00 0. -1.
</event>
<event>
 4    1  0.3372301E+006  0.2947511E+02  0.7546771E-02  0.1424213E+00
         21   -1    0    0  503  501  0.00000000000E+00  0.00000000000E+00  0.53586908200E+03  0.53586908200E+03  0.00000000000E+00 0. -1.
         21   -1    0    0  501  502 -0.00000000000E+00 -0.00000000000E+00 -0.46193217621E+02  0.46193217621E+02  0.00000000000E+00 0. -1.
         21    1    1    2  503  504 -0.44533040466E+01  0.29136754158E+02  0.53071625742E+03  0.53153412708E+03  0.00000000000E+00 0. -1.
         21    1    1    2  504  502  0.44533040466E+01 -0.29136754158E+02 -0.41040393039E+02  0.50528172544E+02  0.00000000000E+00 0. -1.
</event>
<event>
 4    1  0.3372301E+006  0.6864725E+02  0.7546771E-02  0.1232981E+00
         21   -1    0    0  504  501  0.00000000000E+00  0.00000000000E+00  0.26049692410E+02  0.26049692410E+02  0.00000000000E+00 0. -1.
         21   -1    0    0  503  502 -0.00000000000E+00 -0.00000000000E+00 -0.10737676608E+04  0.10737676608E+04  0.00000000000E+00 0. -1.
         21    1    1    2  503  501 -0.45748950325E+02  0.51180843055E+02 -0.10253099106E+04  0.10276053999E+04  0.00000000000E+00 0. -1.
         21    1    1    2  504  502  0.45748950325E+02 -0.51180843055E+02 -0.22408057853E+02  0.72211953362E+02  0.00000000000E+00 0. -1.
</event>
<event>
 4    1  0.3372301E+006  0.2240283E+02  0.7546771E-02  0.1500136E+00
         21   -1    0    0  504  501  0.00000000000E+00  0.00000000000E+00  0.26847023309E+02  0.26847023309E+02  0.00000000000E+00 0. -1.
         21   -1    0    0  501  502 -0.00000000000E+00 -0.00000000000E+00 -0.81798583811E+03  0.81798583811E+03  0.00000000000E+00 0. -1.
         21    1    1    2  503  502 -0.22028225912E+02  0.40797248816E+01 -0.81313096787E+03  0.81343952313E+03  0.00000000000E+00 0. -1.
         21    1    1    2  504  503  0.22028225912E+02 -0.40797248816E+01  0.21992153069E+02  0.31393338283E+02  0.00000000000E+00 0. -1.
</event>
<event>
 4    1  0.3372301E+006  0.2010825E+02  0.7546771E-02  0.1532387E+00
         21   -1    0    0  504  501  0.00000000000E+00  0.00000000000E+00  0.21376126134E+02  0.21376126134E+02  0.00000000000E+00 0.  1.
         21   -1    0    0  503  502 -0.00000000000E+00 -0.00000000000E+00 -0.52445101558E+02  0.52445101558E+02  0.00000000000E+00 0.  1.
         21    1    1    2  503  501  0.91426733581E+01 -0.17909583485E+02  0.13978456122E+02  0.24489567009E+02  0.00000000000E+00 0.  1.
         21    1    1    2  504  502 -0.91426733581E+01  0.17909583485E+02 -0.45047431546E+02  0.49331660682E+02  0.00000000000E+00 0.  1.
</event>
<event>
 4    1  0.3372301E+006  0.4174863E+02  0.7546771E-02  0.1338533E+00
         21   -1    0    0  502  501  0.00000000000E+00  0.00000000000E+00  0.11746063806E+03  0.11746063806E+03  0.00000000000E+00 0.  1.
         21   -1    0    0  503  502 -0.00000000000E+00 -0.00000000000E+00 -0.32128172214E+02  0.32128172214E+02  0.00000000000E+00 0.  1.
         21    1    1    2  503  504 -0.41631062892E+02 -0.31309144088E+01 -0.12201698931E+02  0.43495166161E+02  0.00000000000E+00 0.  1.
         21    1    1    2  504  501  0.41631062892E+02  0.31309144088E+01  0.97534164775E+02  0.10609364411E+03  0.00000000000E+00 0.  1.
</event>
<event>
 4    1  0.3372301E+006  0.3208298E+02  0.7546771E-02  0.1402319E+00
         21   -1    0    0  503  501  0.00000000000E+00  0.00000000000E+00  0.99821886183E+02  0.99821886183E+02  0.00000000000E+00 0. -1.
         21   -1    0    0  504  502 -0.00000000000E+00 -0.00000000000E+00 -0.15896072376E+02  0.15896072376E+02  0.00000000000E+00 0. -1.
         21    1    1    2  503  502  0.26892008765E+01  0.31970081285E+02  0.76256978761E+02  0.82731159236E+02  0.00000000000E+00 0. -1.
         21    1    1    2  504  501 -0.26892008765E+01 -0.31970081285E+02  0.76688350458E+01  0.32986799324E+02  0.00000000000E+00 0. -1.
</event>
<event>
 4    1  0.3372301E+006  0.2762151E+02  0.7546771E-02  0.1441463E+00
         21   -1    0    0  502  501  0.00000000000E+00  0.00000000000E+00  0.33717211982E+01  0.33717211982E+01  0.00000000000E+00 0.  1.
         21   -1    0    0  503  502 -0.00000000000E+00 -0.00000000000E+00 -0.35672985454E+03  0.35672985454E+03  0.00000000000E+00 0.  1.
         21    1    1    2  503  504  0.17904446797E+02  0.21032801563E+02 -0.28555944545E+03  0.28689221817E+03  0.00000000000E+00 0.  1.
         21    1    1    2  504  501 -0.17904446797E+02 -0.21032801563E+02 -0.67798687886E+02  0.73209357570E+02  0.00000000000E+00 0.  1.
</event>
<event>
 4    1  0.3372301E+006  0.2102052E+02  0.7546771E-02  0.1518972E+00
         21   -1    0    0  504  501  0.00000000000E+00  0.00000000000E+00  0.70593263516E+02  0.70593263516E+02  0.00000000000E+00 0. -1.
         21   -1    0    0  503  502 -0.00000000000E+00 -0.00000000000E+00 -0.10916398474E+03  0.10916398474E+03  0.00000000000E+00 0.  1.
         21    1    1    2  503  501 -0.18885419330E+02 -0.92305465014E+01 -0.10654921054E+03  0.10860292961E+03  0.00000000000E+00 0.  1.
         21    1    1    2  504  502  0.18885419330E+02  0.92305465014E+01  0.67978489320E+02  0.71154318647E+02  0.00000000000E+00 0. -1.
</event>
<event>
 4    1  0.3372301E+006  0.2044293E+02  0.7546771E-02  0.1527369E+00
         21   -1    0    0  504  501  0.00000000000E+00  0.00000000000E+00  0.17166929565E+02  0.17166929565E+02  0.00000000000E+00 0. -1.
         21   -1    0    0  503  502 -0.00000000000E+00 -0.00000000000E+00 -0.29941306090E+02  0.29941306090E+02  0.00000000000E+00 0.  1.
         21    1    1    2  503  501  0.19092332984E+02 -0.73072688799E+01 -0.16571163422E+02  0.26315714211E+02  0.00000000000E+00 0.  1.
         21    1    1    2  504  502 -0.19092332984E+02  0.73072688799E+01  0.37967868974E+01  0.20792521444E+02  0.00000000000E+00 0. -1.
</event>
<event>
 4    1  0.3372301E+006  0.2439290E+02  0.7546771E-02  0.1475711E+00
         21   -1    0    0  502  501  0.00000000000E+00  0.00000000000E+00  0.24546792510E+03  0.24546792510E+03  0.00000000000E+00 0.  1.
         21   -1    0    0  504  502 -0.00000000000E+00 -0.00000000000E+00 -0.31871843477E+01  0.31871843477E+01  0.00000000000E+00 0.  1.
         21    1    1    2  503  501  0.24113154351E+02  0.36836713692E+01  0.18197897243E+03  0.18360653598E+03  0.00000000000E+00 0.  1.
         21    1    1    2  504  503 -0.24113154351E+02 -0.36836713692E+01  0.60301768319E+02  0.65048573465E+02  0.00000000000E+00 0.  1.
</event>
<event>
 4    1  0.3372301E+006  0.2383601E+02  0.7546771E-02  0.1482259E+00
         21   -1    0    0  504  501  0.00000000000E+00  0.00000000000E+00  0.56498494623E+03  0.56498494623E+03  0.00000000000E+00 0. -1.
         21   -1    0    0  503  502 -0.00000000000E+00 -0.00000000000E+00 -0.12715232802E+01  0.12715232802E+01  0.00000000000E+00 0.  1.
         21    1    1    2  503  501  0.96623987587E+01 -0.21789755190E+02  0.15238056045E+03  0.15423355855E+03  0.00000000000E+00 0.  1.
         21    1    1    2  504  502 -0.96623987587E+01  0.21789755190E+02  0.41133286250E+03  0.41202291096E+03  0.00000000000E+00 0. -1.
</event>
<event>
 4    1  0.3372301E+006  0.1405420E+03  0.7546771E-02  0.1107726E+00
         21   -1    0    0  502  501  0.00000000000E+00  0.00000000000E+00  0.66523355438E+03  0.66523355438E+03  0.00000000000E+00 0. -1.
         21   -1    0    0  503  502 -0.00000000000E+00 -0.00000000000E+00 -0.92397945118E+02  0.92397945118E+02  0.00000000000E+00 0. -1.
         21    1    1    2  503  504 -0.12077225901E+03  0.71875762426E+02 -0.25651817249E+02  0.14286384952E+03  0.00000000000E+00 0. -1.
         21    1    1    2  504  501  0.12077225901E+03 -0.71875762426E+02  0.59848742651E+03  0.61476764998E+03  0.00000000000E+00 0. -1.
</event>
<event>
 4    1  0.3372301E+006  0.2384822E+02  0.7546771E-02  0.1482113E+00
         21   -1    0    0  504  501  0.00000000000E+00  0.00000000000E+00  0.20085986205E+02  0.20085986205E+02  0.00000000000E+00 0.  1.
         21   -1    0    0  501  502 -0.00000000000E+00 -0.00000000000E+00 -0.81138549313E+02  0.81138549313E+02  0.00000000000E+00 0. -1.
         21    1    1    2  503  502 -0.10811231715E+02  0.21256875082E+02 -0.71363429190E+02  0.75242783675E+02  0.00000000000E+00 0. -1.
         21    1    1    2  504  503  0.10811231715E+02 -0.21256875082E+02  0.10310866082E+02  0.25981751843E+02  0.00000000000E+00 0.  1.
</event>
<event>
 4    1  0.3372301E+006  0.2023054E+02  0.7546771E-02  0.1530540E+00
         21   -1    0    0  504  501  0.00000000000E+00  0.00000000000E+00  0.64613293455E+03  0.64613293455E+03  0.00000000000E+00 0.  1.
         21   -1    0    0  501  502 -0.00000000000E+00 -0.00000000000E+00 -0.27969186852E+02  0.27969186852E+02  0.00000000000E+00 0.  1.
         21    1    1    2  503  502  0.34885834307E+01  0.19927483948E+02 -0.24130708882E+02  0.31489140064E+02  0.00000000000E+00 0.  1.
         21    1    1    2  504  503 -0.34885834307E+01 -0.19927483948E+02  0.64229445658E+03  0.64261298134E+03  0.00000000000E+00 0.  1.
</event>
<event>
 4    1  0.3372301E+006  0.2405174E+02  0.7546771E-02  0.1479697E+00
         21   -1    0    0  502  501  0.00000000000E+00  0.00000000000E+00  0.24301568467E+03  0.24301568467E+03  0.00000000000E+00 0.  1.
         21   -1    0    0  504  502 -0.00000000000E+00 -0.00000000000E+00 -0.23991432935E+01  0.23991432935E+01  0.00000000000E+00 0.  1.
         21    1    1    2  503  501  0.13584154396E+02 -0.19848344653E+02  0.10947606962E+03  0.11208700128E+03  0.00000000000E+00 0.  1.
         21    1    1    2  504  503 -0.13584154396E+02  0.19848344653E+02  0.13114047176E+03  0.13332782668E+03  0.00000000000E+00 0.  1.
</event>
<event>
 4    1  0.3372301E+006  0.3987181E+02  0.7546771E-02  0.1349239E+00
         21   -1    0    0  502  501  0.00000000000E+00  0.00000000000E+00  0.46263140589E+02  0.46263140589E+02  0.00000000000E+00 0.  1.
         21   -1    0    0  504  502 -0.00000000000E+00 -0.00000000000E+00 -0.14138066778E+03  0.14138066778E+03  0.00000000000E+00 0.  1.
         21    1    1    2  503  501  0.39782439289E+02  0.26681214554E+01  0.34068652029E+02  0.52444584076E+02  0.00000000000E+00 0.  1.
         21    1    1    2  504  503 -0.39782439289E+02 -0.26681214554E+01 -0.12918617922E+03  0.13519922430E+03  0.00000000000E+00 0.  1.
</event>
<event>
 4    1  0.3372301E+006  0.2162238E+02  0.7546771E-02  0.1510561E+00
         21   -1    0    0  502  501  0.00000000000E+00  0.00000000000E+00  0.12058890704E+04  0.12058890704E+04  0.00000000000E+00 0.  1.
         21   -1    0    0  503  502 -0.00000000000E+00 -0.00000000000E+00 -0.59471387808E+01  0.59471387808E+01  0.00000000000E+00 0. -1.
         21    1    1    2  503  504 -0.40180958199E+01  0.21245761800E+02  0.14136080334E+02  0.25833239357E+02  0.00000000000E+00 0. -1.
         21    1    1    2  504  501  0.40180958199E+01 -0.21245761800E+02  0.11858058513E+04  0.11860029698E+04  0.00000000000E+00 0.  1.
</event>
<event>
 4    1  0.3372301E+006  0.2127684E+02  0.7546771E-02  0.1515349E+00
         21   -1    0    0  504  501  0.00000000000E+00  0.00000000000E+00  0.72318999716E+02  0.72318999716E+02  0.00000000000E+00 0.  1.
         21   -1    0    0  503  502 -0.00000000000E+00 -0.00000000000E+00 -0.62666568919E+01  0.62666568919E+01  0.00000000000E+00 0.  1.
         21    1    1    2  503  501  0.17447877773E+02  0.12176848996E+02  0.34323799570E+02  0.40383502908E+02  0.00000000000E+00 0.  1.
         21    1    1    2  504  502 -0.17447877773E+02 -0.12176848996E+02  0.31728543255E+02  0.38202153700E+02  0.00000000000E+00 0.  1.
</event>
<event>
 4    1  0.3372301E+006  0.4112980E+02  0.7546771E-02  0.1341989E+00
         21   -1    0    0  504  501  0.00000000000E+00  0.00000000000E+00  0.66858332266E+03  0.66858332266E+03  0.00000000000E+00 0. -1.
         21   -1    0    0  501  502 -0.00000000000E+00 -0.00000000000E+00 -0.69921909117E+02  0.69921909117E+02  0.00000000000E+00 0.  1.
         21    1    1    2  503  502 -0.36352216749E+02 -0.19239972348E+02 -0.63179405461E+02  0.75387648012E+02  0.00000000000E+00 0.  1.
         21    1    1    2  504  503  0.36352216749E+02  0.19239972348E+02  0.66184081901E+03  0.66311758377E+03  0.00000000000E+00 0. -1.
</event>
<event>
 4    1  0.3372301E+006  0.2024088E+02  0.7546771E-02  0.1530385E+00
         21   -1    0    0  503  501  0.00000000000E+00  0.00000000000E+00  0.16642367595E+04  0.16642367595E+04  0.00000000000E+00 0. -1.
         21   -1    0    0  501  502 -0.00000000000E+00 -0.00000000000E+00 -0.40789565306E+00  0.40789565306E+00  0.00000000000E+00 0.  1.
         21    1    1    2  503  504 -0.77263320237E+01 -0.18708201793E+02  0.13559974936E+04  0.13561485522E+04  0.00000000000E+00 0. -1.
         21    1    1    2  504  502  0.77263320237E+01  0.18708201793E+02  0.30783137025E+03  0.30849610294E+03  0.00000000000E+00 0.  1.
</event>
<event>
 4    1  0.3372301E+006  0.2047056E+02  0.7546771E-02  0.1526960E+00
         21   -1    0    0  503  501  0.00000000000E+00  0.00000000000E+00  0.20041438424E+03  0.20041438424E+03  0.00000000000E+00 0.  1.
         21   -1    0    0  504  502 -0.00000000000E+00 -0.00000000000E+00 -0.37365888327E+01  0.37365888327E+01  0.00000000000E+00 0.  1.
         21    1    1    2  503  502  0.19730079974E+02 -0.54559674867E+01  0.16608113047E+03  0.16733793812E+03  0.00000000000E+00 0.  1.
         21    1    1    2  504  501 -0.19730079974E+02  0.54559674867E+01  0.30596664942E+02  0.36813034954E+02  0.00000000000E+00 0.  1.
</event>
<event>
 4    1  0.3372301E+006  0.8139228E+02  0.7546771E-02  0.1200652E+00
         21   -1    0    0  504  501  0.00000000000E+00  0.00000000000E+00  0.31650130412E+02  0.31650130412E+02  0.00000000000E+00 0. -1.
         21   -1    0    0  503  502 -0.00000000000E+00 -0.00000000000E+00 -0.21822124005E+03  0.21822124005E+03  0.00000000000E+00 0. -1.
         21    1    1    2  503  501 -0.62018138408E+02  0.52711036822E+02 -0.68039343647E+02  0.10608513175E+03  0.00000000000E+00 0. -1.
         21    1    1    2  504  502  0.62018138408E+02 -0.52711036822E+02 -0.11853176599E+03  0.14378623871E+03  0.00000000000E+00 0. -1.
</event>
<event>
 4    1  0.3372301E+006  0.3014557E+02  0.7546771E-02  0.1418336E+00
         21   -1    0    0  503  501  0.00000000000E+00  0.00000000000E+00  0.80576559593E+01  0.80576559593E+01  0.00000000000E+00 0. -1.
         21   -1    0    0  504  502 -0.00000000000E+00 -0.00000000000E+00 -0.16263013945E+03  0.16263013945E+03  0.00000000000E+00 0. -1.
         21    1    1    2  503  502 -0.24673951689E+02 -0.17319114120E+02 -0.12453582985E+03  0.12813246474E+03  0.00000000000E+00 0. -1.
         21    1    1    2  504  501  0.24673951689E+02  0.17319114120E+02 -0.30036653642E+02  0.42555330663E+02  0.00000000000E+00 0. -1.
</event>
<event>
 4    1  0.3372301E+006  0.2164285E+02  0.7546771E-02  0.1510281E+00
         21   -1    0    0  504  501  0.00000000000E+00  0.00000000000E+00  0.55058551138E+02  0.55058551138E+02  0.00000000000E+00 0.  1.
         21   -1    0    0  503  502 -0.00000000000E+00 -0.00000000000E+00 -0.44959085046E+02  0.44959085046E+02  0.00000000000E+00 0.  1.
         21    1    1    2  503  501 -0.12747061568E+02 -0.17490717446E+02  0.50079099271E+02  0.54555741762E+02  0.00000000000E+00 0.  1.
         21    1    1    2  504  502  0.12747061568E+02  0.17490717446E+02 -0.39979633179E+02  0.45461894423E+02  0.00000000000E+00 0.  1.
</event>
<event>
 4    1  0.3372301E+006  0.2081489E+02  0.7546771E-02  0.1521924E+00
         21   -1    0    0  502  501  0.00000000000E+00  0.00000000000E+00  0.27047399923E+02  0.27047399923E+02  0.00000000000E+00 0.  1.
         21   -1    0    0  503  502 -0.00000000000E+00 -0.00000000000E+00 -0.16381711792E+02  0.16381711792E+02  0.00000000000E+00 0.  1.
         21    1    1    2  503  504 -0.40395406737E+01 -0.20419150499E+02  0.20996397660E+01  0.20920518233E+02  0.00000000000E+00 0.  1.
         21    1    1    2  504  501  0.40395406737E+01  0.20419150499E+02  0.85660483646E+01  0.22508593482E+02  0.00000000000E+00 0.  1.
</event>
<event>
 4    1  0.3372301E+006  0.2148361E+02  0.7546771E-02  0.1512471E+00
         21   -1    0    0  503  501  0.00000000000E+00  0.00000000000E+00  0.55921160130E+02  0.55921160130E+02  0.00000000000E+00 0. -1.
         21   -1    0    0  501  502 -0.00000000000E+00 -0.00000000000E+00 -0.12668185917E+02  0.12668185917E+02  0.00000000000E+00 0. -1.
         21    1    1    2  503  504 -0.16043349531E+02 -0.14288330303E+02  0.41871554382E+02  0.47061369650E+02  0.00000000000E+00 0. -1.
         21    1    1    2  504  502  0.16043349531E+02  0.14288330303E+02  0.13814198313E+01  0.21527976397E+02  0.00000000000E+00 0. -1.
</event>
<event>
 4    1  0.3372301E+006  0.2795927E+02  0.7546771E-02  0.1438203E+00
         21   -1    0    0  503  501  0.00000000000E+00  0.00000000000E+00  0.21066574355E+02  0.21066574355E+02  0.00000000000E+00 0. -1.
         21   -1    0    0  504  502 -0.00000000000E+00 -0.00000000000E+00 -0.48308906883E+02  0.48308906883E+02  0.00000000000E+00 0. -1.
         21    1    1    2  503  502 -0.13082635653E+02 -0.24709619017E+02 -0.30324585962E+02  0.41246831895E+02  0.00000000000E+00 0. -1.
         21    1    1    2  504  501  0.13082635653E+02  0.24709619017E+02  0.30822534334E+01  0.28128649343E+02  0.00000000000E+00 0. -1.
</event>
<event>
 4    1  0.3372301E+006  0.3558506E+02  0.7546771E-02  0.1376496E+00
         21   -1    0    0  503  501  0.00000000000E+00  0.00000000000E+00  0.80615338752E+02  0.80615338752E+02  0.00000000000E+00 0. -1.
         21   -1    0    0  504  502 -0.00000000000E+00 -0.00000000000E+00 -0.70827148968E+02  0.70827148968E+02  0.00000000000E+00 0. -1.
         21    1    1    2  503  502 -0.35244963294E+02 -0.49080750062E+01 -0.61904842795E+02  0.71403824823E+02  0.00000000000E+00 0. -1.
         21    1    1    2  504  501  0.35244963294E+02  0.49080750062E+01  0.71693032579E+02  0.80038662896E+02  0.00000000000E+00 0. -1.
</event>
<event>
 4    1  0.3372301E+006  0.3042400E+02  0.7546771E-02  0.1415947E+00
         21   -1    0    0  502  501  0.00000000000E+00  0.00000000000E+00  0.20809033818E+03  0.20809033818E+03  0.00000000000E+00 0. -1.
         21   -1    0    0  504  502 -0.00000000000E+00 -0.00000000000E+00 -0.91917141528E+01  0.91917141528E+01  0.00000000000E+00 0. -1.
         21    1    1    2  503  501 -0.28776101547E+02 -0.98770411319E+01  0.17749471906E+03  0.18008330088E+03  0.00000000000E+00 0. -1.
         21    1    1    2  504  503  0.28776101547E+02  0.98770411319E+01  0.21403904966E+02  0.37198751451E+02  0.00000000000E+00 0. -1.
</event>
<event>
 4    1  0.3372301E+006  0.2228890E+02  0.7546771E-02  0.1501626E+00
         21   -1    0    0  502  501  0.00000000000E+00  0.00000000000E+00  0.81786749650E+02  0.81786749650E+02  0.00000000000E+00 0. -1.
         21   -1    0    0  503  502 -0.00000000000E+00 -0.00000000000E+00 -0.17941236904E+02  0.17941236904E+02  0.00000000000E+00 0. -1.
         21    1    1    2  503  504  0.15626373780E+02 -0.15893763491E+02 -0.86309566970E+01  0.23901646155E+02  0.00000000000E+00 0. -1.
         21    1    1    2  504  501 -0.15626373780E+02  0.15893763491E+02  0.72476469443E+02  0.75826340399E+02  0.00000000000E+00 0. -1.
</event>
<event>
 4    1  0.3372301E+006  0.2406417E+02  0.7546771E-02  0.1479551E+00
         21   -1    0    0  504  501  0.00000000000E+00  0.00000000000E+00  0.22159072158E+02  0.22159072158E+02  0.00000000000E+00 0. -1.
         21   -1    0    0  503  502 -0.00000000000E+00 -0.00000000000E+00 -0.31683067191E+02  0.31683067191E+02  0.00000000000E+00 0. -1.
         21    1    1    2  503  501 -0.26048813120E+01 -0.23922764980E+02 -0.16029455696E+02  0.28914140846E+02  0.00000000000E+00 0. -1.
         21    1    1    2  504  502  0.26048813120E+01  0.23922764980E+02  0.65054606623E+01  0.24927998503E+02  0.00000000000E+00 0. -1.
</event>
<event>
 4    1  0.3372301E+006  0.4530115E+02  0.7546771E-02  0.1319940E+00
         21   -1    0    0  502  501  0.00000000000E+00  0.00000000000E+00  0.12304183686E+03  0.12304183686E+03  0.00000000000E+00 0.  1.
         21   -1    0    0  504  502 -0.00000000000E+00 -0.00000000000E+00 -0.44754211421E+02  0.44754211421E+02  0.00000000000E+00 0.  1.
         21    1    1    2  503  501  0.36955236291E+02  0.26201226651E+02  0.10559421556E+03  0.11490140176E+03  0.00000000000E+00 0.  1.
         21    1    1    2  504  503 -0.36955236291E+02 -0.26201226651E+02 -0.27306590114E+02  0.52894646525E+02  0.00000000000E+00 0.  1.
</event>
<event>
 4    1  0.3372301E+006  0.2206286E+02  0.7546771E-02  0.1504613E+00
         21   -1    0    0  504  501  0.00000000000E+00  0.00000000000E+00  0.35267696076E+02  0.35267696076E+02  0.00000000000E+00 0. -1.
         21   -1    0    0  503  502 -0.00000000000E+00 -0.00000000000E+00 -0.28753788095E+02  0.28753788095E+02  0.00000000000E+00 0. -1.
         21    1    1    2  503  501  0.47668701105E+00 -0.22057709959E+02 -0.19826069428E+02  0.29662144698E+02  0.00000000000E+00 0. -1.
         21    1    1    2  504  502 -0.47668701105E+00  0.22057709959E+02  0.26339977409E+02  0.34359339473E+02  0.00000000000E+00 0. -1.
</event>
<event>
 4    1  0.3372301E+006  0.2005069E+02  0.7546771E-02  0.1533262E+00
         21   -1    0    0  504  501  0.00000000000E+00  0.00000000000E+00  0.57721328220E+03  0.57721328220E+03  0.00000000000E+00 0. -1.
         21   -1    0    0  501  502 -0.00000000000E+00 -0.00000000000E+00 -0.27783469236E+02  0.27783469236E+02  0.00000000000E+00 0. -1.
         21    1    1    2  503  502  0.37498847038E+01  0.19696914139E+02 -0.23967748657E+02  0.31248728576E+02  0.00000000000E+00 0. -1.
         21    1    1    2  504  503 -0.37498847038E+01 -0.19696914139E+02  0.57339756162E+03  0.57374802286E+03  0.00000000000E+00 0. -1.
</event>
<event>
 4    1  0.3372301E+006  0.2323812E+02  0.7546771E-02  0.1489530E+00
         21   -1    0    0  504  501  0.00000000000E+00  0.00000000000E+00  0.50812740439E+00  0.50812740439E+00  0.00000000000E+00 0.  1.
         21   -1    0    0  503  502 -0.00000000000E+00 -0.00000000000E+00 -0.10847754098E+04  0.10847754098E+04  0.00000000000E+00 0.  1.
         21    1    1    2  503  501  0.23227876022E+02 -0.68992343394E+00 -0.61946356805E+03  0.61989928404E+03  0.00000000000E+00 0.  1.
         21    1    1    2  504  502 -0.23227876022E+02  0.68992343394E+00 -0.46480371433E+03  0.46538425314E+03  0.00000000000E+00 0.  1.
</event>
<event>
 4    1  0.3372301E+006  0.2073489E+02  0.7546771E-02  0.1523084E+00
         21   -1    0    0  503  501  0.00000000000E+00  0.00000000000E+00  0.10068428687E+01  0.10068428687E+01  0.00000000000E+00 0. -1.
         21   -1    0    0  504  502 -0.00000000000E+00 -0.00000000000E+00 -0.45801329464E+03  0.45801329464E+03  0.00000000000E+00 0. -1.
         21    1    1    2  503  502 -0.16747482576E+02  0.12225286302E+02 -0.28821225626E+03  0.28895716024E+03  0.00000000000E+00 0. -1.
         21    1    1    2  504  501  0.16747482576E+02 -0.12225286302E+02 -0.16879419551E+03  0.17006297726E+03  0.00000000000E+00 0. -1.
</event>
<event>
 4    1  0.3372301E+006  0.2273727E+02  0.7546771E-02  0.1495824E+00
         21   -1    0    0  503  501  0.00000000000E+00  0.00000000000E+00  0.50311206411E+02  0.50311206411E+02  0.00000000000E+00 0.  1.
         21   -1    0    0  504  502 -0.00000000000E+00 -0.00000000000E+00 -0.39833811604E+02  0.39833811604E+02  0.00000000000E+00 0.  1.
         21    1    1    2  503  502  0.68084768837E+01 -0.21693960804E+02  0.44064825345E+02  0.49585200671E+02  0.00000000000E+00 0.  1.
         21    1    1    2  504  501 -0.68084768837E+01  0.21693960804E+02 -0.33587430538E+02  0.40559817344E+02  0.00000000000E+00 0.  1.
</event>
<event>
 4    1  0.3372301E+006  0.2318065E+02  0.7546771E-02  0.1490242E+00
         21   -1    0    0  503  501  0.00000000000E+00  0.00000000000E+00  0.49179041139E+02  0.49179041139E+02  0.00000000000E+00 0.  1.
         21   -1    0    0  504  502 -0.00000000000E+00 -0.00000000000E+00 -0.63272451897E+02  0.63272451897E+02  0.00000000000E+00 0.  1.
         21    1    1    2  503  502  0.22674972379E+02 -0.48154203830E+01 -0.58187853494E+02  0.62635205277E+02  0.00000000000E+00 0.  1.
         21    1    1    2  504  501 -0.22674972379E+02  0.48154203830E+01  0.44094442737E+02  0.49816287759E+02  0.00000000000E+00 0.  1.
</event>
<event>
 4    1  0.3372301E+006  0.2042677E+02  0.7546771E-02  0.1527609E+00
         21   -1    0    0  503  501  0.00000000000E+00  0.00000000000E+00  0.71597778375E+03  0.71597778375E+03  0.00000000000E+00 0. -1.
         21   -1    0    0  501  502 -0.00000000000E+00 -0.00000000000E+00 -0.10538524957E+02  0.10538524957E+02  0.00000000000E+00 0.  1.
         21    1    1    2  503  504  0.92666788291E+01 -0.18203890632E+02  0.70579097935E+03  0.70608650993E+03  0.00000000000E+00 0. -1.
         21    1    1    2  504  502 -0.92666788291E+01  0.18203890632E+02 -0.35172056082E+00  0.20429798776E+02  0.00000000000E+00 0.  1.
</event>
<event>
 4    1  0.3372301E+006  0.2087883E+02  0.7546771E-02  0.1521002E+00
         21   -1    0    0  504  501  0.00000000000E+00  0.00000000000E+00  0.29982417177E+01  0.29982417177E+01  0.00000000000E+00 0.  1.
         21   -1    0    0  503  502 -0.00000000000E+00 -0.00000000000E+00 -0.15662785590E+03  0.15662785590E+03  0.00000000000E+00 0.  1.
         21    1    1    2  503  501 -0.20811481352E+02  0.16755914272E+01 -0.55439604987E+02  0.59240823456E+02  0.00000000000E+00 0.  1.
         21    1    1    2  504  502  0.20811481352E+02 -0.16755914272E+01 -0.98190009192E+02  0.10038527416E+03  0.00000000000E+00 0.  1.
</event>
<event>
 4    1  0.3372301E+006  0.2129752E+02  0.7546771E-02  0.1515059E+00
         21   -1    0    0  504  501  0.00000000000E+00  0.00000000000E+00  0.12968436669E+04  0.12968436669E+04  0.00000000000E+00 0. -1.
         21   -1    0    0  503  502 -0.00000000000E+00 -0.00000000000E+00 -0.52536291883E+00  0.52536291883E+00  0.00000000000E+00 0. -1.
         21    1    1    2  503  501  0.69244199859E+01  0.20140421211E+02  0.27312607287E+03  0.27395517122E+03  0.00000000000E+00 0. -1.
         21    1    1    2  504  502 -0.69244199859E+01 -0.20140421211E+02  0.10231922311E+04  0.10234138586E+04  0.00000000000E+00 0. -1.
</event>
<event>
 4    1  0.3372301E+006  0.2017695E+02  0.7546771E-02  0.1531348E+00
         21   -1    0    0  503  501  0.00000000000E+00  0.00000000000E+00  0.11438050859E+02  0.11438050859E+02  0.00000000000E+00 0. -1.
         21   -1    0    0  504  502 -0.00000000000E+00 -0.00000000000E+00 -0.50519012680E+02  0.50519012680E+02  0.00000000000E+00 0. -1.
         21    1    1    2  503  502 -0.11831064789E+02  0.16344269887E+02 -0.36379315754E+02  0.41600046477E+02  0.00000000000E+00 0. -1.
         21    1    1    2  504  501  0.11831064789E+02 -0.16344269887E+02 -0.27016460671E+01  0.20357017062E+02  0.00000000000E+00 0. -1.
</event>
<event>
 4    1  0.3372301E+006  0.2083708E+02  0.7546771E-02  0.1521604E+00
         21   -1    0    0  503  501  0.00000000000E+00  0.00000000000E+00  0.94509090405E+02  0.94509090405E+02  0.00000000000E+00 0.  1.
         21   -1    0    0  504  502 -0.00000000000E+00 -0.00000000000E+00 -0.57560178188E+01  0.57560178188E+01  0.00000000000E+00 0.  1.
         21    1    1    2  503  502  0.56397311262E+01 -0.20059347924E+02  0.66900606872E+02  0.70070501683E+02  0.00000000000E+00 0.  1.
         21    1    1    2  504  501 -0.56397311262E+01  0.20059347924E+02  0.21852465714E+02  0.30194606540E+02  0.00000000000E+00 0.  1.
</event>
<event>
 4    1  0.3372301E+006  0.3595991E+02  0.7546771E-02  0.1373938E+00
         21   -1    0    0  502  501  0.00000000000E+00  0.00000000000E+00  0.50966792627E+03  0.50966792627E+03  0.00000000000E+00 0. -1.
         21   -1    0    0  504  502 -0.00000000000E+00 -0.00000000000E+00 -0.99188029980E+01  0.99188029980E+01  0.00000000000E+00 0. -1.
         21    1    1    2  503  501  0.21634478954E+02 -0.28723935476E+02  0.47399145327E+03  0.47535356623E+03  0.00000000000E+00 0. -1.
         21    1    1    2  504  503 -0.21634478954E+02  0.28723935476E+02  0.25757669999E+02  0.44233163041E+02  0.00000000000E+00 0. -1.
</event>
<event>
 4    1  0.3372301E+006  0.2155573E+02  0.7546771E-02  0.1511476E+00
         21   -1    0    0  503  501  0.00000000000E+00  0.00000000000E+00  0.46233941339E+01  0.46233941339E+01  0.00000000000E+00 0.  1.
         21   -1    0    0  501  502 -0.00000000000E+00 -0.00000000000E+00 -0.15984961791E+03  0.15984961791E+03  0.00000000000E+00 0.  1.
         21    1    1    2  503  504  0.88043883339E+01 -0.19675677104E+02 -0.27503727360E+02  0.34944306290E+02  0.00000000000E+00 0.  1.
         21    1    1    2  504  502 -0.88043883339E+01  0.19675677104E+02 -0.12772249642E+03  0.12952870576E+03  0.00000000000E+00 0.  1.
</event>
<event>
 4    1  0.3372301E+006  0.2036206E+02  0.7546771E-02  0.1528571E+00
         21   -1    0    0  504  501  0.00000000000E+00  0.00000000000E+00  0.56244037534E+02  0.56244037534E+02  0.00000000000E+00 0.  1.
         21   -1    0    0  501  502 -0.00000000000E+00 -0.00000000000E+00 -0.14231257607E+02  0.14231257607E+02  0.00000000000E+00 0.  1.
         21    1    1    2  503  502  0.15050001162E+02  0.13715348055E+02 -0.34579671627E+01  0.20653591555E+02  0.00000000000E+00 0.  1.
         21    1    1    2  504  503 -0.15050001162E+02 -0.13715348055E+02  0.45470747089E+02  0.49821703585E+02  0.00000000000E+00 0.  1.
</event>
<event>
 4    1  0.3372301E+006  0.2505760E+02  0.7546771E-02  0.1468160E+00
         21   -1    0    0  503  501  0.00000000000E+00  0.00000000000E+00  0.62832841076E+01  0.62832841076E+01  0.00000000000E+00 0.  1.
         21   -1    0    0  504  502 -0.00000000000E+00 -0.00000000000E+00 -0.31728365776E+03  0.31728365776E+03  0.00000000000E+00 0.  1.
         21    1    1    2  503  502  0.32818131318E+01  0.24841762282E+02 -0.21595866602E+02  0.33079675104E+02  0.00000000000E+00 0.  1.
         21    1    1    2  504  501 -0.32818131318E+01 -0.24841762282E+02 -0.28940450705E+03  0.29048726676E+03  0.00000000000E+00 0.  1.
</event>
<event>
 4    1  0.3372301E+006  0.2036584E+02  0.7546771E-02  0.1528515E+00
         21   -1    0    0  503  501  0.00000000000E+00  0.00000000000E+00  0.14770007572E+03  0.14770007572E+03  0.00000000000E+00 0. -1.
         21   -1    0    0  504  502 -0.00000000000E+00 -0.00000000000E+00 -0.36181327563E+01  0.36181327563E+01  0.00000000000E+00 0. -1.
         21    1    1    2  503  502  0.19851851172E+02  0.45465852526E+01  0.10783829394E+03  0.10974454462E+03  0.00000000000E+00 0. -1.
         21    1    1    2  504  501 -0.19851851172E+02 -0.45465852526E+01  0.36243649017E+02  0.41573663857E+02  0.00000000000E+00 0. -1.
</event>
<event>
 4    1  0.3372301E+006  0.2713346E+02  0.7546771E-02  0.1446272E+00
         21   -1    0    0  503  501  0.00000000000E+00  0.00000000000E+00  0.18597327060E+03  0.18597327060E+03  0.00000000000E+00 0. -1.
         21   -1    0    0  504  502 -0.00000000000E+00 -0.00000000000E+00 -0.34845018604E+02  0.34845018604E+02  0.00000000000E+00 0. -1.
         21    1    1    2  503  502  0.52561808083E+01  0.26619485189E+02 -0.28384155322E+02  0.39266839722E+02  0.00000000000E+00 0. -1.
         21    1    1    2  504  501 -0.52561808083E+01 -0.26619485189E+02  0.17951240732E+03  0.18155144948E+03  0.00000000000E+00 0. -1.
</event>
<event>
 4    1  0.3372301E+006  0.2490442E+02  0.7546771E-02  0.1469875E+00
         21   -1    0    0  503  501  0.00000000000E+00  0.00000000000E+00  0.29767119042E+02  0.29767119042E+02  0.00000000000E+00 0.  1.
         21   -1    0    0  504  502 -0.00000000000E+00 -0.00000000000E+00 -0.82312845873E+02  0.82312845873E+02  0.00000000000E+00 0. -1.
         21    1    1    2  503  502  0.14921038143E+02  0.19939732521E+02 -0.74703442278E+02  0.78745378280E+02  0.00000000000E+00 0. -1.
         21    1    1    2  504  501 -0.14921038143E+02 -0.19939732521E+02  0.22157715447E+02  0.33334586635E+02  0.00000000000E+00 0.  1.
</event>
<event>
 4    1  0.3372301E+006  0.2107757E+02  0.7546771E-02  0.1518160E+00
         21   -1    0    0  503  501  0.00000000000E+00  0.00000000000E+00  0.20429525394E+02  0.20429525394E+02  0.00000000000E+00 0.  1.
         21   -1    0    0  504  502 -0.00000000000E+00 -0.00000000000E+00 -0.11091561971E+03  0.11091561971E+03  0.00000000000E+00 0.  1.
         21    1    1    2  503  502 -0.13794330399E+02 -0.15936756305E+02 -0.10412683490E+03  0.10623870058E+03  0.00000000000E+00 0.  1.
         21    1    1    2  504  501  0.13794330399E+02  0.15936756305E+02  0.13640740594E+02  0.25106444524E+02  0.00000000000E+00 0.  1.
</event>
<event>
 4    1  0.3372301E+006  0.2224242E+02  0.7546771E-02  0.1502237E+00
         21   -1    0    0  504  501  0.00000000000E+00  0.00000000000E+00  0.15947216020E+01  0.15947216020E+01  0.00000000000E+00 0.  1.
         21   -1    0    0  501  502 -0.00000000000E+00 -0.00000000000E+00 -0.48264257009E+03  0.48264257009E+03  0.00000000000E+00 0.  1.
         21    1    1    2  503  502  0.14394975414E+02  0.16956124068E+02 -0.38523569338E+03  0.38587726664E+03  0.00000000000E+00 0.  1.
         21    1    1    2  504  503 -0.14394975414E+02 -0.16956124068E+02 -0.95812155115E+02  0.98360025053E+02  0.00000000000E+00 0.  1.
</event>
<event>
 4    1  0.3372301E+006  0.2306971E+02  0.7546771E-02  0.1491625E+00
         21   -1    0    0  502  501  0.00000000000E+00  0.00000000000E+00  0.33259867999E+03  0.33259867999E+03  0.00000000000E+00 0.  1.
         21   -1    0    0  503  502 -0.00000000000E+00 -0.00000000000E+00 -0.34501972780E+01  0.34501972780E+01  0.00000000000E+00 0.  1.
         21    1    1    2  503  504 -0.50289535008E+01 -0.22514909726E+02  0.41535869047E+02  0.47512524147E+02  0.00000000000E+00 0.  1.
         21    1    1    2  504  501  0.50289535008E+01  0.22514909726E+02  0.28761261366E+03  0.28853635312E+03  0.00000000000E+00 0.  1.
</event>
<event>
 4    1  0.3372301E+006  0.2374947E+02  0.7546771E-02  0.1483295E+00
         21   -1    0    0  502  501  0.00000000000E+00  0.00000000000E+00  0.88927395592E+02  0.88927395592E+02  0.00000000000E+00 0. -1.
         21   -1    0    0  503  502 -0.00000000000E+00 -0.00000000000E+00 -0.38086585820E+02  0.38086585820E+02  0.00000000000E+00 0.  1.
         21    1    1    2  503  504  0.23726147209E+02 -0.10522886390E+01 -0.32557930582E+02  0.40299580848E+02  0.00000000000E+00 0.  1.
         21    1    1    2  504  501 -0.23726147209E+02  0.10522886390E+01  0.83398740353E+02  0.86714400565E+02  0.00000000000E+00 0. -1.
</event>
<event>
 4    1  0.3372301E+006  0.2383814E+02  0.7546771E-02  0.1482233E+00
         21   -1    0    0  504  501  0.00000000000E+00  0.00000000000E+00  0.39892010411E+02  0.39892010411E+02  0.00000000000E+00 0.  1.
         21   -1    0    0  501  502 -0.00000000000E+00 -0.00000000000E+00 -0.42855650565E+02  0.42855650565E+02  0.00000000000E+00 0.  1.
         21    1    1    2  503  502  0.66738492484E+01  0.22884854143E+02 -0.35287251192E+02  0.42584585353E+02  0.00000000000E+00 0.  1.
         21    1    1    2  504  503 -0.66738492484E+01 -0.22884854143E+02  0.32323611039E+02  0.40163075623E+02  0.00000000000E+00 0.  1.
</event>
<event>
 4    1  0.3372301E+006  0.3398067E+02  0.7546771E-02  0.1387874E+00
         21   -1    0    0  504  501  0.00000000000E+00  0.00000000000E+00  0.24614141807E+02  0.24614141807E+02  0.00000000000E+00 0. -1.
         21   -1    0    0  503  502 -0.00000000000E+00 -0.00000000000E+00 -0.47540060472E+02  0.47540060472E+02  0.00000000000E+00 0.  1.
         21    1    1    2  503  501 -0.28399370406E+02 -0.18659086022E+02 -0.73145320537E+01  0.34759000414E+02  0.00000000000E+00 0. -1.
         21    1    1    2  504  502  0.28399370406E+02  0.18659086022E+02 -0.15611386611E+02  0.37395201865E+02  0.00000000000E+00 0.  1.
</event>
<event>
 4    1  0.3372301E+006  0.2032347E+02  0.7546771E-02  0.1529147E+00
         21   -1    0    0  503  501  0.00000000000E+00  0.00000000000E+00  0.73341560489E+03  0.73341560489E+03  0.00000000000E+00 0. -1.
         21   -1    0    0  501  502 -0.00000000000E+00 -0.00000000000E+00 -0.12880107480E+01  0.12880107480E+01  0.00000000000E+00 0. -1.
         21    1    1    2  503  504  0.20187276234E+02 -0.23488901376E+01  0.64163979769E+03  0.64196158249E+03  0.00000000000E+00 0. -1.
         21    1    1    2  504  502 -0.20187276234E+02  0.23488901376E+01  0.90487796443E+02  0.92742033144E+02  0.00000000000E+00 0. -1.
</event>
<event>
 4    1  0.3372301E+006  0.2299274E+02  0.7546771E-02  0.1492589E+00
         21   -1    0    0  503  501  0.00000000000E+00  0.00000000000E+00  0.16618470860E+02  0.16618470860E+02  0.00000000000E+00 0.  1.
         21   -1    0    0  504  502 -0.00000000000E+00 -0.00000000000E+00 -0.37079347435E+02  0.37079347435E+02  0.00000000000E+00 0.  1.
         21    1    1    2  503  502  0.22845497582E+02  0.25979175973E+01 -0.20349930456E+02  0.30704814040E+02  0.00000000000E+00 0.  1.
         21    1    1    2  504  501 -0.22845497582E+02 -0.25979175973E+01 -0.11094611785E+00  0.22993004255E+02  0.00000000000E+00 0.  1.
</event>
<event>
 4    1  0.3372301E+006  0.2140056E+02  0.7546771E-02  0.1513622E+00
         21   -1    0    0  504  501  0.00000000000E+00  0.00000000000E+00  0.56448373075E+02  0.56448373075E+02  0.00000000000E+00 0. -1.
         21   -1    0    0  503  502 -0.00000000000E+00 -0.00000000000E+00 -0.57117738021E+02  0.57117738021E+02  0.00000000000E+00 0. -1.
         21    1    1    2  503  501 -0.21362422381E+02  0.12770875652E+01  0.52261091539E+02  0.56473053145E+02  0.00000000000E+00 0. -1.
         21    1    1    2  504  502  0.21362422381E+02 -0.12770875652E+01 -0.52930456485E+02  0.57093057952E+02  0.00000000000E+00 0. -1.
</event>
<event>
 4    1  0.3372301E+006  0.2520659E+02  0.7546771E-02  0.1466505E+00
         21   -1    0    0  502  501  0.00000000000E+00  0.00000000000E+00  0.48876022408E+03  0.48876022408E+03  0.00000000000E+00 0.  1.
         21   -1    0    0  503  502 -0.00000000000E+00 -0.00000000000E+00 -0.75042164988E+02  0.75042164988E+02  0.00000000000E+00 0.  1.
         21    1    1    2  503  504  0.70314757089E+01 -0.24206002802E+02 -0.72589788694E+02  0.76841718129E+02  0.00000000000E+00 0.  1.
         21    1    1    2  504  501 -0.70314757089E+01  0.24206002802E+02  0.48630784779E+03  0.48696067094E+03  0.00000000000E+00 0.  1.
</event>
<event>
 4    1  0.3372301E+006  0.2232429E+02  0.7546771E-02  0.1501162E+00
         21   -1    0    0  503  501  0.00000000000E+00  0.00000000000E+00  0.12802482627E+01  0.12802482627E+01  0.00000000000E+00 0.  1.
         21   -1    0    0  504  502 -0.00000000000E+00 -0.00000000000E+00 -0.89297853688E+03  0.89297853688E+03  0.00000000000E+00 0.  1.
         21    1    1    2  503  502  0.20667931589E+02  0.84386385583E+01 -0.11003545205E+03  0.11227722264E+03  0.00000000000E+00 0.  1.
         21    1    1    2  504  501 -0.20667931589E+02 -0.84386385583E+01 -0.78166283657E+03  0.78198156250E+03  0.00000000000E+00 0.  1.
</event>
<event>
 4    1  0.3372301E+006  0.2165507E+02  0.7546771E-02  0.1510114E+00
         21   -1    0    0  503  501  0.00000000000E+00  0.00000000000E+00  0.30059592961E+01  0.30059592961E+01  0.00000000000E+00 0.  1.
         21   -1    0    0  504  502 -0.00000000000E+00 -0.00000000000E+00 -0.20426925246E+03  0.20426925246E+03  0.00000000000E+00 0.  1.
         21    1    1    2  503  502  0.15584809172E+02 -0.15035145447E+02 -0.50254581587E+02  0.54721703611E+02  0.00000000000E+00 0.  1.
         21    1    1    2  504  501 -0.15584809172E+02  0.15035145447E+02 -0.15100871158E+03  0.15255350814E+03  0.00000000000E+00 0.  1.
</event>
<event>
 4    1  0.3372301E+006  0.2543088E+02  0.7546771E-02  0.1464040E+00
         21   -1    0    0  502  501  0.00000000000E+00  0.00000000000E+00  0.40163212127E+02  0.40163212127E+02  0.00000000000E+00 0. -1.
         21   -1    0    0  503  502 -0.00000000000E+00 -0.00000000000E+00 -0.15308679084E+03  0.15308679084E+03  0.00000000000E+00 0. -1.
         21    1    1    2  503  504  0.16233612285E+02 -0.19575478615E+02 -0.14786384883E+03  0.15003482037E+03  0.00000000000E+00 0. -1.
         21    1    1    2  504  501 -0.16233612285E+02  0.19575478615E+02  0.34940270122E+02  0.43215182598E+02  0.00000000000E+00 0. -1.
</event>
<event>
 4    1  0.3372301E+006  0.5245882E+02  0.7546771E-02  0.1287850E+00
         21   -1    0    0  504  501  0.00000000000E+00  0.00000000000E+00  0.21199551801E+02  0.21199551801E+02  0.00000000000E+00 0.  1.
         21   -1    0    0  501  502 -0.00000000000E+00 -0.00000000000E+00 -0.38783441973E+03  0.38783441973E+03  0.00000000000E+00 0.  1.
         21    1    1    2  503  502  0.77412102765E+01 -0.51884505775E+02 -0.35013279500E+03  0.35404082026E+03  0.00000000000E+00 0.  1.
         21    1    1    2  504  503 -0.77412102765E+01  0.51884505775E+02 -0.16502072934E+02  0.54993151275E+02  0.00000000000E+00 0.  1.
</event>
<event>
 4    1  0.3372301E+006  0.2535893E+02  0.7546771E-02  0.1464828E+00
         21   -1    0    0  503  501  0.00000000000E+00  0.00000000000E+00  0.27797943989E+03  0.27797943989E+03  0.00000000000E+00 0. -1.
         21   -1    0    0  504  502 -0.00000000000E+00 -0.00000000000E+00 -0.99576121941E+01  0.99576121941E+01  0.00000000000E+00 0. -1.
         21    1    1    2  503  502 -0.25353370755E+02 -0.53120179062E+00  0.26015198974E+03  0.26138502893E+03  0.00000000000E+00 0. -1.
         21    1    1    2  504  501  0.25353370755E+02  0.53120179062E+00  0.78698379548E+01  0.26552023151E+02  0.00000000000E+00 0. -1.
</event>
<event>
 4    1  0.3372301E+006  0.2462045E+02  0.7546771E-02  0.1473094E+00
         21   -1    0    0  502  501  0.00000000000E+00  0.00000000000E+00  0.30071263483E+01  0.30071263483E+01  0.00000000000E+00 0.  1.
         21   -1    0    0  503  502 -0.00000000000E+00 -0.00000000000E+00 -0.91313004999E+03  0.91313004999E+03  0.00000000000E+00 0.  1.
         21    1    1    2  503  504  0.19516964811E+02  0.15008484774E+02 -0.85942122652E+03  0.85977381394E+03  0.00000000000E+00 0.  1.
         21    1    1    2  504  501 -0.19516964811E+02 -0.15008484774E+02 -0.50701697116E+02  0.56363362401E+02  0.00000000000E+00 0.  1.
</event>
<event>
 4    1  0.3372301E+006  0.3227416E+02  0.7546771E-02  0.1400811E+00
         21   -1    0    0  502  501  0.00000000000E+00  0.00000000000E+00  0.14654574898E+02  0.14654574898E+02  0.00000000000E+00 0.  1.
         21   -1    0    0  504  502 -0.00000000000E+00 -0.00000000000E+00 -0.10218468633E+03  0.10218468633E+03  0.00000000000E+00 0.  1.
         21    1    1    2  503  501 -0.31164724009E+02 -0.83893760775E+01 -0.11532779701E+02  0.34272826863E+02  0.00000000000E+00 0.  1.
         21    1    1    2  504  503  0.31164724009E+02  0.83893760775E+01 -0.75997331736E+02  0.82566434369E+02  0.00000000000E+00 0.  1.
</event>
<event>
 4    1  0.3372301E+006  0.2501891E+02  0.7546771E-02  0.1468592E+00
         21   -1    0    0  503  501  0.00000000000E+00  0.00000000000E+00  0.21365446630E+01  0.21365446630E+01  0.00000000000E+00 0. -1.
         21   -1    0    0  504  502 -0.00000000000E+00 -0.00000000000E+00 -0.31725365934E+03  0.31725365934E+03  0.00000000000E+00 0. -1.
         21    1    1    2  503  502 -0.21573156498E+02 -0.12670617773E+02 -0.11337747412E+03  0.11610511303E+03  0.00000000000E+00 0. -1.
         21    1    1    2  504  501  0.21573156498E+02  0.12670617773E+02 -0.20173964056E+03  0.20328509097E+03  0.00000000000E+00 0. -1.
</event>
<event>
 4    1  0.3372301E+006  0.2480989E+02  0.7546771E-02  0.1470941E+00
         21   -1    0    0  502  501  0.00000000000E+00  0.00000000000E+00  0.52658520650E+02  0.52658520650E+02  0.00000000000E+00 0.  1.
         21   -1    0    0  504  502 -0.00000000000E+00 -0.00000000000E+00 -0.16949360673E+03  0.16949360673E+03  0.00000000000E+00 0. -1.
         21    1    1    2  503  501 -0.39339574433E+01 -0.24496013162E+02  0.48759932147E+02  0.54708881043E+02  0.00000000000E+00 0.  1.
         21    1    1    2  504  503  0.39339574433E+01  0.24496013162E+02 -0.16559501823E+03  0.16744324634E+03  0.00000000000E+00 0. -1.
</event>
<event>
 4    1  0.3372301E+006  0.2115129E+02  0.7546771E-02  0.1517116E+00
         21   -1    0    0  503  501  0.00000000000E+00  0.00000000000E+00  0.60790318694E+01  0.60790318694E+01  0.00000000000E+00 0. -1.
         21   -1    0    0  504  502 -0.00000000000E+00 -0.00000000000E+00 -0.85859525252E+02  0.85859525252E+02  0.00000000000E+00 0. -1.
         21    1    1    2  503  502  0.16030073727E+02  0.13799048143E+02 -0.57265296909E+02  0.61046631549E+02  0.00000000000E+00 0. -1.
         21    1    1    2  504  501 -0.16030073727E+02 -0.13799048143E+02 -0.22515196474E+02  0.30891925573E+02  0.00000000000E+00 0. -1.
</event>
<event>
 4    1  0.3372301E+006  0.2616699E+02  0.7546771E-02  0.1456160E+00
         21   -1    0    0  504  501  0.00000000000E+00  0.00000000000E+00  0.29999245381E+01  0.29999245381E+01  0.00000000000E+00 0.  1.
         21   -1    0    0  503  502 -0.00000000000E+00 -0.00000000000E+00 -0.24307473805E+03  0.24307473805E+03  0.00000000000E+00 0. -1.
         21    1    1    2  503  501 -0.92814323005E+01 -0.24465616444E+02 -0.89645007995E+02  0.93385966997E+02  0.00000000000E+00 0.  1.
         21    1    1    2  504  502  0.92814323005E+01  0.24465616444E+02 -0.15042980552E+03  0.15268869560E+03  0.00000000000E+00 0. -1.
</event>
<event>
 4    1  0.3372301E+006  0.2662446E+02  0.7546771E-02  0.1451417E+00
         21   -1    0    0  503  501  0.00000000000E+00  0.00000000000E+00  0.15038997668E+04  0.15038997668E+04  0.00000000000E+00 0.  1.
         21   -1    0    0  504  502 -0.00000000000E+00 -0.00000000000E+00 -0.60982567684E+02  0.60982567684E+02  0.00000000000E+00 0.  1.
         21    1    1    2  503  502  0.26154111066E+02  0.49823776328E+01 -0.57952863748E+02  0.63776139967E+02  0.00000000000E+00 0.  1.
         21    1    1    2  504  501 -0.26154111066E+02 -0.49823776328E+01  0.15008700629E+04  0.15011061945E+04  0.00000000000E+00 0.  1.
</event>
<event>
 4    1  0.3372301E+006  0.2753812E+02  0.7546771E-02  0.1442276E+00
         21   -1    0    0  502  501  0.00000000000E+00  0.00000000000E+00  0.27774818799E+02  0.27774818799E+02  0.00000000000E+00 0. -1.
         21   -1    0    0  503  502 -0.00000000000E+00 -0.00000000000E+00 -0.53277344195E+02  0.53277344195E+02  0.00000000000E+00 0.  1.
         21    1    1    2  503  504  0.13139642991E+02  0.24201193135E+02 -0.41047714839E+02  0.49429372448E+02  0.00000000000E+00 0.  1.
         21    1    1    2  504  501 -0.13139642991E+02 -0.24201193135E+02  0.15545189443E+02  0.31622790546E+02  0.00000000000E+00 0. -1.
</event>
<event>
 4    1  0.3372301E+006  0.3221430E+02  0.7546771E-02  0.1401282E+00
         21   -1    0    0  503  501  0.00000000000E+00  0.00000000000E+00  0.90241985273E+01  0.90241985273E+01  0.00000000000E+00 0. -1.
         21   -1    0    0  504  502 -0.00000000000E+00 -0.00000000000E+00 -0.17801694007E+03  0.17801694007E+03  0.00000000000E+00 0. -1.
         21    1    1    2  503  502 -0.28663660225E+02 -0.14702241971E+02 -0.28853011776E+02  0.43246475290E+02  0.00000000000E+00 0. -1.
         21    1    1    2  504  501  0.28663660225E+02  0.14702241971E+02 -0.14013972977E+03  0.14379466331E+03  0.00000000000E+00 0. -1.
</event>
<event>
 4    1  0.3372301E+006  0.2621387E+02  0.7546771E-02  0.1455669E+00
         21   -1    0    0  503  501  0.00000000000E+00  0.00000000000E+00  0.51355674115E+01  0.51355674115E+01  0.00000000000E+00 0. -1.
         21   -1    0    0  504  502 -0.00000000000E+00 -0.00000000000E+00 -0.25411935513E+03  0.25411935513E+03  0.00000000000E+00 0.  1.
         21    1    1    2  503  502 -0.22009624079E+02 -0.14238799076E+02 -0.21368597583E+03  0.21528786129E+03  0.00000000000E+00 0.  1.
         21    1    1    2  504  501  0.22009624079E+02  0.14238799076E+02 -0.35297811889E+02  0.43967061255E+02  0.00000000000E+00 0. -1.
</event>
<event>
 4    1  0.3372301E+006  0.2311747E+02  0.7546771E-02  0.1491028E+00
         21   -1    0    0  503  501  0.00000000000E+00  0.00000000000E+00  0.11530694424E+01  0.11530694424E+01  0.00000000000E+00 0. -1.
         21   -1    0    0  504  502 -0.00000000000E+00 -0.00000000000E+00 -0.46347851377E+03  0.46347851377E+03  0.00000000000E+00 0. -1.
         21    1    1    2  503  502  0.12479871889E+02 -0.19459447588E+02 -0.23191532350E+03  0.23306465750E+03  0.00000000000E+00 0. -1.
         21    1    1    2  504  501 -0.12479871889E+02  0.19459447588E+02 -0.23041012083E+03  0.23156692571E+03  0.00000000000E+00 0. -1.
</event>
<event>
 4    1  0.3372301E+006  0.2564012E+02  0.7546771E-02  0.1461768E+00
         21   -1    0    0  502  501  0.00000000000E+00  0.00000000000E+00  0.33836326747E+02  0.33836326747E+02  0.00000000000E+00 0. -1.
         21   -1    0    0  503  502 -0.00000000000E+00 -0.00000000000E+00 -0.60835298642E+02  0.60835298642E+02  0.00000000000E+00 0. -1.
         21    1    1    2  503  504 -0.24064349947E+02  0.88500168854E+01 -0.52551524584E+02  0.58472886651E+02  0.00000000000E+00 0. -1.
         21    1    1    2  504  501  0.24064349947E+02 -0.88500168854E+01  0.25552552689E+02  0.36198738737E+02  0.00000000000E+00 0. -1.
</event>
<event>
 4    1  0.3372301E+006  0.2433336E+02  0.7546771E-02  0.1476401E+00
         21   -1    0    0  504  501  0.00000000000E+00  0.00000000000E+00  0.55362782869E+02  0.55362782869E+02  0.00000000000E+00 0.  1.
         21   -1    0    0  503  502 -0.00000000000E+00 -0.00000000000E+00 -0.59899410167E+02  0.59899410167E+02  0.00000000000E+00 0.  1.
         21    1    1    2  503  501  0.11487527887E+02  0.21451088120E+02  0.49964933573E+02  0.55575237880E+02  0.00000000000E+00 0.  1.
         21    1    1    2  504  502 -0.11487527887E+02 -0.21451088120E+02 -0.54501560871E+02  0.59686955157E+02  0.00000000000E+00 0.  1.
</event>
<event>
 4    1  0.3372301E+006  0.2622088E+02  0.7546771E-02  0.1455595E+00
         21   -1    0    0  504  501  0.00000000000E+00  0.00000000000E+00  0.90106189677E+02  0.90106189677E+02  0.00000000000E+00 0. -1.
         21   -1    0    0  503  502 -0.00000000000E+00 -0.00000000000E+00 -0.21068365551E+02  0.21068365551E+02  0.00000000000E+00 0.  1.
         21    1    1    2  503  501 -0.25225274863E+02 -0.71568202403E+01  0.78913378706E+02  0.83155612598E+02  0.00000000000E+00 0. -1.
         21    1    1    2  504  502  0.25225274863E+02  0.71568202403E+01 -0.98755545800E+01  0.28018942630E+02  0.00000000000E+00 0.  1.
</event>
<event>
 4    1  0.3372301E+006  0.2094650E+02  0.7546771E-02  0.1520030E+00
         21   -1    0    0  503  501  0.00000000000E+00  0.00000000000E+00  0.20789189974E+03  0.20789189974E+03  0.00000000000E+00 0. -1.
         21   -1    0    0  504  502 -0.00000000000E+00 -0.00000000000E+00 -0.22700855136E+01  0.22700855136E+01  0.00000000000E+00 0.  1.
         21    1    1    2  503  502  0.38137428971E+01 -0.20596393111E+02  0.74949788493E+02  0.77821763275E+02  0.00000000000E+00 0.  1.
         21    1    1    2  504  501 -0.38137428971E+01  0.20596393111E+02  0.13067202574E+03  0.13234022198E+03  0.00000000000E+00 0. -1.
</event>
<event>
 4    1  0.3372301E+006  0.2058023E+02  0.7546771E-02  0.1525343E+00
         21   -1    0    0  504  501  0.00000000000E+00  0.00000000000E+00  0.11100031061E+03  0.11100031061E+03  0.00000000000E+00 0. -1.
         21   -1    0    0  503  502 -0.00000000000E+00 -0.00000000000E+00 -0.38492925851E+01  0.38492925851E+01  0.00000000000E+00 0. -1.
         21    1    1    2  503  501 -0.17467863125E+02  0.10882085767E+02  0.58938482521E+02  0.62428284893E+02  0.00000000000E+00 0. -1.
         21    1    1    2  504  502  0.17467863125E+02 -0.10882085767E+02  0.48212535501E+02  0.52421318300E+02  0.00000000000E+00 0. -1.
</event>
<event>
 4    1  0.3372301E+006  0.3082201E+02  0.7546771E-02  0.1412585E+00
         21   -1    0    0  503  501  0.00000000000E+00  0.00000000000E+00  0.21907753289E+02  0.21907753289E+02  0.00000000000E+00 0. -1.
         21   -1    0    0  504  502 -0.00000000000E+00 -0.00000000000E+00 -0.45373291398E+02  0.45373291398E+02  0.00000000000E+00 0. -1.
         21    1    1    2  503  502 -0.29244273769E+02  0.97349278337E+01 -0.46526509198E+01  0.31171197102E+02  0.00000000000E+00 0. -1.
         21    1    1    2  504  501  0.29244273769E+02 -0.97349278337E+01 -0.18812887189E+02  0.36109847585E+02  0.00000000000E+00 0. -1.
</event>
<event>
 4    1  0.3372301E+006  0.2047258E+02  0.7546771E-02  0.1526930E+00
         21   -1    0    0  502  501  0.00000000000E+00  0.00000000000E+00  0.43319227470E+01  0.43319227470E+01  0.00000000000E+00 0.  1.
         21   -1    0    0  504  502 -0.00000000000E+00 -0.00000000000E+00 -0.17823038101E+03  0.17823038101E+03  0.00000000000E+00 0.  1.
         21    1    1    2  503  501  0.24388062176E+01  0.20326798628E+02 -0.25231665078E+02  0.32492513612E+02  0.00000000000E+00 0.  1.
         21    1    1    2  504  503 -0.24388062176E+01 -0.20326798628E+02 -0.14866679319E+03  0.15006979015E+03  0.00000000000E+00 0.  1.
</event>
<event>
 4    1  0.3372301E+006  0.2414922E+02  0.7546771E-02  0.1478550E+00
         21   -1    0    0  502  501  0.00000000000E+00  0.00000000000E+00  0.12285482581E+01  0.12285482581E+01  0.00000000000E+00 0. -1.
         21   -1    0    0  504  502 -0.00000000000E+00 -0.00000000000E+00 -0.13443678862E+04  0.13443678862E+04  0.00000000000E+00 0. -1.
         21    1    1    2  503  501  0.22781618848E+02 -0.80114001330E+01 -0.13043676684E+03  0.13265343883E+03  0.00000000000E+00 0. -1.
         21    1    1    2  504  503 -0.22781618848E+02  0.80114001330E+01 -0.12127025711E+04  0.12129429956E+04  0.00000000000E+00 0. -1.
</event>
<event>
 4    1  0.3372301E+006  0.2269670E+02  0.7546771E-02  0.1496342E+00
         21   -1    0    0  503  501  0.00000000000E+00  0.00000000000E+00  0.16264551960E+02  0.16264551960E+02  0.00000000000E+00 0. -1.
         21   -1    0    0  504  502 -0.00000000000E+00 -0.00000000000E+00 -0.37547628187E+02  0.37547628187E+02  0.00000000000E+00 0. -1.
         21    1    1    2  503  502  0.11854567497E+02  0.19354827515E+02 -0.21284573804E+02  0.31115481689E+02  0.00000000000E+00 0. -1.
         21    1    1    2  504  501 -0.11854567497E+02 -0.19354827515E+02  0.14975768899E-02  0.22696698459E+02  0.00000000000E+00 0. -1.
</event>
<event>
 4    1  0.3372301E+006  0.2844418E+02  0.7546771E-02  0.1433617E+00
         21   -1    0    0  503  501  0.00000000000E+00  0.00000000000E+00  0.18925035331E+03  0.18925035331E+03  0.00000000000E+00 0. -1.
         21   -1    0    0  504  502 -0.00000000000E+00 -0.00000000000E+00 -0.43459098291E+01  0.43459098291E+01  0.00000000000E+00 0. -1.
         21    1    1    2  503  502 -0.28062693399E+01  0.28305411984E+02  0.10480472314E+03  0.10859604729E+03  0.00000000000E+00 0. -1.
         21    1    1    2  504  501  0.28062693399E+01 -0.28305411984E+02  0.80099720344E+02  0.85000215849E+02  0.00000000000E+00 0. -1.
</event>
<event>
 4    1  0.3372301E+006  0.2865121E+02  0.7546771E-02  0.1431691E+00
         21   -1    0    0  504  501  0.00000000000E+00  0.00000000000E+00  0.45562031570E+02  0.45562031570E+02  0.00000000000E+00 0.  1.
         21   -1    0    0  503  502 -0.00000000000E+00 -0.00000000000E+00 -0.23975799517E+02  0.23975799517E+02  0.00000000000E+00 0.  1.
         21    1    1    2  503  501  0.28523939204E+02 -0.26975581421E+01 -0.65402672036E+01  0.29388212309E+02  0.00000000000E+00 0.  1.
         21    1    1    2  504  502 -0.28523939204E+02  0.26975581421E+01  0.28126499256E+02  0.40149618778E+02  0.00000000000E+00 0.  1.
</event>
<event>
 4    1  0.3372301E+006  0.2035207E+02  0.7546771E-02  0.1528720E+00
         21   -1    0    0  503  501  0.00000000000E+00  0.00000000000E+00  0.15063703334E+02  0.15063703334E+02  0.00000000000E+00 0. -1.
         21   -1    0    0  501  502 -0.00000000000E+00 -0.00000000000E+00 -0.23586312019E+03  0.23586312019E+03  0.00000000000E+00 0.  1.
         21    1    1    2  503  504 -0.11162910565E+02 -0.17017522999E+02  0.75238634443E+01  0.21698276024E+02  0.00000000000E+00 0. -1.
         21    1    1    2  504  502  0.11162910565E+02  0.17017522999E+02 -0.22832328030E+03  0.22922854750E+03  0.00000000000E+00 0.  1.
</event>
<event>
 4    1  0.3372301E+006  0.2004541E+02  0.7546771E-02  0.1533343E+00
         21   -1    0    0  504  501  0.00000000000E+00  0.00000000000E+00  0.37704417238E+03  0.37704417238E+03  0.00000000000E+00 0. -1.
         21   -1    0    0  503  502 -0.00000000000E+00 -0.00000000000E+00 -0.15735573765E+01  0.15735573765E+01  0.00000000000E+00 0. -1.
         21    1    1    2  503  501  0.16110890737E+02 -0.11927182093E+02  0.80188453970E+02  0.82655953344E+02  0.00000000000E+00 0. -1.
         21    1    1    2  504  502 -0.16110890737E+02  0.11927182093E+02  0.29528216103E+03  0.29596177641E+03  0.00000000000E+00 0. -1.
</event>
<event>
 4    1  0.3372301E+006  0.2268204E+02  0.7546771E-02  0.1496530E+00
         21   -1    0    0  504  501  0.00000000000E+00  0.00000000000E+00  0.44397189415E+03  0.44397189415E+03  0.00000000000E+00 0.  1.
         21   -1    0    0  501  502 -0.00000000000E+00 -0.00000000000E+00 -0.21067606137E+01  0.21067606137E+01  0.00000000000E+00 0.  1.
         21    1    1    2  503  502 -0.22491744850E+02 -0.29319167495E+01  0.71319697782E+02  0.74839655357E+02  0.00000000000E+00 0.  1.
         21    1    1    2  504  503  0.22491744850E+02  0.29319167495E+01  0.37054543575E+03  0.37123899941E+03  0.00000000000E+00 0.  1.
</event>
<event>
 4    1  0.3372301E+006  0.2822440E+02  0.7546771E-02  0.1435682E+00
         21   -1    0    0  502  501  0.00000000000E+00  0.00000000000E+00  0.25756719732E+02  0.25756719732E+02  0.00000000000E+00 0.  1.
         21   -1    0    0  504  502 -0.00000000000E+00 -0.00000000000E+00 -0.34839189063E+02  0.34839189063E+02  0.00000000000E+00 0.  1.
         21    1    1    2  503  501 -0.24414423442E+02  0.14161660995E+02  0.56096972541E+01  0.28776473332E+02  0.00000000000E+00 0.  1.
         21    1    1    2  504  503  0.24414423442E+02 -0.14161660995E+02 -0.14692166585E+02  0.31819435462E+02  0.00000000000E+00 0.  1.
</event>
<event>
 4    1  0.3372301E+006  0.2157511E+02  0.7546771E-02  0.1511210E+00
         21   -1    0    0  504  501  0.00000000000E+00  0.00000000000E+00  0.47654095406E+02  0.47654095406E+02  0.00000000000E+00 0.  1.
         21   -1    0    0  503  502 -0.00000000000E+00 -0.00000000000E+00 -0.10110935021E+02  0.10110935021E+02  0.00000000000E+00 0. -1.
         21    1    1    2  503  501  0.56999094712E+01 -0.20808564368E+02  0.13452411779E+02  0.25425434150E+02  0.00000000000E+00 0. -1.
         21    1    1    2  504  502 -0.56999094712E+01  0.20808564368E+02  0.24090748605E+02  0.32339596277E+02  0.00000000000E+00 0.  1.
</event>
<event>
 4    1  0.3372301E+006  0.2467403E+02  0.7546771E-02  0.1472483E+00
         21   -1    0    0  504  501  0.00000000000E+00  0.00000000000E+00  0.14414314184E+01  0.14414314184E+01  0.00000000000E+00 0. -1.
         21   -1    0    0  503  502 -0.00000000000E+00 -0.00000000000E+00 -0.42721022385E+03  0.42721022385E+03  0.00000000000E+00 0. -1.
         21    1    1    2  503  501 -0.23524953355E+02 -0.74420701250E+01 -0.19005557708E+03  0.19165054192E+03  0.00000000000E+00 0. -1.
         21    1    1    2  504  502  0.23524953355E+02  0.74420701250E+01 -0.23571321536E+03  0.23700111336E+03  0.00000000000E+00 0. -1.
</event>
<event>
 4    1  0.3372301E+006  0.5696523E+02  0.7546771E-02  0.1270507E+00
         21   -1    0    0  504  501  0.00000000000E+00  0.00000000000E+00  0.44954439329E+02  0.44954439329E+02  0.00000000000E+00 0.  1.
         21   -1    0    0  501  502 -0.00000000000E+00 -0.00000000000E+00 -0.86388824213E+02  0.86388824213E+02  0.00000000000E+00 0.  1.
         21    1    1    2  503  502  0.42925869078E+02  0.37448724337E+02 -0.47345976419E+02  0.74072118059E+02  0.00000000000E+00 0.  1.
         21    1    1    2  504  503 -0.42925869078E+02 -0.37448724337E+02  0.59115915353E+01  0.57271145484E+02  0.00000000000E+00 0.  1.
</event>
<event>
 4    1  0.3372301E+006  0.2651705E+02  0.7546771E-02  0.1452521E+00
         21   -1    0    0  503  501  0.00000000000E+00  0.00000000000E+00  0.52537751158E+01  0.52537751158E+01  0.00000000000E+00 0. -1.
         21   -1    0    0  504  502 -0.00000000000E+00 -0.00000000000E+00 -0.22258944560E+03  0.22258944560E+03  0.00000000000E+00 0. -1.
         21    1    1    2  503  502 -0.19451106141E+02 -0.18022441307E+02 -0.18060311506E+03  0.18253941791E+03  0.00000000000E+00 0. -1.
         21    1    1    2  504  501  0.19451106141E+02  0.18022441307E+02 -0.36732555420E+02  0.45303802803E+02  0.00000000000E+00 0. -1.
</event>
<event>
 4    1  0.3372301E+006  0.3266658E+02  0.7546771E-02  0.1397754E+00
         21   -1    0    0  503  501  0.00000000000E+00  0.00000000000E+00  0.15614736873E+02  0.15614736873E+02  0.00000000000E+00 0. -1.
         21   -1    0    0  501  502 -0.00000000000E+00 -0.00000000000E+00 -0.23562837053E+03  0.23562837053E+03  0.00000000000E+00 0.  1.
         21    1    1    2  503  504  0.17328602283E+02 -0.27691606217E+02 -0.41585595546E+01  0.32930216057E+02  0.00000000000E+00 0. -1.
         21    1    1    2  504  502 -0.17328602283E+02  0.27691606217E+02 -0.21585507411E+03  0.21831289135E+03  0.00000000000E+00 0.  1.
</event>
<event>
 4    1  0.3372301E+006  0.2257740E+02  0.7546771E-02  0.1497874E+00
         21   -1    0    0  504  501  0.00000000000E+00  0.00000000000E+00  0.55002729349E+00  0.55002729349E+00  0.00000000000E+00 0. -1.
         21   -1    0    0  503  502 -0.00000000000E+00 -0.00000000000E+00 -0.13962040571E+04  0.13962040571E+04  0.00000000000E+00 0. -1.
         21    1    1    2  503  501 -0.19171603891E+02 -0.11924279217E+02 -0.11027861342E+04  0.11030172241E+04  0.00000000000E+00 0. -1.
         21    1    1    2  504  502  0.19171603891E+02  0.11924279217E+02 -0.29286789562E+03  0.29373686033E+03  0.00000000000E+00 0. -1.
</event>
<event>
 4    1  0.3372301E+006  0.2646289E+02  0.7546771E-02  0.1453079E+00
         21   -1    0    0  504  501  0.00000000000E+00  0.00000000000E+00  0.16579062674E+02  0.16579062674E+02  0.00000000000E+00 0.  1.
         21   -1    0    0  503  502 -0.00000000000E+00 -0.00000000000E+00 -0.38475326995E+03  0.38475326995E+03  0.00000000000E+00 0. -1.
         21    1    1    2  503  501 -0.63247462522E+01 -0.25695959191E+02  0.52441295480E+01  0.26977502268E+02  0.00000000000E+00 0.  1.
         21    1    1    2  504  502  0.63247462522E+01  0.25695959191E+02 -0.37341833682E+03  0.37435483035E+03  0.00000000000E+00 0. -1.
</event>
<event>
 4    1  0.3372301E+006  0.2726788E+02  0.7546771E-02  0.1444936E+00
         21   -1    0    0  504  501  0.00000000000E+00  0.00000000000E+00  0.24082865548E+03  0.24082865548E+03  0.00000000000E+00 0. -1.
         21   -1    0    0  501  502 -0.00000000000E+00 -0.00000000000E+00 -0.12956216992E+02  0.12956216992E+02  0.00000000000E+00 0. -1.
         21    1    1    2  503  502  0.23825012273E+02  0.13262962879E+02  0.31900016305E+01  0.27453843166E+02  0.00000000000E+00 0. -1.
         21    1    1    2  504  503 -0.23825012273E+02 -0.13262962879E+02  0.22468243686E+03  0.22633102930E+03  0.00000000000E+00 0. -1.
</event>
<event>
 4    1  0.3372301E+006  0.2670482E+02  0.7546771E-02  0.1450596E+00
         21   -1    0    0  502  501  0.00000000000E+00  0.00000000000E+00  0.94861091706E+01  0.94861091706E+01  0.00000000000E+00 0. -1.
         21   -1    0    0  504  502 -0.00000000000E+00 -0.00000000000E+00 -0.16968697703E+03  0.16968697703E+03  0.00000000000E+00 0. -1.
         21    1    1    2  503  501 -0.12713739238E+02 -0.23484209011E+02 -0.13242195947E+02  0.29807767306E+02  0.00000000000E+00 0. -1.
         21    1    1    2  504  503  0.12713739238E+02  0.23484209011E+02 -0.14695867192E+03  0.14936531890E+03  0.00000000000E+00 0. -1.
</event>
<event>
 4    1  0.3372301E+006  0.3764736E+02  0.7546771E-02  0.1362852E+00
         21   -1    0    0  504  501  0.00000000000E+00  0.00000000000E+00  0.16273078292E+01  0.16273078292E+01  0.00000000000E+00 0. -1.
         21   -1    0    0  503  502 -0.00000000000E+00 -0.00000000000E+00 -0.89269511100E+03  0.89269511100E+03  0.00000000000E+00 0. -1.
         21    1    1    2  503  501  0.30114018995E+02  0.22593581915E+02 -0.37576392662E+03  0.37764514114E+03  0.00000000000E+00 0. -1.
         21    1    1    2  504  502 -0.30114018995E+02 -0.22593581915E+02 -0.51530387656E+03  0.51667727769E+03  0.00000000000E+00 0. -1.
</event>
<event>
 4    1  0.3372301E+006  0.2045783E+02  0.7546771E-02  0.1527148E+00
         21   -1    0    0  503  501  0.00000000000E+00  0.00000000000E+00  0.46022419151E+01  0.46022419151E+01  0.00000000000E+00 0.  1.
         21   -1    0    0  504  502 -0.00000000000E+00 -0.00000000000E+00 -0.20782621751E+03  0.20782621751E+03  0.00000000000E+00 0.  1.
         21    1    1    2  503  502 -0.57655415095E+01 -0.19628588059E+02 -0.21956411436E+02  0.30010113982E+02  0.00000000000E+00 0.  1.
         21    1    1    2  504  501  0.57655415095E+01  0.19628588059E+02 -0.18126756415E+03  0.18241834544E+03  0.00000000000E+00 0.  1.
</event>
<event>
 4    1  0.3372301E+006  0.2012110E+02  0.7546771E-02  0.1532193E+00
         21   -1    0    0  504  501  0.00000000000E+00  0.00000000000E+00  0.32566402060E+02  0.32566402060E+02  0.00000000000E+00 0.  1.
         21   -1    0    0  503  502 -0.00000000000E+00 -0.00000000000E+00 -0.14527434665E+02  0.14527434665E+02  0.00000000000E+00 0.  1.
         21    1    1    2  503  501 -0.19603924084E+02  0.45326250950E+01  0.76161306488E-01  0.20121240774E+02  0.00000000000E+00 0.  1.
         21    1    1    2  504  502  0.19603924084E+02 -0.45326250950E+01  0.17962806088E+02  0.26972595951E+02  0.00000000000E+00 0.  1.
</event>
<event>
 4    1  0.3372301E+006  0.2013250E+02  0.7546771E-02  0.1532020E+00
         21   -1    0    0  504  501  0.00000000000E+00  0.00000000000E+00  0.20796666988E+03  0.20796666988E+03  0.00000000000E+00 0. -1.
         21   -1    0    0  501  502 -0.00000000000E+00 -0.00000000000E+00 -0.30825609107E+01  0.30825609107E+01  0.00000000000E+00 0. -1.
         21    1    1    2  503  502  0.20077004067E+02 -0.14938540229E+01  0.38449568034E+02  0.43401462811E+02  0.00000000000E+00 0. -1.
         21    1    1    2  504  503 -0.20077004067E+02  0.14938540229E+01  0.16643454094E+03  0.16764776798E+03  0.00000000000E+00 0. -1.
</event>
<event>
 4    1  0.3372301E+006  0.2039407E+02  0.7546771E-02  0.1528095E+00
         21   -1    0    0  503  501  0.00000000000E+00  0.00000000000E+00  0.32209741536E+03  0.32209741536E+03  0.00000000000E+00 0.  1.
         21   -1    0    0  501  502 -0.00000000000E+00 -0.00000000000E+00 -0.40965388230E+02  0.40965388230E+02  0.00000000000E+00 0.  1.
         21    1    1    2  503  504 -0.20378574447E+02  0.79474411819E+00  0.31921345935E+03  0.31986426894E+03  0.00000000000E+00 0.  1.
         21    1    1    2  504  502  0.20378574447E+02 -0.79474411819E+00 -0.38081432228E+02  0.43198534642E+02  0.00000000000E+00 0.  1.
</event>
<event>
 4    1  0.3372301E+006  0.7492144E+02  0.7546771E-02  0.1216155E+00
         21   -1    0    0  503  501  0.00000000000E+00  0.00000000000E+00  0.55480177766E+02  0.55480177766E+02  0.00000000000E+00 0. -1.
         21   -1    0    0  504  502 -0.00000000000E+00 -0.00000000000E+00 -0.10730109762E+03  0.10730109762E+03  0.00000000000E+00 0. -1.
         21    1    1    2  503  502 -0.47374785999E+02  0.58041817004E+02 -0.64633899504E+01  0.75199722601E+02  0.00000000000E+00 0. -1.
         21    1    1    2  504  501  0.47374785999E+02 -0.58041817004E+02 -0.45357529906E+02  0.87581552788E+02  0.00000000000E+00 0. -1.
</event>
<event>
 4    1  0.3372301E+006  0.4172189E+02  0.7546771E-02  0.1338681E+00
         21   -1    0    0  502  501  0.00000000000E+00  0.00000000000E+00  0.16421805790E+03  0.16421805790E+03  0.00000000000E+00 0.  1.
         21   -1    0    0  504  502 -0.00000000000E+00 -0.00000000000E+00 -0.10636923506E+02  0.10636923506E+02  0.00000000000E+00 0.  1.
         21    1    1    2  503  501 -0.54564199298E+01  0.41363556511E+02  0.81939479337E+02  0.91949957041E+02  0.00000000000E+00 0.  1.
         21    1    1    2  504  503  0.54564199298E+01 -0.41363556511E+02  0.71641655059E+02  0.82905024367E+02  0.00000000000E+00 0.  1.
</event>
<event>
 4    1  0.3372301E+006  0.3260343E+02  0.7546771E-02  0.1398243E+00
         21   -1    0    0  502  501  0.00000000000E+00  0.00000000000E+00  0.11937908767E+03  0.11937908767E+03  0.00000000000E+00 0.  1.
         21   -1    0    0  503  502 -0.00000000000E+00 -0.00000000000E+00 -0.13845533809E+02  0.13845533809E+02  0.00000000000E+00 0.  1.
         21    1    1    2  503  504 -0.24499318763E+02 -0.21512024550E+02  0.12972685149E+02  0.35089519519E+02  0.00000000000E+00 0.  1.
         21    1    1    2  504  501  0.24499318763E+02  0.21512024550E+02  0.92560868712E+02  0.98135101960E+02  0.00000000000E+00 0.  1.
</event>
<event>
 4    1  0.3372301E+006  0.2117624E+02  0.7546771E-02  0.1516763E+00
         21   -1    0    0  504  501  0.00000000000E+00  0.00000000000E+00  0.13878431106E+02  0.13878431106E+02  0.00000000000E+00 0.  1.
         21   -1    0    0  501  502 -0.00000000000E+00 -0.00000000000E+00 -0.24061859246E+03  0.24061859246E+03  0.00000000000E+00 0.  1.
         21    1    1    2  503  502 -0.18402047960E+02  0.10478433894E+02 -0.23176693067E+03  0.23273234218E+03  0.00000000000E+00 0.  1.
         21    1    1    2  504  503  0.18402047960E+02 -0.10478433894E+02  0.50267693154E+01  0.21764681384E+02  0.00000000000E+00 0.  1.
</event>
<event>
 4    1  0.3372301E+006  0.2291127E+02  0.7546771E-02  0.1493615E+00
         21   -1    0    0  503  501  0.00000000000E+00  0.00000000000E+00  0.20488903140E+03  0.20488903140E+03  0.00000000000E+00 0.  1.
         21   -1    0    0  504  502 -0.00000000000E+00 -0.00000000000E+00 -0.25255770767E+02  0.25255770767E+02  0.00000000000E+00 0.  1.
         21    1    1    2  503  502  0.17191826431E+02  0.15144877970E+02 -0.19263128458E+02  0.29933164596E+02  0.00000000000E+00 0.  1.
         21    1    1    2  504  501 -0.17191826431E+02 -0.15144877970E+02  0.19889638909E+03  0.20021163757E+03  0.00000000000E+00 0.  1.
</event>
<event>
 4    1  0.3372301E+006  0.2240031E+02  0.7546771E-02  0.1500169E+00
         21   -1    0    0  504  501  0.00000000000E+00  0.00000000000E+00  0.45811127006E+03  0.45811127006E+03  0.00000000000E+00 0. -1.
         21   -1    0    0  503  502 -0.00000000000E+00 -0.00000000000E+00 -0.12002373971E+02  0.12002373971E+02  0.00000000000E+00 0. -1.
         21    1    1    2  503  501  0.19224990563E+02  0.11496681985E+02  0.44712934667E+03  0.44769010109E+03  0.00000000000E+00 0. -1.
         21    1    1    2  504  502 -0.19224990563E+02 -0.11496681985E+02 -0.10204505782E+01  0.22423542945E+02  0.00000000000E+00 0. -1.
</event>
<event>
 4    1  0.3372301E+006  0.2158141E+02  0.7546771E-02  0.1511123E+00
         21   -1    0    0  504  501  0.00000000000E+00  0.00000000000E+00  0.81687897312E+01  0.81687897312E+01  0.00000000000E+00 0. -1.
         21   -1    0    0  503  502 -0.00000000000E+00 -0.00000000000E+00 -0.87268919492E+02  0.87268919492E+02  0.00000000000E+00 0. -1.
         21    1    1    2  503  501  0.12025312945E+02  0.17920636287E+02 -0.11454426754E+02  0.24432790438E+02  0.00000000000E+00 0. -1.
         21    1    1    2  504  502 -0.12025312945E+02 -0.17920636287E+02 -0.67645703007E+02  0.71004918785E+02  0.00000000000E+00 0. -1.
</event>
<event>
 4    1  0.3372301E+006  0.2743709E+02  0.7546771E-02  0.1443266E+00
         21   -1    0    0  502  501  0.00000000000E+00  0.00000000000E+00  0.98114188567E+03  0.98114188567E+03  0.00000000000E+00 0. -1.
         21   -1    0    0  504  502 -0.00000000000E+00 -0.00000000000E+00 -0.43027746845E+01  0.43027746845E+01  0.00000000000E+00 0. -1.
         21    1    1    2  503  501 -0.26196433311E+02 -0.81572691089E+01  0.93505590248E+03  0.93545835553E+03  0.00000000000E+00 0. -1.
         21    1    1    2  504  503  0.26196433311E+02  0.81572691089E+01  0.41783208504E+02  0.49986304829E+02  0.00000000000E+00 0. -1.
</event>
<event>
 4    1  0.3372301E+006  0.2354332E+02  0.7546771E-02  0.1485786E+00
         21   -1    0    0  504  501  0.00000000000E+00  0.00000000000E+00  0.46341260860E+02  0.46341260860E+02  0.00000000000E+00 0. -1.
         21   -1    0    0  501  502 -0.00000000000E+00 -0.00000000000E+00 -0.20061594191E+02  0.20061594191E+02  0.00000000000E+00 0. -1.
         21    1    1    2  503  502  0.22882876714E+02  0.55373113050E+01 -0.79577373282E+01  0.24851829844E+02  0.00000000000E+00 0. -1.
         21    1    1    2  504  503 -0.22882876714E+02 -0.55373113050E+01  0.34237403998E+02  0.41551025206E+02  0.00000000000E+00 0. -1.
</event>
<event>
 4    1  0.3372301E+006  0.2113931E+02  0.7546771E-02  0.1517285E+00
         21   -1    0    0  502  501  0.00000000000E+00  0.00000000000E+00  0.61331364876E+01  0.61331364876E+01  0.00000000000E+00 0. -1.
         21   -1    0    0  503  502 -0.00000000000E+00 -0.00000000000E+00 -0.85963491467E+02  0.85963491467E+02  0.00000000000E+00 0. -1.
         21    1    1    2  503  504  0.19317109238E+02  0.85860129156E+01 -0.57892424955E+02  0.61631186864E+02  0.00000000000E+00 0. -1.
         21    1    1    2  504  501 -0.19317109238E+02 -0.85860129156E+01 -0.21937930024E+02  0.30465441091E+02  0.00000000000E+00 0. -1.
</event>
<event>
 4    1  0.3372301E+006  0.8328544E+02  0.7546771E-02  0.1196419E+00
         21   -1    0    0  504  501  0.00000000000E+00  0.00000000000E+00  0.11437624646E+03  0.11437624646E+03  0.00000000000E+00 0. -1.
         21   -1    0    0  503  502 -0.00000000000E+00 -0.00000000000E+00 -0.10158882905E+03  0.10158882905E+03  0.00000000000E+00 0.  1.
         21    1    1    2  503  501  0.73731575315E+02  0.38731374457E+02 -0.62158168252E+02  0.10392354135E+03  0.00000000000E+00 0.  1.
         21    1    1    2  504  502 -0.73731575315E+02 -0.38731374457E+02  0.74945585665E+02  0.11204153416E+03  0.00000000000E+00 0. -1.
</event>
<event>
 4    1  0.3372301E+006  0.2149567E+02  0.7546771E-02  0.1512304E+00
         21   -1    0    0  503  501  0.00000000000E+00  0.00000000000E+00  0.14264479480E+03  0.14264479480E+03  0.00000000000E+00 0.  1.
         21   -1    0    0  504  502 -0.00000000000E+00 -0.00000000000E+00 -0.87264856940E+01  0.87264856940E+01  0.00000000000E+00 0. -1.
         21    1    1    2  503  502  0.93630369699E+01 -0.19349345938E+02  0.12697558899E+03  0.12878223421E+03  0.00000000000E+00 0.  1.
         21    1    1    2  504  501 -0.93630369699E+01  0.19349345938E+02  0.69427201239E+01  0.22589046289E+02  0.00000000000E+00 0. -1.
</event>
<event>
 4    1  0.3372301E+006  0.2234139E+02  0.7546771E-02  0.1500938E+00
         21   -1    0    0  504  501  0.00000000000E+00  0.00000000000E+00  0.57080069631E+02  0.57080069631E+02  0.00000000000E+00 0.  1.
         21   -1    0    0  503  502 -0.00000000000E+00 -0.00000000000E+00 -0.54260313681E+02  0.54260313681E+02  0.00000000000E+00 0.  1.
         21    1    1    2  503  501  0.10356396233E+01  0.22317374115E+02 -0.49577494562E+02  0.54378908630E+02  0.00000000000E+00 0.  1.
         21    1    1    2  504  502 -0.10356396233E+01 -0.22317374115E+02  0.52397250512E+02  0.56961474683E+02  0.00000000000E+00 0.  1.
</event>
<event>
 4    1  0.3372301E+006  0.2250490E+02  0.7546771E-02  0.1498810E+00
         21   -1    0    0  504  501  0.00000000000E+00  0.00000000000E+00  0.37934579415E+02  0.37934579415E+02  0.00000000000E+00 0.  1.
         21   -1    0    0  503  502 -0.00000000000E+00 -0.00000000000E+00 -0.14338361894E+02  0.14338361894E+02  0.00000000000E+00 0.  1.
         21    1    1    2  503  501 -0.21451724771E+02 -0.68039760654E+01  0.49400615147E+01  0.23040720338E+02  0.00000000000E+00 0.  1.
         21    1    1    2  504  502  0.21451724771E+02  0.68039760654E+01  0.18656156007E+02  0.29232220971E+02  0.00000000000E+00 0.  1.
</event>
<event>
 4    1  0.3372301E+006  0.2223278E+02  0.7546771E-02  0.1502364E+00
         21   -1    0    0  503  501  0.00000000000E+00  0.00000000000E+00  0.70568854212E+03  0.70568854212E+03  0.00000000000E+00 0. -1.
         21   -1    0    0  504  502 -0.00000000000E+00 -0.00000000000E+00 -0.95140947680E+00  0.95140947680E+00  0.00000000000E+00 0. -1.
         21    1    1    2  503  502 -0.22190175931E+02 -0.13757855147E+01  0.53383225924E+03  0.53429502870E+03  0.00000000000E+00 0. -1.
         21    1    1    2  504  501  0.22190175931E+02  0.13757855147E+01  0.17090487340E+03  0.17234492289E+03  0.00000000000E+00 0. -1.
</event>
<event>
 4    1  0.3372301E+006  0.2328102E+02  0.7546771E-02  0.1488999E+00
         21   -1    0    0  504  501  0.00000000000E+00  0.00000000000E+00  0.44408429565E+01  0.44408429565E+01  0.00000000000E+00 0. -1.
         21   -1    0    0  503  502 -0.00000000000E+00 -0.00000000000E+00 -0.13971694892E+03  0.13971694892E+03  0.00000000000E+00 0. -1.
         21    1    1    2  503  501 -0.76615363586E+01 -0.21984234006E+02 -0.42007254393E+02  0.48027232961E+02  0.00000000000E+00 0. -1.
         21    1    1    2  504  502  0.76615363586E+01  0.21984234006E+02 -0.93268851571E+02  0.96130558916E+02  0.00000000000E+00 0. -1.
</event>
<event>
 4    1  0.3372301E+006  0.4496847E+02  0.7546771E-02  0.1321597E+00
         21   -1    0    0  502  501  0.00000000000E+00  0.00000000000E+00  0.18350168446E+02  0.18350168446E+02  0.00000000000E+00 0. -1.
         21   -1    0    0  504  502 -0.00000000000E+00 -0.00000000000E+00 -0.33315983977E+03  0.33315983977E+03  0.00000000000E+00 0.  1.
         21    1    1    2  503  501 -0.43472770346E+02 -0.11501371740E+02 -0.13625643635E+02  0.46987460859E+02  0.00000000000E+00 0. -1.
         21    1    1    2  504  503  0.43472770346E+02  0.11501371740E+02 -0.30118402769E+03  0.30452254736E+03  0.00000000000E+00 0.  1.
</event>
<event>
 4    1  0.3372301E+006  0.8585708E+02  0.7546771E-02  0.1190866E+00
         21   -1    0    0  503  501  0.00000000000E+00  0.00000000000E+00  0.15647942630E+03  0.15647942630E+03  0.00000000000E+00 0.  1.
         21   -1    0    0  504  502 -0.00000000000E+00 -0.00000000000E+00 -0.69620330264E+02  0.69620330264E+02  0.00000000000E+00 0.  1.
         21    1    1    2  503  502 -0.46355854817E+02 -0.72267375289E+02 -0.20855787632E+02  0.88353849291E+02  0.00000000000E+00 0.  1.
         21    1    1    2  504  501  0.46355854817E+02  0.72267375289E+02  0.10771488367E+03  0.13774590727E+03  0.00000000000E+00 0.  1.
</event>
<event>
 4    1  0.3372301E+006  0.2120755E+02  0.7546771E-02  0.1516322E+00
         21   -1    0    0  504  501  0.00000000000E+00  0.00000000000E+00  0.49292877983E+02  0.49292877983E+02  0.00000000000E+00 0. -1.
         21   -1    0    0  503  502 -0.00000000000E+00 -0.00000000000E+00 -0.16787033743E+02  0.16787033743E+02  0.00000000000E+00 0.  1.
         21    1    1    2  503  501 -0.16643669978E+02  0.13143384300E+02  0.38575579822E+02  0.44020854828E+02  0.00000000000E+00 0. -1.
         21    1    1    2  504  502  0.16643669978E+02 -0.13143384300E+02 -0.60697355822E+01  0.22059056898E+02  0.00000000000E+00 0.  1.
</event>
<event>
 4    1  0.3372301E+006  0.2858206E+02  0.7546771E-02  0.1432332E+00
         21   -1    0    0  504  501  0.00000000000E+00  0.00000000000E+00  0.52648673436E+01  0.52648673436E+01  0.00000000000E+00 0.  1.
         21   -1    0    0  501  502 -0.00000000000E+00 -0.00000000000E+00 -0.26701183023E+03  0.26701183023E+03  0.00000000000E+00 0.  1.
         21    1    1    2  503  502  0.26264056760E+02 -0.11275336379E+02 -0.21898305601E+03  0.22084046891E+03  0.00000000000E+00 0.  1.
         21    1    1    2  504  503 -0.26264056760E+02  0.11275336379E+02 -0.42763906873E+02  0.51436228663E+02  0.00000000000E+00 0.  1.
</event>
<event>
 4    1  0.3372301E+006  0.3355058E+02  0.7546771E-02  0.1391050E+00
         21   -1    0    0  502  501  0.00000000000E+00  0.00000000000E+00  0.46956629662E+01  0.46956629662E+01  0.00000000000E+00 0.  1.
         21   -1    0    0  503  502 -0.00000000000E+00 -0.00000000000E+00 -0.37368119574E+03  0.37368119574E+03  0.00000000000E+00 0.  1.
         21    1    1    2  503  504 -0.25713465228E+02 -0.21551315821E+02 -0.29776786017E+03  0.29965203163E+03  0.00000000000E+00 0.  1.
         21    1    1    2  504  501  0.25713465228E+02  0.21551315821E+02 -0.71217672608E+02  0.78724827084E+02  0.00000000000E+00 0.  1.
</event>
<event>
 4    1  0.3372301E+006  0.2723660E+02  0.7546771E-02  0.1445246E+00
         21   -1    0    0  503  501  0.00000000000E+00  0.00000000000E+00  0.39001568889E+02  0.39001568889E+02  0.00000000000E+00 0. -1.
         21   -1    0    0  504  502 -0.00000000000E+00 -0.00000000000E+00 -0.53997340477E+02  0.53997340477E+02  0.00000000000E+00 0.  1.
         21    1    1    2  503  502 -0.21775836205E+02  0.16359872145E+02 -0.44921994550E+02  0.52533970470E+02  0.00000000000E+00 0.  1.
         21    1    1    2  504  501  0.21775836205E+02 -0.16359872145E+02  0.29926222963E+02  0.40464938896E+02  0.00000000000E+00 0. -1.
</event>
<event>
 4    1  0.3372301E+006  0.2128177E+02  0.7546771E-02  0.1515280E+00
         21   -1    0    0  503  501  0.00000000000E+00  0.00000000000E+00  0.72764361773E+02  0.72764361773E+02  0.00000000000E+00 0. -1.
         21   -1    0    0  504  502 -0.00000000000E+00 -0.00000000000E+00 -0.22895554985E+02  0.22895554985E+02  0.00000000000E+00 0.  1.
         21    1    1    2  503  502 -0.20027822540E+02  0.71972169628E+01  0.65748239707E+02  0.69106762566E+02  0.00000000000E+00 0. -1.
         21    1    1    2  504  501  0.20027822540E+02 -0.71972169628E+01 -0.15879432919E+02  0.26553154192E+02  0.00000000000E+00 0.  1.
</event>
<event>
 4    1  0.3372301E+006  0.4049578E+02  0.7546771E-02  0.1345605E+00
         21   -1    0    0  503  501  0.00000000000E+00  0.00000000000E+00  0.43105951577E+02  0.43105951577E+02  0.00000000000E+00 0.  1.
         21   -1    0    0  504  502 -0.00000000000E+00 -0.00000000000E+00 -0.71885321917E+02  0.71885321917E+02  0.00000000000E+00 0. -1.
         21    1    1    2  503  502 -0.35143110800E+02  0.20121387535E+02 -0.53839100639E+02  0.67368814972E+02  0.00000000000E+00 0. -1.
         21    1    1    2  504  501  0.35143110800E+02 -0.20121387535E+02  0.25059730299E+02  0.47622458522E+02  0.00000000000E+00 0.  1.
</event>
<event>
 4    1  0.3372301E+006  0.2550037E+02  0.7546771E-02  0.1463283E+00
         21   -1    0    0  504  501  0.00000000000E+00  0.00000000000E+00  0.96685429676E+02  0.96685429676E+02  0.00000000000E+00 0.  1.
         21   -1    0    0  503  502 -0.00000000000E+00 -0.00000000000E+00 -0.68722656927E+01  0.68722656927E+01  0.00000000000E+00 0. -1.
         21    1    1    2  503  501 -0.37247205650E+01  0.25226872087E+02  0.37342609430E+02  0.45218791422E+02  0.00000000000E+00 0. -1.
         21    1    1    2  504  502  0.37247205650E+01 -0.25226872087E+02  0.52470554553E+02  0.58338903946E+02  0.00000000000E+00 0.  1.
</event>
<event>
 4    1  0.3372301E+006  0.2111777E+02  0.7546771E-02  0.1517590E+00
         21   -1    0    0  504  501  0.00000000000E+00  0.00000000000E+00  0.14119710642E+01  0.14119710642E+01  0.00000000000E+00 0. -1.
         21   -1    0    0  503  502 -0.00000000000E+00 -0.00000000000E+00 -0.33974686508E+03  0.33974686508E+03  0.00000000000E+00 0. -1.
         21    1    1    2  503  501  0.16178161397E+01  0.21055705735E+02 -0.12392041831E+03  0.12570692163E+03  0.00000000000E+00 0. -1.
         21    1    1    2  504  502 -0.16178161397E+01 -0.21055705735E+02 -0.21441447571E+03  0.21545191451E+03  0.00000000000E+00 0. -1.
</event>
<event>
 4    1  0.3372301E+006  0.4511893E+02  0.7546771E-02  0.1320846E+00
         21   -1    0    0  502  501  0.00000000000E+00  0.00000000000E+00  0.56288871152E+01  0.56288871152E+01  0.00000000000E+00 0.  1.
         21   -1    0    0  504  502 -0.00000000000E+00 -0.00000000000E+00 -0.37091249576E+03  0.37091249576E+03  0.00000000000E+00 0.  1.
         21    1    1    2  503  501 -0.94224751439E+01 -0.44124085569E+02 -0.15289898748E+03  0.15941712059E+03  0.00000000000E+00 0.  1.
         21    1    1    2  504  503  0.94224751439E+01  0.44124085569E+02 -0.21238462117E+03  0.21712426229E+03  0.00000000000E+00 0.  1.
</event>
<event>
 4    1  0.3372301E+006  0.2273681E+02  0.7546771E-02  0.1495830E+00
         21   -1    0    0  503  501  0.00000000000E+00  0.00000000000E+00  0.40509379997E+02  0.40509379997E+02  0.00000000000E+00 0. -1.
         21   -1    0    0  504  502 -0.00000000000E+00 -0.00000000000E+00 -0.12782845499E+02  0.12782845499E+02  0.00000000000E+00 0. -1.
         21    1    1    2  503  502 -0.21273866937E+02 -0.80240273049E+01  0.12775648967E+02  0.26080253741E+02  0.00000000000E+00 0. -1.
         21    1    1    2  504  501  0.21273866937E+02  0.80240273049E+01  0.14950885531E+02  0.27211971755E+02  0.00000000000E+00 0. -1.
</event>
<event>
 4    1  0.3372301E+006  0.4531850E+02  0.7546771E-02  0.1319854E+00
         21   -1    0    0  503  501  0.00000000000E+00  0.00000000000E+00  0.30340349844E+03  0.30340349844E+03  0.00000000000E+00 0.  1.
         21   -1    0    0  504  502 -0.00000000000E+00 -0.00000000000E+00 -0.15000614704E+02  0.15000614704E+02  0.00000000000E+00 0. -1.
         21    1    1    2  503  502  0.32939469848E+02  0.31124878738E+02  0.26213412715E+03  0.26602268205E+03  0.00000000000E+00 0.  1.
         21    1    1    2  504  501 -0.32939469848E+02 -0.31124878738E+02  0.26268756585E+02  0.52381431089E+02  0.00000000000E+00 0. -1.
</event>
<event>
 4    1  0.3372301E+006  0.2109290E+02  0.7546771E-02  0.1517942E+00
         21   -1    0    0  502  501  0.00000000000E+00  0.00000000000E+00  0.48552959115E+02  0.48552959115E+02  0.00000000000E+00 0. -1.
         21   -1    0    0  503  502 -0.00000000000E+00 -0.00000000000E+00 -0.57587728857E+02  0.57587728857E+02  0.00000000000E+00 0. -1.
         21    1    1    2  503  504 -0.52344823705E+00 -0.21086405769E+02 -0.53182606160E+02  0.57212761726E+02  0.00000000000E+00 0. -1.
         21    1    1    2  504  501  0.52344823705E+00  0.21086405769E+02  0.44147836419E+02  0.48927926246E+02  0.00000000000E+00 0. -1.
</event>
<event>
 4    1  0.3372301E+006  0.2343266E+02  0.7546771E-02  0.1487136E+00
         21   -1    0    0  502  501  0.00000000000E+00  0.00000000000E+00  0.15143279117E+03  0.15143279117E+03  0.00000000000E+00 0.  1.
         21   -1    0    0  504  502 -0.00000000000E+00 -0.00000000000E+00 -0.81014140643E+02  0.81014140643E+02  0.00000000000E+00 0.  1.
         21    1    1    2  503  501  0.36950761515E+01 -0.23139488739E+02  0.14880210328E+03  0.15063583726E+03  0.00000000000E+00 0.  1.
         21    1    1    2  504  503 -0.36950761515E+01  0.23139488739E+02 -0.78383452751E+02  0.81811094553E+02  0.00000000000E+00 0.  1.
</event>
<event>
 4    1  0.3372301E+006  0.2080527E+02  0.7546771E-02  0.1522063E+00
         21   -1    0    0  503  501  0.00000000000E+00  0.00000000000E+00  0.54550395866E+01  0.54550395866E+01  0.00000000000E+00 0.  1.
         21   -1    0    0  504  502 -0.00000000000E+00 -0.00000000000E+00 -0.94628101275E+02  0.94628101275E+02  0.00000000000E+00 0.  1.
         21    1    1    2  503  502 -0.88160589921E+00 -0.20786583867E+02 -0.24479377407E+02  0.32126301002E+02  0.00000000000E+00 0.  1.
         21    1    1    2  504  501  0.88160589921E+00  0.20786583867E+02 -0.64693684281E+02  0.67956839860E+02  0.00000000000E+00 0.  1.
</event>
<event>
 4    1  0.3372301E+006  0.3079043E+02  0.7546771E-02  0.1412849E+00
         21   -1    0    0  503  501  0.00000000000E+00  0.00000000000E+00  0.54502130376E+02  0.54502130376E+02  0.00000000000E+00 0.  1.
         21   -1    0    0  504  502 -0.00000000000E+00 -0.00000000000E+00 -0.27956344068E+03  0.27956344068E+03  0.00000000000E+00 0.  1.
         21    1    1    2  503  502  0.11848918139E+02 -0.28419246423E+02  0.49222200083E+02  0.58059240516E+02  0.00000000000E+00 0.  1.
         21    1    1    2  504  501 -0.11848918139E+02  0.28419246423E+02 -0.27428351039E+03  0.27600633054E+03  0.00000000000E+00 0.  1.
</event>
<event>
 4    1  0.3372301E+006  0.2436178E+02  0.7546771E-02  0.1476071E+00
         21   -1    0    0  502  501  0.00000000000E+00  0.00000000000E+00  0.13839494623E+02  0.13839494623E+02  0.00000000000E+00 0.  1.
         21   -1    0    0  503  502 -0.00000000000E+00 -0.00000000000E+00 -0.64619810735E+02  0.64619810735E+02  0.00000000000E+00 0.  1.
         21    1    1    2  503  504 -0.16495757998E+02 -0.17927249657E+02 -0.48142026711E+02  0.53955083617E+02  0.00000000000E+00 0.  1.
         21    1    1    2  504  501  0.16495757998E+02  0.17927249657E+02 -0.26382894015E+01  0.24504221742E+02  0.00000000000E+00 0.  1.
</event>
<event>
 4    1  0.3372301E+006  0.6832878E+02  0.7546771E-02  0.1233889E+00
         21   -1    0    0  504  501  0.00000000000E+00  0.00000000000E+00  0.21728625164E+03  0.21728625164E+03  0.00000000000E+00 0. -1.
         21   -1    0    0  501  502 -0.00000000000E+00 -0.00000000000E+00 -0.61011213853E+02  0.61011213853E+02  0.00000000000E+00 0. -1.
         21    1    1    2  503  502 -0.40426107280E+02 -0.55086766105E+02 -0.33859442157E+02  0.76258007927E+02  0.00000000000E+00 0. -1.
         21    1    1    2  504  503  0.40426107280E+02  0.55086766105E+02  0.19013447994E+03  0.20203945756E+03  0.00000000000E+00 0. -1.
</event>
<event>
 4    1  0.3372301E+006  0.2040823E+02  0.7546771E-02  0.1527884E+00
         21   -1    0    0  502  501  0.00000000000E+00  0.00000000000E+00  0.14481298597E+03  0.14481298597E+03  0.00000000000E+00 0.  1.
         21   -1    0    0  503  502 -0.00000000000E+00 -0.00000000000E+00 -0.42455448758E+01  0.42455448758E+01  0.00000000000E+00 0. -1.
         21    1    1    2  503  504  0.19834469101E+01  0.20311618472E+02  0.27955190055E+02  0.34611971305E+02  0.00000000000E+00 0. -1.
         21    1    1    2  504  501 -0.19834469101E+01 -0.20311618472E+02  0.11261225104E+03  0.11444655954E+03  0.00000000000E+00 0.  1.
</event>
<event>
 4    1  0.3372301E+006  0.2047630E+02  0.7546771E-02  0.1526875E+00
         21   -1    0    0  504  501  0.00000000000E+00  0.00000000000E+00  0.54330485041E+02  0.54330485041E+02  0.00000000000E+00 0.  1.
         21   -1    0    0  503  502 -0.00000000000E+00 -0.00000000000E+00 -0.80359858379E+01  0.80359858379E+01  0.00000000000E+00 0.  1.
         21    1    1    2  503  501 -0.16723202316E+02  0.11815808046E+02  0.16936326346E+02  0.26572880265E+02  0.00000000000E+00 0.  1.
         21    1    1    2  504  502  0.16723202316E+02 -0.11815808046E+02  0.29358172857E+02  0.35793590613E+02  0.00000000000E+00 0.  1.
</event>
<event>
 4    1  0.3372301E+006  0.2406599E+02  0.7546771E-02  0.1479529E+00
         21   -1    0    0  503  501  0.00000000000E+00  0.00000000000E+00  0.28386774924E+02  0.28386774924E+02  0.00000000000E+00 0.  1.
         21   -1    0    0  504  502 -0.00000000000E+00 -0.00000000000E+00 -0.52490182095E+02  0.52490182095E+02  0.00000000000E+00 0. -1.
         21    1    1    2  503  502  0.36388813236E+01 -0.23789289569E+02 -0.43668831635E+02  0.49861193447E+02  0.00000000000E+00 0. -1.
         21    1    1    2  504  501 -0.36388813236E+01  0.23789289569E+02  0.19565424465E+02  0.31015763573E+02  0.00000000000E+00 0.  1.
</event>
<event>
 4    1  0.3372301E+006  0.3071806E+02  0.7546771E-02  0.1413457E+00
         21   -1    0    0  504  501  0.00000000000E+00  0.00000000000E+00  0.18454266688E+01  0.18454266688E+01  0.00000000000E+00 0.  1.
         21   -1    0    0  501  502 -0.00000000000E+00 -0.00000000000E+00 -0.56243710056E+03  0.56243710056E+03  0.00000000000E+00 0. -1.
         21    1    1    2  503  502  0.29985676457E+02  0.66677335174E+01 -0.36535520929E+03  0.36664428049E+03  0.00000000000E+00 0. -1.
         21    1    1    2  504  503 -0.29985676457E+02 -0.66677335174E+01 -0.19523646460E+03  0.19763824673E+03  0.00000000000E+00 0.  1.
</event>
<event>
 4    1  0.3372301E+006  0.2552243E+02  0.7546771E-02  0.1463043E+00
         21   -1    0    0  502  501  0.00000000000E+00  0.00000000000E+00  0.32842441147E+01  0.32842441147E+01  0.00000000000E+00 0.  1.
         21   -1    0    0  503  502 -0.00000000000E+00 -0.00000000000E+00 -0.64559703329E+03  0.64559703329E+03  0.00000000000E+00 0. -1.
         21    1    1    2  503  504  0.21568133918E+02 -0.13645871293E+02 -0.59119974281E+03  0.59175039510E+03  0.00000000000E+00 0. -1.
         21    1    1    2  504  501 -0.21568133918E+02  0.13645871293E+02 -0.51113046367E+02  0.57130882305E+02  0.00000000000E+00 0.  1.
</event>
<event>
 4    1  0.3372301E+006  0.2978339E+02  0.7546771E-02  0.1421488E+00
         21   -1    0    0  504  501  0.00000000000E+00  0.00000000000E+00  0.37550357637E+03  0.37550357637E+03  0.00000000000E+00 0.  1.
         21   -1    0    0  503  502 -0.00000000000E+00 -0.00000000000E+00 -0.49904735807E+02  0.49904735807E+02  0.00000000000E+00 0. -1.
         21    1    1    2  503  501  0.72940704345E+01 -0.28876410002E+02 -0.44809413569E+02  0.53804591463E+02  0.00000000000E+00 0. -1.
         21    1    1    2  504  502 -0.72940704345E+01  0.28876410002E+02  0.37040825413E+03  0.37160372071E+03  0.00000000000E+00 0.  1.
</event>
<event>
 4    1  0.3372301E+006  0.2692498E+02  0.7546771E-02  0.1448363E+00
         21   -1    0    0  504  501  0.00000000000E+00  0.00000000000E+00  0.57565636638E+02  0.57565636638E+02  0.00000000000E+00 0.  1.
         21   -1    0    0  501  502 -0.00000000000E+00 -0.00000000000E+00 -0.12035137933E+03  0.12035137933E+03  0.00000000000E+00 0.  1.
         21    1    1    2  503  502 -0.22577651929E+02 -0.14669847529E+02 -0.11556850688E+03  0.11866353516E+03  0.00000000000E+00 0.  1.
         21    1    1    2  504  503  0.22577651929E+02  0.14669847529E+02  0.52782764187E+02  0.59253480813E+02  0.00000000000E+00 0.  1.
</event>
<event>
 4    1  0.3372301E+006  0.2643666E+02  0.7546771E-02  0.1453351E+00
         21   -1    0    0  504  501  0.00000000000E+00  0.00000000000E+00  0.28525766255E+03  0.28525766255E+03  0.00000000000E+00 0. -1.
         21   -1    0    0  503  502 -0.00000000000E+00 -0.00000000000E+00 -0.15462246736E+02  0.15462246736E+02  0.00000000000E+00 0.  1.
         21    1    1    2  503  501  0.23370176620E+02 -0.12358465524E+02 -0.30362256580E+01  0.26610439522E+02  0.00000000000E+00 0.  1.
         21    1    1    2  504  502 -0.23370176620E+02  0.12358465524E+02  0.27283164147E+03  0.27410946976E+03  0.00000000000E+00 0. -1.
</event>
<event>
 4    1  0.3372301E+006  0.2030712E+02  0.7546771E-02  0.1529392E+00
         21   -1    0    0  503  501  0.00000000000E+00  0.00000000000E+00  0.71624940130E+01  0.71624940130E+01  0.00000000000E+00 0.  1.
         21   -1    0    0  504  502 -0.00000000000E+00 -0.00000000000E+00 -0.22837295197E+03  0.22837295197E+03  0.00000000000E+00 0. -1.
         21    1    1    2  503  502  0.17798107353E+02 -0.97778500207E+01 -0.87588573081E+01  0.22115527525E+02  0.00000000000E+00 0.  1.
         21    1    1    2  504  501 -0.17798107353E+02  0.97778500207E+01 -0.21245160065E+03  0.21341991846E+03  0.00000000000E+00 0. -1.
</event>
<event>
 4    1  0.3372301E+006  0.2691691E+02  0.7546771E-02  0.1448445E+00
         21   -1    0    0  504  501  0.00000000000E+00  0.00000000000E+00  0.36842725779E+03  0.36842725779E+03  0.00000000000E+00 0.  1.
         21   -1    0    0  503  502 -0.00000000000E+00 -0.00000000000E+00 -0.19699395907E+01  0.19699395907E+01  0.00000000000E+00 0.  1.
         21    1    1    2  503  501  0.93902582091E+01  0.25225845439E+02  0.17551456116E+03  0.17756655486E+03  0.00000000000E+00 0.  1.
         21    1    1    2  504  502 -0.93902582091E+01 -0.25225845439E+02  0.19094275704E+03  0.19283064252E+03  0.00000000000E+00 0.  1.
</event>
<event>
 4    1  0.3372301E+006  0.2272658E+02  0.7546771E-02  0.1495960E+00
         21   -1    0    0  503  501  0.00000000000E+00  0.00000000000E+00  0.45244563867E+01  0.45244563867E+01  0.00000000000E+00 0. -1.
         21   -1    0    0  501  502 -0.00000000000E+00 -0.00000000000E+00 -0.30898387351E+03  0.30898387351E+03  0.00000000000E+00 0. -1.
         21    1    1    2  503  504 -0.21915906363E+02 -0.60158549934E+01 -0.27756514015E+02  0.35873688594E+02  0.00000000000E+00 0. -1.
         21    1    1    2  504  502  0.21915906363E+02  0.60158549934E+01 -0.27670290311E+03  0.27763464130E+03  0.00000000000E+00 0. -1.
</event>
<event>
 4    1  0.3372301E+006  0.2312015E+02  0.7546771E-02  0.1490995E+00
         21   -1    0    0  504  501  0.00000000000E+00  0.00000000000E+00  0.35537637133E+02  0.35537637133E+02  0.00000000000E+00 0.  1.
         21   -1    0    0  503  502 -0.00000000000E+00 -0.00000000000E+00 -0.47802311045E+02  0.47802311045E+02  0.00000000000E+00 0. -1.
         21    1    1    2  503  501  0.10130998308E+02 -0.20782303523E+02  0.28364220092E+02  0.36593308786E+02  0.00000000000E+00 0.  1.
         21    1    1    2  504  502 -0.10130998308E+02  0.20782303523E+02 -0.40628894005E+02  0.46746639392E+02  0.00000000000E+00 0. -1.
</event>
<event>
 4    1  0.3372301E+006  0.2640461E+02  0.7546771E-02  0.1453682E+00
         21   -1    0    0  503  501  0.00000000000E+00  0.00000000000E+00  0.90632410756E+03  0.90632410756E+03  0.00000000000E+00 0.  1.
         21   -1    0    0  504  502 -0.00000000000E+00 -0.00000000000E+00 -0.11190811034E+01  0.11190811034E+01  0.00000000000E+00 0.  1.
         21    1    1    2  503  502  0.61912224898E+01  0.25668507132E+02  0.19892702048E+03  0.20067177921E+03  0.00000000000E+00 0.  1.
         21    1    1    2  504  501 -0.61912224898E+01 -0.25668507132E+02  0.70627800597E+03  0.70677140945E+03  0.00000000000E+00 0.  1.
</event>
<event>
 4    1  0.3372301E+006  0.2979189E+02  0.7546771E-02  0.1421414E+00
         21   -1    0    0  503  501  0.00000000000E+00  0.00000000000E+00  0.53872001624E+02  0.53872001624E+02  0.00000000000E+00 0. -1.
         21   -1    0    0  501  502 -0.00000000000E+00 -0.00000000000E+00 -0.35437955120E+02  0.35437955120E+02  0.00000000000E+00 0.  1.
         21    1    1    2  503  504 -0.27029384662E+02 -0.12528728025E+02  0.41882220444E+02  0.51397247499E+02  0.00000000000E+00 0. -1.
         21    1    1    2  504  502  0.27029384662E+02  0.12528728025E+02 -0.23448173941E+02  0.37912709245E+02  0.00000000000E+00 0.  1.
</event>
<event>
 4    1  0.3372301E+006  0.5808304E+02  0.7546771E-02  0.1266489E+00
         21   -1    0    0  502  501  0.00000000000E+00  0.00000000000E+00  0.53892096493E+02  0.53892096493E+02  0.00000000000E+00 0.  1.
         21   -1    0    0  504  502 -0.00000000000E+00 -0.00000000000E+00 -0.37881901202E+03  0.37881901202E+03  0.00000000000E+00 0. -1.
         21    1    1    2  503  501 -0.10368253039E+02 -0.57150146576E+02  0.35209027150E+02  0.67921392194E+02  0.00000000000E+00 0.  1.
         21    1    1    2  504  503  0.10368253039E+02  0.57150146576E+02 -0.36013594267E+03  0.36478971632E+03  0.00000000000E+00 0. -1.
</event>
<event>
 4    1  0.3372301E+006  0.2324357E+02  0.7546771E-02  0.1489462E+00
         21   -1    0    0  502  501  0.00000000000E+00  0.00000000000E+00  0.17642887395E+02  0.17642887395E+02  0.00000000000E+00 0. -1.
         21   -1    0    0  504  502 -0.00000000000E+00 -0.00000000000E+00 -0.49279182247E+02  0.49279182247E+02  0.00000000000E+00 0. -1.
         21    1    1    2  503  501  0.20978101837E+02 -0.10009125238E+02  0.47705452262E+01  0.23728072962E+02  0.00000000000E+00 0. -1.
         21    1    1    2  504  503 -0.20978101837E+02  0.10009125238E+02 -0.36406840078E+02  0.43193996680E+02  0.00000000000E+00 0. -1.
</event>
<event>
 4    1  0.3372301E+006  0.4506226E+02  0.7546771E-02  0.1321128E+00
         21   -1    0    0  504  501  0.00000000000E+00  0.00000000000E+00  0.11078259831E+03  0.11078259831E+03  0.00000000000E+00 0.  1.
         21   -1    0    0  503  502 -0.00000000000E+00 -0.00000000000E+00 -0.44255602134E+02  0.44255602134E+02  0.00000000000E+00 0.  1.
         21    1    1    2  503  501  0.44506869425E+02  0.70531003570E+01  0.92595888795E+02  0.10297866902E+03  0.00000000000E+00 0.  1.
         21    1    1    2  504  502 -0.44506869425E+02 -0.70531003570E+01 -0.26068892615E+02  0.52059531432E+02  0.00000000000E+00 0.  1.
</event>
<event>
 4    1  0.3372301E+006  0.2239451E+02  0.7546771E-02  0.1500245E+00
         21   -1    0    0  502  501  0.00000000000E+00  0.00000000000E+00  0.12667636464E+02  0.12667636464E+02  0.00000000000E+00 0. -1.
         21   -1    0    0  504  502 -0.00000000000E+00 -0.00000000000E+00 -0.10259646683E+03  0.10259646683E+03  0.00000000000E+00 0. -1.
         21    1    1    2  503  501  0.98390068908E+01  0.20117354655E+02  0.19931652774E+00  0.22395395554E+02  0.00000000000E+00 0. -1.
         21    1    1    2  504  503 -0.98390068908E+01 -0.20117354655E+02 -0.90128146889E+02  0.92868707736E+02  0.00000000000E+00 0. -1.
</event>
<event>
 4    1  0.3372301E+006  0.2180190E+02  0.7546771E-02  0.1508117E+00
         21   -1    0    0  504  501  0.00000000000E+00  0.00000000000E+00  0.41256371466E+01  0.41256371466E+01  0.00000000000E+00 0.  1.
         21   -1    0    0  501  502 -0.00000000000E+00 -0.00000000000E+00 -0.27294977881E+03  0.27294977881E+03  0.00000000000E+00 0. -1.
         21    1    1    2  503  502  0.21607882733E+02 -0.29021252303E+01 -0.23972810062E+03  0.24071743841E+03  0.00000000000E+00 0. -1.
         21    1    1    2  504  503 -0.21607882733E+02  0.29021252303E+01 -0.29096041048E+02  0.36357977552E+02  0.00000000000E+00 0.  1.
</event>
<event>
 4    1  0.3372301E+006  0.4164818E+02  0.7546771E-02  0.1339089E+00
         21   -1    0    0  503  501  0.00000000000E+00  0.00000000000E+00  0.69292633396E+01  0.69292633396E+01  0.00000000000E+00 0.  1.
         21   -1    0    0  504  502 -0.00000000000E+00 -0.00000000000E+00 -0.25269679073E+03  0.25269679073E+03  0.00000000000E+00 0.  1.
         21    1    1    2  503  502  0.39826008274E+02 -0.12184419572E+02 -0.11030856920E+03  0.11790908131E+03  0.00000000000E+00 0.  1.
         21    1    1    2  504  501 -0.39826008274E+02  0.12184419572E+02 -0.13545895819E+03  0.14171697277E+03  0.00000000000E+00 0.  1.
</event>
<event>
 4    1  0.3372301E+006  0.5141031E+02  0.7546771E-02  0.1292171E+00
         21   -1    0    0  503  501  0.00000000000E+00  0.00000000000E+00  0.64483934718E+02  0.64483934718E+02  0.00000000000E+00 0.  1.
         21   -1    0    0  504  502 -0.00000000000E+00 -0.00000000000E+00 -0.44008955721E+02  0.44008955721E+02  0.00000000000E+00 0.  1.
         21    1    1    2  503  502  0.31315052228E+02  0.40772391544E+02  0.24451788188E+02  0.56928993965E+02  0.00000000000E+00 0.  1.
         21    1    1    2  504  501 -0.31315052228E+02 -0.40772391544E+02 -0.39768091913E+01  0.51563896474E+02  0.00000000000E+00 0.  1.
</event>
<event>
 4    1  0.3372301E+006  0.3076043E+02  0.7546771E-02  0.1413101E+00
         21   -1    0    0  502  501  0.00000000000E+00  0.00000000000E+00  0.92644037673E+01  0.92644037673E+01  0.00000000000E+00 0.  1.
         21   -1    0    0  504  502 -0.00000000000E+00 -0.00000000000E+00 -0.17495850277E+03  0.17495850277E+03  0.00000000000E+00 0.  1.
         21    1    1    2  503  501 -0.12121806346E+02 -0.28271291179E+02 -0.23419616621E+02  0.38661124358E+02  0.00000000000E+00 0.  1.
         21    1    1    2  504  503  0.12121806346E+02  0.28271291179E+02 -0.14227448238E+03  0.14556178218E+03  0.00000000000E+00 0.  1.
</event>
<event>
 4    1  0.3372301E+006  0.2636595E+02  0.7546771E-02  0.1454083E+00
         21   -1    0    0  502  501  0.00000000000E+00  0.00000000000E+00  0.48721078869E+02  0.48721078869E+02  0.00000000000E+00 0.  1.
         21   -1    0    0  504  502 -0.00000000000E+00 -0.00000000000E+00 -0.42898584401E+02  0.42898584401E+02  0.00000000000E+00 0. -1.
         21    1    1    2  503  501  0.17036778919E+00 -0.26365399247E+02  0.40335282775E+02  0.48188155590E+02  0.00000000000E+00 0.  1.
         21    1    1    2  504  503 -0.17036778919E+00  0.26365399247E+02 -0.34512788307E+02  0.43431507680E+02  0.00000000000E+00 0. -1.
</event>
<event>
 4    1  0.3372301E+006  0.2368754E+02  0.7546771E-02  0.1484041E+00
         21   -1    0    0  504  501  0.00000000000E+00  0.00000000000E+00  0.98265767966E+01  0.98265767966E+01  0.00000000000E+00 0. -1.
         21   -1    0    0  503  502 -0.00000000000E+00 -0.00000000000E+00 -0.59759215361E+02  0.59759215361E+02  0.00000000000E+00 0.  1.
         21    1    1    2  503  501 -0.83226924105E+01  0.22177290540E+02 -0.32305527162E+02  0.40059287436E+02  0.00000000000E+00 0.  1.
         21    1    1    2  504  502  0.83226924105E+01 -0.22177290540E+02 -0.17627111402E+02  0.29526504721E+02  0.00000000000E+00 0. -1.
</event>
<event>
 4    1  0.3372301E+006  0.2391439E+02  0.7546771E-02  0.1481325E+00
         21   -1    0    0  503  501  0.00000000000E+00  0.00000000000E+00  0.46281021839E+02  0.46281021839E+02  0.00000000000E+00 0.  1.
         21   -1    0    0  504  502 -0.00000000000E+00 -0.00000000000E+00 -0.11629310978E+03  0.11629310978E+03  0.00000000000E+00 0.  1.
         21    1    1    2  503  502  0.11345783595E+02 -0.21051636511E+02 -0.11185315063E+03  0.11438105398E+03  0.00000000000E+00 0.  1.
         21    1    1    2  504  501 -0.11345783595E+02  0.21051636511E+02  0.41841062687E+02  0.48193077635E+02  0.00000000000E+00 0.  1.
</event>
<event>
 4    1  0.3372301E+006  0.2760370E+02  0.7546771E-02  0.1441636E+00
         21   -1    0    0  502  501  0.00000000000E+00  0.00000000000E+00  0.58884032808E+01  0.58884032808E+01  0.00000000000E+00 0.  1.
         21   -1    0    0  503  502 -0.00000000000E+00 -0.00000000000E+00 -0.29503455184E+03  0.29503455184E+03  0.00000000000E+00 0. -1.
         21    1    1    2  503  504 -0.16452665551E+02 -0.22164700374E+02 -0.25730924802E+03  0.25878565119E+03  0.00000000000E+00 0. -1.
         21    1    1    2  504  501  0.16452665551E+02  0.22164700374E+02 -0.31836900539E+02  0.42137303928E+02  0.00000000000E+00 0.  1.
</event>
<event>
 4    1  0.3372301E+006  0.2620516E+02  0.7546771E-02  0.1455760E+00
         21   -1    0    0  504  501  0.00000000000E+00  0.00000000000E+00  0.46159606158E+02  0.46159606158E+02  0.00000000000E+00 0. -1.
         21   -1    0    0  501  502 -0.00000000000E+00 -0.00000000000E+00 -0.21072455655E+03  0.21072455655E+03  0.00000000000E+00 0. -1.
         21    1    1    2  503  502  0.21139819434E+02  0.15486073139E+02 -0.20610765974E+03  0.20776688339E+03  0.00000000000E+00 0. -1.
         21    1    1    2  504  503 -0.21139819434E+02 -0.15486073139E+02  0.41542709355E+02  0.49117279318E+02  0.00000000000E+00 0. -1.
</event>
<event>
 4    1  0.3372301E+006  0.2010870E+02  0.7546771E-02  0.1532381E+00
         21   -1    0    0  503  501  0.00000000000E+00  0.00000000000E+00  0.35759013263E+02  0.35759013263E+02  0.00000000000E+00 0. -1.
         21   -1    0    0  504  502 -0.00000000000E+00 -0.00000000000E+00 -0.11552509086E+02  0.11552509086E+02  0.00000000000E+00 0. -1.
         21    1    1    2  503  502  0.16628980435E+02 -0.11306492649E+02  0.86611430334E+01  0.21894637814E+02  0.00000000000E+00 0. -1.
         21    1    1    2  504  501 -0.16628980435E+02  0.11306492649E+02  0.15545361144E+02  0.25416884534E+02  0.00000000000E+00 0. -1.
</event>
<event>
 4    1  0.3372301E+006  0.2094818E+02  0.7546771E-02  0.1520006E+00
         21   -1    0    0  504  501  0.00000000000E+00  0.00000000000E+00  0.45112050257E+01  0.45112050257E+01  0.00000000000E+00 0.  1.
         21   -1    0    0  503  502 -0.00000000000E+00 -0.00000000000E+00 -0.12183615646E+04  0.12183615646E+04  0.00000000000E+00 0. -1.
         21    1    1    2  503  501  0.19103854374E+02  0.85947098038E+01 -0.20405203388E+02  0.29243779063E+02  0.00000000000E+00 0.  1.
         21    1    1    2  504  502 -0.19103854374E+02 -0.85947098038E+01 -0.11934451562E+04  0.11936289905E+04  0.00000000000E+00 0. -1.
</event>
<event>
 4    1  0.3372301E+006  0.2236227E+02  0.7546771E-02  0.1500665E+00
         21   -1    0    0  503  501  0.00000000000E+00  0.00000000000E+00  0.12844358879E+03  0.12844358879E+03  0.00000000000E+00 0.  1.
         21   -1    0    0  501  502 -0.00000000000E+00 -0.00000000000E+00 -0.11728908105E+02  0.11728908105E+02  0.00000000000E+00 0. -1.
         21    1    1    2  503  504 -0.11268567871E+02 -0.19315547535E+02  0.11564222405E+03  0.11778452776E+03  0.00000000000E+00 0.  1.
         21    1    1    2  504  502  0.11268567871E+02  0.19315547535E+02  0.10724566364E+01  0.22387969128E+02  0.00000000000E+00 0. -1.
</event>
<event>
 4    1  0.3372301E+006  0.3588806E+02  0.7546771E-02  0.1374425E+00
         21   -1    0    0  504  501  0.00000000000E+00  0.00000000000E+00  0.54938136634E+02  0.54938136634E+02  0.00000000000E+00 0. -1.
         21   -1    0    0  503  502 -0.00000000000E+00 -0.00000000000E+00 -0.23495418100E+02  0.23495418100E+02  0.00000000000E+00 0. -1.
         21    1    1    2  503  501  0.35866447985E+02  0.12451709297E+01  0.13881216902E+02  0.38479094641E+02  0.00000000000E+00 0. -1.
         21    1    1    2  504  502 -0.35866447985E+02 -0.12451709297E+01  0.17561501632E+02  0.39954460093E+02  0.00000000000E+00 0. -1.
</event>
<event>
 4    1  0.3372301E+006  0.3524292E+02  0.7546771E-02  0.1378863E+00
         21   -1    0    0  504  501  0.00000000000E+00  0.00000000000E+00  0.21479813922E+03  0.21479813922E+03  0.00000000000E+00 0.  1.
         21   -1    0    0  503  502 -0.00000000000E+00 -0.00000000000E+00 -0.75948315711E+02  0.75948315711E+02  0.00000000000E+00 0.  1.
         21    1    1    2  503  501  0.29769981687E+01 -0.35116964899E+02  0.20915445575E+03  0.21210292337E+03  0.00000000000E+00 0.  1.
         21    1    1    2  504  502 -0.29769981687E+01  0.35116964899E+02 -0.70304632241E+02  0.78643531561E+02  0.00000000000E+00 0.  1.
</event>
<event>
 4    1  0.3372301E+006  0.2185409E+02  0.7546771E-02  0.1507411E+00
         21   -1    0    0  504  501  0.00000000000E+00  0.00000000000E+00  0.32968895485E+01  0.32968895485E+01  0.00000000000E+00 0. -1.
         21   -1    0    0  503  502 -0.00000000000E+00 -0.00000000000E+00 -0.16499359258E+03  0.16499359258E+03  0.00000000000E+00 0. -1.
         21    1    1    2  503  501 -0.22407209742E+01 -0.21738919622E+02 -0.51457597156E+02  0.55906044055E+02  0.00000000000E+00 0. -1.
         21    1    1    2  504  502  0.22407209742E+01  0.21738919622E+02 -0.11023910587E+03  0.11238443807E+03  0.00000000000E+00 0. -1.
</event>
<event>
 4    1  0.3372301E+006  0.3981686E+02  0.7546771E-02  0.1349562E+00
         21   -1    0    0  502  501  0.00000000000E+00  0.00000000000E+00  0.43497421673E+02  0.43497421673E+02  0.00000000000E+00 0. -1.
         21   -1    0    0  504  502 -0.00000000000E+00 -0.00000000000E+00 -0.20820606464E+03  0.20820606464E+03  0.00000000000E+00 0. -1.
         21    1    1    2  503  501 -0.15169125274E+02  0.36814127870E+02  0.31952317495E+02  0.51052257205E+02  0.00000000000E+00 0. -1.
         21    1    1    2  504  503  0.15169125274E+02 -0.36814127870E+02 -0.19666096046E+03  0.20065122911E+03  0.00000000000E+00 0. -1.
</event>
<event>
 4    1  0.3372301E+006  0.2120524E+02  0.7546771E-02  0.1516355E+00
         21   -1    0    0  504  501  0.00000000000E+00  0.00000000000E+00  0.71573487363E+01  0.71573487363E+01  0.00000000000E+00 0. -1.
         21   -1    0    0  503  502 -0.00000000000E+00 -0.00000000000E+00 -0.40076384705E+03  0.40076384705E+03  0.00000000000E+00 0. -1.
         21    1    1    2  503  501 -0.19135363309E+02 -0.91378371658E+01 -0.95105240229E+01  0.23240315493E+02  0.00000000000E+00 0. -1.
         21    1    1    2  504  502  0.19135363309E+02  0.91378371658E+01 -0.38409597429E+03  0.38468088030E+03  0.00000000000E+00 0. -1.
</event>
<event>
 4    1  0.3372301E+006  0.2092033E+02  0.7546771E-02  0.1520405E+00
         21   -1    0    0  503  501  0.00000000000E+00  0.00000000000E+00  0.83962156004E+02  0.83962156004E+02  0.00000000000E+00 0.  1.
         21   -1    0    0  504  502 -0.00000000000E+00 -0.00000000000E+00 -0.61816111640E+01  0.61816111640E+01  0.00000000000E+00 0.  1.
         21    1    1    2  503  502 -0.20855995258E+02  0.16394543243E+01  0.21045075143E+02  0.29674156036E+02  0.00000000000E+00 0.  1.
         21    1    1    2  504  501  0.20855995258E+02 -0.16394543243E+01  0.56735469697E+02  0.60469611132E+02  0.00000000000E+00 0.  1.
</event>
<event>
 4    1  0.3372301E+006  0.2078578E+02  0.7546771E-02  0.1522346E+00
         21   -1    0    0  504  501  0.00000000000E+00  0.00000000000E+00  0.36105934439E+03  0.36105934439E+03  0.00000000000E+00 0.  1.
         21   -1    0    0  503  502 -0.00000000000E+00 -0.00000000000E+00 -0.21698753337E+01  0.21698753337E+01  0.00000000000E+00 0. -1.
         21    1    1    2  503  501  0.63565199379E+01  0.19789975160E+02  0.30107684754E+03  0.30179349991E+03  0.00000000000E+00 0.  1.
         21    1    1    2  504  502 -0.63565199379E+01 -0.19789975160E+02  0.57812621512E+02  0.61435719810E+02  0.00000000000E+00 0. -1.
</event>
<event>
 4    1  0.3372301E+006  0.2831665E+02  0.7546771E-02  0.1434812E+00
         21   -1    0    0  503  501  0.00000000000E+00  0.00000000000E+00  0.22506044758E+02  0.22506044758E+02  0.00000000000E+00 0.  1.
         21   -1    0    0  504  502 -0.00000000000E+00 -0.00000000000E+00 -0.40614604090E+02  0.40614604090E+02  0.00000000000E+00 0.  1.
         21    1    1    2  503  502 -0.13698506295E+02 -0.24782730409E+02 -0.20113565798E+02  0.34733101364E+02  0.00000000000E+00 0.  1.
         21    1    1    2  504  501  0.13698506295E+02  0.24782730409E+02  0.20050064660E+01  0.28387547485E+02  0.00000000000E+00 0.  1.
</event>
<event>
 4    1  0.3372301E+006  0.2458642E+02  0.7546771E-02  0.1473484E+00
         21   -1    0    0  503  501  0.00000000000E+00  0.00000000000E+00  0.10648360620E+03  0.10648360620E+03  0.00000000000E+00 0. -1.
         21   -1    0    0  501  502 -0.00000000000E+00 -0.00000000000E+00 -0.14525474304E+02  0.14525474304E+02  0.00000000000E+00 0.  1.
         21    1    1    2  503  504 -0.20209514727E+02 -0.14002416704E+02  0.93202821374E+02  0.96391172164E+02  0.00000000000E+00 0. -1.
         21    1    1    2  504  502  0.20209514727E+02  0.14002416704E+02 -0.12446894784E+01  0.24617908339E+02  0.00000000000E+00 0.  1.
</event>
<event>
 4    1  0.3372301E+006  0.2710942E+02  0.7546771E-02  0.1446512E+00
         21   -1    0    0  504  501  0.00000000000E+00  0.00000000000E+00  0.78107412006E+02  0.78107412006E+02  0.00000000000E+00 0. -1.
         21   -1    0    0  501  502 -0.00000000000E+00 -0.00000000000E+00 -0.12841330985E+02  0.12841330985E+02  0.00000000000E+00 0. -1.
         21    1    1    2  503  502 -0.14110510847E+02  0.23147662301E+02  0.91232008633E+01  0.28603384072E+02  0.00000000000E+00 0. -1.
         21    1    1    2  504  503  0.14110510847E+02 -0.23147662301E+02  0.56142880158E+02  0.62345358919E+02  0.00000000000E+00 0. -1.
</event>
<event>
 4    1  0.3372301E+006  0.2348423E+02  0.7546771E-02  0.1486506E+00
         21   -1    0    0  504  501  0.00000000000E+00  0.00000000000E+00  0.20370032475E+02  0.20370032475E+02  0.00000000000E+00 0. -1.
         21   -1    0    0  503  502 -0.00000000000E+00 -0.00000000000E+00 -0.31907025787E+02  0.31907025787E+02  0.00000000000E+00 0. -1.
         21    1    1    2  503  501 -0.20686588648E+02 -0.11116379036E+02 -0.15940915103E+02  0.28383474189E+02  0.00000000000E+00 0. -1.
         21    1    1    2  504  502  0.20686588648E+02  0.11116379036E+02  0.44039217906E+01  0.23893584074E+02  0.00000000000E+00 0. -1.
</event>
<event>
 4    1  0.3372301E+006  0.2222643E+02  0.7546771E-02  0.1502447E+00
         21   -1    0    0  502  501  0.00000000000E+00  0.00000000000E+00  0.89620467222E+03  0.89620467222E+03  0.00000000000E+00 0.  1.
         21   -1    0    0  503  502 -0.00000000000E+00 -0.00000000000E+00 -0.85957702838E+02  0.85957702838E+02  0.00000000000E+00 0.  1.
         21    1    1    2  503  504 -0.17986879314E+02 -0.13057044901E+02 -0.84380568404E+02  0.87258779348E+02  0.00000000000E+00 0.  1.
         21    1    1    2  504  501  0.17986879314E+02  0.13057044901E+02  0.89462753778E+03  0.89490359571E+03  0.00000000000E+00 0.  1.
</event>
<event>
 4    1  0.3372301E+006  0.2950599E+02  0.7546771E-02  0.1423939E+00
         21   -1    0    0  502  501  0.00000000000E+00  0.00000000000E+00  0.13751461936E+02  0.13751461936E+02  0.00000000000E+00 0.  1.
         21   -1    0    0  504  502 -0.00000000000E+00 -0.00000000000E+00 -0.10518056089E+03  0.10518056089E+03  0.00000000000E+00 0.  1.
         21    1    1    2  503  501  0.69383704301E+01 -0.28678609190E+02 -0.81951392261E+01  0.30622931215E+02  0.00000000000E+00 0.  1.
         21    1    1    2  504  503 -0.69383704301E+01  0.28678609190E+02 -0.83233959729E+02  0.88309091612E+02  0.00000000000E+00 0.  1.
</event>
<event>
 4    1  0.3372301E+006  0.2696441E+02  0.7546771E-02  0.1447966E+00
         21   -1    0    0  502  501  0.00000000000E+00  0.00000000000E+00  0.16285525841E+03  0.16285525841E+03  0.00000000000E+00 0. -1.
         21   -1    0    0  503  502 -0.00000000000E+00 -0.00000000000E+00 -0.22459492571E+02  0.22459492571E+02  0.00000000000E+00 0. -1.
         21    1    1    2  503  504  0.26945064241E+02 -0.10212862411E+01 -0.12740383929E+02  0.29822758008E+02  0.00000000000E+00 0. -1.
         21    1    1    2  504  501 -0.26945064241E+02  0.10212862411E+01  0.15313614976E+03  0.15549199297E+03  0.00000000000E+00 0. -1.
</event>
<event>
 4    1  0.3372301E+006  0.2052898E+02  0.7546771E-02  0.1526097E+00
         21   -1    0    0  504  501  0.00000000000E+00  0.00000000000E+00  0.32209014892E+02  0.32209014892E+02  0.00000000000E+00 0.  1.
         21   -1    0    0  503  502 -0.00000000000E+00 -0.00000000000E+00 -0.35148225042E+02  0.35148225042E+02  0.00000000000E+00 0.  1.
         21    1    1    2  503  501  0.52320758488E+01 -0.19851051329E+02  0.25213846505E+02  0.32514257060E+02  0.00000000000E+00 0.  1.
         21    1    1    2  504  502 -0.52320758488E+01  0.19851051329E+02 -0.28153056655E+02  0.34842982874E+02  0.00000000000E+00 0.  1.
</event>
<event>
 4    1  0.3372301E+006  0.2177796E+02  0.7546771E-02  0.1508441E+00
         21   -1    0    0  504  501  0.00000000000E+00  0.00000000000E+00  0.11821988170E+02  0.11821988170E+02  0.00000000000E+00 0.  1.
         21   -1    0    0  503  502 -0.00000000000E+00 -0.00000000000E+00 -0.10931327429E+03  0.10931327429E+03  0.00000000000E+00 0. -1.
         21    1    1    2  503  501  0.12820779858E+02 -0.17604185378E+02 -0.96933872562E+02  0.99350165520E+02  0.00000000000E+00 0. -1.
         21    1    1    2  504  502 -0.12820779858E+02  0.17604185378E+02 -0.55741356270E+00  0.21785096944E+02  0.00000000000E+00 0.  1.
</event>
<event>
 4    1  0.3372301E+006  0.2748792E+02  0.7546771E-02  0.1442767E+00
         21   -1    0    0  502  501  0.00000000000E+00  0.00000000000E+00  0.26701876825E+03  0.26701876825E+03  0.00000000000E+00 0. -1.
         21   -1    0    0  503  502 -0.00000000000E+00 -0.00000000000E+00 -0.36833530598E+01  0.36833530598E+01  0.00000000000E+00 0. -1.
         21    1    1    2  503  504  0.12564474723E+02  0.24448305570E+02  0.66508145986E+02  0.71964707689E+02  0.00000000000E+00 0. -1.
         21    1    1    2  504  501 -0.12564474723E+02 -0.24448305570E+02  0.19682726920E+03  0.19873741362E+03  0.00000000000E+00 0. -1.
</event>
<event>
 4    1  0.3372301E+006  0.2955973E+02  0.7546771E-02  0.1423461E+00
         21   -1    0    0  503  501  0.00000000000E+00  0.00000000000E+00  0.20414941277E+02  0.20414941277E+02  0.00000000000E+00 0.  1.
         21   -1    0    0  504  502 -0.00000000000E+00 -0.00000000000E+00 -0.56121031877E+02  0.56121031877E+02  0.00000000000E+00 0. -1.
         21    1    1    2  503  502  0.12073871951E+01 -0.29535056912E+02  0.79045449353E+00  0.29570292338E+02  0.00000000000E+00 0.  1.
         21    1    1    2  504  501 -0.12073871951E+01  0.29535056912E+02 -0.36496545094E+02  0.46965680815E+02  0.00000000000E+00 0. -1.
</event>
<event>
 4    1  0.3372301E+006  0.2077656E+02  0.7546771E-02  0.1522479E+00
         21   -1    0    0  504  501  0.00000000000E+00  0.00000000000E+00  0.19195865151E+02  0.19195865151E+02  0.00000000000E+00 0. -1.
         21   -1    0    0  503  502 -0.00000000000E+00 -0.00000000000E+00 -0.79390576745E+02  0.79390576745E+02  0.00000000000E+00 0. -1.
         21    1    1    2  503  501 -0.19361271209E+02 -0.75370223841E+01 -0.71829518226E+02  0.74773960827E+02  0.00000000000E+00 0. -1.
         21    1    1    2  504  502  0.19361271209E+02  0.75370223841E+01  0.11634806632E+02  0.23812481068E+02  0.00000000000E+00 0. -1.
</event>
<event>
 4    1  0.3372301E+006  0.2147310E+02  0.7546771E-02  0.1512616E+00
         21   -1    0    0  504  501  0.00000000000E+00  0.00000000000E+00  0.28216577699E+02  0.28216577699E+02  0.00000000000E+00 0. -1.
         21   -1    0    0  503  502 -0.00000000000E+00 -0.00000000000E+00 -0.17211852660E+02  0.17211852660E+02  0.00000000000E+00 0. -1.
         21    1    1    2  503  501  0.20923821995E+02 -0.48257304351E+01  0.10610884187E+02  0.23951719444E+02  0.00000000000E+00 0. -1.
         21    1    1    2  504  502 -0.20923821995E+02  0.48257304351E+01  0.39384085122E+00  0.21476710915E+02  0.00000000000E+00 0. -1.
</event>
<event>
 4    1  0.3372301E+006  0.2500464E+02  0.7546771E-02  0.1468751E+00
         21   -1    0    0  503  501  0.00000000000E+00  0.00000000000E+00  0.56813949901E+02  0.56813949901E+02  0.00000000000E+00 0.  1.
         21   -1    0    0  501  502 -0.00000000000E+00 -0.00000000000E+00 -0.35454733287E+02  0.35454733287E+02  0.00000000000E+00 0.  1.
         21    1    1    2  503  504  0.20657086003E+02 -0.14089604302E+02  0.48990752047E+02  0.55002962990E+02  0.00000000000E+00 0.  1.
         21    1    1    2  504  502 -0.20657086003E+02  0.14089604302E+02 -0.27631535433E+02  0.37265720199E+02  0.00000000000E+00 0.  1.
</event>
<event>
 4    1  0.3372301E+006  0.2741514E+02  0.7546771E-02  0.1443482E+00
         21   -1    0    0  504  501  0.00000000000E+00  0.00000000000E+00  0.38190969212E+01  0.38190969212E+01  0.00000000000E+00 0.  1.
         21   -1    0    0  503  502 -0.00000000000E+00 -0.00000000000E+00 -0.26172972012E+03  0.26172972012E+03  0.00000000000E+00 0. -1.
         21    1    1    2  503  501  0.21863718549E+02 -0.16539881826E+02 -0.62822502375E+02  0.68543830388E+02  0.00000000000E+00 0.  1.
         21    1    1    2  504  502 -0.21863718549E+02  0.16539881826E+02 -0.19508812083E+03  0.19700498666E+03  0.00000000000E+00 0. -1.
</event>
<event>
 4    1  0.3372301E+006  0.2649205E+02  0.7546771E-02  0.1452778E+00
         21   -1    0    0  503  501  0.00000000000E+00  0.00000000000E+00  0.54177880997E+02  0.54177880997E+02  0.00000000000E+00 0.  1.
         21   -1    0    0  504  502 -0.00000000000E+00 -0.00000000000E+00 -0.46201156945E+03  0.46201156945E+03  0.00000000000E+00 0.  1.
         21    1    1    2  503  502 -0.25902296815E+01 -0.26365115723E+02  0.50533849620E+02  0.57056976561E+02  0.00000000000E+00 0.  1.
         21    1    1    2  504  501  0.25902296815E+01  0.26365115723E+02 -0.45836753807E+03  0.45913247388E+03  0.00000000000E+00 0.  1.
</event>
<event>
 4    1  0.3372301E+006  0.2447475E+02  0.7546771E-02  0.1474766E+00
         21   -1    0    0  502  501  0.00000000000E+00  0.00000000000E+00  0.58813300899E+02  0.58813300899E+02  0.00000000000E+00 0. -1.
         21   -1    0    0  504  502 -0.00000000000E+00 -0.00000000000E+00 -0.15876469661E+02  0.15876469661E+02  0.00000000000E+00 0. -1.
         21    1    1    2  503  501 -0.36976176354E+01  0.24193826770E+02  0.43828130911E+02  0.50198791710E+02  0.00000000000E+00 0. -1.
         21    1    1    2  504  503  0.36976176354E+01 -0.24193826770E+02 -0.89129967352E+00  0.24490978850E+02  0.00000000000E+00 0. -1.
</event>
<event>
 4    1  0.3372301E+006  0.5577143E+02  0.7546771E-02  0.1274919E+00
         21   -1    0    0  504  501  0.00000000000E+00  0.00000000000E+00  0.30814617304E+02  0.30814617304E+02  0.00000000000E+00 0. -1.
         21   -1    0    0  503  502 -0.00000000000E+00 -0.00000000000E+00 -0.24335236381E+03  0.24335236381E+03  0.00000000000E+00 0. -1.
         21    1    1    2  503  501 -0.45566012064E+02  0.32158839752E+02 -0.21113614810E+03  0.21837794180E+03  0.00000000000E+00 0. -1.
         21    1    1    2  504  502  0.45566012064E+02 -0.32158839752E+02 -0.14015984044E+01  0.55789039315E+02  0.00000000000E+00 0. -1.
</event>
<event>
 4    1  0.3372301E+006  0.2227700E+02  0.7546771E-02  0.1501782E+00
         21   -1    0    0  503  501  0.00000000000E+00  0.00000000000E+00  0.55603843736E+03  0.55603843736E+03  0.00000000000E+00 0.  1.
         21   -1    0    0  504  502 -0.00000000000E+00 -0.00000000000E+00 -0.18364932833E+01  0.18364932833E+01  0.00000000000E+00 0. -1.
         21    1    1    2  503  502 -0.14089728815E+02  0.17255266661E+02  0.77116409276E+02  0.80269578703E+02  0.00000000000E+00 0. -1.
         21    1    1    2  504  501  0.14089728815E+02 -0.17255266661E+02  0.47708553480E+03  0.47760535194E+03  0.00000000000E+00 0.  1.
</event>
<event>
 4    1  0.3372301E+006  0.2131738E+02  0.7546771E-02  0.1514781E+00
         21   -1    0    0  504  501  0.00000000000E+00  0.00000000000E+00  0.15169422284E+01  0.15169422284E+01  0.00000000000E+00 0. -1.
         21   -1    0    0  503  502 -0.00000000000E+00 -0.00000000000E+00 -0.42590792100E+03  0.42590792100E+03  0.00000000000E+00 0. -1.
         21    1    1    2  503  501 -0.20060898232E+02 -0.72104924339E+01 -0.95799430963E+02  0.98142558617E+02  0.00000000000E+00 0. -1.
         21    1    1    2  504  502  0.20060898232E+02  0.72104924339E+01 -0.32859154781E+03  0.32928230462E+03  0.00000000000E+00 0. -1.
</event>
<event>
 4    1  0.3372301E+006  0.2217574E+02  0.7546771E-02  0.1503116E+00
         21   -1    0    0  503  501  0.00000000000E+00  0.00000000000E+00  0.42307954490E+02  0.42307954490E+02  0.00000000000E+00 0. -1.
         21   -1    0    0  504  502 -0.00000000000E+00 -0.00000000000E+00 -0.11626212845E+02  0.11626212845E+02  0.00000000000E+00 0. -1.
         21    1    1    2  503  502 -0.12926709504E+02 -0.18018420964E+02  0.14923240464E+02  0.26729504645E+02  0.00000000000E+00 0. -1.
         21    1    1    2  504  501  0.12926709504E+02  0.18018420964E+02  0.15758501180E+02  0.27204662690E+02  0.00000000000E+00 0. -1.
</event>
<event>
 4    1  0.3372301E+006  0.2559695E+02  0.7546771E-02  0.1462235E+00
         21   -1    0    0  503  501  0.00000000000E+00  0.00000000000E+00  0.11257419390E+03  0.11257419390E+03  0.00000000000E+00 0. -1.
         21   -1    0    0  504  502 -0.00000000000E+00 -0.00000000000E+00 -0.60187561753E+01  0.60187561753E+01  0.00000000000E+00 0.  1.
         21    1    1    2  503  502  0.23895850229E+02  0.91756421006E+01  0.64047817968E+02  0.68973379304E+02  0.00000000000E+00 0. -1.
         21    1    1    2  504  501 -0.23895850229E+02 -0.91756421006E+01  0.42507619756E+02  0.49619570771E+02  0.00000000000E+00 0.  1.
</event>
<event>
 4    1  0.3372301E+006  0.2258986E+02  0.7546771E-02  0.1497714E+00
         21   -1    0    0  504  501  0.00000000000E+00  0.00000000000E+00  0.10939678921E+03  0.10939678921E+03  0.00000000000E+00 0.  1.
         21   -1    0    0  503  502 -0.00000000000E+00 -0.00000000000E+00 -0.54114201737E+01  0.54114201737E+01  0.00000000000E+00 0.  1.
         21    1    1    2  503  501  0.49292470684E+01 -0.22045500932E+02  0.73316776829E+02  0.76717998882E+02  0.00000000000E+00 0.  1.
         21    1    1    2  504  502 -0.49292470684E+01  0.22045500932E+02  0.30668592204E+02  0.38090210498E+02  0.00000000000E+00 0.  1.
</event>
<event>
 4    1  0.3372301E+006  0.2700628E+02  0.7546771E-02  0.1447545E+00
         21   -1    0    0  503  501  0.00000000000E+00  0.00000000000E+00  0.67929571454E+02  0.67929571454E+02  0.00000000000E+00 0. -1.
         21   -1    0    0  504  502 -0.00000000000E+00 -0.00000000000E+00 -0.20855836418E+02  0.20855836418E+02  0.00000000000E+00 0.  1.
         21    1    1    2  503  502 -0.58423911311E+01 -0.26366750971E+02 -0.73852783863E+01  0.27997882558E+02  0.00000000000E+00 0.  1.
         21    1    1    2  504  501  0.58423911311E+01  0.26366750971E+02  0.54459013422E+02  0.60787525314E+02  0.00000000000E+00 0. -1.
</event>
<event>
 4    1  0.3372301E+006  0.2842210E+02  0.7546771E-02  0.1433823E+00
         21   -1    0    0  503  501  0.00000000000E+00  0.00000000000E+00  0.92279074631E+01  0.92279074631E+01  0.00000000000E+00 0. -1.
         21   -1    0    0  504  502 -0.00000000000E+00 -0.00000000000E+00 -0.87542140783E+02  0.87542140783E+02  0.00000000000E+00 0. -1.
         21    1    1    2  503  502  0.28421420172E+02 -0.19594320187E+00 -0.38946850166E+02  0.48214859288E+02  0.00000000000E+00 0. -1.
         21    1    1    2  504  501 -0.28421420172E+02  0.19594320187E+00 -0.39367383154E+02  0.48555188958E+02  0.00000000000E+00 0. -1.
</event>
<event>
 4    1  0.3372301E+006  0.3122911E+02  0.7546771E-02  0.1409208E+00
         21   -1    0    0  503  501  0.00000000000E+00  0.00000000000E+00  0.70897276521E+02  0.70897276521E+02  0.00000000000E+00 0. -1.
         21   -1    0    0  504  502 -0.00000000000E+00 -0.00000000000E+00 -0.16846874716E+02  0.16846874716E+02  0.00000000000E+00 0. -1.
         21    1    1    2  503  502 -0.30761394824E+02  0.53846124876E+01  0.82331304260E+01  0.32296159211E+02  0.00000000000E+00 0. -1.
         21    1    1    2  504  501  0.30761394824E+02 -0.53846124876E+01  0.45817271379E+02  0.55447992026E+02  0.00000000000E+00 0. -1.
</event>
<event>
 4    1  0.3372301E+006  0.2502038E+02  0.7546771E-02  0.1468576E+00
         21   -1    0    0  503  501  0.00000000000E+00  0.00000000000E+00  0.13335049500E+02  0.13335049500E+02  0.00000000000E+00 0.  1.
         21   -1    0    0  504  502 -0.00000000000E+00 -0.00000000000E+00 -0.81127037235E+02  0.81127037235E+02  0.00000000000E+00 0.  1.
         21    1    1    2  503  502 -0.13021368228E+02 -0.21365004542E+02 -0.64553798951E+02  0.69233029752E+02  0.00000000000E+00 0.  1.
         21    1    1    2  504  501  0.13021368228E+02  0.21365004542E+02 -0.32381887835E+01  0.25229056982E+02  0.00000000000E+00 0.  1.
</event>
<event>
 4    1  0.3372301E+006  0.2421337E+02  0.7546771E-02  0.1477799E+00
         21   -1    0    0  504  501  0.00000000000E+00  0.00000000000E+00  0.41833634275E+01  0.41833634275E+01  0.00000000000E+00 0. -1.
         21   -1    0    0  501  502 -0.00000000000E+00 -0.00000000000E+00 -0.54675148597E+03  0.54675148597E+03  0.00000000000E+00 0. -1.
         21    1    1    2  503  502 -0.11299978566E+02  0.21414900073E+02 -0.50883739971E+03  0.50941317887E+03  0.00000000000E+00 0. -1.
         21    1    1    2  504  503  0.11299978566E+02 -0.21414900073E+02 -0.33730722831E+02  0.41521670528E+02  0.00000000000E+00 0. -1.
</event>
<event>
 4    1  0.3372301E+006  0.2942026E+02  0.7546771E-02  0.1424702E+00
         21   -1    0    0  503  501  0.00000000000E+00  0.00000000000E+00  0.10607528427E+02  0.10607528427E+02  0.00000000000E+00 0. -1.
         21   -1    0    0  504  502 -0.00000000000E+00 -0.00000000000E+00 -0.40222724160E+03  0.40222724160E+03  0.00000000000E+00 0. -1.
         21    1    1    2  503  502 -0.23454710222E+02 -0.17760294360E+02 -0.11515431192E+02  0.31593617123E+02  0.00000000000E+00 0. -1.
         21    1    1    2  504  501  0.23454710222E+02  0.17760294360E+02 -0.38010428198E+03  0.38124115290E+03  0.00000000000E+00 0. -1.
</event>
<event>
 4    1  0.3372301E+006  0.2726744E+02  0.7546771E-02  0.1444940E+00
         21   -1    0    0  503  501  0.00000000000E+00  0.00000000000E+00  0.10415107164E+03  0.10415107164E+03  0.00000000000E+00 0.  1.
         21   -1    0    0  501  502 -0.00000000000E+00 -0.00000000000E+00 -0.40035107626E+03  0.40035107626E+03  0.00000000000E+00 0. -1.
         21    1    1    2  503  504 -0.25072466016E+02 -0.10718437928E+02  0.10189196771E+03  0.10547742198E+03  0.00000000000E+00 0.  1.
         21    1    1    2  504  502  0.25072466016E+02  0.10718437928E+02 -0.39809197233E+03  0.39902472592E+03  0.00000000000E+00 0. -1.
</event>
<event>
 4    1  0.3372301E+006  0.2014535E+02  0.7546771E-02  0.1531825E+00
         21   -1    0    0  504  501  0.00000000000E+00  0.00000000000E+00  0.48131863522E+01  0.48131863522E+01  0.00000000000E+00 0. -1.
         21   -1    0    0  503  502 -0.00000000000E+00 -0.00000000000E+00 -0.89250400075E+02  0.89250400075E+02  0.00000000000E+00 0. -1.
         21    1    1    2  503  501  0.98593912940E+01 -0.17567799386E+02 -0.31161443578E+02  0.37106208885E+02  0.00000000000E+00 0. -1.
         21    1    1    2  504  502 -0.98593912940E+01  0.17567799386E+02 -0.53275770145E+02  0.56957377543E+02  0.00000000000E+00 0. -1.
</event>
<event>
 4    1  0.3372301E+006  0.2252205E+02  0.7546771E-02  0.1498589E+00
         21   -1    0    0  504  501  0.00000000000E+00  0.00000000000E+00  0.55427031652E+02  0.55427031652E+02  0.00000000000E+00 0.  1.
         21   -1    0    0  503  502 -0.00000000000E+00 -0.00000000000E+00 -0.97937997965E+01  0.97937997965E+01  0.00000000000E+00 0.  1.
         21    1    1    2  503  501  0.22521972541E+02 -0.58846377632E-01  0.14465663396E+02  0.26767482652E+02  0.00000000000E+00 0.  1.
         21    1    1    2  504  502 -0.22521972541E+02  0.58846377632E-01  0.31167568460E+02  0.38453348797E+02  0.00000000000E+00 0.  1.
</event>
<event>
 4    1  0.3372301E+006  0.3740612E+02  0.7546771E-02  0.1364395E+00
         21   -1    0    0  504  501  0.00000000000E+00  0.00000000000E+00  0.48913404164E+02  0.48913404164E+02  0.00000000000E+00 0.  1.
         21   -1    0    0  503  502 -0.00000000000E+00 -0.00000000000E+00 -0.32470956395E+02  0.32470956395E+02  0.00000000000E+00 0.  1.
         21    1    1    2  503  501  0.29918597612E+02  0.22452071475E+02  0.22260166211E+02  0.43528530831E+02  0.00000000000E+00 0.  1.
         21    1    1    2  504  502 -0.29918597612E+02 -0.22452071475E+02 -0.58177184419E+01  0.37855829728E+02  0.00000000000E+00 0.  1.
</event>
<event>
 4    1  0.3372301E+006  0.2457652E+02  0.7546771E-02  0.1473597E+00
         21   -1    0    0  502  501  0.00000000000E+00  0.00000000000E+00  0.15155513786E+03  0.15155513786E+03  0.00000000000E+00 0. -1.
         21   -1    0    0  504  502 -0.00000000000E+00 -0.00000000000E+00 -0.96099267968E+02  0.96099267968E+02  0.00000000000E+00 0. -1.
         21    1    1    2  503  501 -0.16534763204E+02  0.18182593476E+02  0.14896029941E+03  0.15097409016E+03  0.00000000000E+00 0. -1.
         21    1    1    2  504  503  0.16534763204E+02 -0.18182593476E+02 -0.93504429513E+02  0.96680315671E+02  0.00000000000E+00 0. -1.
</event>
<event>
 4    1  0.3372301E+006  0.3286142E+02  0.7546771E-02  0.1396255E+00
         21   -1    0    0  503  501  0.00000000000E+00  0.00000000000E+00  0.15927778481E+01  0.15927778481E+01  0.00000000000E+00 0.  1.
         21   -1    0    0  501  502 -0.00000000000E+00 -0.00000000000E+00 -0.68753302020E+03  0.68753302020E+03  0.00000000000E+00 0.  1.
         21    1    1    2  503  504 -0.26885044169E+02  0.18896221003E+02 -0.30235625399E+03  0.30413677366E+03  0.00000000000E+00 0.  1.
         21    1    1    2  504  502  0.26885044169E+02 -0.18896221003E+02 -0.38358398836E+03  0.38498902438E+03  0.00000000000E+00 0.  1.
</event>
<event>
 4    1  0.3372301E+006  0.2255645E+02  0.7546771E-02  0.1498144E+00
         21   -1    0    0  504  501  0.00000000000E+00  0.00000000000E+00  0.45764956923E+03  0.45764956923E+03  0.00000000000E+00 0. -1.
         21   -1    0    0  503  502 -0.00000000000E+00 -0.00000000000E+00 -0.10957868337E+02  0.10957868337E+02  0.00000000000E+00 0. -1.
         21    1    1    2  503  501  0.19880025577E+02  0.10657301543E+02  0.12458334158E+01  0.22590829866E+02  0.00000000000E+00 0. -1.
         21    1    1    2  504  502 -0.19880025577E+02 -0.10657301543E+02  0.44544586747E+03  0.44601660770E+03  0.00000000000E+00 0. -1.
</event>
<event>
 4    1  0.3372301E+006  0.2304975E+02  0.7546771E-02  0.1491874E+00
         21   -1    0    0  504  501  0.00000000000E+00  0.00000000000E+00  0.43157058920E+03  0.43157058920E+03  0.00000000000E+00 0. -1.
         21   -1    0    0  503  502 -0.00000000000E+00 -0.00000000000E+00 -0.39733788328E+01  0.39733788328E+01  0.00000000000E+00 0. -1.
         21    1    1    2  503  501 -0.18473699677E+02  0.13784527831E+02  0.39471616405E+03  0.39538859487E+03  0.00000000000E+00 0. -1.
         21    1    1    2  504  502  0.18473699677E+02 -0.13784527831E+02  0.32881046316E+02  0.40155373166E+02  0.00000000000E+00 0. -1.
</event>
<event>
 4    1  0.3372301E+006  0.2141156E+02  0.7546771E-02  0.1513469E+00
         21   -1    0    0  504  501  0.00000000000E+00  0.00000000000E+00  0.32350836888E+02  0.32350836888E+02  0.00000000000E+00 0. -1.
         21   -1    0    0  503  502 -0.00000000000E+00 -0.00000000000E+00 -0.23696343007E+02  0.23696343007E+02  0.00000000000E+00 0. -1.
         21    1    1    2  503  501  0.73947370478E+01 -0.20094102296E+02 -0.13439806258E+02  0.25280100382E+02  0.00000000000E+00 0. -1.
         21    1    1    2  504  502 -0.73947370478E+01  0.20094102296E+02  0.22094300139E+02  0.30767079512E+02  0.00000000000E+00 0. -1.
</event>
<event>
 4    1  0.3372301E+006  0.3197357E+02  0.7546771E-02  0.1403187E+00
         21   -1    0    0  503  501  0.00000000000E+00  0.00000000000E+00  0.11620502831E+03  0.11620502831E+03  0.00000000000E+00 0.  1.
         21   -1    0    0  504  502 -0.00000000000E+00 -0.00000000000E+00 -0.68328258168E+03  0.68328258168E+03  0.00000000000E+00 0. -1.
         21    1    1    2  503  502  0.97737129831E+01 -0.30443122367E+02 -0.68070083608E+03  0.68145134632E+03  0.00000000000E+00 0. -1.
         21    1    1    2  504  501 -0.97737129831E+01  0.30443122367E+02  0.11362328271E+03  0.11803626366E+03  0.00000000000E+00 0.  1.
</event>
<event>
 4    1  0.3372301E+006  0.2130267E+02  0.7546771E-02  0.1514987E+00
         21   -1    0    0  504  501  0.00000000000E+00  0.00000000000E+00  0.65747427649E+02  0.65747427649E+02  0.00000000000E+00 0. -1.
         21   -1    0    0  503  502 -0.00000000000E+00 -0.00000000000E+00 -0.74516005718E+01  0.74516005718E+01  0.00000000000E+00 0.  1.
         21    1    1    2  503  501 -0.20569483831E+02 -0.55407846666E+01  0.39085540209E+02  0.44513856418E+02  0.00000000000E+00 0. -1.
         21    1    1    2  504  502  0.20569483831E+02  0.55407846666E+01  0.19210286869E+02  0.28685171803E+02  0.00000000000E+00 0.  1.
</event>
<event>
 4    1  0.3372301E+006  0.2334531E+02  0.7546771E-02  0.1488207E+00
         21   -1    0    0  503  501  0.00000000000E+00  0.00000000000E+00  0.60630827076E+01  0.60630827076E+01  0.00000000000E+00 0. -1.
         21   -1    0    0  504  502 -0.00000000000E+00 -0.00000000000E+00 -0.20732697772E+03  0.20732697772E+03  0.00000000000E+00 0. -1.
         21    1    1    2  503  502  0.90663346478E+01  0.21512901607E+02 -0.20330958475E+02  0.30957248457E+02  0.00000000000E+00 0. -1.
         21    1    1    2  504  501 -0.90663346478E+01 -0.21512901607E+02 -0.18093293654E+03  0.18243281197E+03  0.00000000000E+00 0. -1.
</event>
<event>
 4    1  0.3372301E+006  0.4152061E+02  0.7546771E-02  0.1339798E+00
         21   -1    0    0  503  501  0.00000000000E+00  0.00000000000E+00  0.20078976867E+03  0.20078976867E+03  0.00000000000E+00 0.  1.
         21   -1    0    0  504  502 -0.00000000000E+00 -0.00000000000E+00 -0.18351114198E+02  0.18351114198E+02  0.00000000000E+00 0. -1.
         21    1    1    2  503  502 -0.19323106131E+02 -0.36750223114E+02  0.17114807869E+03  0.17611253836E+03  0.00000000000E+00 0.  1.
         21    1    1    2  504  501  0.19323106131E+02  0.36750223114E+02  0.11290575784E+02  0.43028344507E+02  0.00000000000E+00 0. -1.
</event>
<event>
 4    1  0.3372301E+006  0.3240494E+02  0.7546771E-02  0.1399787E+00
         21   -1    0    0  502  501  0.00000000000E+00  0.00000000000E+00  0.99059293003E+01  0.99059293003E+01  0.00000000000E+00 0.  1.
         21   -1    0    0  503  502 -0.00000000000E+00 -0.00000000000E+00 -0.14918303041E+04  0.14918303041E+04  0.00000000000E+00 0.  1.
         21    1    1    2  503  504  0.31543583979E+02 -0.74217683131E+01 -0.14646614972E+04  0.14650199253E+04  0.00000000000E+00 0.  1.
         21    1    1    2  504  501 -0.31543583979E+02  0.74217683131E+01 -0.17262877662E+02  0.36716308097E+02  0.00000000000E+00 0.  1.
</event>
<event>
 4    1  0.3372301E+006  0.2002982E+02  0.7546771E-02  0.1533580E+00
         21   -1    0    0  503  501  0.00000000000E+00  0.00000000000E+00  0.17273713975E+01  0.17273713975E+01  0.00000000000E+00 0. -1.
         21   -1    0    0  504  502 -0.00000000000E+00 -0.00000000000E+00 -0.26030886264E+03  0.26030886264E+03  0.00000000000E+00 0. -1.
         21    1    1    2  503  502  0.36439550596E+01  0.19695563763E+02 -0.86280712056E+02  0.88575137105E+02  0.00000000000E+00 0. -1.
         21    1    1    2  504  501 -0.36439550596E+01 -0.19695563763E+02 -0.17230077919E+03  0.17346109693E+03  0.00000000000E+00 0. -1.
</event>
<event>
 4    1  0.3372301E+006  0.4228402E+02  0.7546771E-02  0.1335597E+00
         21   -1    0    0  504  501  0.00000000000E+00  0.00000000000E+00  0.23787404118E+02  0.23787404118E+02  0.00000000000E+00 0.  1.
         21   -1    0    0  503  502 -0.00000000000E+00 -0.00000000000E+00 -0.75543376539E+02  0.75543376539E+02  0.00000000000E+00 0.  1.
         21    1    1    2  503  501  0.35676786138E+02  0.22695932645E+02 -0.22354894486E+02  0.47829695120E+02  0.00000000000E+00 0.  1.
         21    1    1    2  504  502 -0.35676786138E+02 -0.22695932645E+02 -0.29401077935E+02  0.51501085537E+02  0.00000000000E+00 0.  1.
</event>
<event>
 4    1  0.3372301E+006  0.2099680E+02  0.7546771E-02  0.1519310E+00
         21   -1    0    0  504  501  0.00000000000E+00  0.00000000000E+00  0.33940250873E+03  0.33940250873E+03  0.00000000000E+00 0. -1.
         21   -1    0    0  503  502 -0.00000000000E+00 -0.00000000000E+00 -0.38724318145E+01  0.38724318145E+01  0.00000000000E+00 0. -1.
         21    1    1    2  503  501  0.93449173317E+01 -0.18802613544E+02  0.27844635041E+02  0.34873907962E+02  0.00000000000E+00 0. -1.
         21    1    1    2  504  502 -0.93449173317E+01  0.18802613544E+02  0.30768544187E+03  0.30840103258E+03  0.00000000000E+00 0. -1.
</event>
<event>
 4    1  0.3372301E+006  0.3639239E+02  0.7546771E-02  0.1371030E+00
         21   -1    0    0  504  501  0.00000000000E+00  0.00000000000E+00  0.57707278585E+02  0.57707278585E+02  0.00000000000E+00 0.  1.
         21   -1    0    0  503  502 -0.00000000000E+00 -0.00000000000E+00 -0.38033741934E+02  0.38033741934E+02  0.00000000000E+00 0.  1.
         21    1    1    2  503  501  0.30376934485E+02  0.20041157269E+02  0.39982932922E+02  0.54065155678E+02  0.00000000000E+00 0.  1.
         21    1    1    2  504  502 -0.30376934485E+02 -0.20041157269E+02 -0.20309396272E+02  0.41675864842E+02  0.00000000000E+00 0.  1.
</event>
<event>
 4    1  0.3372301E+006  0.2075756E+02  0.7546771E-02  0.1522755E+00
         21   -1    0    0  502  501  0.00000000000E+00  0.00000000000E+00  0.32312728464E+02  0.32312728464E+02  0.00000000000E+00 0.  1.
         21   -1    0    0  503  502 -0.00000000000E+00 -0.00000000000E+00 -0.43627853164E+02  0.43627853164E+02  0.00000000000E+00 0. -1.
         21    1    1    2  503  504  0.20729310246E+02  0.10826658538E+01 -0.37297465510E+02  0.42684627234E+02  0.00000000000E+00 0. -1.
         21    1    1    2  504  501 -0.20729310246E+02 -0.10826658538E+01  0.25982340810E+02  0.33255954393E+02  0.00000000000E+00 0.  1.
</event>
<event>
 4    1  0.3372301E+006  0.2032365E+02  0.7546771E-02  0.1529144E+00
         21   -1    0    0  502  501  0.00000000000E+00  0.00000000000E+00  0.80602351165E+01  0.80602351165E+01  0.00000000000E+00 0.  1.
         21   -1    0    0  504  502 -0.00000000000E+00 -0.00000000000E+00 -0.13160475133E+03  0.13160475133E+03  0.00000000000E+00 0.  1.
         21    1    1    2  503  501 -0.13981760362E+02  0.14749957945E+02 -0.72040528989E+01  0.21562682123E+02  0.00000000000E+00 0.  1.
         21    1    1    2  504  503  0.13981760362E+02 -0.14749957945E+02 -0.11634046331E+03  0.11810230432E+03  0.00000000000E+00 0.  1.
</event>
<event>
 4    1  0.3372301E+006  0.5685448E+02  0.7546771E-02  0.1270911E+00
         21   -1    0    0  502  501  0.00000000000E+00  0.00000000000E+00  0.65878460444E+02  0.65878460444E+02  0.00000000000E+00 0. -1.
         21   -1    0    0  503  502 -0.00000000000E+00 -0.00000000000E+00 -0.30777940465E+03  0.30777940465E+03  0.00000000000E+00 0. -1.
         21    1    1    2  503  504  0.10270891496E+02 -0.55919050203E+02 -0.29224099121E+03  0.29772005027E+03  0.00000000000E+00 0. -1.
         21    1    1    2  504  501 -0.10270891496E+02  0.55919050203E+02  0.50340047007E+02  0.75937814825E+02  0.00000000000E+00 0. -1.
</event>
<event>
 4    1  0.3372301E+006  0.2289187E+02  0.7546771E-02  0.1493860E+00
         21   -1    0    0  502  501  0.00000000000E+00  0.00000000000E+00  0.86256828887E+01  0.86256828887E+01  0.00000000000E+00 0. -1.
         21   -1    0    0  504  502 -0.00000000000E+00 -0.00000000000E+00 -0.15181107675E+03  0.15181107675E+03  0.00000000000E+00 0.  1.
         21    1    1    2  503  501 -0.22473191582E+02 -0.43581433888E+01 -0.94656173904E+01  0.24771670640E+02  0.00000000000E+00 0. -1.
         21    1    1    2  504  503  0.22473191582E+02  0.43581433888E+01 -0.13371977647E+03  0.13566508900E+03  0.00000000000E+00 0.  1.
</event>
<event>
 4    1  0.3372301E+006  0.2809356E+02  0.7546771E-02  0.1436922E+00
         21   -1    0    0  502  501  0.00000000000E+00  0.00000000000E+00  0.20451815135E+02  0.20451815135E+02  0.00000000000E+00 0. -1.
         21   -1    0    0  504  502 -0.00000000000E+00 -0.00000000000E+00 -0.85459598124E+02  0.85459598124E+02  0.00000000000E+00 0. -1.
         21    1    1    2  503  501 -0.12607033182E+02 -0.25105997322E+02  0.67131701058E+01  0.28884512114E+02  0.00000000000E+00 0. -1.
         21    1    1    2  504  503  0.12607033182E+02  0.25105997322E+02 -0.71720953094E+02  0.77026901145E+02  0.00000000000E+00 0. -1.
</event>
<event>
 4    1  0.3372301E+006  0.2025467E+02  0.7546771E-02  0.1530178E+00
         21   -1    0    0  504  501  0.00000000000E+00  0.00000000000E+00  0.43937494498E+01  0.43937494498E+01  0.00000000000E+00 0.  1.
         21   -1    0    0  503  502 -0.00000000000E+00 -0.00000000000E+00 -0.10412114431E+03  0.10412114431E+03  0.00000000000E+00 0.  1.
         21    1    1    2  503  501 -0.20123469869E+02 -0.23016477749E+01 -0.67297172619E+02  0.70279165224E+02  0.00000000000E+00 0.  1.
         21    1    1    2  504  502  0.20123469869E+02  0.23016477749E+01 -0.32430222241E+02  0.38235728535E+02  0.00000000000E+00 0.  1.
</event>
<event>
 4    1  0.3372301E+006  0.2362928E+02  0.7546771E-02  0.1484744E+00
         21   -1    0    0  502  501  0.00000000000E+00  0.00000000000E+00  0.17509594551E+04  0.17509594551E+04  0.00000000000E+00 0. -1.
         21   -1    0    0  503  502 -0.00000000000E+00 -0.00000000000E+00 -0.30062110847E+01  0.30062110847E+01  0.00000000000E+00 0.  1.
         21    1    1    2  503  504 -0.15518758508E+02  0.17818833987E+02  0.44809460958E+02  0.50657975696E+02  0.00000000000E+00 0.  1.
         21    1    1    2  504  501  0.15518758508E+02 -0.17818833987E+02  0.17031437831E+04  0.17033076905E+04  0.00000000000E+00 0. -1.
</event>
<event>
 4    1  0.3372301E+006  0.2540100E+02  0.7546771E-02  0.1464367E+00
         21   -1    0    0  502  501  0.00000000000E+00  0.00000000000E+00  0.15456884400E+02  0.15456884400E+02  0.00000000000E+00 0.  1.
         21   -1    0    0  503  502 -0.00000000000E+00 -0.00000000000E+00 -0.53140121958E+02  0.53140121958E+02  0.00000000000E+00 0.  1.
         21    1    1    2  503  504  0.23130776304E+02 -0.10496569236E+02 -0.34725945912E+02  0.43024436053E+02  0.00000000000E+00 0.  1.
         21    1    1    2  504  501 -0.23130776304E+02  0.10496569236E+02 -0.29572916459E+01  0.25572570306E+02  0.00000000000E+00 0.  1.
</event>
<event>
 4    1  0.3372301E+006  0.2810011E+02  0.7546771E-02  0.1436860E+00
         21   -1    0    0  504  501  0.00000000000E+00  0.00000000000E+00  0.11629843692E+03  0.11629843692E+03  0.00000000000E+00 0.  1.
         21   -1    0    0  501  502 -0.00000000000E+00 -0.00000000000E+00 -0.32961128522E+03  0.32961128522E+03  0.00000000000E+00 0. -1.
         21    1    1    2  503  502  0.27419893139E+02  0.61453683524E+01 -0.32730304532E+03  0.32850707689E+03  0.00000000000E+00 0. -1.
         21    1    1    2  504  503 -0.27419893139E+02 -0.61453683524E+01  0.11399019703E+03  0.11740264525E+03  0.00000000000E+00 0.  1.
</event>
<event>
 4    1  0.3372301E+006  0.2229798E+02  0.7546771E-02  0.1501507E+00
         21   -1    0    0  504  501  0.00000000000E+00  0.00000000000E+00  0.68540153825E+03  0.68540153825E+03  0.00000000000E+00 0.  1.
         21   -1    0    0  503  502 -0.00000000000E+00 -0.00000000000E+00 -0.44172247200E+01  0.44172247200E+01  0.00000000000E+00 0.  1.
         21    1    1    2  503  501  0.22297529281E+02  0.14146670973E+00  0.25173275108E+02  0.33628761567E+02  0.00000000000E+00 0.  1.
         21    1    1    2  504  502 -0.22297529281E+02 -0.14146670973E+00  0.65581103842E+03  0.65619000140E+03  0.00000000000E+00 0.  1.
</event>
<event>
 4    1  0.3372301E+006  0.2759702E+02  0.7546771E-02  0.1441701E+00
         21   -1    0    0  503  501  0.00000000000E+00  0.00000000000E+00  0.32417946715E+02  0.32417946715E+02  0.00000000000E+00 0. -1.
         21   -1    0    0  504  502 -0.00000000000E+00 -0.00000000000E+00 -0.25706006802E+02  0.25706006802E+02  0.00000000000E+00 0. -1.
         21    1    1    2  503  502 -0.87276815117E+01  0.26180586452E+02  0.11882985788E+02  0.30046645117E+02  0.00000000000E+00 0. -1.
         21    1    1    2  504  501  0.87276815117E+01 -0.26180586452E+02 -0.51710458744E+01  0.28077308400E+02  0.00000000000E+00 0. -1.
</event>
<event>
 4    1  0.3372301E+006  0.2478737E+02  0.7546771E-02  0.1471196E+00
         21   -1    0    0  503  501  0.00000000000E+00  0.00000000000E+00  0.23712239625E+02  0.23712239625E+02  0.00000000000E+00 0.  1.
         21   -1    0    0  504  502 -0.00000000000E+00 -0.00000000000E+00 -0.47698033622E+02  0.47698033622E+02  0.00000000000E+00 0. -1.
         21    1    1    2  503  502 -0.21361434284E+02 -0.12573902103E+02  0.12138194772E+02  0.27599812701E+02  0.00000000000E+00 0.  1.
         21    1    1    2  504  501  0.21361434284E+02  0.12573902103E+02 -0.36123988768E+02  0.43810460547E+02  0.00000000000E+00 0. -1.
</event>
<event>
 4    1  0.3372301E+006  0.3018910E+02  0.7546771E-02  0.1417960E+00
         21   -1    0    0  504  501  0.00000000000E+00  0.00000000000E+00  0.20652531471E+02  0.20652531471E+02  0.00000000000E+00 0.  1.
         21   -1    0    0  503  502 -0.00000000000E+00 -0.00000000000E+00 -0.28106882486E+03  0.28106882486E+03  0.00000000000E+00 0.  1.
         21    1    1    2  503  501  0.12041886792E+00 -0.30188859347E+02  0.83041959658E+01  0.31310404022E+02  0.00000000000E+00 0.  1.
         21    1    1    2  504  502 -0.12041886792E+00  0.30188859347E+02 -0.26872048935E+03  0.27041095231E+03  0.00000000000E+00 0.  1.
</event>
<event>
 4    1  0.3372301E+006  0.2191333E+02  0.7546771E-02  0.1506614E+00
         21   -1    0    0  502  501  0.00000000000E+00  0.00000000000E+00  0.33996201731E+03  0.33996201731E+03  0.00000000000E+00 0.  1.
         21   -1    0    0  503  502 -0.00000000000E+00 -0.00000000000E+00 -0.25916757525E+03  0.25916757525E+03  0.00000000000E+00 0. -1.
         21    1    1    2  503  504  0.73786407384E+01 -0.20633700508E+02 -0.25835012875E+03  0.25927781039E+03  0.00000000000E+00 0. -1.
         21    1    1    2  504  501 -0.73786407384E+01  0.20633700508E+02  0.33914457081E+03  0.33985178217E+03  0.00000000000E+00 0.  1.
</event>
<event>
 4    1  0.3372301E+006  0.2127204E+02  0.7546771E-02  0.1515416E+00
         21   -1    0    0  503  501  0.00000000000E+00  0.00000000000E+00  0.66011420375E+02  0.66011420375E+02  0.00000000000E+00 0.  1.
         21   -1    0    0  504  502 -0.00000000000E+00 -0.00000000000E+00 -0.68573504966E+01  0.68573504966E+01  0.00000000000E+00 0.  1.
         21    1    1    2  503  502 -0.12269538286E+02 -0.17376944434E+02  0.30269853942E+02  0.36996808313E+02  0.00000000000E+00 0.  1.
         21    1    1    2  504  501  0.12269538286E+02  0.17376944434E+02  0.28884215936E+02  0.35871962559E+02  0.00000000000E+00 0.  1.
</event>
<event>
 4    1  0.3372301E+006  0.2246773E+02  0.7546771E-02  0.1499292E+00
         21   -1    0    0  503  501  0.00000000000E+00  0.00000000000E+00  0.84815296223E+02  0.84815296223E+02  0.00000000000E+00 0.  1.
         21   -1    0    0  504  502 -0.00000000000E+00 -0.00000000000E+00 -0.31711146116E+03  0.31711146116E+03  0.00000000000E+00 0.  1.
         21    1    1    2  503  502  0.12762082268E+02  0.18491299496E+02  0.82920460879E+02  0.85910428547E+02  0.00000000000E+00 0.  1.
         21    1    1    2  504  501 -0.12762082268E+02 -0.18491299496E+02 -0.31521662581E+03  0.31601632883E+03  0.00000000000E+00 0.  1.
</event>
<event>
 4    1  0.3372301E+006  0.2630528E+02  0.7546771E-02  0.1454714E+00
         21   -1    0    0  502  501  0.00000000000E+00  0.00000000000E+00  0.37912001300E+02  0.37912001300E+02  0.00000000000E+00 0. -1.
         21   -1    0    0  503  502 -0.00000000000E+00 -0.00000000000E+00 -0.37017530486E+02  0.37017530486E+02  0.00000000000E+00 0.  1.
         21    1    1    2  503  504 -0.17781078444E+01 -0.26245111052E+02 -0.26227519321E+02  0.37146336177E+02  0.00000000000E+00 0.  1.
         21    1    1    2  504  501  0.17781078444E+01  0.26245111052E+02  0.27121990135E+02  0.37783195610E+02  0.00000000000E+00 0. -1.
</event>
<event>
 4    1  0.3372301E+006  0.3415194E+02  0.7546771E-02  0.1386625E+00
         21   -1    0    0  503  501  0.00000000000E+00  0.00000000000E+00  0.75510103252E+01  0.75510103252E+01  0.00000000000E+00 0. -1.
         21   -1    0    0  504  502 -0.00000000000E+00 -0.00000000000E+00 -0.16306240014E+03  0.16306240014E+03  0.00000000000E+00 0. -1.
         21    1    1    2  503  502 -0.25049513952E+02 -0.23213724857E+02 -0.97345438472E+02  0.10316244260E+03  0.00000000000E+00 0. -1.
         21    1    1    2  504  501  0.25049513952E+02  0.23213724857E+02 -0.58165951343E+02  0.67450967870E+02  0.00000000000E+00 0. -1.
</event>
<event>
 4    1  0.3372301E+006  0.5319943E+02  0.7546771E-02  0.1284866E+00
         21   -1    0    0  504  501  0.00000000000E+00  0.00000000000E+00  0.45006195169E+03  0.45006195169E+03  0.00000000000E+00 0.  1.
         21   -1    0    0  503  502 -0.00000000000E+00 -0.00000000000E+00 -0.10679777205E+02  0.10679777205E+02  0.00000000000E+00 0.  1.
         21    1    1    2  503  501  0.20072113918E+02 -0.49267525458E+02  0.71968872097E+02  0.89496912644E+02  0.00000000000E+00 0.  1.
         21    1    1    2  504  502 -0.20072113918E+02  0.49267525458E+02  0.36741330239E+03  0.37124481626E+03  0.00000000000E+00 0.  1.
</event>
<event>
 4    1  0.3372301E+006  0.3135188E+02  0.7546771E-02  0.1408201E+00
         21   -1    0    0  504  501  0.00000000000E+00  0.00000000000E+00  0.41284257131E+03  0.41284257131E+03  0.00000000000E+00 0. -1.
         21   -1    0    0  501  502 -0.00000000000E+00 -0.00000000000E+00 -0.27021454231E+01  0.27021454231E+01  0.00000000000E+00 0. -1.
         21    1    1    2  503  502  0.10953050464E+02  0.29376365725E+02  0.13343171321E+03  0.13706554005E+03  0.00000000000E+00 0. -1.
         21    1    1    2  504  503 -0.10953050464E+02 -0.29376365725E+02  0.27670871267E+03  0.27847917668E+03  0.00000000000E+00 0. -1.
</event>
<event>
 4    1  0.3372301E+006  0.2635874E+02  0.7546771E-02  0.1454158E+00
         21   -1    0    0  504  501  0.00000000000E+00  0.00000000000E+00  0.34852962415E+03  0.34852962415E+03  0.00000000000E+00 0.  1.
         21   -1    0    0  503  502 -0.00000000000E+00 -0.00000000000E+00 -0.12033344678E+02  0.12033344678E+02  0.00000000000E+00 0.  1.
         21    1    1    2  503  501 -0.30311498965E+01 -0.26183879500E+02  0.35752567718E+01  0.26600110457E+02  0.00000000000E+00 0.  1.
         21    1    1    2  504  502  0.30311498965E+01  0.26183879500E+02  0.33292102270E+03  0.33396285838E+03  0.00000000000E+00 0.  1.
</event>
<event>
 4    1  0.3372301E+006  0.5173244E+02  0.7546771E-02  0.1290831E+00
         21   -1    0    0  504  501  0.00000000000E+00  0.00000000000E+00  0.14425673140E+02  0.14425673140E+02  0.00000000000E+00 0. -1.
         21   -1    0    0  503  502 -0.00000000000E+00 -0.00000000000E+00 -0.47129955122E+03  0.47129955122E+03  0.00000000000E+00 0.  1.
         21    1    1    2  503  501  0.29298295821E+02 -0.42636310850E+02 -0.39321046795E+02  0.64979918913E+02  0.00000000000E+00 0. -1.
         21    1    1    2  504  502 -0.29298295821E+02  0.42636310850E+02 -0.41755283129E+03  0.42074530545E+03  0.00000000000E+00 0.  1.
</event>
<event>
 4    1  0.3372301E+006  0.2133047E+02  0.7546771E-02  0.1514599E+00
         21   -1    0    0  504  501  0.00000000000E+00  0.00000000000E+00  0.25093743470E+03  0.25093743470E+03  0.00000000000E+00 0. -1.
         21   -1    0    0  503  502 -0.00000000000E+00 -0.00000000000E+00 -0.21731201148E+02  0.21731201148E+02  0.00000000000E+00 0.  1.
         21    1    1    2  503  501 -0.21000295227E+02  0.37385067638E+01 -0.15919771345E+02  0.26616309889E+02  0.00000000000E+00 0.  1.
         21    1    1    2  504  502  0.21000295227E+02 -0.37385067638E+01  0.24512600489E+03  0.24605232596E+03  0.00000000000E+00 0. -1.
</event>
<event>
 4    1  0.3372301E+006  0.4507240E+02  0.7546771E-02  0.1321078E+00
         21   -1    0    0  503  501  0.00000000000E+00  0.00000000000E+00  0.61031800460E+01  0.61031800460E+01  0.00000000000E+00 0.  1.
         21   -1    0    0  504  502 -0.00000000000E+00 -0.00000000000E+00 -0.34365773013E+03  0.34365773013E+03  0.00000000000E+00 0.  1.
         21    1    1    2  503  502 -0.45060516793E+02  0.10347604475E+01 -0.13778236155E+03  0.14496723788E+03  0.00000000000E+00 0.  1.
         21    1    1    2  504  501  0.45060516793E+02 -0.10347604475E+01 -0.19977218853E+03  0.20479367230E+03  0.00000000000E+00 0.  1.
</event>
<event>
 4    1  0.3372301E+006  0.2266297E+02  0.7546771E-02  0.1496774E+00
         21   -1    0    0  502  501  0.00000000000E+00  0.00000000000E+00  0.38181950022E+03  0.38181950022E+03  0.00000000000E+00 0.  1.
         21   -1    0    0  504  502 -0.00000000000E+00 -0.00000000000E+00 -0.39095798497E+01  0.39095798497E+01  0.00000000000E+00 0.  1.
         21    1    1    2  503  501 -0.15298367385E+02 -0.16720350112E+02  0.34515512950E+03  0.34589835729E+03  0.00000000000E+00 0.  1.
         21    1    1    2  504  503  0.15298367385E+02  0.16720350112E+02  0.32754790866E+02  0.39830722780E+02  0.00000000000E+00 0.  1.
</event>
<event>
 4    1  0.3372301E+006  0.2794056E+02  0.7546771E-02  0.1438382E+00
         21   -1    0    0  502  501  0.00000000000E+00  0.00000000000E+00  0.18287507734E+04  0.18287507734E+04  0.00000000000E+00 0.  1.
         21   -1    0    0  504  502 -0.00000000000E+00 -0.00000000000E+00 -0.12539806632E+02  0.12539806632E+02  0.00000000000E+00 0. -1.
         21    1    1    2  503  501 -0.22435488344E+01  0.27850334044E+02  0.18129444348E+04  0.18131597277E+04  0.00000000000E+00 0.  1.
         21    1    1    2  504  503  0.22435488344E+01 -0.27850334044E+02  0.32665319281E+01  0.28130852255E+02  0.00000000000E+00 0. -1.
</event>
<event>
 4    1  0.3372301E+006  0.2558192E+02  0.7546771E-02  0.1462398E+00
         21   -1    0    0  503  501  0.00000000000E+00  0.00000000000E+00  0.17400953620E+03  0.17400953620E+03  0.00000000000E+00 0. -1.
         21   -1    0    0  504  502 -0.00000000000E+00 -0.00000000000E+00 -0.80269215686E+01  0.80269215686E+01  0.00000000000E+00 0. -1.
         21    1    1    2  503  502  0.25415336050E+02  0.29147012424E+01  0.16637673170E+02  0.30516339204E+02  0.00000000000E+00 0. -1.
         21    1    1    2  504  501 -0.25415336050E+02 -0.29147012424E+01  0.14934494147E+03  0.15152011857E+03  0.00000000000E+00 0. -1.
</event>
<event>
 4    1  0.3372301E+006  0.2000169E+02  0.7546771E-02  0.1534010E+00
         21   -1    0    0  503  501  0.00000000000E+00  0.00000000000E+00  0.14770105765E+03  0.14770105765E+03  0.00000000000E+00 0. -1.
         21   -1    0    0  504  502 -0.00000000000E+00 -0.00000000000E+00 -0.43417387193E+02  0.43417387193E+02  0.00000000000E+00 0.  1.
         21    1    1    2  503  502 -0.67193524315E+01 -0.18839260961E+02 -0.40388617954E+02  0.45070033402E+02  0.00000000000E+00 0.  1.
         21    1    1    2  504  501  0.67193524315E+01  0.18839260961E+02  0.14467228841E+03  0.14604841144E+03  0.00000000000E+00 0. -1.
</event>
<event>
 4    1  0.3372301E+006  0.2054624E+02  0.7546771E-02  0.1525843E+00
         21   -1    0    0  502  501  0.00000000000E+00  0.00000000000E+00  0.26209406397E+02  0.26209406397E+02  0.00000000000E+00 0. -1.
         21   -1    0    0  504  502 -0.00000000000E+00 -0.00000000000E+00 -0.17581689214E+02  0.17581689214E+02  0.00000000000E+00 0.  1.
         21    1    1    2  503  501  0.20544817436E+02  0.24169423322E+00  0.10655693303E+02  0.23145015432E+02  0.00000000000E+00 0. -1.
         21    1    1    2  504  503 -0.20544817436E+02 -0.24169423322E+00 -0.20279761198E+01  0.20646080178E+02  0.00000000000E+00 0.  1.
</event>
<event>
 4    1  0.3372301E+006  0.2185035E+02  0.7546771E-02  0.1507462E+00
         21   -1    0    0  504  501  0.00000000000E+00  0.00000000000E+00  0.34348665372E+03  0.34348665372E+03  0.00000000000E+00 0.  1.
         21   -1    0    0  503  502 -0.00000000000E+00 -0.00000000000E+00 -0.43258193816E+03  0.43258193816E+03  0.00000000000E+00 0. -1.
         21    1    1    2  503  501  0.19044611544E+02 -0.10711695396E+02  0.34286273528E+03  0.34355828165E+03  0.00000000000E+00 0.  1.
         21    1    1    2  504  502 -0.19044611544E+02  0.10711695396E+02 -0.43195801973E+03  0.43251031023E+03  0.00000000000E+00 0. -1.
</event>
<event>
 4    1  0.3372301E+006  0.2322907E+02  0.7546771E-02  0.1489642E+00
         21   -1    0    0  503  501  0.00000000000E+00  0.00000000000E+00  0.70105576595E+03  0.70105576595E+03  0.00000000000E+00 0.  1.
         21   -1    0    0  504  502 -0.00000000000E+00 -0.00000000000E+00 -0.17191040320E+02  0.17191040320E+02  0.00000000000E+00 0. -1.
         21    1    1    2  503  502 -0.23176269970E+02 -0.15653164314E+01  0.69292432643E+03  0.69331357398E+03  0.00000000000E+00 0.  1.
         21    1    1    2  504  501  0.23176269970E+02  0.15653164314E+01 -0.90596008078E+01  0.24933232283E+02  0.00000000000E+00 0. -1.
</event>
<event>
 4    1  0.3372301E+006  0.4973054E+02  0.7546771E-02  0.1299345E+00
         21   -1    0    0  504  501  0.00000000000E+00  0.00000000000E+00  0.27782657042E+03  0.27782657042E+03  0.00000000000E+00 0. -1.
         21   -1    0    0  503  502 -0.00000000000E+00 -0.00000000000E+00 -0.17587762064E+03  0.17587762064E+03  0.00000000000E+00 0. -1.
         21    1    1    2  503  501  0.48517789599E+02 -0.10915617511E+02  0.27201120032E+03  0.27651983602E+03  0.00000000000E+00 0. -1.
         21    1    1    2  504  502 -0.48517789599E+02  0.10915617511E+02 -0.17006225054E+03  0.17718435504E+03  0.00000000000E+00 0. -1.
</event>
<event>
 4    1  0.3372301E+006  0.3329617E+02  0.7546771E-02  0.1392954E+00
         21   -1    0    0  504  501  0.00000000000E+00  0.00000000000E+00  0.39423828174E+02  0.39423828174E+02  0.00000000000E+00 0.  1.
         21   -1    0    0  503  502 -0.00000000000E+00 -0.00000000000E+00 -0.40313244369E+02  0.40313244369E+02  0.00000000000E+00 0.  1.
         21    1    1    2  503  501  0.14174330177E+01  0.33265989417E+02  0.21480780786E+02  0.39623971425E+02  0.00000000000E+00 0.  1.
         21    1    1    2  504  502 -0.14174330177E+01 -0.33265989417E+02 -0.22370196981E+02  0.40113101117E+02  0.00000000000E+00 0.  1.
</event>
<event>
 4    1  0.3372301E+006  0.2804470E+02  0.7546771E-02  0.1437387E+00
         21   -1    0    0  503  501  0.00000000000E+00  0.00000000000E+00  0.13741894948E+03  0.13741894948E+03  0.00000000000E+00 0. -1.
         21   -1    0    0  504  502 -0.00000000000E+00 -0.00000000000E+00 -0.35319214597E+02  0.35319214597E+02  0.00000000000E+00 0. -1.
         21    1    1    2  503  502 -0.34835502328E+01  0.27827509045E+02 -0.28012140463E+02  0.39638181028E+02  0.00000000000E+00 0. -1.
         21    1    1    2  504  501  0.34835502328E+01 -0.27827509045E+02  0.13011187534E+03  0.13309998305E+03  0.00000000000E+00 0. -1.
</event>
<event>
 4    1  0.3372301E+006  0.2020338E+02  0.7546771E-02  0.1530949E+00
         21   -1    0    0  503  501  0.00000000000E+00  0.00000000000E+00  0.31688728260E+02  0.31688728260E+02  0.00000000000E+00 0.  1.
         21   -1    0    0  504  502 -0.00000000000E+00 -0.00000000000E+00 -0.44633164954E+02  0.44633164954E+02  0.00000000000E+00 0. -1.
         21    1    1    2  503  502  0.12631681711E+02  0.15767598081E+02  0.25714615493E+02  0.32701956853E+02  0.00000000000E+00 0.  1.
         21    1    1    2  504  501 -0.12631681711E+02 -0.15767598081E+02 -0.38659052187E+02  0.43619936360E+02  0.00000000000E+00 0. -1.
</event>
<event>
 4    1  0.3372301E+006  0.2121677E+02  0.7546771E-02  0.1516192E+00
         21   -1    0    0  502  501  0.00000000000E+00  0.00000000000E+00  0.10250337571E+03  0.10250337571E+03  0.00000000000E+00 0.  1.
         21   -1    0    0  503  502 -0.00000000000E+00 -0.00000000000E+00 -0.32276036226E+03  0.32276036226E+03  0.00000000000E+00 0. -1.
         21    1    1    2  503  504 -0.14810380309E+02 -0.15192240335E+02 -0.32130884030E+03  0.32200857502E+03  0.00000000000E+00 0. -1.
         21    1    1    2  504  501  0.14810380309E+02  0.15192240335E+02  0.10105185375E+03  0.10325516296E+03  0.00000000000E+00 0.  1.
</event>
<event>
 4    1  0.3372301E+006  0.2057558E+02  0.7546771E-02  0.1525412E+00
         21   -1    0    0  504  501  0.00000000000E+00  0.00000000000E+00  0.50694497286E+03  0.50694497286E+03  0.00000000000E+00 0.  1.
         21   -1    0    0  501  502 -0.00000000000E+00 -0.00000000000E+00 -0.50623866641E+02  0.50623866641E+02  0.00000000000E+00 0. -1.
         21    1    1    2  503  502  0.19820043668E+02  0.55245161255E+01 -0.48314841253E+02  0.52513601045E+02  0.00000000000E+00 0. -1.
         21    1    1    2  504  503 -0.19820043668E+02 -0.55245161255E+01  0.50463594747E+03  0.50505523846E+03  0.00000000000E+00 0.  1.
</event>
<event>
 4    1  0.3372301E+006  0.2343593E+02  0.7546771E-02  0.1487095E+00
         21   -1    0    0  503  501  0.00000000000E+00  0.00000000000E+00  0.25709913346E+03  0.25709913346E+03  0.00000000000E+00 0.  1.
         21   -1    0    0  501  502 -0.00000000000E+00 -0.00000000000E+00 -0.29481074542E+01  0.29481074542E+01  0.00000000000E+00 0.  1.
         21    1    1    2  503  504 -0.15350971246E+02  0.17708488568E+02  0.19530545934E+03  0.19670654624E+03  0.00000000000E+00 0.  1.
         21    1    1    2  504  502  0.15350971246E+02 -0.17708488568E+02  0.58845566657E+02  0.63340694666E+02  0.00000000000E+00 0.  1.
</event>
<event>
 4    1  0.3372301E+006  0.2146576E+02  0.7546771E-02  0.1512718E+00
         21   -1    0    0  502  501  0.00000000000E+00  0.00000000000E+00  0.45727613249E+03  0.45727613249E+03  0.00000000000E+00 0. -1.
         21   -1    0    0  504  502 -0.00000000000E+00 -0.00000000000E+00 -0.14206543673E+01  0.14206543673E+01  0.00000000000E+00 0. -1.
         21    1    1    2  503  501 -0.19003856592E+02  0.99815870254E+01  0.35158619155E+03  0.35224086750E+03  0.00000000000E+00 0. -1.
         21    1    1    2  504  503  0.19003856592E+02 -0.99815870254E+01  0.10426928657E+03  0.10645591936E+03  0.00000000000E+00 0. -1.
</event>
<event>
 4    1  0.3372301E+006  0.2453461E+02  0.7546771E-02  0.1474078E+00
         21   -1    0    0  504  501  0.00000000000E+00  0.00000000000E+00  0.50396165573E+01  0.50396165573E+01  0.00000000000E+00 0.  1.
         21   -1    0    0  503  502 -0.00000000000E+00 -0.00000000000E+00 -0.13694220081E+03  0.13694220081E+03  0.00000000000E+00 0.  1.
         21    1    1    2  503  501 -0.23048903197E+02 -0.84080273564E+01 -0.91328470571E+02  0.94566571258E+02  0.00000000000E+00 0.  1.
         21    1    1    2  504  502  0.23048903197E+02  0.84080273564E+01 -0.40574113683E+02  0.47415246111E+02  0.00000000000E+00 0.  1.
</event>
<event>
 4    1  0.3372301E+006  0.2000053E+02  0.7546771E-02  0.1534028E+00
         21   -1    0    0  503  501  0.00000000000E+00  0.00000000000E+00  0.12621490257E+02  0.12621490257E+02  0.00000000000E+00 0.  1.
         21   -1    0    0  504  502 -0.00000000000E+00 -0.00000000000E+00 -0.43921708713E+02  0.43921708713E+02  0.00000000000E+00 0.  1.
         21    1    1    2  503  502 -0.94575732268E+01  0.17623148391E+02 -0.73283114736E+00  0.20013947438E+02  0.00000000000E+00 0.  1.
         21    1    1    2  504  501  0.94575732268E+01 -0.17623148391E+02 -0.30567387309E+02  0.36529251532E+02  0.00000000000E+00 0.  1.
</event>
<event>
 4    1  0.3372301E+006  0.2644211E+02  0.7546771E-02  0.1453294E+00
         21   -1    0    0  502  501  0.00000000000E+00  0.00000000000E+00  0.20090855991E+02  0.20090855991E+02  0.00000000000E+00 0.  1.
         21   -1    0    0  504  502 -0.00000000000E+00 -0.00000000000E+00 -0.65324831959E+02  0.65324831959E+02  0.00000000000E+00 0.  1.
         21    1    1    2  503  501  0.12412938261E+02  0.23347470740E+02  0.65765525056E+01  0.27247687408E+02  0.00000000000E+00 0.  1.
         21    1    1    2  504  503 -0.12412938261E+02 -0.23347470740E+02 -0.51810528474E+02  0.58168000541E+02  0.00000000000E+00 0.  1.
</event>
<event>
 4    1  0.3372301E+006  0.2186629E+02  0.7546771E-02  0.1507247E+00
         21   -1    0    0  502  501  0.00000000000E+00  0.00000000000E+00  0.41230410787E+02  0.41230410787E+02  0.00000000000E+00 0.  1.
         21   -1    0    0  504  502 -0.00000000000E+00 -0.00000000000E+00 -0.67168749987E+02  0.67168749987E+02  0.00000000000E+00 0. -1.
         21    1    1    2  503  501  0.15392079778E+02 -0.15531213093E+02  0.36330123275E+02  0.42402978164E+02  0.00000000000E+00 0.  1.
         21    1    1    2  504  503 -0.15392079778E+02  0.15531213093E+02 -0.62268462475E+02  0.65996182609E+02  0.00000000000E+00 0. -1.
</event>
<event>
 4    1  0.3372301E+006  0.2114636E+02  0.7546771E-02  0.1517185E+00
         21   -1    0    0  504  501  0.00000000000E+00  0.00000000000E+00  0.23248982111E+03  0.23248982111E+03  0.00000000000E+00 0.  1.
         21   -1    0    0  503  502 -0.00000000000E+00 -0.00000000000E+00 -0.19591259057E+02  0.19591259057E+02  0.00000000000E+00 0. -1.
         21    1    1    2  503  501  0.12181925996E+02  0.17284938174E+02  0.22614294947E+03  0.22712948290E+03  0.00000000000E+00 0.  1.
         21    1    1    2  504  502 -0.12181925996E+02 -0.17284938174E+02 -0.13244387409E+02  0.24951597273E+02  0.00000000000E+00 0. -1.
</event>
<event>
 4    1  0.3372301E+006  0.2121204E+02  0.7546771E-02  0.1516259E+00
         21   -1    0    0  503  501  0.00000000000E+00  0.00000000000E+00  0.86204292665E+02  0.86204292665E+02  0.00000000000E+00 0.  1.
         21   -1    0    0  504  502 -0.00000000000E+00 -0.00000000000E+00 -0.15933893229E+03  0.15933893229E+03  0.00000000000E+00 0.  1.
         21    1    1    2  503  502 -0.19522346575E+02  0.82962985682E+01 -0.15731132838E+03  0.15873501385E+03  0.00000000000E+00 0.  1.
         21    1    1    2  504  501  0.19522346575E+02 -0.82962985682E+01  0.84176688753E+02  0.86808211105E+02  0.00000000000E+00 0.  1.
</event>
<event>
 4    1  0.3372301E+006  0.2378138E+02  0.7546771E-02  0.1482913E+00
         21   -1    0    0  504  501  0.00000000000E+00  0.00000000000E+00  0.73748405128E+02  0.73748405128E+02  0.00000000000E+00 0.  1.
         21   -1    0    0  503  502 -0.00000000000E+00 -0.00000000000E+00 -0.25932226468E+03  0.25932226468E+03  0.00000000000E+00 0. -1.
         21    1    1    2  503  501  0.22321942405E+02 -0.82027488981E+01  0.71267528636E+02  0.75130651802E+02  0.00000000000E+00 0.  1.
         21    1    1    2  504  502 -0.22321942405E+02  0.82027488981E+01 -0.25684138819E+03  0.25794001800E+03  0.00000000000E+00 0. -1.
</event>
<event>
 4    1  0.3372301E+006  0.4345350E+02  0.7546771E-02  0.1329356E+00
         21   -1    0    0  504  501  0.00000000000E+00  0.00000000000E+00  0.17395857507E+02  0.17395857507E+02  0.00000000000E+00 0.  1.
         21   -1    0    0  503  502 -0.00000000000E+00 -0.00000000000E+00 -0.17356896266E+03  0.17356896266E+03  0.00000000000E+00 0.  1.
         21    1    1    2  503  501  0.42340657308E+02  0.97711544623E+01 -0.19644001182E+02  0.47687456456E+02  0.00000000000E+00 0.  1.
         21    1    1    2  504  502 -0.42340657308E+02 -0.97711544623E+01 -0.13652910397E+03  0.14327736371E+03  0.00000000000E+00 0.  1.
</event>
<event>
 4    1  0.3372301E+006  0.2048034E+02  0.7546771E-02  0.1526815E+00
         21   -1    0    0  504  501  0.00000000000E+00  0.00000000000E+00  0.73659523223E+01  0.73659523223E+01  0.00000000000E+00 0.  1.
         21   -1    0    0  503  502 -0.00000000000E+00 -0.00000000000E+00 -0.74197000339E+02  0.74197000339E+02  0.00000000000E+00 0.  1.
         21    1    1    2  503  501  0.19519738511E+02 -0.61987244280E+01 -0.13749968985E+02  0.24667914852E+02  0.00000000000E+00 0.  1.
         21    1    1    2  504  502 -0.19519738511E+02  0.61987244280E+01 -0.53081079032E+02  0.56895037809E+02  0.00000000000E+00 0.  1.
</event>
<event>
 4    1  0.3372301E+006  0.2072673E+02  0.7546771E-02  0.1523202E+00
         21   -1    0    0  503  501  0.00000000000E+00  0.00000000000E+00  0.65790288355E+02  0.65790288355E+02  0.00000000000E+00 0.  1.
         21   -1    0    0  504  502 -0.00000000000E+00 -0.00000000000E+00 -0.68506002664E+01  0.68506002664E+01  0.00000000000E+00 0.  1.
         21    1    1    2  503  502 -0.18201779821E+02  0.99142622291E+01  0.37329519583E+02  0.42697662892E+02  0.00000000000E+00 0.  1.
         21    1    1    2  504  501  0.18201779821E+02 -0.99142622291E+01  0.21610168506E+02  0.29943225729E+02  0.00000000000E+00 0.  1.
</event>
<event>
 4    1  0.3372301E+006  0.2309584E+02  0.7546771E-02  0.1491298E+00
         21   -1    0    0  504  501  0.00000000000E+00  0.00000000000E+00  0.54939144953E+02  0.54939144953E+02  0.00000000000E+00 0.  1.
         21   -1    0    0  503  502 -0.00000000000E+00 -0.00000000000E+00 -0.16212410907E+03  0.16212410907E+03  0.00000000000E+00 0. -1.
         21    1    1    2  503  501  0.21035155930E+02  0.95362519435E+01 -0.15882408043E+03  0.16049456816E+03  0.00000000000E+00 0. -1.
         21    1    1    2  504  502 -0.21035155930E+02 -0.95362519435E+01  0.51639116313E+02  0.56568685858E+02  0.00000000000E+00 0.  1.
</event>
<event>
 4    1  0.3372301E+006  0.2399575E+02  0.7546771E-02  0.1480359E+00
         21   -1    0    0  504  501  0.00000000000E+00  0.00000000000E+00  0.68028309696E+02  0.68028309696E+02  0.00000000000E+00 0. -1.
         21   -1    0    0  503  502 -0.00000000000E+00 -0.00000000000E+00 -0.85456446171E+01  0.85456446171E+01  0.00000000000E+00 0. -1.
         21    1    1    2  503  501  0.19287589779E+02 -0.14275321273E+02  0.33482215490E+02  0.41192895881E+02  0.00000000000E+00 0. -1.
         21    1    1    2  504  502 -0.19287589779E+02  0.14275321273E+02  0.26000449589E+02  0.35381058432E+02  0.00000000000E+00 0. -1.
</event>
<event>
 4    1  0.3372301E+006  0.2194723E+02  0.7546771E-02  0.1506159E+00
         21   -1    0    0  504  501  0.00000000000E+00  0.00000000000E+00  0.26137862103E+03  0.26137862103E+03  0.00000000000E+00 0.  1.
         21   -1    0    0  503  502 -0.00000000000E+00 -0.00000000000E+00 -0.44605777941E+01  0.44605777941E+01  0.00000000000E+00 0.  1.
         21    1    1    2  503  501 -0.30841848396E+01  0.21729439135E+02  0.26633654837E+02  0.34511335691E+02  0.00000000000E+00 0.  1.
         21    1    1    2  504  502  0.30841848396E+01 -0.21729439135E+02  0.23028438840E+03  0.23132786313E+03  0.00000000000E+00 0.  1.
</event>
<event>
 4    1  0.3372301E+006  0.2282813E+02  0.7546771E-02  0.1494668E+00
         21   -1    0    0  503  501  0.00000000000E+00  0.00000000000E+00  0.26982960140E+02  0.26982960140E+02  0.00000000000E+00 0. -1.
         21   -1    0    0  501  502 -0.00000000000E+00 -0.00000000000E+00 -0.28607771138E+02  0.28607771138E+02  0.00000000000E+00 0. -1.
         21    1    1    2  503  504  0.16217826800E+02 -0.16065660795E+02  0.15030997593E+02  0.27332293199E+02  0.00000000000E+00 0. -1.
         21    1    1    2  504  502 -0.16217826800E+02  0.16065660795E+02 -0.16655808591E+02  0.28258438080E+02  0.00000000000E+00 0. -1.
</event>
<event>
 4    1  0.3372301E+006  0.2164861E+02  0.7546771E-02  0.1510202E+00
         21   -1    0    0  503  501  0.00000000000E+00  0.00000000000E+00  0.22632131511E+03  0.22632131511E+03  0.00000000000E+00 0.  1.
         21   -1    0    0  501  502 -0.00000000000E+00 -0.00000000000E+00 -0.21599937330E+03  0.21599937330E+03  0.00000000000E+00 0. -1.
         21    1    1    2  503  504  0.21240924068E+02 -0.41815786060E+01  0.22525863113E+03  0.22629651644E+03  0.00000000000E+00 0.  1.
         21    1    1    2  504  502 -0.21240924068E+02  0.41815786060E+01 -0.21493668932E+03  0.21602417196E+03  0.00000000000E+00 0. -1.
</event>
<event>
 4    1  0.3372301E+006  0.2869614E+02  0.7546771E-02  0.1431276E+00
         21   -1    0    0  504  501  0.00000000000E+00  0.00000000000E+00  0.10852147917E+03  0.10852147917E+03  0.00000000000E+00 0.  1.
         21   -1    0    0  503  502 -0.00000000000E+00 -0.00000000000E+00 -0.17051322258E+02  0.17051322258E+02  0.00000000000E+00 0. -1.
         21    1    1    2  503  501 -0.70957619442E+01  0.27805009465E+02  0.92509325519E+02  0.96857853047E+02  0.00000000000E+00 0.  1.
         21    1    1    2  504  502  0.70957619442E+01 -0.27805009465E+02 -0.10391686106E+01  0.28714948378E+02  0.00000000000E+00 0. -1.
</event>
<event>
 4    1  0.3372301E+006  0.2880767E+02  0.7546771E-02  0.1430249E+00
         21   -1    0    0  502  501  0.00000000000E+00  0.00000000000E+00  0.63531153858E+01  0.63531153858E+01  0.00000000000E+00 0. -1.
         21   -1    0    0  504  502 -0.00000000000E+00 -0.00000000000E+00 -0.67112986843E+03  0.67112986843E+03  0.00000000000E+00 0.  1.
         21    1    1    2  503  501  0.14863925472E+01  0.28769301547E+02 -0.28394725033E+02  0.40449258139E+02  0.00000000000E+00 0. -1.
         21    1    1    2  504  503 -0.14863925472E+01 -0.28769301547E+02 -0.63638202801E+03  0.63703372567E+03  0.00000000000E+00 0.  1.
</event>
<event>
 4    1  0.3372301E+006  0.3657015E+02  0.7546771E-02  0.1369848E+00
         21   -1    0    0  504  501  0.00000000000E+00  0.00000000000E+00  0.26241126960E+02  0.26241126960E+02  0.00000000000E+00 0.  1.
         21   -1    0    0  501  502 -0.00000000000E+00 -0.00000000000E+00 -0.26978741681E+03  0.26978741681E+03  0.00000000000E+00 0. -1.
         21    1    1    2  503  502  0.35112225362E+02  0.10222877589E+02 -0.25507579503E+03  0.25768398633E+03  0.00000000000E+00 0. -1.
         21    1    1    2  504  503 -0.35112225362E+02 -0.10222877589E+02  0.11529505182E+02  0.38344557447E+02  0.00000000000E+00 0.  1.
</event>
<event>
 4    1  0.3372301E+006  0.3462889E+02  0.7546771E-02  0.1383191E+00
         21   -1    0    0  504  501  0.00000000000E+00  0.00000000000E+00  0.18589120252E+02  0.18589120252E+02  0.00000000000E+00 0.  1.
         21   -1    0    0  503  502 -0.00000000000E+00 -0.00000000000E+00 -0.15331101382E+03  0.15331101382E+03  0.00000000000E+00 0.  1.
         21    1    1    2  503  501  0.26883026650E+02  0.21828028569E+02 -0.19467991712E+01  0.34683569310E+02  0.00000000000E+00 0.  1.
         21    1    1    2  504  502 -0.26883026650E+02 -0.21828028569E+02 -0.13277509440E+03  0.13721656476E+03  0.00000000000E+00 0.  1.
</event>
<event>
 4    1  0.3372301E+006  0.2848364E+02  0.7546771E-02  0.1433248E+00
         21   -1    0    0  503  501  0.00000000000E+00  0.00000000000E+00  0.12930276440E+02  0.12930276440E+02  0.00000000000E+00 0. -1.
         21   -1    0    0  504  502 -0.00000000000E+00 -0.00000000000E+00 -0.67273259367E+02  0.67273259367E+02  0.00000000000E+00 0. -1.
         21    1    1    2  503  502  0.22659972607E+02  0.17258141120E+02 -0.37574998142E+02  0.47150803586E+02  0.00000000000E+00 0. -1.
         21    1    1    2  504  501 -0.22659972607E+02 -0.17258141120E+02 -0.16767984785E+02  0.33052732220E+02  0.00000000000E+00 0. -1.
</event>
<event>
 4    1  0.3372301E+006  0.2299825E+02  0.7546771E-02  0.1492520E+00
         21   -1    0    0  502  501  0.00000000000E+00  0.00000000000E+00  0.26191311468E+03  0.26191311468E+03  0.00000000000E+00 0.  1.
         21   -1    0    0  503  502 -0.00000000000E+00 -0.00000000000E+00 -0.76863298373E+01  0.76863298373E+01  0.00000000000E+00 0.  1.
         21    1    1    2  503  504 -0.15935463032E+02  0.16582534906E+02  0.11368553172E+02  0.25654696396E+02  0.00000000000E+00 0.  1.
         21    1    1    2  504  501  0.15935463032E+02 -0.16582534906E+02  0.24285823167E+03  0.24394474812E+03  0.00000000000E+00 0.  1.
</event>
<event>
 4    1  0.3372301E+006  0.2298704E+02  0.7546771E-02  0.1492661E+00
         21   -1    0    0  503  501  0.00000000000E+00  0.00000000000E+00  0.11662033782E+01  0.11662033782E+01  0.00000000000E+00 0. -1.
         21   -1    0    0  501  502 -0.00000000000E+00 -0.00000000000E+00 -0.51730893289E+03  0.51730893289E+03  0.00000000000E+00 0. -1.
         21    1    1    2  503  504 -0.22854069647E+02  0.24688955517E+01 -0.16673813557E+03  0.16831520964E+03  0.00000000000E+00 0. -1.
         21    1    1    2  504  502  0.22854069647E+02 -0.24688955517E+01 -0.34940459395E+03  0.35015992663E+03  0.00000000000E+00 0. -1.
</event>
<event>
 4    1  0.3372301E+006  0.2762670E+02  0.7546771E-02  0.1441412E+00
         21   -1    0    0  502  501  0.00000000000E+00  0.00000000000E+00  0.70604507273E+02  0.70604507273E+02  0.00000000000E+00 0. -1.
         21   -1    0    0  503  502 -0.00000000000E+00 -0.00000000000E+00 -0.17647141923E+02  0.17647141923E+02  0.00000000000E+00 0.  1.
         21    1    1    2  503  504  0.23840265519E+02 -0.13959814926E+02 -0.98716179499E+00  0.27644333618E+02  0.00000000000E+00 0.  1.
         21    1    1    2  504  501 -0.23840265519E+02  0.13959814926E+02  0.53944527145E+02  0.60607315578E+02  0.00000000000E+00 0. -1.
</event>
<event>
 4    1  0.3372301E+006  0.2986011E+02  0.7546771E-02  0.1420816E+00
         21   -1    0    0  504  501  0.00000000000E+00  0.00000000000E+00  0.10960579842E+02  0.10960579842E+02  0.00000000000E+00 0.  1.
         21   -1    0    0  503  502 -0.00000000000E+00 -0.00000000000E+00 -0.22772850362E+03  0.22772850362E+03  0.00000000000E+00 0.  1.
         21    1    1    2  503  501 -0.20783560377E+02 -0.21439909552E+02 -0.12700952439E+02  0.32449041533E+02  0.00000000000E+00 0.  1.
         21    1    1    2  504  502  0.20783560377E+02  0.21439909552E+02 -0.20406697134E+03  0.20624004193E+03  0.00000000000E+00 0.  1.
</event>
<event>
 4    1  0.3372301E+006  0.3552152E+02  0.7546771E-02  0.1376933E+00
         21   -1    0    0  504  501  0.00000000000E+00  0.00000000000E+00  0.14269523649E+02  0.14269523649E+02  0.00000000000E+00 0. -1.
         21   -1    0    0  503  502 -0.00000000000E+00 -0.00000000000E+00 -0.46508630001E+03  0.46508630001E+03  0.00000000000E+00 0. -1.
         21    1    1    2  503  501  0.29046820757E+02  0.20446535190E+02 -0.97149653598E+01  0.36826066166E+02  0.00000000000E+00 0. -1.
         21    1    1    2  504  502 -0.29046820757E+02 -0.20446535190E+02 -0.44110181100E+03  0.44252975749E+03  0.00000000000E+00 0. -1.
</event>
<event>
 4    1  0.3372301E+006  0.2148011E+02  0.7546771E-02  0.1512519E+00
         21   -1    0    0  503  501  0.00000000000E+00  0.00000000000E+00  0.17855021478E+01  0.17855021478E+01  0.00000000000E+00 0. -1.
         21   -1    0    0  501  502 -0.00000000000E+00 -0.00000000000E+00 -0.55303413235E+03  0.55303413235E+03  0.00000000000E+00 0.  1.
         21    1    1    2  503  504 -0.19397168776E+02 -0.92273972331E+01 -0.73145957005E+02  0.76234677427E+02  0.00000000000E+00 0. -1.
         21    1    1    2  504  502  0.19397168776E+02  0.92273972331E+01 -0.47810267319E+03  0.47858495707E+03  0.00000000000E+00 0.  1.
</event>
<event>
 4    1  0.3372301E+006  0.2485778E+02  0.7546771E-02  0.1470401E+00
         21   -1    0    0  502  501  0.00000000000E+00  0.00000000000E+00  0.50764932960E+02  0.50764932960E+02  0.00000000000E+00 0. -1.
         21   -1    0    0  503  502 -0.00000000000E+00 -0.00000000000E+00 -0.90971131872E+02  0.90971131872E+02  0.00000000000E+00 0.  1.
         21    1    1    2  503  504  0.15437067939E+02 -0.19483486809E+02 -0.86059868110E+02  0.89577956127E+02  0.00000000000E+00 0.  1.
         21    1    1    2  504  501 -0.15437067939E+02  0.19483486809E+02  0.45853669198E+02  0.52158108705E+02  0.00000000000E+00 0. -1.
</event>
<event>
 4    1  0.3372301E+006  0.2158875E+02  0.7546771E-02  0.1511023E+00
         21   -1    0    0  503  501  0.00000000000E+00  0.00000000000E+00  0.52361034359E+03  0.52361034359E+03  0.00000000000E+00 0. -1.
         21   -1    0    0  504  502 -0.00000000000E+00 -0.00000000000E+00 -0.34464584749E+01  0.34464584749E+01  0.00000000000E+00 0. -1.
         21    1    1    2  503  502 -0.10179619872E+02  0.19038108144E+02  0.33121392776E+02  0.39536070642E+02  0.00000000000E+00 0. -1.
         21    1    1    2  504  501  0.10179619872E+02 -0.19038108144E+02  0.48704249234E+03  0.48752073143E+03  0.00000000000E+00 0. -1.
</event>
<event>
 4    1  0.3372301E+006  0.3319945E+02  0.7546771E-02  0.1393683E+00
         21   -1    0    0  503  501  0.00000000000E+00  0.00000000000E+00  0.22412648207E+03  0.22412648207E+03  0.00000000000E+00 0. -1.
         21   -1    0    0  501  502 -0.00000000000E+00 -0.00000000000E+00 -0.68289088114E+01  0.68289088114E+01  0.00000000000E+00 0. -1.
         21    1    1    2  503  504  0.22350205137E+02 -0.24549375580E+02  0.16973849471E+03  0.17295479206E+03  0.00000000000E+00 0. -1.
         21    1    1    2  504  502 -0.22350205137E+02  0.24549375580E+02  0.47559078552E+02  0.58000598822E+02  0.00000000000E+00 0. -1.
</event>
<event>
 4    1  0.3372301E+006  0.2578578E+02  0.7546771E-02  0.1460202E+00
         21   -1    0    0  504  501  0.00000000000E+00  0.00000000000E+00  0.48156237602E+02  0.48156237602E+02  0.00000000000E+00 0.  1.
         21   -1    0    0  503  502 -0.00000000000E+00 -0.00000000000E+00 -0.13808660284E+02  0.13808660284E+02  0.00000000000E+00 0.  1.
         21    1    1    2  503  501  0.25567089295E+02  0.33511688453E+01  0.17484173210E+02  0.31154497276E+02  0.00000000000E+00 0.  1.
         21    1    1    2  504  502 -0.25567089295E+02 -0.33511688453E+01  0.16863404108E+02  0.30810400610E+02  0.00000000000E+00 0.  1.
</event>
<event>
 4    1  0.3372301E+006  0.2548580E+02  0.7546771E-02  0.1463442E+00
         21   -1    0    0  504  501  0.00000000000E+00  0.00000000000E+00  0.44739965440E+03  0.44739965440E+03  0.00000000000E+00 0.  1.
         21   -1    0    0  503  502 -0.00000000000E+00 -0.00000000000E+00 -0.20308735569E+01  0.20308735569E+01  0.00000000000E+00 0.  1.
         21    1    1    2  503  501 -0.42225548265E+01 -0.25133559757E+02  0.34268005632E+03  0.34362646405E+03  0.00000000000E+00 0.  1.
         21    1    1    2  504  502  0.42225548265E+01  0.25133559757E+02  0.10268872453E+03  0.10580406391E+03  0.00000000000E+00 0.  1.
</event>
<event>
 4    1  0.3372301E+006  0.2372218E+02  0.7546771E-02  0.1483624E+00
         21   -1    0    0  504  501  0.00000000000E+00  0.00000000000E+00  0.44546926812E+01  0.44546926812E+01  0.00000000000E+00 0.  1.
         21   -1    0    0  503  502 -0.00000000000E+00 -0.00000000000E+00 -0.16509132633E+03  0.16509132633E+03  0.00000000000E+00 0.  1.
         21    1    1    2  503  501  0.19533472781E+02 -0.13460500907E+02 -0.12139728619E+03  0.12369334153E+03  0.00000000000E+00 0.  1.
         21    1    1    2  504  502 -0.19533472781E+02  0.13460500907E+02 -0.39239347455E+02  0.45852677481E+02  0.00000000000E+00 0.  1.
</event>
<event>
 4    1  0.3372301E+006  0.2129932E+02  0.7546771E-02  0.1515034E+00
         21   -1    0    0  504  501  0.00000000000E+00  0.00000000000E+00  0.74399789528E+03  0.74399789528E+03  0.00000000000E+00 0.  1.
         21   -1    0    0  503  502 -0.00000000000E+00 -0.00000000000E+00 -0.85773946435E+00  0.85773946435E+00  0.00000000000E+00 0.  1.
         21    1    1    2  503  501 -0.15003968005E+02  0.15117606668E+02  0.57181945745E+03  0.57221600205E+03  0.00000000000E+00 0.  1.
         21    1    1    2  504  502  0.15003968005E+02 -0.15117606668E+02  0.17132069836E+03  0.17263963269E+03  0.00000000000E+00 0.  1.
</event>
<event>
 4    1  0.3372301E+006  0.2190414E+02  0.7546771E-02  0.1506737E+00
         21   -1    0    0  503  501  0.00000000000E+00  0.00000000000E+00  0.49432392376E+02  0.49432392376E+02  0.00000000000E+00 0. -1.
         21   -1    0    0  501  502 -0.00000000000E+00 -0.00000000000E+00 -0.10793926720E+02  0.10793926720E+02  0.00000000000E+00 0. -1.
         21    1    1    2  503  504  0.71333336899E+00  0.21892517768E+02  0.28879386795E+02  0.36246519286E+02  0.00000000000E+00 0. -1.
         21    1    1    2  504  502 -0.71333336899E+00 -0.21892517768E+02  0.97590788612E+01  0.23979799810E+02  0.00000000000E+00 0. -1.
</event>
<event>
 4    1  0.3372301E+006  0.3138623E+02  0.7546771E-02  0.1407921E+00
         21   -1    0    0  502  501  0.00000000000E+00  0.00000000000E+00  0.65323460881E+02  0.65323460881E+02  0.00000000000E+00 0.  1.
         21   -1    0    0  503  502 -0.00000000000E+00 -0.00000000000E+00 -0.79421345911E+03  0.79421345911E+03  0.00000000000E+00 0. -1.
         21    1    1    2  503  504  0.15759828342E+02 -0.27142641201E+02 -0.79011375326E+03  0.79073689572E+03  0.00000000000E+00 0. -1.
         21    1    1    2  504  501 -0.15759828342E+02  0.27142641201E+02  0.61223755027E+02  0.68800024276E+02  0.00000000000E+00 0.  1.
</event>
<event>
 4    1  0.3372301E+006  0.2061611E+02  0.7546771E-02  0.1524817E+00
         21   -1    0    0  504  501  0.00000000000E+00  0.00000000000E+00  0.10780484703E+04  0.10780484703E+04  0.00000000000E+00 0. -1.
         21   -1    0    0  503  502 -0.00000000000E+00 -0.00000000000E+00 -0.10363279684E+02  0.10363279684E+02  0.00000000000E+00 0. -1.
         21    1    1    2  503  501 -0.19408816422E+02  0.69513977680E+01  0.10675964085E+04  0.10677954465E+04  0.00000000000E+00 0. -1.
         21    1    1    2  504  502  0.19408816422E+02 -0.69513977680E+01  0.88782068303E-01  0.20616303453E+02  0.00000000000E+00 0. -1.
</event>
<event>
 4    1  0.3372301E+006  0.2437235E+02  0.7546771E-02  0.1475949E+00
         21   -1    0    0  503  501  0.00000000000E+00  0.00000000000E+00  0.87444743924E+01  0.87444743924E+01  0.00000000000E+00 0. -1.
         21   -1    0    0  504  502 -0.00000000000E+00 -0.00000000000E+00 -0.79655000339E+02  0.79655000339E+02  0.00000000000E+00 0. -1.
         21    1    1    2  503  502 -0.61180493972E+01  0.23591971716E+02 -0.52413106810E+02  0.57802642010E+02  0.00000000000E+00 0. -1.
         21    1    1    2  504  501  0.61180493972E+01 -0.23591971716E+02 -0.18497419137E+02  0.30596832722E+02  0.00000000000E+00 0. -1.
</event>
<event>
 4    1  0.3372301E+006  0.2642976E+02  0.7546771E-02  0.1453422E+00
         21   -1    0    0  504  501  0.00000000000E+00  0.00000000000E+00  0.49229421215E+02  0.49229421215E+02  0.00000000000E+00 0.  1.
         21   -1    0    0  501  502 -0.00000000000E+00 -0.00000000000E+00 -0.33321731834E+02  0.33321731834E+02  0.00000000000E+00 0.  1.
         21    1    1    2  503  502  0.22031112708E+02 -0.14600072941E+02 -0.23322372140E+02  0.35248618402E+02  0.00000000000E+00 0.  1.
         21    1    1    2  504  503 -0.22031112708E+02  0.14600072941E+02  0.39230061521E+02  0.47302534646E+02  0.00000000000E+00 0.  1.
</event>
<event>
 4    1  0.3372301E+006  0.2325474E+02  0.7546771E-02  0.1489324E+00
         21   -1    0    0  504  501  0.00000000000E+00  0.00000000000E+00  0.64496258925E+01  0.64496258925E+01  0.00000000000E+00 0. -1.
         21   -1    0    0  503  502 -0.00000000000E+00 -0.00000000000E+00 -0.13869948760E+03  0.13869948760E+03  0.00000000000E+00 0. -1.
         21    1    1    2  503  501  0.99749317336E+01  0.21006753458E+02 -0.20485059830E+02  0.30990653917E+02  0.00000000000E+00 0. -1.
         21    1    1    2  504  502 -0.99749317336E+01 -0.21006753458E+02 -0.11176480187E+03  0.11415845957E+03  0.00000000000E+00 0. -1.
</event>
<event>
 4    1  0.3372301E+006  0.2006956E+02  0.7546771E-02  0.1532975E+00
         21   -1    0    0  503  501  0.00000000000E+00  0.00000000000E+00  0.80423077589E+01  0.80423077589E+01  0.00000000000E+00 0.  1.
         21   -1    0    0  504  502 -0.00000000000E+00 -0.00000000000E+00 -0.50217919044E+02  0.50217919044E+02  0.00000000000E+00 0. -1.
         21    1    1    2  503  502 -0.26499302575E+01 -0.19893841633E+02 -0.22594808800E+02  0.30221059710E+02  0.00000000000E+00 0. -1.
         21    1    1    2  504  501  0.26499302575E+01  0.19893841633E+02 -0.19580802485E+02  0.28039167093E+02  0.00000000000E+00 0.  1.
</event>
<event>
 4    1  0.3372301E+006  0.2136534E+02  0.7546771E-02  0.1514112E+00
         21   -1    0    0  504  501  0.00000000000E+00  0.00000000000E+00  0.25639475262E+01  0.25639475262E+01  0.00000000000E+00 0.  1.
         21   -1    0    0  503  502 -0.00000000000E+00 -0.00000000000E+00 -0.53376877646E+03  0.53376877646E+03  0.00000000000E+00 0.  1.
         21    1    1    2  503  501  0.70080771207E+01  0.20183278765E+02 -0.48452419020E+03  0.48499501934E+03  0.00000000000E+00 0.  1.
         21    1    1    2  504  502 -0.70080771207E+01 -0.20183278765E+02 -0.46680638726E+02  0.51337704648E+02  0.00000000000E+00 0.  1.
</event>
<event>
 4    1  0.3372301E+006  0.2267331E+02  0.7546771E-02  0.1496642E+00
         21   -1    0    0  502  501  0.00000000000E+00  0.00000000000E+00  0.10064610925E+03  0.10064610925E+03  0.00000000000E+00 0. -1.
         21   -1    0    0  503  502 -0.00000000000E+00 -0.00000000000E+00 -0.92195647083E+01  0.92195647083E+01  0.00000000000E+00 0.  1.
         21    1    1    2  503  504  0.21594616672E+02 -0.69102329372E+01  0.90280050875E+01  0.24404582855E+02  0.00000000000E+00 0.  1.
         21    1    1    2  504  501 -0.21594616672E+02  0.69102329372E+01  0.82398539456E+02  0.85461091105E+02  0.00000000000E+00 0. -1.
</event>
<event>
 4    1  0.3372301E+006  0.2229741E+02  0.7546771E-02  0.1501514E+00
         21   -1    0    0  503  501  0.00000000000E+00  0.00000000000E+00  0.29638436273E+01  0.29638436273E+01  0.00000000000E+00 0. -1.
         21   -1    0    0  504  502 -0.00000000000E+00 -0.00000000000E+00 -0.18918875159E+03  0.18918875159E+03  0.00000000000E+00 0.  1.
         21    1    1    2  503  502 -0.10636447338E+02  0.19596945528E+02 -0.60767676378E+02  0.64729319310E+02  0.00000000000E+00 0. -1.
         21    1    1    2  504  501  0.10636447338E+02 -0.19596945528E+02 -0.12545723159E+03  0.12742327591E+03  0.00000000000E+00 0.  1.
</event>
<event>
 4    1  0.3372301E+006  0.2448114E+02  0.7546771E-02  0.1474692E+00
         21   -1    0    0  502  501  0.00000000000E+00  0.00000000000E+00  0.53750078551E+02  0.53750078551E+02  0.00000000000E+00 0.  1.
         21   -1    0    0  503  502 -0.00000000000E+00 -0.00000000000E+00 -0.63123897360E+02  0.63123897360E+02  0.00000000000E+00 0.  1.
         21    1    1    2  503  504  0.22934535375E+02  0.85634844997E+01 -0.57712140174E+02  0.62689850081E+02  0.00000000000E+00 0.  1.
         21    1    1    2  504  501 -0.22934535375E+02 -0.85634844997E+01  0.48338321365E+02  0.54184125831E+02  0.00000000000E+00 0.  1.
</event>
<event>
 4    1  0.3372301E+006  0.3346346E+02  0.7546771E-02  0.1391700E+00
         21   -1    0    0  503  501  0.00000000000E+00  0.00000000000E+00  0.15288620176E+02  0.15288620176E+02  0.00000000000E+00 0.  1.
         21   -1    0    0  504  502 -0.00000000000E+00 -0.00000000000E+00 -0.41955987553E+03  0.41955987553E+03  0.00000000000E+00 0.  1.
         21    1    1    2  503  502  0.32904865659E+02 -0.60887493286E+01 -0.45992593537E+01  0.33778043742E+02  0.00000000000E+00 0.  1.
         21    1    1    2  504  501 -0.32904865659E+02  0.60887493286E+01 -0.39967199600E+03  0.40107045197E+03  0.00000000000E+00 0.  1.
</event>
<event>
 4    1  0.3372301E+006  0.2221670E+02  0.7546771E-02  0.1502575E+00
         21   -1    0    0  504  501  0.00000000000E+00  0.00000000000E+00  0.11928286089E+03  0.11928286089E+03  0.00000000000E+00 0. -1.
         21   -1    0    0  501  502 -0.00000000000E+00 -0.00000000000E+00 -0.10141514064E+03  0.10141514064E+03  0.00000000000E+00 0. -1.
         21    1    1    2  503  502 -0.22085359943E+02  0.24121738958E+01 -0.99140483369E+02  0.10159929699E+03  0.00000000000E+00 0. -1.
         21    1    1    2  504  503  0.22085359943E+02 -0.24121738958E+01  0.11700820362E+03  0.11909870453E+03  0.00000000000E+00 0. -1.
</event>
<event>
 4    1  0.3372301E+006  0.4380408E+02  0.7546771E-02  0.1327529E+00
         21   -1    0    0  504  501  0.00000000000E+00  0.00000000000E+00  0.11468482839E+03  0.11468482839E+03  0.00000000000E+00 0.  1.
         21   -1    0    0  503  502 -0.00000000000E+00 -0.00000000000E+00 -0.27543951617E+02  0.27543951617E+02  0.00000000000E+00 0.  1.
         21    1    1    2  503  501  0.34963525367E+02  0.26388429737E+02  0.88127396944E+02  0.98413593687E+02  0.00000000000E+00 0.  1.
         21    1    1    2  504  502 -0.34963525367E+02 -0.26388429737E+02 -0.98652017386E+00  0.43815186319E+02  0.00000000000E+00 0.  1.
</event>
<event>
 4    1  0.3372301E+006  0.5388798E+02  0.7546771E-02  0.1282142E+00
         21   -1    0    0  502  501  0.00000000000E+00  0.00000000000E+00  0.21322522476E+03  0.21322522476E+03  0.00000000000E+00 0. -1.
         21   -1    0    0  504  502 -0.00000000000E+00 -0.00000000000E+00 -0.44087606631E+03  0.44087606631E+03  0.00000000000E+00 0.  1.
         21    1    1    2  503  501  0.46615824279E+02  0.27034785481E+02  0.20813417641E+03  0.21499709321E+03  0.00000000000E+00 0. -1.
         21    1    1    2  504  503 -0.46615824279E+02 -0.27034785481E+02 -0.43578501796E+03  0.43910419786E+03  0.00000000000E+00 0.  1.
</event>
<event>
 4    1  0.3372301E+006  0.2276936E+02  0.7546771E-02  0.1495415E+00
         21   -1    0    0  504  501  0.00000000000E+00  0.00000000000E+00  0.91985063888E+02  0.91985063888E+02  0.00000000000E+00 0. -1.
         21   -1    0    0  501  502 -0.00000000000E+00 -0.00000000000E+00 -0.70985518806E+01  0.70985518806E+01  0.00000000000E+00 0. -1.
         21    1    1    2  503  502  0.98057710837E+01 -0.20549706455E+02  0.19956999091E+02  0.30277473386E+02  0.00000000000E+00 0. -1.
         21    1    1    2  504  503 -0.98057710837E+01  0.20549706455E+02  0.64929512916E+02  0.68806142382E+02  0.00000000000E+00 0. -1.
</event>
<event>
 4    1  0.3372301E+006  0.2028045E+02  0.7546771E-02  0.1529791E+00
         21   -1    0    0  502  501  0.00000000000E+00  0.00000000000E+00  0.11064353387E+04  0.11064353387E+04  0.00000000000E+00 0. -1.
         21   -1    0    0  504  502 -0.00000000000E+00 -0.00000000000E+00 -0.16293273686E+02  0.16293273686E+02  0.00000000000E+00 0. -1.
         21    1    1    2  503  501  0.20307008635E+01 -0.20178522139E+02  0.10999946250E+04  0.11001815630E+04  0.00000000000E+00 0. -1.
         21    1    1    2  504  503 -0.20307008635E+01  0.20178522139E+02 -0.98525599357E+01  0.22547049452E+02  0.00000000000E+00 0. -1.
</event>
<event>
 4    1  0.3372301E+006  0.3218675E+02  0.7546771E-02  0.1401499E+00
         21   -1    0    0  504  501  0.00000000000E+00  0.00000000000E+00  0.20664191868E+04  0.20664191868E+04  0.00000000000E+00 0. -1.
         21   -1    0    0  503  502 -0.00000000000E+00 -0.00000000000E+00 -0.22429777369E+01  0.22429777369E+01  0.00000000000E+00 0. -1.
         21    1    1    2  503  501 -0.29638160109E+02 -0.12552541167E+02  0.12065350558E+03  0.12487295637E+03  0.00000000000E+00 0. -1.
         21    1    1    2  504  502  0.29638160109E+02  0.12552541167E+02  0.19435227035E+04  0.19437892081E+04  0.00000000000E+00 0. -1.
</event>
<event>
 4    1  0.3372301E+006  0.3231993E+02  0.7546771E-02  0.1400452E+00
         21   -1    0    0  503  501  0.00000000000E+00  0.00000000000E+00  0.12312069831E+03  0.12312069831E+03  0.00000000000E+00 0. -1.
         21   -1    0    0  501  502 -0.00000000000E+00 -0.00000000000E+00 -0.16421306187E+02  0.16421306187E+02  0.00000000000E+00 0. -1.
         21    1    1    2  503  504  0.95307071675E+01  0.30882735032E+02  0.10185652204E+03  0.10686125952E+03  0.00000000000E+00 0. -1.
         21    1    1    2  504  502 -0.95307071675E+01 -0.30882735032E+02  0.48428700816E+01  0.32680744985E+02  0.00000000000E+00 0. -1.
</event>
<event>
 4    1  0.3372301E+006  0.2508801E+02  0.7546771E-02  0.1467821E+00
         21   -1    0    0  502  501  0.00000000000E+00  0.00000000000E+00  0.40354576439E+03  0.40354576439E+03  0.00000000000E+00 0. -1.
         21   -1    0    0  504  502 -0.00000000000E+00 -0.00000000000E+00 -0.66231673080E+01  0.66231673080E+01  0.00000000000E+00 0.  1.
         21    1    1    2  503  501 -0.10074867815E+02  0.22976189354E+02  0.37777939922E+03  0.37861151953E+03  0.00000000000E+00 0. -1.
         21    1    1    2  504  503  0.10074867815E+02 -0.22976189354E+02  0.19143197853E+02  0.31557412168E+02  0.00000000000E+00 0.  1.
</event>
<event>
 4    1  0.3372301E+006  0.2893036E+02  0.7546771E-02  0.1429125E+00
         21   -1    0    0  504  501  0.00000000000E+00  0.00000000000E+00  0.97864419910E+02  0.97864419910E+02  0.00000000000E+00 0. -1.
         21   -1    0    0  503  502 -0.00000000000E+00 -0.00000000000E+00 -0.89237190845E+01  0.89237190845E+01  0.00000000000E+00 0. -1.
         21    1    1    2  503  501  0.20966966730E+02  0.19933690721E+02  0.33577209210E+02  0.44321492506E+02  0.00000000000E+00 0. -1.
         21    1    1    2  504  502 -0.20966966730E+02 -0.19933690721E+02  0.55363491616E+02  0.62466646489E+02  0.00000000000E+00 0. -1.
</event>
<event>
 4    1  0.3372301E+006  0.2244212E+02  0.7546771E-02  0.1499625E+00
         21   -1    0    0  503  501  0.00000000000E+00  0.00000000000E+00  0.50605438005E+03  0.50605438005E+03  0.00000000000E+00 0.  1.
         21   -1    0    0  504  502 -0.00000000000E+00 -0.00000000000E+00 -0.34053055008E+03  0.34053055008E+03  0.00000000000E+00 0.  1.
         21    1    1    2  503  502 -0.14022010651E+02  0.17522325750E+02 -0.33991153298E+03  0.34065157997E+03  0.00000000000E+00 0.  1.
         21    1    1    2  504  501  0.14022010651E+02 -0.17522325750E+02  0.50543536295E+03  0.50593335016E+03  0.00000000000E+00 0.  1.
</event>
<event>
 4    1  0.3372301E+006  0.2217891E+02  0.7546771E-02  0.1503074E+00
         21   -1    0    0  503  501  0.00000000000E+00  0.00000000000E+00  0.35264306502E+02  0.35264306502E+02  0.00000000000E+00 0. -1.
         21   -1    0    0  504  502 -0.00000000000E+00 -0.00000000000E+00 -0.15250745671E+02  0.15250745671E+02  0.00000000000E+00 0. -1.
         21    1    1    2  503  502 -0.42344174238E+01  0.21770942814E+02  0.17385769102E+02  0.28181007952E+02  0.00000000000E+00 0. -1.
         21    1    1    2  504  501  0.42344174238E+01 -0.21770942814E+02  0.26277917292E+01  0.22334044221E+02  0.00000000000E+00 0. -1.
</event>
<event>
 4    1  0.3372301E+006  0.2014780E+02  0.7546771E-02  0.1531788E+00
         21   -1    0    0  504  501  0.00000000000E+00  0.00000000000E+00  0.74763722662E+03  0.74763722662E+03  0.00000000000E+00 0. -1.
         21   -1    0    0  503  502 -0.00000000000E+00 -0.00000000000E+00 -0.13377863454E+03  0.13377863454E+03  0.00000000000E+00 0. -1.
         21    1    1    2  503  501  0.19775400755E+02 -0.38558203595E+01 -0.13288339394E+03  0.13440212131E+03  0.00000000000E+00 0. -1.
         21    1    1    2  504  502 -0.19775400755E+02  0.38558203595E+01  0.74674198603E+03  0.74701373985E+03  0.00000000000E+00 0. -1.
</event>
<event>
 4    1  0.3372301E+006  0.2160337E+02  0.7546771E-02  0.1510822E+00
         21   -1    0    0  504  501  0.00000000000E+00  0.00000000000E+00  0.74256961709E+01  0.74256961709E+01  0.00000000000E+00 0.  1.
         21   -1    0    0  503  502 -0.00000000000E+00 -0.00000000000E+00 -0.12323053084E+03  0.12323053084E+03  0.00000000000E+00 0. -1.
         21    1    1    2  503  501  0.14187936828E+02 -0.16291353223E+02 -0.10363113932E+03  0.10585895701E+03  0.00000000000E+00 0. -1.
         21    1    1    2  504  502 -0.14187936828E+02  0.16291353223E+02 -0.12173695346E+02  0.24797270004E+02  0.00000000000E+00 0.  1.
</event>
<event>
 4    1  0.3372301E+006  0.2455233E+02  0.7546771E-02  0.1473874E+00
         21   -1    0    0  503  501  0.00000000000E+00  0.00000000000E+00  0.26323604206E+02  0.26323604206E+02  0.00000000000E+00 0.  1.
         21   -1    0    0  504  502 -0.00000000000E+00 -0.00000000000E+00 -0.60239872406E+02  0.60239872406E+02  0.00000000000E+00 0. -1.
         21    1    1    2  503  502  0.18861875471E+02 -0.15717719790E+02 -0.51034058525E+02  0.56632960290E+02  0.00000000000E+00 0. -1.
         21    1    1    2  504  501 -0.18861875471E+02  0.15717719790E+02  0.17117790325E+02  0.29930516322E+02  0.00000000000E+00 0.  1.
</event>
<event>
 4    1  0.3372301E+006  0.2378426E+02  0.7546771E-02  0.1482878E+00
         21   -1    0    0  502  501  0.00000000000E+00  0.00000000000E+00  0.43368669381E+01  0.43368669381E+01  0.00000000000E+00 0.  1.
         21   -1    0    0  504  502 -0.00000000000E+00 -0.00000000000E+00 -0.14733774126E+03  0.14733774126E+03  0.00000000000E+00 0.  1.
         21    1    1    2  503  501  0.18861934211E+01 -0.23709350067E+02 -0.45816027155E+02  0.51621694572E+02  0.00000000000E+00 0.  1.
         21    1    1    2  504  503 -0.18861934211E+01  0.23709350067E+02 -0.97184847170E+02  0.10005291363E+03  0.00000000000E+00 0.  1.
</event>
<event>
 4    1  0.3372301E+006  0.3235415E+02  0.7546771E-02  0.1400184E+00
         21   -1    0    0  502  501  0.00000000000E+00  0.00000000000E+00  0.30977126163E+02  0.30977126163E+02  0.00000000000E+00 0.  1.
         21   -1    0    0  503  502 -0.00000000000E+00 -0.00000000000E+00 -0.14795728635E+03  0.14795728635E+03  0.00000000000E+00 0. -1.
         21    1    1    2  503  504 -0.53395971102E+00  0.32349742426E+02 -0.13707912336E+03  0.14084557860E+03  0.00000000000E+00 0. -1.
         21    1    1    2  504  501  0.53395971102E+00 -0.32349742426E+02  0.20098963179E+02  0.38088833914E+02  0.00000000000E+00 0.  1.
</event>
<event>
 4    1  0.3372301E+006  0.2584838E+02  0.7546771E-02  0.1459532E+00
         21   -1    0    0  504  501  0.00000000000E+00  0.00000000000E+00  0.47626415093E+02  0.47626415093E+02  0.00000000000E+00 0.  1.
         21   -1    0    0  501  502 -0.00000000000E+00 -0.00000000000E+00 -0.18036531113E+03  0.18036531113E+03  0.00000000000E+00 0.  1.
         21    1    1    2  503  502 -0.23207046794E+02 -0.11382967028E+02 -0.17584230338E+03  0.17773197410E+03  0.00000000000E+00 0.  1.
         21    1    1    2  504  503  0.23207046794E+02  0.11382967028E+02  0.43103407341E+02  0.50259752125E+02  0.00000000000E+00 0.  1.
</event>
<event>
 4    1  0.3372301E+006  0.3185676E+02  0.7546771E-02  0.1404119E+00
         21   -1    0    0  503  501  0.00000000000E+00  0.00000000000E+00  0.17298631954E+03  0.17298631954E+03  0.00000000000E+00 0. -1.
         21   -1    0    0  501  502 -0.00000000000E+00 -0.00000000000E+00 -0.96193527345E+02  0.96193527345E+02  0.00000000000E+00 0. -1.
         21    1    1    2  503  504  0.11283928959E+01 -0.31836767358E+02  0.16881756248E+03  0.17179703848E+03  0.00000000000E+00 0. -1.
         21    1    1    2  504  502 -0.11283928959E+01  0.31836767358E+02 -0.92024770290E+02  0.97382808407E+02  0.00000000000E+00 0. -1.
</event>
<event>
 4    1  0.3372301E+006  0.2780772E+02  0.7546771E-02  0.1439659E+00
         21   -1    0    0  502  501  0.00000000000E+00  0.00000000000E+00  0.57234979855E+02  0.57234979855E+02  0.00000000000E+00 0.  1.
         21   -1    0    0  503  502 -0.00000000000E+00 -0.00000000000E+00 -0.68994533714E+02  0.68994533714E+02  0.00000000000E+00 0. -1.
         21    1    1    2  503  504 -0.22482524419E+02 -0.16364764065E+02 -0.62478657744E+02  0.68387514070E+02  0.00000000000E+00 0. -1.
         21    1    1    2  504  501  0.22482524419E+02  0.16364764065E+02  0.50719103885E+02  0.57841999500E+02  0.00000000000E+00 0.  1.
</event>
<event>
 4    1  0.3372301E+006  0.2020711E+02  0.7546771E-02  0.1530893E+00
         21   -1    0    0  503  501  0.00000000000E+00  0.00000000000E+00  0.94680872384E+01  0.94680872384E+01  0.00000000000E+00 0.  1.
         21   -1    0    0  504  502 -0.00000000000E+00 -0.00000000000E+00 -0.43156844561E+02  0.43156844561E+02  0.00000000000E+00 0.  1.
         21    1    1    2  503  502 -0.93180343528E+00 -0.20185614327E+02 -0.16148877482E+02  0.25867228829E+02  0.00000000000E+00 0.  1.
         21    1    1    2  504  501  0.93180343528E+00  0.20185614327E+02 -0.17539879841E+02  0.26757702970E+02  0.00000000000E+00 0.  1.
</event>
<event>
 4    1  0.3372301E+006  0.3073871E+02  0.7546771E-02  0.1413283E+00
         21   -1    0    0  504  501  0.00000000000E+00  0.00000000000E+00  0.23030348478E+02  0.23030348478E+02  0.00000000000E+00 0. -1.
         21   -1    0    0  503  502 -0.00000000000E+00 -0.00000000000E+00 -0.43207883004E+02  0.43207883004E+02  0.00000000000E+00 0. -1.
         21    1    1    2  503  501  0.30714719762E+02 -0.12143049504E+01 -0.17529280186E+02  0.35385649781E+02  0.00000000000E+00 0. -1.
         21    1    1    2  504  502 -0.30714719762E+02  0.12143049504E+01 -0.26482543399E+01  0.30852581701E+02  0.00000000000E+00 0. -1.
</event>
<event>
 4    1  0.3372301E+006  0.2816451E+02  0.7546771E-02  0.1436248E+00
         21   -1    0    0  503  501  0.00000000000E+00  0.00000000000E+00  0.25661498262E+02  0.25661498262E+02  0.00000000000E+00 0. -1.
         21   -1    0    0  501  502 -0.00000000000E+00 -0.00000000000E+00 -0.77380513225E+02  0.77380513225E+02  0.00000000000E+00 0.  1.
         21    1    1    2  503  504 -0.70774106362E+01 -0.27260775108E+02  0.14065912221E+02  0.31481573776E+02  0.00000000000E+00 0. -1.
         21    1    1    2  504  502  0.70774106362E+01  0.27260775108E+02 -0.65784927184E+02  0.71560437711E+02  0.00000000000E+00 0.  1.
</event>
<event>
 4    1  0.3372301E+006  0.2048914E+02  0.7546771E-02  0.1526685E+00
         21   -1    0    0  502  501  0.00000000000E+00  0.00000000000E+00  0.19022803760E+02  0.19022803760E+02  0.00000000000E+00 0.  1.
         21   -1    0    0  504  502 -0.00000000000E+00 -0.00000000000E+00 -0.27430473790E+02  0.27430473790E+02  0.00000000000E+00 0.  1.
         21    1    1    2  503  501  0.20224583557E+02 -0.32819478192E+01  0.60652463097E+01  0.21368017557E+02  0.00000000000E+00 0.  1.
         21    1    1    2  504  503 -0.20224583557E+02  0.32819478192E+01 -0.14472916340E+02  0.25085259993E+02  0.00000000000E+00 0.  1.
</event>
<event>
 4    1  0.3372301E+006  0.2160632E+02  0.7546771E-02  0.1510781E+00
         21   -1    0    0  504  501  0.00000000000E+00  0.00000000000E+00  0.14974355697E+03  0.14974355697E+03  0.00000000000E+00 0.  1.
         21   -1    0    0  501  502 -0.00000000000E+00 -0.00000000000E+00 -0.36380023333E+03  0.36380023333E+03  0.00000000000E+00 0.  1.
         21    1    1    2  503  502  0.15793228435E+02  0.14744730814E+02 -0.36269767525E+03  0.36334066217E+03  0.00000000000E+00 0.  1.
         21    1    1    2  504  503 -0.15793228435E+02 -0.14744730814E+02  0.14864099889E+03  0.15020312814E+03  0.00000000000E+00 0.  1.
</event>
<event>
 4    1  0.3372301E+006  0.3890620E+02  0.7546771E-02  0.1355017E+00
         21   -1    0    0  504  501  0.00000000000E+00  0.00000000000E+00  0.36936298086E+01  0.36936298086E+01  0.00000000000E+00 0.  1.
         21   -1    0    0  503  502 -0.00000000000E+00 -0.00000000000E+00 -0.46812226035E+03  0.46812226035E+03  0.00000000000E+00 0.  1.
         21    1    1    2  503  501  0.38646907632E+02  0.44842952548E+01 -0.14895422666E+03  0.15395146642E+03  0.00000000000E+00 0.  1.
         21    1    1    2  504  502 -0.38646907632E+02 -0.44842952548E+01 -0.31547440388E+03  0.31786442374E+03  0.00000000000E+00 0.  1.
</event>
<event>
 4    1  0.3372301E+006  0.2041296E+02  0.7546771E-02  0.1527814E+00
         21   -1    0    0  504  501  0.00000000000E+00  0.00000000000E+00  0.39792935864E+02  0.39792935864E+02  0.00000000000E+00 0. -1.
         21   -1    0    0  501  502 -0.00000000000E+00 -0.00000000000E+00 -0.10980261756E+02  0.10980261756E+02  0.00000000000E+00 0. -1.
         21    1    1    2  503  502 -0.10332546087E+01 -0.20386792373E+02  0.89413953315E+01  0.22285364453E+02  0.00000000000E+00 0. -1.
         21    1    1    2  504  503  0.10332546087E+01  0.20386792373E+02  0.19871278777E+02  0.28487833167E+02  0.00000000000E+00 0. -1.
</event>
<event>
 4    1  0.3372301E+006  0.2482537E+02  0.7546771E-02  0.1470766E+00
         21   -1    0    0  504  501  0.00000000000E+00  0.00000000000E+00  0.39089341717E+02  0.39089341717E+02  0.00000000000E+00 0. -1.
         21   -1    0    0  501  502 -0.00000000000E+00 -0.00000000000E+00 -0.51330638343E+02  0.51330638343E+02  0.00000000000E+00 0. -1.
         21    1    1    2  503  502  0.24825195998E+02  0.93104779487E-01 -0.43752250191E+02  0.50304656063E+02  0.00000000000E+00 0. -1.
         21    1    1    2  504  503 -0.24825195998E+02 -0.93104779487E-01  0.31510953565E+02  0.40115323997E+02  0.00000000000E+00 0. -1.
</event>
<event>
 4    1  0.3372301E+006  0.2488383E+02  0.7546771E-02  0.1470107E+00
         21   -1    0    0  504  501  0.00000000000E+00  0.00000000000E+00  0.50603600531E+02  0.50603600531E+02  0.00000000000E+00 0.  1.
         21   -1    0    0  503  502 -0.00000000000E+00 -0.00000000000E+00 -0.77869443973E+02  0.77869443973E+02  0.00000000000E+00 0. -1.
         21    1    1    2  503  501 -0.23238154690E+02  0.88990572489E+01  0.45340973259E+02  0.51720488294E+02  0.00000000000E+00 0.  1.
         21    1    1    2  504  502  0.23238154690E+02 -0.88990572489E+01 -0.72606816701E+02  0.76752556210E+02  0.00000000000E+00 0. -1.
</event>
<event>
 4    1  0.3372301E+006  0.2111808E+02  0.7546771E-02  0.1517586E+00
         21   -1    0    0  503  501  0.00000000000E+00  0.00000000000E+00  0.14452885617E+02  0.14452885617E+02  0.00000000000E+00 0. -1.
         21   -1    0    0  504  502 -0.00000000000E+00 -0.00000000000E+00 -0.78591594747E+02  0.78591594747E+02  0.00000000000E+00 0. -1.
         21    1    1    2  503  502  0.73846085211E+01  0.19784862874E+02 -0.68326116511E+02  0.71515253194E+02  0.00000000000E+00 0. -1.
         21    1    1    2  504  501 -0.73846085211E+01 -0.19784862874E+02  0.41874073813E+01  0.21529227170E+02  0.00000000000E+00 0. -1.
</event>
<event>
 4    1  0.3372301E+006  0.2140889E+02  0.7546771E-02  0.1513506E+00
         21   -1    0    0  504  501  0.00000000000E+00  0.00000000000E+00  0.15974311932E+02  0.15974311932E+02  0.00000000000E+00 0.  1.
         21   -1    0    0  501  502 -0.00000000000E+00 -0.00000000000E+00 -0.17086434115E+03  0.17086434115E+03  0.00000000000E+00 0.  1.
         21    1    1    2  503  502 -0.53106339691E+01 -0.20739762658E+02 -0.16266040406E+03  0.16406324280E+03  0.00000000000E+00 0.  1.
         21    1    1    2  504  503  0.53106339691E+01  0.20739762658E+02  0.77703748448E+01  0.22775410281E+02  0.00000000000E+00 0.  1.
</event>
<event>
 4    1  0.3372301E+006  0.2264378E+02  0.7546771E-02  0.1497020E+00
         21   -1    0    0  504  501  0.00000000000E+00  0.00000000000E+00  0.11148279229E+04  0.11148279229E+04  0.00000000000E+00 0.  1.
         21   -1    0    0  503  502 -0.00000000000E+00 -0.00000000000E+00 -0.41039986861E+02  0.41039986861E+02  0.00000000000E+00 0.  1.
         21    1    1    2  503  501  0.13718090831E+02 -0.18015405094E+02 -0.37792458264E+02  0.44056903414E+02  0.00000000000E+00 0.  1.
         21    1    1    2  504  502 -0.13718090831E+02  0.18015405094E+02  0.11115803943E+04  0.11118110063E+04  0.00000000000E+00 0.  1.
</event>
<event>
 4    1  0.3372301E+006  0.2017300E+02  0.7546771E-02  0.1531407E+00
         21   -1    0    0  503  501  0.00000000000E+00  0.00000000000E+00  0.15269651570E+02  0.15269651570E+02  0.00000000000E+00 0. -1.
         21   -1    0    0  501  502 -0.00000000000E+00 -0.00000000000E+00 -0.29954086107E+02  0.29954086107E+02  0.00000000000E+00 0. -1.
         21    1    1    2  503  504  0.11869357986E+02 -0.16311601483E+02  0.16665555798E+00  0.20173690193E+02  0.00000000000E+00 0. -1.
         21    1    1    2  504  502 -0.11869357986E+02  0.16311601483E+02 -0.14851090095E+02  0.25050047484E+02  0.00000000000E+00 0. -1.
</event>
<event>
 4    1  0.3372301E+006  0.2266014E+02  0.7546771E-02  0.1496810E+00
         21   -1    0    0  503  501  0.00000000000E+00  0.00000000000E+00  0.87594178584E+02  0.87594178584E+02  0.00000000000E+00 0. -1.
         21   -1    0    0  501  502 -0.00000000000E+00 -0.00000000000E+00 -0.13801418784E+02  0.13801418784E+02  0.00000000000E+00 0. -1.
         21    1    1    2  503  504 -0.10721544717E+02 -0.19963227493E+02  0.75348479740E+02  0.78682115961E+02  0.00000000000E+00 0. -1.
         21    1    1    2  504  502  0.10721544717E+02  0.19963227493E+02 -0.15557199408E+01  0.22713481406E+02  0.00000000000E+00 0. -1.
</event>
<event>
 4    1  0.3372301E+006  0.2042753E+02  0.7546771E-02  0.1527597E+00
         21   -1    0    0  503  501  0.00000000000E+00  0.00000000000E+00  0.15639070080E+03  0.15639070080E+03  0.00000000000E+00 0.  1.
         21   -1    0    0  504  502 -0.00000000000E+00 -0.00000000000E+00 -0.10494598372E+02  0.10494598372E+02  0.00000000000E+00 0.  1.
         21    1    1    2  503  502  0.62587088150E+01  0.19445120654E+02  0.88946969986E+00  0.20446889974E+02  0.00000000000E+00 0.  1.
         21    1    1    2  504  501 -0.62587088150E+01 -0.19445120654E+02  0.14500663273E+03  0.14643840920E+03  0.00000000000E+00 0.  1.
</event>
<event>
 4    1  0.3372301E+006  0.2679598E+02  0.7546771E-02  0.1449668E+00
         21   -1    0    0  502  501  0.00000000000E+00  0.00000000000E+00  0.81643542685E+02  0.81643542685E+02  0.00000000000E+00 0. -1.
         21   -1    0    0  503  502 -0.00000000000E+00 -0.00000000000E+00 -0.18456267266E+02  0.18456267266E+02  0.00000000000E+00 0.  1.
         21    1    1    2  503  504 -0.19379071240E+01 -0.26725809961E+02 -0.46187183463E+01  0.27191119161E+02  0.00000000000E+00 0.  1.
         21    1    1    2  504  501  0.19379071240E+01  0.26725809961E+02  0.67805993766E+02  0.72908690790E+02  0.00000000000E+00 0. -1.
</event>
<event>
 4    1  0.3372301E+006  0.2607450E+02  0.7546771E-02  0.1457133E+00
         21   -1    0    0  504  501  0.00000000000E+00  0.00000000000E+00  0.19539288818E+01  0.19539288818E+01  0.00000000000E+00 0.  1.
         21   -1    0    0  503  502 -0.00000000000E+00 -0.00000000000E+00 -0.40783957204E+03  0.40783957204E+03  0.00000000000E+00 0.  1.
         21    1    1    2  503  501  0.66978448128E+01  0.25199568118E+02 -0.12442869552E+03  0.12713134794E+03  0.00000000000E+00 0.  1.
         21    1    1    2  504  502 -0.66978448128E+01 -0.25199568118E+02 -0.28145694764E+03  0.28266215299E+03  0.00000000000E+00 0.  1.
</event>
<event>
 4    1  0.3372301E+006  0.3709286E+02  0.7546771E-02  0.1366419E+00
         21   -1    0    0  503  501  0.00000000000E+00  0.00000000000E+00  0.86636492825E+02  0.86636492825E+02  0.00000000000E+00 0. -1.
         21   -1    0    0  504  502 -0.00000000000E+00 -0.00000000000E+00 -0.12677216762E+03  0.12677216762E+03  0.00000000000E+00 0. -1.
         21    1    1    2  503  502  0.36421086225E+01 -0.36913618145E+02  0.79729379076E+02  0.87935510731E+02  0.00000000000E+00 0. -1.
         21    1    1    2  504  501 -0.36421086225E+01  0.36913618145E+02 -0.11986505387E+03  0.12547314972E+03  0.00000000000E+00 0. -1.
</event>
<event>
 4    1  0.3372301E+006  0.3189763E+02  0.7546771E-02  0.1403793E+00
         21   -1    0    0  504  501  0.00000000000E+00  0.00000000000E+00  0.42563699373E+02  0.42563699373E+02  0.00000000000E+00 0.  1.
         21   -1    0    0  503  502 -0.00000000000E+00 -0.00000000000E+00 -0.31025396855E+02  0.31025396855E+02  0.00000000000E+00 0.  1.
         21    1    1    2  503  501 -0.31368465240E+02  0.57860107541E+01  0.23396866704E+02  0.39558461845E+02  0.00000000000E+00 0.  1.
         21    1    1    2  504  502  0.31368465240E+02 -0.57860107541E+01 -0.11858564186E+02  0.34030634383E+02  0.00000000000E+00 0.  1.
</event>
<event>
 4    1  0.3372301E+006  0.2462635E+02  0.7546771E-02  0.1473027E+00
         21   -1    0    0  503  501  0.00000000000E+00  0.00000000000E+00  0.42221369574E+01  0.42221369574E+01  0.00000000000E+00 0.  1.
         21   -1    0    0  501  502 -0.00000000000E+00 -0.00000000000E+00 -0.32112654265E+03  0.32112654265E+03  0.00000000000E+00 0.  1.
         21    1    1    2  503  504 -0.24621846774E+02 -0.47071363011E+00 -0.37513081843E+02  0.44874137533E+02  0.00000000000E+00 0.  1.
         21    1    1    2  504  502  0.24621846774E+02  0.47071363011E+00 -0.27939132385E+03  0.28047454208E+03  0.00000000000E+00 0.  1.
</event>
<event>
 4    1  0.3372301E+006  0.2467951E+02  0.7546771E-02  0.1472421E+00
         21   -1    0    0  504  501  0.00000000000E+00  0.00000000000E+00  0.73916948769E+02  0.73916948769E+02  0.00000000000E+00 0.  1.
         21   -1    0    0  503  502 -0.00000000000E+00 -0.00000000000E+00 -0.27086388352E+02  0.27086388352E+02  0.00000000000E+00 0. -1.
         21    1    1    2  503  501  0.78091734930E+01 -0.23411432216E+02 -0.18710099195E+02  0.30970084936E+02  0.00000000000E+00 0. -1.
         21    1    1    2  504  502 -0.78091734930E+01  0.23411432216E+02  0.65540659613E+02  0.70033252184E+02  0.00000000000E+00 0.  1.
</event>
<event>
 4    1  0.3372301E+006  0.4134447E+02  0.7546771E-02  0.1340782E+00
         21   -1    0    0  504  501  0.00000000000E+00  0.00000000000E+00  0.92892034468E+03  0.92892034468E+03  0.00000000000E+00 0. -1.
         21   -1    0    0  503  502 -0.00000000000E+00 -0.00000000000E+00 -0.20781498228E+01  0.20781498228E+01  0.00000000000E+00 0. -1.
         21    1    1    2  503  501  0.24274176999E+02  0.33468340448E+02  0.30589359424E+03  0.30867500138E+03  0.00000000000E+00 0. -1.
         21    1    1    2  504  502 -0.24274176999E+02 -0.33468340448E+02  0.62094860062E+03  0.62232349313E+03  0.00000000000E+00 0. -1.
</event>
<event>
 4    1  0.3372301E+006  0.2698992E+02  0.7546771E-02  0.1447709E+00
         21   -1    0    0  502  501  0.00000000000E+00  0.00000000000E+00  0.11540392207E+04  0.11540392207E+04  0.00000000000E+00 0.  1.
         21   -1    0    0  503  502 -0.00000000000E+00 -0.00000000000E+00 -0.12677461115E+01  0.12677461115E+01  0.00000000000E+00 0.  1.
         21    1    1    2  503  504 -0.83143882432E+00 -0.26977107177E+02  0.16706995683E+03  0.16923600704E+03  0.00000000000E+00 0.  1.
         21    1    1    2  504  501  0.83143882432E+00  0.26977107177E+02  0.98570151779E+03  0.98607095981E+03  0.00000000000E+00 0.  1.
</event>
<event>
 4    1  0.3372301E+006  0.2575105E+02  0.7546771E-02  0.1460574E+00
         21   -1    0    0  504  501  0.00000000000E+00  0.00000000000E+00  0.44569827544E+03  0.44569827544E+03  0.00000000000E+00 0.  1.
         21   -1    0    0  501  502 -0.00000000000E+00 -0.00000000000E+00 -0.33648495824E+01  0.33648495824E+01  0.00000000000E+00 0. -1.
         21    1    1    2  503  502  0.19321908567E+01 -0.25678454157E+02  0.53467600980E+02  0.59345604083E+02  0.00000000000E+00 0. -1.
         21    1    1    2  504  503 -0.19321908567E+01  0.25678454157E+02  0.38886582488E+03  0.38971752094E+03  0.00000000000E+00 0.  1.
</event>
<event>
 4    1  0.3372301E+006  0.3855820E+02  0.7546771E-02  0.1357148E+00
         21   -1    0    0  504  501  0.00000000000E+00  0.00000000000E+00  0.16290695893E+03  0.16290695893E+03  0.00000000000E+00 0. -1.
         21   -1    0    0  501  502 -0.00000000000E+00 -0.00000000000E+00 -0.15758189486E+02  0.15758189486E+02  0.00000000000E+00 0. -1.
         21    1    1    2  503  502  0.11685841455E+02  0.36744740863E+02  0.15621385834E+02  0.41602434628E+02  0.00000000000E+00 0. -1.
         21    1    1    2  504  503 -0.11685841455E+02 -0.36744740863E+02  0.13152738361E+03  0.13706271379E+03  0.00000000000E+00 0. -1.
</event>
<event>
 4    1  0.3372301E+006  0.4388819E+02  0.7546771E-02  0.1327093E+00
         21   -1    0    0  502  501  0.00000000000E+00  0.00000000000E+00  0.54673766059E+03  0.54673766059E+03  0.00000000000E+00 0. -1.
         21   -1    0    0  504  502 -0.00000000000E+00 -0.00000000000E+00 -0.55541796122E+01  0.55541796122E+01  0.00000000000E+00 0. -1.
         21    1    1    2  503  501  0.18777292851E+02  0.39668454802E+02  0.43758527507E+03  0.43978067942E+03  0.00000000000E+00 0. -1.
         21    1    1    2  504  503 -0.18777292851E+02 -0.39668454802E+02  0.10359820591E+03  0.11251116078E+03  0.00000000000E+00 0. -1.
</event>
<event>
 4    1  0.3372301E+006  0.2006619E+02  0.7546771E-02  0.1533026E+00
         21   -1    0    0  503  501  0.00000000000E+00  0.00000000000E+00  0.20067878301E+03  0.20067878301E+03  0.00000000000E+00 0. -1.
         21   -1    0    0  504  502 -0.00000000000E+00 -0.00000000000E+00 -0.11682400739E+02  0.11682400739E+02  0.00000000000E+00 0. -1.
         21    1    1    2  503  502 -0.12509631230E+02 -0.15689524147E+02 -0.21349074188E+01  0.20179441795E+02  0.00000000000E+00 0. -1.
         21    1    1    2  504  501  0.12509631230E+02  0.15689524147E+02  0.19113128969E+03  0.19218174195E+03  0.00000000000E+00 0. -1.
</event>
<event>
 4    1  0.3372301E+006  0.2652919E+02  0.7546771E-02  0.1452396E+00
         21   -1    0    0  503  501  0.00000000000E+00  0.00000000000E+00  0.14882079211E+03  0.14882079211E+03  0.00000000000E+00 0. -1.
         21   -1    0    0  504  502 -0.00000000000E+00 -0.00000000000E+00 -0.59355388113E+01  0.59355388113E+01  0.00000000000E+00 0. -1.
         21    1    1    2  503  502  0.11793877891E+02  0.23763463281E+02  0.10632690267E+03  0.10958653190E+03  0.00000000000E+00 0. -1.
         21    1    1    2  504  501 -0.11793877891E+02 -0.23763463281E+02  0.36558350630E+02  0.45169799021E+02  0.00000000000E+00 0. -1.
</event>
<event>
 4    1  0.3372301E+006  0.2580925E+02  0.7546771E-02  0.1459951E+00
         21   -1    0    0  503  501  0.00000000000E+00  0.00000000000E+00  0.10232405989E+02  0.10232405989E+02  0.00000000000E+00 0. -1.
         21   -1    0    0  501  502 -0.00000000000E+00 -0.00000000000E+00 -0.15350579958E+03  0.15350579958E+03  0.00000000000E+00 0.  1.
         21    1    1    2  503  504  0.19035487223E+02 -0.17428924056E+02 -0.95067464384E+01  0.27504461373E+02  0.00000000000E+00 0. -1.
         21    1    1    2  504  502 -0.19035487223E+02  0.17428924056E+02 -0.13376664716E+03  0.13623374420E+03  0.00000000000E+00 0.  1.
</event>
<event>
 4    1  0.3372301E+006  0.2706033E+02  0.7546771E-02  0.1447003E+00
         21   -1    0    0  504  501  0.00000000000E+00  0.00000000000E+00  0.71009246795E+02  0.71009246795E+02  0.00000000000E+00 0.  1.
         21   -1    0    0  503  502 -0.00000000000E+00 -0.00000000000E+00 -0.14817798097E+02  0.14817798097E+02  0.00000000000E+00 0.  1.
         21    1    1    2  503  501 -0.87826977974E+00  0.27046077297E+02  0.51759197326E+02  0.58406131209E+02  0.00000000000E+00 0.  1.
         21    1    1    2  504  502  0.87826977974E+00 -0.27046077297E+02  0.44322513722E+01  0.27420913683E+02  0.00000000000E+00 0.  1.
</event>
<event>
 4    1  0.3372301E+006  0.4325710E+02  0.7546771E-02  0.1330388E+00
         21   -1    0    0  502  501  0.00000000000E+00  0.00000000000E+00  0.75612912895E+02  0.75612912895E+02  0.00000000000E+00 0. -1.
         21   -1    0    0  503  502 -0.00000000000E+00 -0.00000000000E+00 -0.92022780042E+02  0.92022780042E+02  0.00000000000E+00 0. -1.
         21    1    1    2  503  504  0.39805482491E+02 -0.16932231788E+02 -0.79871875138E+02  0.90833327297E+02  0.00000000000E+00 0. -1.
         21    1    1    2  504  501 -0.39805482491E+02  0.16932231788E+02  0.63462007991E+02  0.76802365640E+02  0.00000000000E+00 0. -1.
</event>
<event>
 4    1  0.3372301E+006  0.2058447E+02  0.7546771E-02  0.1525281E+00
         21   -1    0    0  502  501  0.00000000000E+00  0.00000000000E+00  0.19607079051E+03  0.19607079051E+03  0.00000000000E+00 0.  1.
         21   -1    0    0  503  502 -0.00000000000E+00 -0.00000000000E+00 -0.86628020050E+01  0.86628020050E+01  0.00000000000E+00 0.  1.
         21    1    1    2  503  504 -0.76968284032E+01  0.19091337269E+02  0.50200797906E+01  0.21187768342E+02  0.00000000000E+00 0.  1.
         21    1    1    2  504  501  0.76968284032E+01 -0.19091337269E+02  0.18238790871E+03  0.18354582417E+03  0.00000000000E+00 0.  1.
</event>
<event>
 4    1  0.3372301E+006  0.3126591E+02  0.7546771E-02  0.1408906E+00
         21   -1    0    0  503  501  0.00000000000E+00  0.00000000000E+00  0.15884094445E+01  0.15884094445E+01  0.00000000000E+00 0.  1.
         21   -1    0    0  504  502 -0.00000000000E+00 -0.00000000000E+00 -0.61556484409E+03  0.61556484409E+03  0.00000000000E+00 0.  1.
         21    1    1    2  503  502  0.12051005971E+02  0.28850133807E+02 -0.30244398664E+03  0.30405578767E+03  0.00000000000E+00 0.  1.
         21    1    1    2  504  501 -0.12051005971E+02 -0.28850133807E+02 -0.31153244801E+03  0.31309746586E+03  0.00000000000E+00 0.  1.
</event>
<event>
 4    1  0.3372301E+006  0.1253189E+03  0.7546771E-02  0.1125991E+00
         21   -1    0    0  503  501  0.00000000000E+00  0.00000000000E+00  0.75604026879E+03  0.75604026879E+03  0.00000000000E+00 0. -1.
         21   -1    0    0  504  502 -0.00000000000E+00 -0.00000000000E+00 -0.40942861330E+02  0.40942861330E+02  0.00000000000E+00 0.  1.
         21    1    1    2  503  502  0.11946389384E+03 -0.37857809883E+02  0.63724520282E+03  0.64945075581E+03  0.00000000000E+00 0. -1.
         21    1    1    2  504  501 -0.11946389384E+03  0.37857809883E+02  0.77852204631E+02  0.14753237430E+03  0.00000000000E+00 0.  1.
</event>
<event>
 4    1  0.3372301E+006  0.2571417E+02  0.7546771E-02  0.1460970E+00
         21   -1    0    0  503  501  0.00000000000E+00  0.00000000000E+00  0.61086364687E+02  0.61086364687E+02  0.00000000000E+00 0.  1.
         21   -1    0    0  504  502 -0.00000000000E+00 -0.00000000000E+00 -0.56503134519E+02  0.56503134519E+02  0.00000000000E+00 0. -1.
         21    1    1    2  503  502  0.86808666245E+01 -0.24204569252E+02  0.55155571910E+02  0.60855202988E+02  0.00000000000E+00 0.  1.
         21    1    1    2  504  501 -0.86808666245E+01  0.24204569252E+02 -0.50572341742E+02  0.56734296218E+02  0.00000000000E+00 0. -1.
</event>
<event>
 4    1  0.3372301E+006  0.2512272E+02  0.7546771E-02  0.1467435E+00
         21   -1    0    0  504  501  0.00000000000E+00  0.00000000000E+00  0.92235532542E+03  0.92235532542E+03  0.00000000000E+00 0.  1.
         21   -1    0    0  501  502 -0.00000000000E+00 -0.00000000000E+00 -0.13150448573E+01  0.13150448573E+01  0.00000000000E+00 0. -1.
         21    1    1    2  503  502 -0.11218691835E+02  0.22478701246E+02  0.14066758627E+03  0.14289338992E+03  0.00000000000E+00 0. -1.
         21    1    1    2  504  503  0.11218691835E+02 -0.22478701246E+02  0.78037269429E+03  0.78077698036E+03  0.00000000000E+00 0.  1.
</event>
<event>
 4    1  0.3372301E+006  0.5287891E+02  0.7546771E-02  0.1286151E+00
         21   -1    0    0  503  501  0.00000000000E+00  0.00000000000E+00  0.14322284900E+03  0.14322284900E+03  0.00000000000E+00 0.  1.
         21   -1    0    0  504  502 -0.00000000000E+00 -0.00000000000E+00 -0.38834448132E+02  0.38834448132E+02  0.00000000000E+00 0.  1.
         21    1    1    2  503  502 -0.10401143994E+02 -0.51845876225E+02  0.11638516262E+03  0.12783459921E+03  0.00000000000E+00 0.  1.
         21    1    1    2  504  501  0.10401143994E+02  0.51845876225E+02 -0.11996761745E+02  0.54222697925E+02  0.00000000000E+00 0.  1.
</event>
<event>
 4    1  0.3372301E+006  0.2048498E+02  0.7546771E-02  0.1526747E+00
         21   -1    0    0  502  501  0.00000000000E+00  0.00000000000E+00  0.38209089101E+03  0.38209089101E+03  0.00000000000E+00 0. -1.
         21   -1    0    0  503  502 -0.00000000000E+00 -0.00000000000E+00 -0.12825952672E+02  0.12825952672E+02  0.00000000000E+00 0. -1.
         21    1    1    2  503  504  0.46404414339E+01  0.19952461885E+02 -0.41828242674E+01  0.20907664882E+02  0.00000000000E+00 0. -1.
         21    1    1    2  504  501 -0.46404414339E+01 -0.19952461885E+02  0.37344776260E+03  0.37400917880E+03  0.00000000000E+00 0. -1.
</event>
<event>
 4    1  0.3372301E+006  0.2652677E+02  0.7546771E-02  0.1452421E+00
         21   -1    0    0  503  501  0.00000000000E+00  0.00000000000E+00  0.16967949594E+03  0.16967949594E+03  0.00000000000E+00 0.  1.
         21   -1    0    0  504  502 -0.00000000000E+00 -0.00000000000E+00 -0.45328156922E+03  0.45328156922E+03  0.00000000000E+00 0. -1.
         21    1    1    2  503  502  0.26486211375E+02  0.14663209219E+01 -0.45185343519E+03  0.45263141339E+03  0.00000000000E+00 0. -1.
         21    1    1    2  504  501 -0.26486211375E+02 -0.14663209219E+01  0.16825136191E+03  0.17032965178E+03  0.00000000000E+00 0.  1.
</event>
<event>
 4    1  0.3372301E+006  0.2835913E+02  0.7546771E-02  0.1434413E+00
         21   -1    0    0  504  501  0.00000000000E+00  0.00000000000E+00  0.19818252406E+01  0.19818252406E+01  0.00000000000E+00 0.  1.
         21   -1    0    0  503  502 -0.00000000000E+00 -0.00000000000E+00 -0.48818524031E+03  0.48818524031E+03  0.00000000000E+00 0.  1.
         21    1    1    2  503  501  0.84830553125E+01  0.27060634961E+02 -0.14242572238E+03  0.14522164641E+03  0.00000000000E+00 0.  1.
         21    1    1    2  504  502 -0.84830553125E+01 -0.27060634961E+02 -0.34377769269E+03  0.34494541914E+03  0.00000000000E+00 0.  1.
</event>
<event>
 4    1  0.3372301E+006  0.2249105E+02  0.7546771E-02  0.1498990E+00
         21   -1    0    0  502  501  0.00000000000E+00  0.00000000000E+00  0.47187429236E+03  0.47187429236E+03  0.00000000000E+00 0.  1.
         21   -1    0    0  504  502 -0.00000000000E+00 -0.00000000000E+00 -0.25147922443E+01  0.25147922443E+01  0.00000000000E+00 0.  1.
         21    1    1    2  503  501  0.20018675214E+02 -0.10251816989E+02  0.41434174410E+03  0.41495171769E+03  0.00000000000E+00 0.  1.
         21    1    1    2  504  503 -0.20018675214E+02  0.10251816989E+02  0.55017756019E+02  0.59437366919E+02  0.00000000000E+00 0.  1.
</event>
<event>
 4    1  0.3372301E+006  0.2021649E+02  0.7546771E-02  0.1530752E+00
         21   -1    0    0  503  501  0.00000000000E+00  0.00000000000E+00  0.18754820181E+03  0.18754820181E+03  0.00000000000E+00 0.  1.
         21   -1    0    0  504  502 -0.00000000000E+00 -0.00000000000E+00 -0.30608589297E+01  0.30608589297E+01  0.00000000000E+00 0.  1.
         21    1    1    2  503  502  0.85433734592E+00 -0.20198433213E+02  0.41094317618E+02  0.45797920663E+02  0.00000000000E+00 0.  1.
         21    1    1    2  504  501 -0.85433734592E+00  0.20198433213E+02  0.14339302526E+03  0.14481114008E+03  0.00000000000E+00 0.  1.
</event>
<event>
 4    1  0.3372301E+006  0.2842881E+02  0.7546771E-02  0.1433760E+00
         21   -1    0    0  502  501  0.00000000000E+00  0.00000000000E+00  0.17225059658E+02  0.17225059658E+02  0.00000000000E+00 0.  1.
         21   -1    0    0  504  502 -0.00000000000E+00 -0.00000000000E+00 -0.48700364324E+02  0.48700364324E+02  0.00000000000E+00 0.  1.
         21    1    1    2  503  501 -0.27118888500E+02 -0.85301178720E+01 -0.22040414497E+02  0.35971890353E+02  0.00000000000E+00 0.  1.
         21    1    1    2  504  503  0.27118888500E+02  0.85301178720E+01 -0.94348901682E+01  0.29953533629E+02  0.00000000000E+00 0.  1.
</event>
<event>
 4    1  0.3372301E+006  0.3643132E+02  0.7546771E-02  0.1370770E+00
         21   -1    0    0  503  501  0.00000000000E+00  0.00000000000E+00  0.15322805636E+02  0.15322805636E+02  0.00000000000E+00 0. -1.
         21   -1    0    0  504  502 -0.00000000000E+00 -0.00000000000E+00 -0.11976510365E+03  0.11976510365E+03  0.00000000000E+00 0. -1.
         21    1    1    2  503  502 -0.16481480355E+02  0.32490021859E+02 -0.87754804072E+02  0.95016558308E+02  0.00000000000E+00 0. -1.
         21    1    1    2  504  501  0.16481480355E+02 -0.32490021859E+02 -0.16687493942E+02  0.40071350978E+02  0.00000000000E+00 0. -1.
</event>
<event>
 4    1  0.3372301E+006  0.2650888E+02  0.7546771E-02  0.1452605E+00
         21   -1    0    0  504  501  0.00000000000E+00  0.00000000000E+00  0.95081724505E+01  0.95081724505E+01  0.00000000000E+00 0.  1.
         21   -1    0    0  503  502 -0.00000000000E+00 -0.00000000000E+00 -0.74312552282E+02  0.74312552282E+02  0.00000000000E+00 0.  1.
         21    1    1    2  503  501  0.23718413334E+02  0.11838819977E+02 -0.35498165458E+02  0.44303956261E+02  0.00000000000E+00 0.  1.
         21    1    1    2  504  502 -0.23718413334E+02 -0.11838819977E+02 -0.29306214373E+02  0.39516768471E+02  0.00000000000E+00 0.  1.
</event>
<event>
 4    1  0.3372301E+006  0.2040191E+02  0.7546771E-02  0.1527978E+00
         21   -1    0    0  502  501  0.00000000000E+00  0.00000000000E+00  0.95924894433E+02  0.95924894433E+02  0.00000000000E+00 0. -1.
         21   -1    0    0  504  502 -0.00000000000E+00 -0.00000000000E+00 -0.24574147122E+02  0.24574147122E+02  0.00000000000E+00 0. -1.
         21    1    1    2  503  501  0.16995867907E+02  0.11286211888E+02  0.90347418414E+02  0.92622319766E+02  0.00000000000E+00 0. -1.
         21    1    1    2  504  503 -0.16995867907E+02 -0.11286211888E+02 -0.18996671103E+02  0.27876721789E+02  0.00000000000E+00 0. -1.
</event>
<event>
 4    1  0.3372301E+006  0.2576071E+02  0.7546771E-02  0.1460471E+00
         21   -1    0    0  503  501  0.00000000000E+00  0.00000000000E+00  0.10553219052E+03  0.10553219052E+03  0.00000000000E+00 0.  1.
         21   -1    0    0  504  502 -0.00000000000E+00 -0.00000000000E+00 -0.82204391137E+01  0.82204391137E+01  0.00000000000E+00 0.  1.
         21    1    1    2  503  502  0.95206541965E+01  0.23936814539E+02  0.76230368460E+02  0.80465415068E+02  0.00000000000E+00 0.  1.
         21    1    1    2  504  501 -0.95206541965E+01 -0.23936814539E+02  0.21081382948E+02  0.33287214566E+02  0.00000000000E+00 0.  1.
</event>
<event>
 4    1  0.3372301E+006  0.4355502E+02  0.7546771E-02  0.1328825E+00
         21   -1    0    0  503  501  0.00000000000E+00  0.00000000000E+00  0.46634433637E+02  0.46634433637E+02  0.00000000000E+00 0. -1.
         21   -1    0    0  504  502 -0.00000000000E+00 -0.00000000000E+00 -0.40776597696E+02  0.40776597696E+02  0.00000000000E+00 0.  1.
         21    1    1    2  503  502 -0.19775034813E+01 -0.43510101496E+02  0.50677568086E+01  0.43848849600E+02  0.00000000000E+00 0. -1.
         21    1    1    2  504  501  0.19775034813E+01  0.43510101496E+02  0.79007913217E+00  0.43562181732E+02  0.00000000000E+00 0.  1.
</event>
<event>
 4    1  0.3372301E+006  0.2298546E+02  0.7546771E-02  0.1492681E+00
         21   -1    0    0  503  501  0.00000000000E+00  0.00000000000E+00  0.25673200182E+02  0.25673200182E+02  0.00000000000E+00 0.  1.
         21   -1    0    0  504  502 -0.00000000000E+00 -0.00000000000E+00 -0.25165783644E+03  0.25165783644E+03  0.00000000000E+00 0. -1.
         21    1    1    2  503  502 -0.80786490663E+01 -0.21518989589E+02 -0.24586730584E+03  0.24693939249E+03  0.00000000000E+00 0. -1.
         21    1    1    2  504  501  0.80786490663E+01  0.21518989589E+02  0.19882669577E+02  0.30391644134E+02  0.00000000000E+00 0.  1.
</event>
<event>
 4    1  0.3372301E+006  0.2081778E+02  0.7546771E-02  0.1521883E+00
         21   -1    0    0  503  501  0.00000000000E+00  0.00000000000E+00  0.47060060878E+02  0.47060060878E+02  0.00000000000E+00 0. -1.
         21   -1    0    0  501  502 -0.00000000000E+00 -0.00000000000E+00 -0.25639403528E+02  0.25639403528E+02  0.00000000000E+00 0.  1.
         21    1    1    2  503  504  0.19590014601E+02  0.70435145257E+01  0.39808811217E+02  0.44923504087E+02  0.00000000000E+00 0. -1.
         21    1    1    2  504  502 -0.19590014601E+02 -0.70435145257E+01 -0.18388153867E+02  0.27775960318E+02  0.00000000000E+00 0.  1.
</event>
<event>
 4    1  0.3372301E+006  0.5559711E+02  0.7546771E-02  0.1275573E+00
         21   -1    0    0  502  501  0.00000000000E+00  0.00000000000E+00  0.40097643765E+02  0.40097643765E+02  0.00000000000E+00 0. -1.
         21   -1    0    0  504  502 -0.00000000000E+00 -0.00000000000E+00 -0.12087710292E+03  0.12087710292E+03  0.00000000000E+00 0. -1.
         21    1    1    2  503  501 -0.55594502366E+02  0.53888890089E+00  0.80542436228E+01  0.56177486015E+02  0.00000000000E+00 0. -1.
         21    1    1    2  504  503  0.55594502366E+02 -0.53888890089E+00 -0.88833702776E+02  0.10479726067E+03  0.00000000000E+00 0. -1.
</event>
<event>
 4    1  0.3372301E+006  0.2019756E+02  0.7546771E-02  0.1531037E+00
         21   -1    0    0  502  501  0.00000000000E+00  0.00000000000E+00  0.34121076457E+03  0.34121076457E+03  0.00000000000E+00 0.  1.
         21   -1    0    0  504  502 -0.00000000000E+00 -0.00000000000E+00 -0.11481101371E+02  0.11481101371E+02  0.00000000000E+00 0.  1.
         21    1    1    2  503  501  0.12435965642E+02  0.15915025328E+02  0.33177663284E+03  0.33239084731E+03  0.00000000000E+00 0.  1.
         21    1    1    2  504  503 -0.12435965642E+02 -0.15915025328E+02 -0.20469696501E+01  0.20301018629E+02  0.00000000000E+00 0.  1.
</event>
<event>
 4    1  0.3372301E+006  0.2500466E+02  0.7546771E-02  0.1468751E+00
         21   -1    0    0  503  501  0.00000000000E+00  0.00000000000E+00  0.66056976659E+02  0.66056976659E+02  0.00000000000E+00 0.  1.
         21   -1    0    0  504  502 -0.00000000000E+00 -0.00000000000E+00 -0.43740187898E+02  0.43740187898E+02  0.00000000000E+00 0.  1.
         21    1    1    2  503  502  0.20959898597E+02 -0.13635095267E+02 -0.37438705898E+02  0.45020993675E+02  0.00000000000E+00 0.  1.
         21    1    1    2  504  501 -0.20959898597E+02  0.13635095267E+02  0.59755494659E+02  0.64776170882E+02  0.00000000000E+00 0.  1.
</event>
<event>
 4    1  0.3372301E+006  0.2341987E+02  0.7546771E-02  0.1487292E+00
         21   -1    0    0  504  501  0.00000000000E+00  0.00000000000E+00  0.62353468044E+03  0.62353468044E+03  0.00000000000E+00 0.  1.
         21   -1    0    0  503  502 -0.00000000000E+00 -0.00000000000E+00 -0.13955378821E+01  0.13955378821E+01  0.00000000000E+00 0.  1.
         21    1    1    2  503  501 -0.20542157676E+02  0.11247671847E+02  0.12108878858E+03  0.12333282242E+03  0.00000000000E+00 0.  1.
         21    1    1    2  504  502  0.20542157676E+02 -0.11247671847E+02  0.50105035397E+03  0.50159739590E+03  0.00000000000E+00 0.  1.
</event>
<event>
 4    1  0.3372301E+006  0.2410453E+02  0.7546771E-02  0.1479075E+00
         21   -1    0    0  503  501  0.00000000000E+00  0.00000000000E+00  0.11974525413E+03  0.11974525413E+03  0.00000000000E+00 0. -1.
         21   -1    0    0  504  502 -0.00000000000E+00 -0.00000000000E+00 -0.29806813595E+02  0.29806813595E+02  0.00000000000E+00 0. -1.
         21    1    1    2  503  502  0.24083149673E+02  0.10150372971E+01  0.11338874304E+03  0.11592254072E+03  0.00000000000E+00 0. -1.
         21    1    1    2  504  501 -0.24083149673E+02 -0.10150372971E+01 -0.23450302506E+02  0.33629527004E+02  0.00000000000E+00 0. -1.
</event>
<event>
 4    1  0.3372301E+006  0.2112926E+02  0.7546771E-02  0.1517427E+00
         21   -1    0    0  504  501  0.00000000000E+00  0.00000000000E+00  0.17187235659E+03  0.17187235659E+03  0.00000000000E+00 0.  1.
         21   -1    0    0  503  502 -0.00000000000E+00 -0.00000000000E+00 -0.33817571693E+01  0.33817571693E+01  0.00000000000E+00 0.  1.
         21    1    1    2  503  501  0.94120863351E+00  0.21108285883E+02  0.12644260606E+03  0.12819585888E+03  0.00000000000E+00 0.  1.
         21    1    1    2  504  502 -0.94120863351E+00 -0.21108285883E+02  0.42047993355E+02  0.47058254874E+02  0.00000000000E+00 0.  1.
</event>
<event>
 4    1  0.3372301E+006  0.2948339E+02  0.7546771E-02  0.1424140E+00
         21   -1    0    0  504  501  0.00000000000E+00  0.00000000000E+00  0.20603544721E+02  0.20603544721E+02  0.00000000000E+00 0. -1.
         21   -1    0    0  503  502 -0.00000000000E+00 -0.00000000000E+00 -0.20175872961E+03  0.20175872961E+03  0.00000000000E+00 0. -1.
         21    1    1    2  503  501 -0.23110842127E+02  0.18307353433E+02  0.82978404894E+01  0.30628816013E+02  0.00000000000E+00 0. -1.
         21    1    1    2  504  502  0.23110842127E+02 -0.18307353433E+02 -0.18945302537E+03  0.19173345831E+03  0.00000000000E+00 0. -1.
</event>
<event>
 4    1  0.3372301E+006  0.2069912E+02  0.7546771E-02  0.1523604E+00
         21   -1    0    0  503  501  0.00000000000E+00  0.00000000000E+00  0.16872771871E+03  0.16872771871E+03  0.00000000000E+00 0. -1.
         21   -1    0    0  501  502 -0.00000000000E+00 -0.00000000000E+00 -0.21874373917E+02  0.21874373917E+02  0.00000000000E+00 0. -1.
         21    1    1    2  503  504 -0.12909797151E+02  0.16179951060E+02  0.16302554523E+03  0.16433436061E+03  0.00000000000E+00 0. -1.
         21    1    1    2  504  502  0.12909797151E+02 -0.16179951060E+02 -0.16172200433E+02  0.26267732023E+02  0.00000000000E+00 0. -1.
</event>
<event>
 4    1  0.3372301E+006  0.2829561E+02  0.7546771E-02  0.1435010E+00
         21   -1    0    0  504  501  0.00000000000E+00  0.00000000000E+00  0.12322368199E+02  0.12322368199E+02  0.00000000000E+00 0. -1.
         21   -1    0    0  503  502 -0.00000000000E+00 -0.00000000000E+00 -0.66063819149E+02  0.66063819149E+02  0.00000000000E+00 0. -1.
         21    1    1    2  503  501  0.22428490167E+02  0.17251206031E+02 -0.21838270394E+02  0.35742850117E+02  0.00000000000E+00 0. -1.
         21    1    1    2  504  502 -0.22428490167E+02 -0.17251206031E+02 -0.31903180556E+02  0.42643337231E+02  0.00000000000E+00 0. -1.
</event>
<event>
 4    1  0.3372301E+006  0.4327065E+02  0.7546771E-02  0.1330317E+00
         21   -1    0    0  502  501  0.00000000000E+00  0.00000000000E+00  0.50836574206E+02  0.50836574206E+02  0.00000000000E+00 0. -1.
         21   -1    0    0  504  502 -0.00000000000E+00 -0.00000000000E+00 -0.13940733864E+03  0.13940733864E+03  0.00000000000E+00 0. -1.
         21    1    1    2  503  501 -0.10784566903E+02 -0.41905162420E+02  0.37309339683E+02  0.57134370989E+02  0.00000000000E+00 0. -1.
         21    1    1    2  504  503  0.10784566903E+02  0.41905162420E+02 -0.12588010411E+03  0.13310954185E+03  0.00000000000E+00 0. -1.
</event>
<event>
 4    1  0.3372301E+006  0.2287198E+02  0.7546771E-02  0.1494112E+00
         21   -1    0    0  504  501  0.00000000000E+00  0.00000000000E+00  0.63915746168E+02  0.63915746168E+02  0.00000000000E+00 0.  1.
         21   -1    0    0  503  502 -0.00000000000E+00 -0.00000000000E+00 -0.82301019143E+01  0.82301019143E+01  0.00000000000E+00 0.  1.
         21    1    1    2  503  501 -0.13030770158E+02 -0.18796980043E+02  0.25161812663E+02  0.34003591665E+02  0.00000000000E+00 0.  1.
         21    1    1    2  504  502  0.13030770158E+02  0.18796980043E+02  0.30523831590E+02  0.38142256417E+02  0.00000000000E+00 0.  1.
</event>
<event>
 4    1  0.3372301E+006  0.2786826E+02  0.7546771E-02  0.1439076E+00
         21   -1    0    0  503  501  0.00000000000E+00  0.00000000000E+00  0.10017911264E+03  0.10017911264E+03  0.00000000000E+00 0.  1.
         21   -1    0    0  504  502 -0.00000000000E+00 -0.00000000000E+00 -0.11052235919E+02  0.11052235919E+02  0.00000000000E+00 0. -1.
         21    1    1    2  503  502 -0.31161748750E+00 -0.27866516029E+02  0.14174823542E+02  0.31266042978E+02  0.00000000000E+00 0. -1.
         21    1    1    2  504  501  0.31161748750E+00  0.27866516029E+02  0.74952053181E+02  0.79965305584E+02  0.00000000000E+00 0.  1.
</event>
<event>
 4    1  0.3372301E+006  0.4488624E+02  0.7546771E-02  0.1322009E+00
         21   -1    0    0  504  501  0.00000000000E+00  0.00000000000E+00  0.70680807339E+02  0.70680807339E+02  0.00000000000E+00 0. -1.
         21   -1    0    0  503  502 -0.00000000000E+00 -0.00000000000E+00 -0.90408618068E+02  0.90408618068E+02  0.00000000000E+00 0. -1.
         21    1    1    2  503  501 -0.54622269035E+00 -0.44882913216E+02  0.56784421612E+02  0.72382627721E+02  0.00000000000E+00 0. -1.
         21    1    1    2  504  502  0.54622269035E+00  0.44882913216E+02 -0.76512232341E+02  0.88706797686E+02  0.00000000000E+00 0. -1.
</event>
<event>
 4    1  0.3372301E+006  0.2496409E+02  0.7546771E-02  0.1469206E+00
         21   -1    0    0  503  501  0.00000000000E+00  0.00000000000E+00  0.34468350396E+03  0.34468350396E+03  0.00000000000E+00 0. -1.
         21   -1    0    0  504  502 -0.00000000000E+00 -0.00000000000E+00 -0.56806643309E+02  0.56806643309E+02  0.00000000000E+00 0.  1.
         21    1    1    2  503  502  0.14002390001E+02 -0.20667339564E+02 -0.53586134529E+02  0.59115815685E+02  0.00000000000E+00 0.  1.
         21    1    1    2  504  501 -0.14002390001E+02  0.20667339564E+02  0.34146299518E+03  0.34237433159E+03  0.00000000000E+00 0. -1.
</event>
<event>
 4    1  0.3372301E+006  0.4182389E+02  0.7546771E-02  0.1338117E+00
         21   -1    0    0  504  501  0.00000000000E+00  0.00000000000E+00  0.47720791492E+02  0.47720791492E+02  0.00000000000E+00 0. -1.
         21   -1    0    0  503  502 -0.00000000000E+00 -0.00000000000E+00 -0.36794977906E+02  0.36794977906E+02  0.00000000000E+00 0. -1.
         21    1    1    2  503  501 -0.18749758300E+02 -0.37385616762E+02  0.28627765995E+01  0.41921751715E+02  0.00000000000E+00 0. -1.
         21    1    1    2  504  502  0.18749758300E+02  0.37385616762E+02  0.80630369857E+01  0.42594017683E+02  0.00000000000E+00 0. -1.
</event>
<event>
 4    1  0.3372301E+006  0.2009260E+02  0.7546771E-02  0.1532625E+00
         21   -1    0    0  503  501  0.00000000000E+00  0.00000000000E+00  0.50274220291E+02  0.50274220291E+02  0.00000000000E+00 0.  1.
         21   -1    0    0  504  502 -0.00000000000E+00 -0.00000000000E+00 -0.88728016530E+02  0.88728016530E+02  0.00000000000E+00 0. -1.
         21    1    1    2  503  502 -0.13567270416E+01  0.20046738480E+02  0.47054594200E+02  0.51164902690E+02  0.00000000000E+00 0.  1.
         21    1    1    2  504  501  0.13567270416E+01 -0.20046738480E+02 -0.85508390438E+02  0.87837334131E+02  0.00000000000E+00 0. -1.
</event>
<event>
 4    1  0.3372301E+006  0.2216904E+02  0.7546771E-02  0.1503205E+00
         21   -1    0    0  503  501  0.00000000000E+00  0.00000000000E+00  0.90287977973E+00  0.90287977973E+00  0.00000000000E+00 0.  1.
         21   -1    0    0  501  502 -0.00000000000E+00 -0.00000000000E+00 -0.85006177430E+03  0.85006177430E+03  0.00000000000E+00 0.  1.
         21    1    1    2  503  504  0.17513785111E+02  0.13591671371E+02 -0.16941199740E+03  0.17085634627E+03  0.00000000000E+00 0.  1.
         21    1    1    2  504  502 -0.17513785111E+02 -0.13591671371E+02 -0.67974689713E+03  0.68010830781E+03  0.00000000000E+00 0.  1.
</event>
<event>
 4    1  0.3372301E+006  0.2364181E+02  0.7546771E-02  0.1484592E+00
         21   -1    0    0  504  501  0.00000000000E+00  0.00000000000E+00  0.21044053940E+02  0.21044053940E+02  0.00000000000E+00 0.  1.
         21   -1    0    0  503  502 -0.00000000000E+00 -0.00000000000E+00 -0.39041521464E+02  0.39041521464E+02  0.00000000000E+00 0.  1.
         21    1    1    2  503  501  0.21825029593E+02 -0.90886402666E+01  0.79878601832E+01  0.24954783288E+02  0.00000000000E+00 0.  1.
         21    1    1    2  504  502 -0.21825029593E+02  0.90886402666E+01 -0.25985327707E+02  0.35130792116E+02  0.00000000000E+00 0.  1.
</event>
<event>
 4    1  0.3372301E+006  0.2195476E+02  0.7546771E-02  0.1506057E+00
         21   -1    0    0  504  501  0.00000000000E+00  0.00000000000E+00  0.14703499896E+03  0.14703499896E+03  0.00000000000E+00 0. -1.
         21   -1    0    0  501  502 -0.00000000000E+00 -0.00000000000E+00 -0.61963813944E+01  0.61963813944E+01  0.00000000000E+00 0. -1.
         21    1    1    2  503  502  0.16291356780E+02  0.14717449756E+02  0.17841312568E+02  0.28289999421E+02  0.00000000000E+00 0. -1.
         21    1    1    2  504  503 -0.16291356780E+02 -0.14717449756E+02  0.12299730500E+03  0.12494138094E+03  0.00000000000E+00 0. -1.
</event>
<event>
 4    1  0.3372301E+006  0.2573709E+02  0.7546771E-02  0.1460724E+00
         21   -1    0    0  503  501  0.00000000000E+00  0.00000000000E+00  0.72634016191E+02  0.72634016191E+02  0.00000000000E+00 0.  1.
         21   -1    0    0  501  502 -0.00000000000E+00 -0.00000000000E+00 -0.33724892921E+02  0.33724892921E+02  0.00000000000E+00 0.  1.
         21    1    1    2  503  504  0.19958630033E+02 -0.16249643807E+02  0.64878239175E+02  0.69796731694E+02  0.00000000000E+00 0.  1.
         21    1    1    2  504  502 -0.19958630033E+02  0.16249643807E+02 -0.25969115905E+02  0.36562177418E+02  0.00000000000E+00 0.  1.
</event>
<event>
 4    1  0.3372301E+006  0.2148807E+02  0.7546771E-02  0.1512409E+00
         21   -1    0    0  504  501  0.00000000000E+00  0.00000000000E+00  0.68616671830E+02  0.68616671830E+02  0.00000000000E+00 0. -1.
         21   -1    0    0  503  502 -0.00000000000E+00 -0.00000000000E+00 -0.21628715339E+02  0.21628715339E+02  0.00000000000E+00 0.  1.
         21    1    1    2  503  501  0.20675673531E+02 -0.58526804350E+01 -0.13957183376E+02  0.25623042599E+02  0.00000000000E+00 0.  1.
         21    1    1    2  504  502 -0.20675673531E+02  0.58526804350E+01  0.60945139867E+02  0.64622344569E+02  0.00000000000E+00 0. -1.
</event>
<event>
 4    1  0.3372301E+006  0.2478529E+02  0.7546771E-02  0.1471220E+00
         21   -1    0    0  503  501  0.00000000000E+00  0.00000000000E+00  0.60929135175E+01  0.60929135175E+01  0.00000000000E+00 0.  1.
         21   -1    0    0  504  502 -0.00000000000E+00 -0.00000000000E+00 -0.16143623755E+03  0.16143623755E+03  0.00000000000E+00 0.  1.
         21    1    1    2  503  502  0.13773191525E+02  0.20606058936E+02 -0.12899807158E+03  0.13135757664E+03  0.00000000000E+00 0.  1.
         21    1    1    2  504  501 -0.13773191525E+02 -0.20606058936E+02 -0.26345252451E+02  0.36171574425E+02  0.00000000000E+00 0.  1.
</event>
<event>
 4    1  0.3372301E+006  0.3173187E+02  0.7546771E-02  0.1405121E+00
         21   -1    0    0  503  501  0.00000000000E+00  0.00000000000E+00  0.73814018381E+02  0.73814018381E+02  0.00000000000E+00 0.  1.
         21   -1    0    0  501  502 -0.00000000000E+00 -0.00000000000E+00 -0.25705558886E+03  0.25705558886E+03  0.00000000000E+00 0.  1.
         21    1    1    2  503  504  0.35734444733E+01  0.31530016273E+02  0.69364611672E+02  0.76278180261E+02  0.00000000000E+00 0.  1.
         21    1    1    2  504  502 -0.35734444733E+01 -0.31530016273E+02 -0.25260618215E+03  0.25459142698E+03  0.00000000000E+00 0.  1.
</event>
<event>
 4    1  0.3372301E+006  0.2108146E+02  0.7546771E-02  0.1518105E+00
         21   -1    0    0  503  501  0.00000000000E+00  0.00000000000E+00  0.35756658784E+03  0.35756658784E+03  0.00000000000E+00 0. -1.
         21   -1    0    0  504  502 -0.00000000000E+00 -0.00000000000E+00 -0.18465755953E+02  0.18465755953E+02  0.00000000000E+00 0.  1.
         21    1    1    2  503  502  0.19132282819E+02 -0.88534562838E+01  0.35112871683E+03  0.35176100369E+03  0.00000000000E+00 0. -1.
         21    1    1    2  504  501 -0.19132282819E+02  0.88534562838E+01 -0.12027884946E+02  0.24271340101E+02  0.00000000000E+00 0.  1.
</event>
<event>
 4    1  0.3372301E+006  0.2237060E+02  0.7546771E-02  0.1500556E+00
         21   -1    0    0  503  501  0.00000000000E+00  0.00000000000E+00  0.23448801206E+03  0.23448801206E+03  0.00000000000E+00 0.  1.
         21   -1    0    0  504  502 -0.00000000000E+00 -0.00000000000E+00 -0.23179527326E+02  0.23179527326E+02  0.00000000000E+00 0.  1.
         21    1    1    2  503  502 -0.25631788244E+01 -0.22223275263E+02  0.22841379289E+03  0.22950665488E+03  0.00000000000E+00 0.  1.
         21    1    1    2  504  501  0.25631788244E+01  0.22223275263E+02 -0.17105308159E+02  0.28160884508E+02  0.00000000000E+00 0.  1.
</event>
<event>
 4    1  0.3372301E+006  0.2796904E+02  0.7546771E-02  0.1438109E+00
         21   -1    0    0  504  501  0.00000000000E+00  0.00000000000E+00  0.46117602345E+03  0.46117602345E+03  0.00000000000E+00 0.  1.
         21   -1    0    0  503  502 -0.00000000000E+00 -0.00000000000E+00 -0.40340610496E+01  0.40340610496E+01  0.00000000000E+00 0.  1.
         21    1    1    2  503  501 -0.21836778187E+02 -0.17476334840E+02  0.51497660148E+02  0.58602697564E+02  0.00000000000E+00 0.  1.
         21    1    1    2  504  502  0.21836778187E+02  0.17476334840E+02  0.40564430225E+03  0.40660738693E+03  0.00000000000E+00 0.  1.
</event>
<event>
 4    1  0.3372301E+006  0.2384513E+02  0.7546771E-02  0.1482150E+00
         21   -1    0    0  503  501  0.00000000000E+00  0.00000000000E+00  0.40026648159E+01  0.40026648159E+01  0.00000000000E+00 0.  1.
         21   -1    0    0  501  502 -0.00000000000E+00 -0.00000000000E+00 -0.16346461651E+03  0.16346461651E+03  0.00000000000E+00 0.  1.
         21    1    1    2  503  504 -0.20450181786E+02 -0.12262968076E+02 -0.11003591317E+03  0.11258993076E+03  0.00000000000E+00 0.  1.
         21    1    1    2  504  502  0.20450181786E+02  0.12262968076E+02 -0.49426038526E+02  0.54877350569E+02  0.00000000000E+00 0.  1.
</event>
<event>
 4    1  0.3372301E+006  0.2298931E+02  0.7546771E-02  0.1492632E+00
         21   -1    0    0  503  501  0.00000000000E+00  0.00000000000E+00  0.23915217535E+02  0.23915217535E+02  0.00000000000E+00 0.  1.
         21   -1    0    0  504  502 -0.00000000000E+00 -0.00000000000E+00 -0.40184898147E+02  0.40184898147E+02  0.00000000000E+00 0. -1.
         21    1    1    2  503  502  0.22962333465E+02  0.11134308693E+01  0.13366442055E+02  0.26592673045E+02  0.00000000000E+00 0.  1.
         21    1    1    2  504  501 -0.22962333465E+02 -0.11134308693E+01 -0.29636122667E+02  0.37507442637E+02  0.00000000000E+00 0. -1.
</event>
<event>
 4    1  0.3372301E+006  0.3768288E+02  0.7546771E-02  0.1362626E+00
         21   -1    0    0  502  501  0.00000000000E+00  0.00000000000E+00  0.16559160509E+02  0.16559160509E+02  0.00000000000E+00 0.  1.
         21   -1    0    0  503  502 -0.00000000000E+00 -0.00000000000E+00 -0.12626972096E+03  0.12626972096E+03  0.00000000000E+00 0.  1.
         21    1    1    2  503  504 -0.37101342509E+02 -0.65946750246E+01 -0.95308494595E+02  0.10248760167E+03  0.00000000000E+00 0.  1.
         21    1    1    2  504  501  0.37101342509E+02  0.65946750246E+01 -0.14402065854E+02  0.40341279795E+02  0.00000000000E+00 0.  1.
</event>
<event>
 4    1  0.3372301E+006  0.3261337E+02  0.7546771E-02  0.1398166E+00
         21   -1    0    0  502  501  0.00000000000E+00  0.00000000000E+00  0.49386640169E+02  0.49386640169E+02  0.00000000000E+00 0. -1.
         21   -1    0    0  504  502 -0.00000000000E+00 -0.00000000000E+00 -0.61780862928E+02  0.61780862928E+02  0.00000000000E+00 0. -1.
         21    1    1    2  503  501 -0.36562868848E+01  0.32407767466E+02  0.38664162507E+02  0.50582104428E+02  0.00000000000E+00 0. -1.
         21    1    1    2  504  503  0.36562868848E+01 -0.32407767466E+02 -0.51058385266E+02  0.60585398670E+02  0.00000000000E+00 0. -1.
</event>
<event>
 4    1  0.3372301E+006  0.2229151E+02  0.7546771E-02  0.1501592E+00
         21   -1    0    0  503  501  0.00000000000E+00  0.00000000000E+00  0.22054860055E+03  0.22054860055E+03  0.00000000000E+00 0.  1.
         21   -1    0    0  504  502 -0.00000000000E+00 -0.00000000000E+00 -0.22548688810E+01  0.22548688810E+01  0.00000000000E+00 0.  1.
         21    1    1    2  503  502 -0.18364129507E+02 -0.12636064368E+02  0.11229363929E+03  0.11448481472E+03  0.00000000000E+00 0.  1.
         21    1    1    2  504  501  0.18364129507E+02  0.12636064368E+02  0.10600009238E+03  0.10831865472E+03  0.00000000000E+00 0.  1.
</event>
<event>
 4    1  0.3372301E+006  0.2595961E+02  0.7546771E-02  0.1458348E+00
         21   -1    0    0  502  501  0.00000000000E+00  0.00000000000E+00  0.10383289563E+02  0.10383289563E+02  0.00000000000E+00 0.  1.
         21   -1    0    0  504  502 -0.00000000000E+00 -0.00000000000E+00 -0.89036211748E+02  0.89036211748E+02  0.00000000000E+00 0.  1.
         21    1    1    2  503  501 -0.18517742003E+02  0.18193254606E+02 -0.13446092650E+02  0.29235230281E+02  0.00000000000E+00 0.  1.
         21    1    1    2  504  503  0.18517742003E+02 -0.18193254606E+02 -0.65206829535E+02  0.70184271031E+02  0.00000000000E+00 0.  1.
</event>
<event>
 4    1  0.3372301E+006  0.2849045E+02  0.7546771E-02  0.1433185E+00
         21   -1    0    0  503  501  0.00000000000E+00  0.00000000000E+00  0.97415412949E+01  0.97415412949E+01  0.00000000000E+00 0. -1.
         21   -1    0    0  504  502 -0.00000000000E+00 -0.00000000000E+00 -0.10464430301E+03  0.10464430301E+03  0.00000000000E+00 0. -1.
         21    1    1    2  503  502  0.11182335259E+02 -0.26204222478E+02 -0.21635949306E+02  0.35774574769E+02  0.00000000000E+00 0. -1.
         21    1    1    2  504  501 -0.11182335259E+02  0.26204222478E+02 -0.73266812411E+02  0.78611269538E+02  0.00000000000E+00 0. -1.
</event>
<event>
 4    1  0.3372301E+006  0.3462861E+02  0.7546771E-02  0.1383193E+00
         21   -1    0    0  502  501  0.00000000000E+00  0.00000000000E+00  0.53969352833E+02  0.53969352833E+02  0.00000000000E+00 0. -1.
         21   -1    0    0  503  502 -0.00000000000E+00 -0.00000000000E+00 -0.29307334539E+02  0.29307334539E+02  0.00000000000E+00 0. -1.
         21    1    1    2  503  504  0.26197049132E+02  0.22646312701E+02 -0.81466243217E+01  0.35573984174E+02  0.00000000000E+00 0. -1.
         21    1    1    2  504  501 -0.26197049132E+02 -0.22646312701E+02  0.32808642616E+02  0.47702703198E+02  0.00000000000E+00 0. -1.
</event>
<event>
 4    1  0.3372301E+006  0.2011533E+02  0.7546771E-02  0.1532280E+00
         21   -1    0    0  503  501  0.00000000000E+00  0.00000000000E+00  0.43855565074E+01  0.43855565074E+01  0.00000000000E+00 0. -1.
         21   -1    0    0  504  502 -0.00000000000E+00 -0.00000000000E+00 -0.25825584979E+03  0.25825584979E+03  0.00000000000E+00 0.  1.
         21    1    1    2  503  502 -0.20108199378E+02  0.53572349487E+00 -0.23221667603E+03  0.23308627439E+03  0.00000000000E+00 0.  1.
         21    1    1    2  504  501  0.20108199378E+02 -0.53572349487E+00 -0.21653617244E+02  0.29555131901E+02  0.00000000000E+00 0. -1.
</event>
<event>
 4    1  0.3372301E+006  0.2166479E+02  0.7546771E-02  0.1509981E+00
         21   -1    0    0  504  501  0.00000000000E+00  0.00000000000E+00  0.10318991040E+03  0.10318991040E+03  0.00000000000E+00 0. -1.
         21   -1    0    0  501  502 -0.00000000000E+00 -0.00000000000E+00 -0.15138956063E+02  0.15138956063E+02  0.00000000000E+00 0. -1.
         21    1    1    2  503  502  0.51881185236E+01  0.21034415270E+02 -0.54590360306E+01  0.22341984557E+02  0.00000000000E+00 0. -1.
         21    1    1    2  504  503 -0.51881185236E+01 -0.21034415270E+02  0.93509990364E+02  0.95986881903E+02  0.00000000000E+00 0. -1.
</event>
<event>
 4    1  0.3372301E+006  0.3456033E+02  0.7546771E-02  0.1383681E+00
         21   -1    0    0  504  501  0.00000000000E+00  0.00000000000E+00  0.42229206592E+03  0.42229206592E+03  0.00000000000E+00 0. -1.
         21   -1    0    0  503  502 -0.00000000000E+00 -0.00000000000E+00 -0.29076416725E+01  0.29076416725E+01  0.00000000000E+00 0. -1.
         21    1    1    2  503  501  0.34490110189E+02 -0.22019909654E+01  0.24478622941E+03  0.24721390449E+03  0.00000000000E+00 0. -1.
         21    1    1    2  504  502 -0.34490110189E+02  0.22019909654E+01  0.17459819484E+03  0.17798580310E+03  0.00000000000E+00 0. -1.
</event>
<event>
 4    1  0.3372301E+006  0.2866416E+02  0.7546771E-02  0.1431571E+00
         21   -1    0    0  503  501  0.00000000000E+00  0.00000000000E+00  0.30047143971E+03  0.30047143971E+03  0.00000000000E+00 0.  1.
         21   -1    0    0  504  502 -0.00000000000E+00 -0.00000000000E+00 -0.54398870168E+01  0.54398870168E+01  0.00000000000E+00 0.  1.
         21    1    1    2  503  502  0.27804015735E+02 -0.69692613076E+01  0.25538231114E+03  0.25698591155E+03  0.00000000000E+00 0.  1.
         21    1    1    2  504  501 -0.27804015735E+02  0.69692613076E+01  0.39649241560E+02  0.48925415179E+02  0.00000000000E+00 0.  1.
</event>
<event>
 4    1  0.3372301E+006  0.2274102E+02  0.7546771E-02  0.1495776E+00
         21   -1    0    0  504  501  0.00000000000E+00  0.00000000000E+00  0.17866569384E+03  0.17866569384E+03  0.00000000000E+00 0.  1.
         21   -1    0    0  501  502 -0.00000000000E+00 -0.00000000000E+00 -0.12941813617E+02  0.12941813617E+02  0.00000000000E+00 0. -1.
         21    1    1    2  503  502 -0.20897400234E+02 -0.89695325022E+01 -0.15510353239E+01  0.22793849180E+02  0.00000000000E+00 0. -1.
         21    1    1    2  504  503  0.20897400234E+02  0.89695325022E+01  0.16727491555E+03  0.16881365828E+03  0.00000000000E+00 0.  1.
</event>
<event>
 4    1  0.3372301E+006  0.2217857E+02  0.7546771E-02  0.1503079E+00
         21   -1    0    0  503  501  0.00000000000E+00  0.00000000000E+00  0.20509067152E+03  0.20509067152E+03  0.00000000000E+00 0. -1.
         21   -1    0    0  504  502 -0.00000000000E+00 -0.00000000000E+00 -0.35796479568E+02  0.35796479568E+02  0.00000000000E+00 0. -1.
         21    1    1    2  503  502  0.20499214659E+02 -0.84658878859E+01  0.20098580527E+03  0.20220579364E+03  0.00000000000E+00 0. -1.
         21    1    1    2  504  501 -0.20499214659E+02  0.84658878859E+01 -0.31691613321E+02  0.38681357451E+02  0.00000000000E+00 0. -1.
</event>
<event>
 4    1  0.3372301E+006  0.2951663E+02  0.7546771E-02  0.1423844E+00
         21   -1    0    0  503  501  0.00000000000E+00  0.00000000000E+00  0.32111357591E+03  0.32111357591E+03  0.00000000000E+00 0. -1.
         21   -1    0    0  504  502 -0.00000000000E+00 -0.00000000000E+00 -0.16748707016E+02  0.16748707016E+02  0.00000000000E+00 0. -1.
         21    1    1    2  503  502 -0.95866714900E+00  0.29501058796E+02 -0.24618215515E+01  0.29619116768E+02  0.00000000000E+00 0. -1.
         21    1    1    2  504  501  0.95866714900E+00 -0.29501058796E+02  0.30682669044E+03  0.30824316615E+03  0.00000000000E+00 0. -1.
</event>
<event>
 4    1  0.3372301E+006  0.2120246E+02  0.7546771E-02  0.1516394E+00
         21   -1    0    0  503  501  0.00000000000E+00  0.00000000000E+00  0.74623754516E+02  0.74623754516E+02  0.00000000000E+00 0.  1.
         21   -1    0    0  501  502 -0.00000000000E+00 -0.00000000000E+00 -0.14085032901E+02  0.14085032901E+02  0.00000000000E+00 0.  1.
         21    1    1    2  503  504  0.49889026994E+01 -0.20607161966E+02  0.63823737109E+02  0.67253354511E+02  0.00000000000E+00 0.  1.
         21    1    1    2  504  502 -0.49889026994E+01  0.20607161966E+02 -0.32850154933E+01  0.21455432907E+02  0.00000000000E+00 0.  1.
</event>
<event>
 4    1  0.3372301E+006  0.2323712E+02  0.7546771E-02  0.1489542E+00
         21   -1    0    0  504  501  0.00000000000E+00  0.00000000000E+00  0.70204088630E+01  0.70204088630E+01  0.00000000000E+00 0.  1.
         21   -1    0    0  501  502 -0.00000000000E+00 -0.00000000000E+00 -0.42237008197E+03  0.42237008197E+03  0.00000000000E+00 0.  1.
         21    1    1    2  503  502 -0.22486887007E+02 -0.58569376238E+01 -0.40184058693E+03  0.40251188940E+03  0.00000000000E+00 0.  1.
         21    1    1    2  504  503  0.22486887007E+02  0.58569376238E+01 -0.13509086178E+02  0.26878601432E+02  0.00000000000E+00 0.  1.
</event>
<event>
 4    1  0.3372301E+006  0.2216214E+02  0.7546771E-02  0.1503296E+00
         21   -1    0    0  503  501  0.00000000000E+00  0.00000000000E+00  0.49478844783E+01  0.49478844783E+01  0.00000000000E+00 0.  1.
         21   -1    0    0  504  502 -0.00000000000E+00 -0.00000000000E+00 -0.10788053356E+03  0.10788053356E+03  0.00000000000E+00 0.  1.
         21    1    1    2  503  502  0.17131086608E+02 -0.14060095092E+02 -0.35525382430E+02  0.41871388789E+02  0.00000000000E+00 0.  1.
         21    1    1    2  504  501 -0.17131086608E+02  0.14060095092E+02 -0.67407266656E+02  0.70957029253E+02  0.00000000000E+00 0.  1.
</event>
<event>
 4    1  0.3372301E+006  0.5261430E+02  0.7546771E-02  0.1287219E+00
         21   -1    0    0  504  501  0.00000000000E+00  0.00000000000E+00  0.24612257918E+03  0.24612257918E+03  0.00000000000E+00 0.  1.
         21   -1    0    0  503  502 -0.00000000000E+00 -0.00000000000E+00 -0.64930576800E+02  0.64930576800E+02  0.00000000000E+00 0.  1.
         21    1    1    2  503  501  0.43103304825E+02 -0.30172331305E+02 -0.50820039266E+02  0.73150125456E+02  0.00000000000E+00 0.  1.
         21    1    1    2  504  502 -0.43103304825E+02  0.30172331305E+02  0.23201204164E+03  0.23790303052E+03  0.00000000000E+00 0.  1.
</event>
<event>
 4    1  0.3372301E+006  0.4819260E+02  0.7546771E-02  0.1306205E+00
         21   -1    0    0  504  501  0.00000000000E+00  0.00000000000E+00  0.47957470936E+02  0.47957470936E+02  0.00000000000E+00 0. -1.
         21   -1    0    0  503  502 -0.00000000000E+00 -0.00000000000E+00 -0.58741857354E+02  0.58741857354E+02  0.00000000000E+00 0. -1.
         21    1    1    2  503  501 -0.34050330141E+02 -0.34104273960E+02  0.16961533513E+02  0.51090313213E+02  0.00000000000E+00 0. -1.
         21    1    1    2  504  502  0.34050330141E+02  0.34104273960E+02 -0.27745919930E+02  0.55609015077E+02  0.00000000000E+00 0. -1.
</event>
<event>
 4    1  0.3372301E+006  0.2570853E+02  0.7546771E-02  0.1461031E+00
         21   -1    0    0  502  501  0.00000000000E+00  0.00000000000E+00  0.15913642959E+02  0.15913642959E+02  0.00000000000E+00 0.  1.
         21   -1    0    0  503  502 -0.00000000000E+00 -0.00000000000E+00 -0.53959572062E+02  0.53959572062E+02  0.00000000000E+00 0.  1.
         21    1    1    2  503  504 -0.13834184575E+02 -0.21668957637E+02 -0.35789231172E+02  0.44065830933E+02  0.00000000000E+00 0.  1.
         21    1    1    2  504  501  0.13834184575E+02  0.21668957637E+02 -0.22566979312E+01  0.25807384088E+02  0.00000000000E+00 0.  1.
</event>
<event>
 4    1  0.3372301E+006  0.2320660E+02  0.7546771E-02  0.1489920E+00
         21   -1    0    0  503  501  0.00000000000E+00  0.00000000000E+00  0.34445500610E+03  0.34445500610E+03  0.00000000000E+00 0. -1.
         21   -1    0    0  504  502 -0.00000000000E+00 -0.00000000000E+00 -0.65589340536E+01  0.65589340536E+01  0.00000000000E+00 0. -1.
         21    1    1    2  503  502  0.13495726445E+02  0.18878867505E+02  0.15780931001E+02  0.28063927983E+02  0.00000000000E+00 0. -1.
         21    1    1    2  504  501 -0.13495726445E+02 -0.18878867505E+02  0.32211514104E+03  0.32295001217E+03  0.00000000000E+00 0. -1.
</event>
<event>
 4    1  0.3372301E+006  0.3403774E+02  0.7546771E-02  0.1387457E+00
         21   -1    0    0  504  501  0.00000000000E+00  0.00000000000E+00  0.12279517648E+02  0.12279517648E+02  0.00000000000E+00 0.  1.
         21   -1    0    0  503  502 -0.00000000000E+00 -0.00000000000E+00 -0.94579289269E+02  0.94579289269E+02  0.00000000000E+00 0. -1.
         21    1    1    2  503  501  0.67504590177E+01 -0.33361644402E+02 -0.38517078367E+02  0.51401686160E+02  0.00000000000E+00 0. -1.
         21    1    1    2  504  502 -0.67504590177E+01  0.33361644402E+02 -0.43782693254E+02  0.55457120758E+02  0.00000000000E+00 0.  1.
</event>
<event>
 4    1  0.3372301E+006  0.2614010E+02  0.7546771E-02  0.1456443E+00
         21   -1    0    0  502  501  0.00000000000E+00  0.00000000000E+00  0.56868493595E+02  0.56868493595E+02  0.00000000000E+00 0.  1.
         21   -1    0    0  503  502 -0.00000000000E+00 -0.00000000000E+00 -0.39723106221E+02  0.39723106221E+02  0.00000000000E+00 0.  1.
         21    1    1    2  503  504 -0.24773622546E+02  0.83410041918E+01 -0.31762772564E+02  0.41136096630E+02  0.00000000000E+00 0.  1.
         21    1    1    2  504  501  0.24773622546E+02 -0.83410041918E+01  0.48908159939E+02  0.55455503186E+02  0.00000000000E+00 0.  1.
</event>
<event>
 4    1  0.3372301E+006  0.2658530E+02  0.7546771E-02  0.1451819E+00
         21   -1    0    0  502  501  0.00000000000E+00  0.00000000000E+00  0.16508021660E+03  0.16508021660E+03  0.00000000000E+00 0.  1.
         21   -1    0    0  504  502 -0.00000000000E+00 -0.00000000000E+00 -0.18666554211E+02  0.18666554211E+02  0.00000000000E+00 0.  1.
         21    1    1    2  503  501 -0.26454281463E+02  0.26361069459E+01  0.15385872527E+03  0.15613867365E+03  0.00000000000E+00 0.  1.
         21    1    1    2  504  503  0.26454281463E+02 -0.26361069459E+01 -0.74450628815E+01  0.27608097161E+02  0.00000000000E+00 0.  1.
</event>
<event>
 4    1  0.3372301E+006  0.2163684E+02  0.7546771E-02  0.1510364E+00
         21   -1    0    0  504  501  0.00000000000E+00  0.00000000000E+00  0.12657502702E+02  0.12657502702E+02  0.00000000000E+00 0. -1.
         21   -1    0    0  503  502 -0.00000000000E+00 -0.00000000000E+00 -0.97243507797E+02  0.97243507797E+02  0.00000000000E+00 0.  1.
         21    1    1    2  503  501 -0.19733590210E+02 -0.88734479456E+01 -0.85548998844E+02  0.88242755307E+02  0.00000000000E+00 0.  1.
         21    1    1    2  504  502  0.19733590210E+02  0.88734479456E+01  0.96299374869E+00  0.21658255192E+02  0.00000000000E+00 0. -1.
</event>
<event>
 4    1  0.3372301E+006  0.2213060E+02  0.7546771E-02  0.1503714E+00
         21   -1    0    0  502  501  0.00000000000E+00  0.00000000000E+00  0.88969740453E+01  0.88969740453E+01  0.00000000000E+00 0. -1.
         21   -1    0    0  504  502 -0.00000000000E+00 -0.00000000000E+00 -0.99245685980E+02  0.99245685980E+02  0.00000000000E+00 0. -1.
         21    1    1    2  503  501 -0.12031956998E+02  0.18574051973E+02 -0.90907883310E+01  0.23925004250E+02  0.00000000000E+00 0. -1.
         21    1    1    2  504  503  0.12031956998E+02 -0.18574051973E+02 -0.81257923604E+02  0.84217655775E+02  0.00000000000E+00 0. -1.
</event>
<event>
 4    1  0.3372301E+006  0.2303801E+02  0.7546771E-02  0.1492021E+00
         21   -1    0    0  504  501  0.00000000000E+00  0.00000000000E+00  0.49571001623E+03  0.49571001623E+03  0.00000000000E+00 0.  1.
         21   -1    0    0  501  502 -0.00000000000E+00 -0.00000000000E+00 -0.89205378605E+01  0.89205378605E+01  0.00000000000E+00 0.  1.
         21    1    1    2  503  502 -0.10230806194E+02 -0.20641713082E+02  0.67053656454E+01  0.23993991806E+02  0.00000000000E+00 0.  1.
         21    1    1    2  504  503  0.10230806194E+02  0.20641713082E+02  0.48008411273E+03  0.48063656229E+03  0.00000000000E+00 0.  1.
</event>
<event>
 4    1  0.3372301E+006  0.2240633E+02  0.7546771E-02  0.1500091E+00
         21   -1    0    0  502  501  0.00000000000E+00  0.00000000000E+00  0.60464871153E+03  0.60464871153E+03  0.00000000000E+00 0. -1.
         21   -1    0    0  504  502 -0.00000000000E+00 -0.00000000000E+00 -0.10746390194E+01  0.10746390194E+01  0.00000000000E+00 0. -1.
         21    1    1    2  503  501 -0.21943403536E+02 -0.45310603786E+01  0.44619930078E+03  0.44676152418E+03  0.00000000000E+00 0. -1.
         21    1    1    2  504  503  0.21943403536E+02  0.45310603786E+01  0.15737477173E+03  0.15896182637E+03  0.00000000000E+00 0. -1.
</event>
<event>
 4    1  0.3372301E+006  0.2337285E+02  0.7546771E-02  0.1487869E+00
         21   -1    0    0  503  501  0.00000000000E+00  0.00000000000E+00  0.51594243146E+02  0.51594243146E+02  0.00000000000E+00 0. -1.
         21   -1    0    0  501  502 -0.00000000000E+00 -0.00000000000E+00 -0.11202346606E+02  0.11202346606E+02  0.00000000000E+00 0. -1.
         21    1    1    2  503  504 -0.20250089728E+02 -0.11671510633E+02  0.27547630105E+02  0.36127028924E+02  0.00000000000E+00 0. -1.
         21    1    1    2  504  502  0.20250089728E+02  0.11671510633E+02  0.12844266435E+02  0.26669560827E+02  0.00000000000E+00 0. -1.
</event>
<event>
 4    1  0.3372301E+006  0.2299829E+02  0.7546771E-02  0.1492520E+00
         21   -1    0    0  504  501  0.00000000000E+00  0.00000000000E+00  0.90879943348E+00  0.90879943348E+00  0.00000000000E+00 0.  1.
         21   -1    0    0  503  502 -0.00000000000E+00 -0.00000000000E+00 -0.62503906994E+03  0.62503906994E+03  0.00000000000E+00 0.  1.
         21    1    1    2  503  501  0.16975013229E+02 -0.15516768007E+02 -0.22993801042E+03  0.23108528685E+03  0.00000000000E+00 0.  1.
         21    1    1    2  504  502 -0.16975013229E+02  0.15516768007E+02 -0.39419226009E+03  0.39486258252E+03  0.00000000000E+00 0.  1.
</event>
<event>
 4    1  0.3372301E+006  0.2019912E+02  0.7546771E-02  0.1531013E+00
         21   -1    0    0  503  501  0.00000000000E+00  0.00000000000E+00  0.25129751452E+03  0.25129751452E+03  0.00000000000E+00 0. -1.
         21   -1    0    0  504  502 -0.00000000000E+00 -0.00000000000E+00 -0.63621131015E+01  0.63621131015E+01  0.00000000000E+00 0. -1.
         21    1    1    2  503  502  0.58758046633E+01  0.19325615887E+02  0.23365037566E+03  0.23452185945E+03  0.00000000000E+00 0. -1.
         21    1    1    2  504  501 -0.58758046633E+01 -0.19325615887E+02  0.11285025753E+02  0.23137768174E+02  0.00000000000E+00 0. -1.
</event>
<event>
 4    1  0.3372301E+006  0.2214676E+02  0.7546771E-02  0.1503500E+00
         21   -1    0    0  503  501  0.00000000000E+00  0.00000000000E+00  0.27833643401E+02  0.27833643401E+02  0.00000000000E+00 0. -1.
         21   -1    0    0  504  502 -0.00000000000E+00 -0.00000000000E+00 -0.20200335159E+02  0.20200335159E+02  0.00000000000E+00 0.  1.
         21    1    1    2  503  502  0.19190810142E+02  0.11054040744E+02 -0.47641000931E+01  0.22653380771E+02  0.00000000000E+00 0.  1.
         21    1    1    2  504  501 -0.19190810142E+02 -0.11054040744E+02  0.12397408336E+02  0.25380597789E+02  0.00000000000E+00 0. -1.
</event>
<event>
 4    1  0.3372301E+006  0.2298437E+02  0.7546771E-02  0.1492695E+00
         21   -1    0    0  504  501  0.00000000000E+00  0.00000000000E+00  0.17675602659E+02  0.17675602659E+02  0.00000000000E+00 0. -1.
         21   -1    0    0  503  502 -0.00000000000E+00 -0.00000000000E+00 -0.23545246702E+03  0.23545246702E+03  0.00000000000E+00 0.  1.
         21    1    1    2  503  501 -0.36057878814E+01 -0.22699765508E+02  0.93702817271E+01  0.24821024153E+02  0.00000000000E+00 0. -1.
         21    1    1    2  504  502  0.36057878814E+01  0.22699765508E+02 -0.22714714609E+03  0.22830704552E+03  0.00000000000E+00 0.  1.
</event>
<event>
 4    1  0.3372301E+006  0.3137757E+02  0.7546771E-02  0.1407991E+00
         21   -1    0    0  503  501  0.00000000000E+00  0.00000000000E+00  0.52849572195E+02  0.52849572195E+02  0.00000000000E+00 0.  1.
         21   -1    0    0  504  502 -0.00000000000E+00 -0.00000000000E+00 -0.12818989634E+03  0.12818989634E+03  0.00000000000E+00 0. -1.
         21    1    1    2  503  502 -0.15295679769E+02 -0.27396970002E+02  0.46014047621E+02  0.55694204038E+02  0.00000000000E+00 0.  1.
         21    1    1    2  504  501  0.15295679769E+02  0.27396970002E+02 -0.12135437177E+03  0.12534526450E+03  0.00000000000E+00 0. -1.
</event>
<event>
 4    1  0.3372301E+006  0.2358985E+02  0.7546771E-02  0.1485221E+00
         21   -1    0    0  504  501  0.00000000000E+00  0.00000000000E+00  0.38956632114E+03  0.38956632114E+03  0.00000000000E+00 0. -1.
         21   -1    0    0  503  502 -0.00000000000E+00 -0.00000000000E+00 -0.47793970545E+02  0.47793970545E+02  0.00000000000E+00 0. -1.
         21    1    1    2  503  501  0.22014767378E+02  0.84753058855E+01  0.38627358411E+03  0.38699323324E+03  0.00000000000E+00 0. -1.
         21    1    1    2  504  502 -0.22014767378E+02 -0.84753058855E+01 -0.44501233512E+02  0.50367058448E+02  0.00000000000E+00 0. -1.
</event>
<event>
 4    1  0.3372301E+006  0.3289868E+02  0.7546771E-02  0.1395970E+00
         21   -1    0    0  504  501  0.00000000000E+00  0.00000000000E+00  0.13777801122E+03  0.13777801122E+03  0.00000000000E+00 0. -1.
         21   -1    0    0  503  502 -0.00000000000E+00 -0.00000000000E+00 -0.29899548452E+02  0.29899548452E+02  0.00000000000E+00 0.  1.
         21    1    1    2  503  501  0.26296845486E+02  0.19768637451E+02 -0.18048376921E+02  0.37524219095E+02  0.00000000000E+00 0.  1.
         21    1    1    2  504  502 -0.26296845486E+02 -0.19768637451E+02  0.12592683969E+03  0.13015334058E+03  0.00000000000E+00 0. -1.
</event>
<event>
 4    1  0.3372301E+006  0.5227625E+02  0.7546771E-02  0.1288594E+00
         21   -1    0    0  503  501  0.00000000000E+00  0.00000000000E+00  0.44621827545E+03  0.44621827545E+03  0.00000000000E+00 0.  1.
         21   -1    0    0  504  502 -0.00000000000E+00 -0.00000000000E+00 -0.89528386159E+01  0.89528386159E+01  0.00000000000E+00 0.  1.
         21    1    1    2  503  502 -0.51141205573E+02 -0.10834365724E+02  0.90712290401E+02  0.10469730664E+03  0.00000000000E+00 0.  1.
         21    1    1    2  504  501  0.51141205573E+02  0.10834365724E+02  0.34655314643E+03  0.35047380742E+03  0.00000000000E+00 0.  1.
</event>
<event>
 4    1  0.3372301E+006  0.3102012E+02  0.7546771E-02  0.1410934E+00
         21   -1    0    0  504  501  0.00000000000E+00  0.00000000000E+00  0.69568124052E+01  0.69568124052E+01  0.00000000000E+00 0. -1.
         21   -1    0    0  501  502 -0.00000000000E+00 -0.00000000000E+00 -0.16522192381E+03  0.16522192381E+03  0.00000000000E+00 0. -1.
         21    1    1    2  503  502  0.21242414353E+02 -0.22605474109E+02 -0.11387249114E+03  0.11802199738E+03  0.00000000000E+00 0. -1.
         21    1    1    2  504  503 -0.21242414353E+02  0.22605474109E+02 -0.44392620265E+02  0.54156738834E+02  0.00000000000E+00 0. -1.
</event>
<event>
 4    1  0.3372301E+006  0.2013557E+02  0.7546771E-02  0.1531973E+00
         21   -1    0    0  504  501  0.00000000000E+00  0.00000000000E+00  0.59568367990E+01  0.59568367990E+01  0.00000000000E+00 0.  1.
         21   -1    0    0  503  502 -0.00000000000E+00 -0.00000000000E+00 -0.47659486474E+03  0.47659486474E+03  0.00000000000E+00 0. -1.
         21    1    1    2  503  501  0.14317720166E+02  0.14157833230E+02 -0.11935025848E+02  0.23406968931E+02  0.00000000000E+00 0.  1.
         21    1    1    2  504  502 -0.14317720166E+02 -0.14157833230E+02 -0.45870300210E+03  0.45914473261E+03  0.00000000000E+00 0. -1.
</event>
<event>
 4    1  0.3372301E+006  0.2260242E+02  0.7546771E-02  0.1497552E+00
         21   -1    0    0  504  501  0.00000000000E+00  0.00000000000E+00  0.11723313920E+03  0.11723313920E+03  0.00000000000E+00 0. -1.
         21   -1    0    0  501  502 -0.00000000000E+00 -0.00000000000E+00 -0.14278144508E+02  0.14278144508E+02  0.00000000000E+00 0. -1.
         21    1    1    2  503  502 -0.20996140313E+02 -0.83684835732E+01 -0.33328078276E+01  0.22846816702E+02  0.00000000000E+00 0. -1.
         21    1    1    2  504  503  0.20996140313E+02  0.83684835732E+01  0.10628780252E+03  0.10866446701E+03  0.00000000000E+00 0. -1.
</event>
<event>
 4    1  0.3372301E+006  0.3211774E+02  0.7546771E-02  0.1402044E+00
         21   -1    0    0  504  501  0.00000000000E+00  0.00000000000E+00  0.32082740002E+02  0.32082740002E+02  0.00000000000E+00 0. -1.
         21   -1    0    0  501  502 -0.00000000000E+00 -0.00000000000E+00 -0.92295117347E+02  0.92295117347E+02  0.00000000000E+00 0. -1.
         21    1    1    2  503  502 -0.87485561259E+00  0.32105823751E+02 -0.80307361350E+02  0.86491742831E+02  0.00000000000E+00 0. -1.
         21    1    1    2  504  503  0.87485561259E+00 -0.32105823751E+02  0.20094984005E+02  0.37886114517E+02  0.00000000000E+00 0. -1.
</event>
<event>
 4    1  0.3372301E+006  0.2365047E+02  0.7546771E-02  0.1484488E+00
         21   -1    0    0  504  501  0.00000000000E+00  0.00000000000E+00  0.39940422562E+02  0.39940422562E+02  0.00000000000E+00 0.  1.
         21   -1    0    0  501  502 -0.00000000000E+00 -0.00000000000E+00 -0.14263748239E+03  0.14263748239E+03  0.00000000000E+00 0.  1.
         21    1    1    2  503  502 -0.61277387731E+01  0.22842842992E+02 -0.13804024651E+03  0.14005161304E+03  0.00000000000E+00 0.  1.
         21    1    1    2  504  503  0.61277387731E+01 -0.22842842992E+02  0.35343186686E+02  0.42526291909E+02  0.00000000000E+00 0.  1.
</event>
<event>
 4    1  0.3372301E+006  0.2245723E+02  0.7546771E-02  0.1499429E+00
         21   -1    0    0  502  501  0.00000000000E+00  0.00000000000E+00  0.63126270127E+02  0.63126270127E+02  0.00000000000E+00 0. -1.
         21   -1    0    0  504  502 -0.00000000000E+00 -0.00000000000E+00 -0.49468948544E+02  0.49468948544E+02  0.00000000000E+00 0. -1.
         21    1    1    2  503  501  0.22428202016E+02 -0.11415239786E+01  0.58380214602E+02  0.62550593759E+02  0.00000000000E+00 0. -1.
         21    1    1    2  504  503 -0.22428202016E+02  0.11415239786E+01 -0.44722893018E+02  0.50044624912E+02  0.00000000000E+00 0. -1.
</event>
<event>
 4    1  0.3372301E+006  0.2461703E+02  0.7546771E-02  0.1473133E+00
         21   -1    0    0  502  501  0.00000000000E+00  0.00000000000E+00  0.63707370823E+00  0.63707370823E+00  0.00000000000E+00 0.  1.
         21   -1    0    0  504  502 -0.00000000000E+00 -0.00000000000E+00 -0.20452742972E+04  0.20452742972E+04  0.00000000000E+00 0.  1.
         21    1    1    2  503  501  0.38602729239E+01 -0.24312479247E+02 -0.27414887848E+03  0.27525189541E+03  0.00000000000E+00 0.  1.
         21    1    1    2  504  503 -0.38602729239E+01  0.24312479247E+02 -0.17704883450E+04  0.17706594755E+04  0.00000000000E+00 0.  1.
</event>
<event>
 4    1  0.3372301E+006  0.2111847E+02  0.7546771E-02  0.1517580E+00
         21   -1    0    0  502  501  0.00000000000E+00  0.00000000000E+00  0.82561539436E+03  0.82561539436E+03  0.00000000000E+00 0. -1.
         21   -1    0    0  503  502 -0.00000000000E+00 -0.00000000000E+00 -0.16011153698E+01  0.16011153698E+01  0.00000000000E+00 0.  1.
         21    1    1    2  503  504 -0.17674696247E+02 -0.11558321651E+02  0.75324923989E+02  0.78229366997E+02  0.00000000000E+00 0.  1.
         21    1    1    2  504  501  0.17674696247E+02  0.11558321651E+02  0.74868935500E+03  0.74898714273E+03  0.00000000000E+00 0. -1.
</event>
<event>
 4    1  0.3372301E+006  0.4714885E+02  0.7546771E-02  0.1311031E+00
         21   -1    0    0  504  501  0.00000000000E+00  0.00000000000E+00  0.11097128830E+04  0.11097128830E+04  0.00000000000E+00 0.  1.
         21   -1    0    0  501  502 -0.00000000000E+00 -0.00000000000E+00 -0.26114806976E+02  0.26114806976E+02  0.00000000000E+00 0.  1.
         21    1    1    2  503  502  0.27641668396E+02  0.38196230964E+02 -0.38982853683E+01  0.47309729658E+02  0.00000000000E+00 0.  1.
         21    1    1    2  504  503 -0.27641668396E+02 -0.38196230964E+02  0.10874963614E+04  0.10885179603E+04  0.00000000000E+00 0.  1.
</event>
<event>
 4    1  0.3372301E+006  0.2061413E+02  0.7546771E-02  0.1524846E+00
         21   -1    0    0  502  501  0.00000000000E+00  0.00000000000E+00  0.53631163058E+02  0.53631163058E+02  0.00000000000E+00 0. -1.
         21   -1    0    0  504  502 -0.00000000000E+00 -0.00000000000E+00 -0.45340063424E+02  0.45340063424E+02  0.00000000000E+00 0.  1.
         21    1    1    2  503  501 -0.19834365254E+02  0.56160616283E+01  0.49099753755E+02  0.53251554081E+02  0.00000000000E+00 0. -1.
         21    1    1    2  504  503  0.19834365254E+02 -0.56160616283E+01 -0.40808654121E+02  0.45719672401E+02  0.00000000000E+00 0.  1.
</event>
<event>
 4    1  0.3372301E+006  0.2211152E+02  0.7546771E-02  0.1503967E+00
         21   -1    0    0  503  501  0.00000000000E+00  0.00000000000E+00  0.65260193996E+03  0.65260193996E+03  0.00000000000E+00 0. -1.
         21   -1    0    0  504  502 -0.00000000000E+00 -0.00000000000E+00 -0.57923754916E+01  0.57923754916E+01  0.00000000000E+00 0.  1.
         21    1    1    2  503  502 -0.10375721022E+02 -0.19525974578E+02  0.63057593693E+03  0.63096349459E+03  0.00000000000E+00 0. -1.
         21    1    1    2  504  501  0.10375721022E+02  0.19525974578E+02  0.16233627533E+02  0.27430820856E+02  0.00000000000E+00 0.  1.
</event>
<event>
 4    1  0.3372301E+006  0.6701035E+02  0.7546771E-02  0.1237710E+00
         21   -1    0    0  504  501  0.00000000000E+00  0.00000000000E+00  0.19719860637E+02  0.19719860637E+02  0.00000000000E+00 0.  1.
         21   -1    0    0  503  502 -0.00000000000E+00 -0.00000000000E+00 -0.22829191716E+03  0.22829191716E+03  0.00000000000E+00 0.  1.
         21    1    1    2  503  501  0.22605170789E+01  0.66972206565E+02 -0.11055308827E+03  0.12927633858E+03  0.00000000000E+00 0.  1.
         21    1    1    2  504  502 -0.22605170789E+01 -0.66972206565E+02 -0.98018968251E+02  0.11873543922E+03  0.00000000000E+00 0.  1.
</event>
<event>
 4    1  0.3372301E+006  0.2157612E+02  0.7546771E-02  0.1511196E+00
         21   -1    0    0  503  501  0.00000000000E+00  0.00000000000E+00  0.22561265227E+01  0.22561265227E+01  0.00000000000E+00 0. -1.
         21   -1    0    0  501  502 -0.00000000000E+00 -0.00000000000E+00 -0.93625042469E+03  0.93625042469E+03  0.00000000000E+00 0. -1.
         21    1    1    2  503  504 -0.80263259154E+01 -0.20027657673E+02 -0.52667412148E+02  0.56915597879E+02  0.00000000000E+00 0. -1.
         21    1    1    2  504  502  0.80263259154E+01  0.20027657673E+02 -0.88132688602E+03  0.88159095334E+03  0.00000000000E+00 0. -1.
</event>
<event>
 4    1  0.3372301E+006  0.2027794E+02  0.7546771E-02  0.1529828E+00
         21   -1    0    0  502  501  0.00000000000E+00  0.00000000000E+00  0.16780049171E+02  0.16780049171E+02  0.00000000000E+00 0.  1.
         21   -1    0    0  503  502 -0.00000000000E+00 -0.00000000000E+00 -0.29610708763E+03  0.29610708763E+03  0.00000000000E+00 0. -1.
         21    1    1    2  503  504 -0.22215613821E+01  0.20155882830E+02 -0.28949389593E+03  0.29020322315E+03  0.00000000000E+00 0. -1.
         21    1    1    2  504  501  0.22215613821E+01 -0.20155882830E+02  0.10166857470E+02  0.22683913649E+02  0.00000000000E+00 0.  1.
</event>
<event>
 4    1  0.3372301E+006  0.2016333E+02  0.7546771E-02  0.1531553E+00
         21   -1    0    0  503  501  0.00000000000E+00  0.00000000000E+00  0.44368069353E+03  0.44368069353E+03  0.00000000000E+00 0. -1.
         21   -1    0    0  504  502 -0.00000000000E+00 -0.00000000000E+00 -0.30746826515E+02  0.30746826515E+02  0.00000000000E+00 0. -1.
         21    1    1    2  503  502 -0.19998442500E+02  0.25733540422E+01 -0.27185300749E+02  0.33846719638E+02  0.00000000000E+00 0. -1.
         21    1    1    2  504  501  0.19998442500E+02 -0.25733540422E+01  0.44011916776E+03  0.44058080041E+03  0.00000000000E+00 0. -1.
</event>
<event>
 4    1  0.3372301E+006  0.2033779E+02  0.7546771E-02  0.1528933E+00
         21   -1    0    0  502  501  0.00000000000E+00  0.00000000000E+00  0.70944377339E+01  0.70944377339E+01  0.00000000000E+00 0.  1.
         21   -1    0    0  504  502 -0.00000000000E+00 -0.00000000000E+00 -0.32412294553E+03  0.32412294553E+03  0.00000000000E+00 0. -1.
         21    1    1    2  503  501 -0.17228338333E+02 -0.10807877794E+02 -0.85381210403E+01  0.22057320214E+02  0.00000000000E+00 0.  1.
         21    1    1    2  504  503  0.17228338333E+02  0.10807877794E+02 -0.30849038676E+03  0.30916006305E+03  0.00000000000E+00 0. -1.
</event>
<event>
 4    1  0.3372301E+006  0.2073985E+02  0.7546771E-02  0.1523012E+00
         21   -1    0    0  503  501  0.00000000000E+00  0.00000000000E+00  0.16387549013E+03  0.16387549013E+03  0.00000000000E+00 0.  1.
         21   -1    0    0  504  502 -0.00000000000E+00 -0.00000000000E+00 -0.26248847000E+01  0.26248847000E+01  0.00000000000E+00 0. -1.
         21    1    1    2  503  502  0.14271056265E+01 -0.20690692110E+02  0.80169469539E+02  0.82808726693E+02  0.00000000000E+00 0.  1.
         21    1    1    2  504  501 -0.14271056265E+01  0.20690692110E+02  0.81081135896E+02  0.83691648142E+02  0.00000000000E+00 0. -1.
</event>
<event>
 4    1  0.3372301E+006  0.2069187E+02  0.7546771E-02  0.1523710E+00
         21   -1    0    0  503  501  0.00000000000E+00  0.00000000000E+00  0.18816703367E+01  0.18816703367E+01  0.00000000000E+00 0.  1.
         21   -1    0    0  504  502 -0.00000000000E+00 -0.00000000000E+00 -0.28847241087E+03  0.28847241087E+03  0.00000000000E+00 0. -1.
         21    1    1    2  503  502  0.17451132025E+02 -0.11118067637E+02 -0.76572695683E+02  0.79319172721E+02  0.00000000000E+00 0. -1.
         21    1    1    2  504  501 -0.17451132025E+02  0.11118067637E+02 -0.21001804485E+03  0.21103490848E+03  0.00000000000E+00 0.  1.
</event>
<event>
 4    1  0.3372301E+006  0.2451809E+02  0.7546771E-02  0.1474267E+00
         21   -1    0    0  502  501  0.00000000000E+00  0.00000000000E+00  0.35763333071E+02  0.35763333071E+02  0.00000000000E+00 0.  1.
         21   -1    0    0  504  502 -0.00000000000E+00 -0.00000000000E+00 -0.18633063241E+02  0.18633063241E+02  0.00000000000E+00 0.  1.
         21    1    1    2  503  501 -0.40462341283E+01  0.24181904145E+02  0.17075518354E+02  0.29878250045E+02  0.00000000000E+00 0.  1.
         21    1    1    2  504  503  0.40462341283E+01 -0.24181904145E+02  0.54751476144E-01  0.24518146268E+02  0.00000000000E+00 0.  1.
</event>
<event>
 4    1  0.3372301E+006  0.2115242E+02  0.7546771E-02  0.1517100E+00
         21   -1    0    0  504  501  0.00000000000E+00  0.00000000000E+00  0.92627983579E+02  0.92627983579E+02  0.00000000000E+00 0.  1.
         21   -1    0    0  503  502 -0.00000000000E+00 -0.00000000000E+00 -0.49347863397E+01  0.49347863397E+01  0.00000000000E+00 0.  1.
         21    1    1    2  503  501 -0.13036701993E+02 -0.16657413142E+02  0.50943332882E+02  0.55160204646E+02  0.00000000000E+00 0.  1.
         21    1    1    2  504  502  0.13036701993E+02  0.16657413142E+02  0.36749864358E+02  0.42402565273E+02  0.00000000000E+00 0.  1.
</event>
<event>
 4    1  0.3372301E+006  0.2320315E+02  0.7546771E-02  0.1489963E+00
         21   -1    0    0  504  501  0.00000000000E+00  0.00000000000E+00  0.69960982704E+01  0.69960982704E+01  0.00000000000E+00 0. -1.
         21   -1    0    0  503  502 -0.00000000000E+00 -0.00000000000E+00 -0.77104556858E+02  0.77104556858E+02  0.00000000000E+00 0. -1.
         21    1    1    2  503  501 -0.23178079786E+02 -0.10783921444E+01 -0.33203655110E+02  0.40507641561E+02  0.00000000000E+00 0. -1.
         21    1    1    2  504  502  0.23178079786E+02  0.10783921444E+01 -0.36904803477E+02  0.43593013567E+02  0.00000000000E+00 0. -1.
</event>
<event>
 4    1  0.3372301E+006  0.2172530E+02  0.7546771E-02  0.1509156E+00
         21   -1    0    0  503  501  0.00000000000E+00  0.00000000000E+00  0.38197817428E+01  0.38197817428E+01  0.00000000000E+00 0.  1.
         21   -1    0    0  501  502 -0.00000000000E+00 -0.00000000000E+00 -0.34628411586E+03  0.34628411586E+03  0.00000000000E+00 0.  1.
         21    1    1    2  503  504  0.10260384868E+02 -0.19149760711E+02 -0.30844146967E+02  0.37727314178E+02  0.00000000000E+00 0.  1.
         21    1    1    2  504  502 -0.10260384868E+02  0.19149760711E+02 -0.31162018715E+03  0.31237658342E+03  0.00000000000E+00 0.  1.
</event>
<event>
 4    1  0.3372301E+006  0.2598540E+02  0.7546771E-02  0.1458075E+00
         21   -1    0    0  504  501  0.00000000000E+00  0.00000000000E+00  0.10588449779E+02  0.10588449779E+02  0.00000000000E+00 0.  1.
         21   -1    0    0  503  502 -0.00000000000E+00 -0.00000000000E+00 -0.93962898250E+02  0.93962898250E+02  0.00000000000E+00 0. -1.
         21    1    1    2  503  501  0.14621606655E+02  0.21481379284E+02 -0.12055068453E+02  0.28645518192E+02  0.00000000000E+00 0.  1.
         21    1    1    2  504  502 -0.14621606655E+02 -0.21481379284E+02 -0.71319380018E+02  0.75905829837E+02  0.00000000000E+00 0. -1.
</event>
<event>
 4    1  0.3372301E+006  0.2822017E+02  0.7546771E-02  0.1435722E+00
         21   -1    0    0  503  501  0.00000000000E+00  0.00000000000E+00  0.67373390386E+01  0.67373390386E+01  0.00000000000E+00 0. -1.
         21   -1    0    0  504  502 -0.00000000000E+00 -0.00000000000E+00 -0.27353815428E+03  0.27353815428E+03  0.00000000000E+00 0. -1.
         21    1    1    2  503  502  0.27839874316E+02 -0.46172874088E+01 -0.27796456638E+02  0.39610869046E+02  0.00000000000E+00 0. -1.
         21    1    1    2  504  501 -0.27839874316E+02  0.46172874088E+01 -0.23900435860E+03  0.24066462427E+03  0.00000000000E+00 0. -1.
</event>
<event>
 4    1  0.3372301E+006  0.2165211E+02  0.7546771E-02  0.1510155E+00
         21   -1    0    0  502  501  0.00000000000E+00  0.00000000000E+00  0.51216382075E+03  0.51216382075E+03  0.00000000000E+00 0.  1.
         21   -1    0    0  503  502 -0.00000000000E+00 -0.00000000000E+00 -0.28142734544E+01  0.28142734544E+01  0.00000000000E+00 0. -1.
         21    1    1    2  503  504 -0.15819761620E+02  0.14783409710E+02  0.43166068429E+02  0.48292064814E+02  0.00000000000E+00 0. -1.
         21    1    1    2  504  501  0.15819761620E+02 -0.14783409710E+02  0.46618347887E+03  0.46668602939E+03  0.00000000000E+00 0.  1.
</event>
<event>
 4    1  0.3372301E+006  0.2031881E+02  0.7546771E-02  0.1529217E+00
         21   -1    0    0  504  501  0.00000000000E+00  0.00000000000E+00  0.60413072887E+01  0.60413072887E+01  0.00000000000E+00 0.  1.
         21   -1    0    0  503  502 -0.00000000000E+00 -0.00000000000E+00 -0.18187126579E+03  0.18187126579E+03  0.00000000000E+00 0.  1.
         21    1    1    2  503  501  0.10387796987E+02 -0.17462757674E+02 -0.13680734238E+02  0.24495238744E+02  0.00000000000E+00 0.  1.
         21    1    1    2  504  502 -0.10387796987E+02  0.17462757674E+02 -0.16214922427E+03  0.16341733434E+03  0.00000000000E+00 0.  1.
</event>
<event>
 4    1  0.3372301E+006  0.3777218E+02  0.7546771E-02  0.1362060E+00
         21   -1    0    0  504  501  0.00000000000E+00  0.00000000000E+00  0.12845371657E+02  0.12845371657E+02  0.00000000000E+00 0. -1.
         21   -1    0    0  503  502 -0.00000000000E+00 -0.00000000000E+00 -0.14616533910E+03  0.14616533910E+03  0.00000000000E+00 0. -1.
         21    1    1    2  503  501  0.15691423446E+02 -0.34358650205E+02 -0.27701876045E+02  0.46841557938E+02  0.00000000000E+00 0. -1.
         21    1    1    2  504  502 -0.15691423446E+02  0.34358650205E+02 -0.10561809140E+03  0.11216915282E+03  0.00000000000E+00 0. -1.
</event>
<event>
 4    1  0.3372301E+006  0.2243839E+02  0.7546771E-02  0.1499673E+00
         21   -1    0    0  503  501  0.00000000000E+00  0.00000000000E+00  0.54575833816E+02  0.54575833816E+02  0.00000000000E+00 0.  1.
         21   -1    0    0  504  502 -0.00000000000E+00 -0.00000000000E+00 -0.32598847529E+03  0.32598847529E+03  0.00000000000E+00 0.  1.
         21    1    1    2  503  502  0.17192109446E+02 -0.14419180356E+02 -0.32327669448E+03  0.32405447471E+03  0.00000000000E+00 0.  1.
         21    1    1    2  504  501 -0.17192109446E+02  0.14419180356E+02  0.51864053003E+02  0.56509834394E+02  0.00000000000E+00 0.  1.
</event>
<event>
 4    1  0.3372301E+006  0.2776643E+02  0.7546771E-02  0.1440057E+00
         21   -1    0    0  504  501  0.00000000000E+00  0.00000000000E+00  0.14905809256E+03  0.14905809256E+03  0.00000000000E+00 0. -1.
         21   -1    0    0  503  502 -0.00000000000E+00 -0.00000000000E+00 -0.60843496436E+01  0.60843496436E+01  0.00000000000E+00 0. -1.
         21    1    1    2  503  501  0.89336461237E+01  0.26290007573E+02  0.10152000273E+03  0.10524868401E+03  0.00000000000E+00 0. -1.
         21    1    1    2  504  502 -0.89336461237E+01 -0.26290007573E+02  0.41453740181E+02  0.49893758189E+02  0.00000000000E+00 0. -1.
</event>
<event>
 4    1  0.3372301E+006  0.2758046E+02  0.7546771E-02  0.1441863E+00
         21   -1    0    0  502  501  0.00000000000E+00  0.00000000000E+00  0.62371359517E+03  0.62371359517E+03  0.00000000000E+00 0. -1.
         21   -1    0    0  503  502 -0.00000000000E+00 -0.00000000000E+00 -0.25492574650E+01  0.25492574650E+01  0.00000000000E+00 0. -1.
         21    1    1    2  503  504  0.94492980322E+01 -0.25911239390E+02  0.84435823266E+02  0.88826177508E+02  0.00000000000E+00 0. -1.
         21    1    1    2  504  501 -0.94492980322E+01  0.25911239390E+02  0.53672851444E+03  0.53743667513E+03  0.00000000000E+00 0. -1.
</event>
<event>
 4    1  0.3372301E+006  0.3414653E+02  0.7546771E-02  0.1386665E+00
         21   -1    0    0  502  501  0.00000000000E+00  0.00000000000E+00  0.38446663885E+02  0.38446663885E+02  0.00000000000E+00 0.  1.
         21   -1    0    0  504  502 -0.00000000000E+00 -0.00000000000E+00 -0.40985663854E+02  0.40985663854E+02  0.00000000000E+00 0.  1.
         21    1    1    2  503  501  0.20695033349E+02  0.27160658638E+02  0.18983780319E+02  0.39068781632E+02  0.00000000000E+00 0.  1.
         21    1    1    2  504  503 -0.20695033349E+02 -0.27160658638E+02 -0.21522780288E+02  0.40363546107E+02  0.00000000000E+00 0.  1.
</event>
<event>
 4    1  0.3372301E+006  0.2196005E+02  0.7546771E-02  0.1505987E+00
         21   -1    0    0  504  501  0.00000000000E+00  0.00000000000E+00  0.88078647600E+01  0.88078647600E+01  0.00000000000E+00 0.  1.
         21   -1    0    0  503  502 -0.00000000000E+00 -0.00000000000E+00 -0.56481577952E+02  0.56481577952E+02  0.00000000000E+00 0. -1.
         21    1    1    2  503  501  0.20936858199E+02  0.66250710174E+01 -0.18123446651E+02  0.28472845234E+02  0.00000000000E+00 0.  1.
         21    1    1    2  504  502 -0.20936858199E+02 -0.66250710174E+01 -0.29550266542E+02  0.36816597479E+02  0.00000000000E+00 0. -1.
</event>
<event>
 4    1  0.3372301E+006  0.2413746E+02  0.7546771E-02  0.1478688E+00
         21   -1    0    0  504  501  0.00000000000E+00  0.00000000000E+00  0.60525461282E+02  0.60525461282E+02  0.00000000000E+00 0. -1.
         21   -1    0    0  503  502 -0.00000000000E+00 -0.00000000000E+00 -0.37433430559E+03  0.37433430559E+03  0.00000000000E+00 0.  1.
         21    1    1    2  503  501 -0.97066049032E+00 -0.24117933657E+02 -0.37152050148E+03  0.37230377372E+03  0.00000000000E+00 0.  1.
         21    1    1    2  504  502  0.97066049032E+00  0.24117933657E+02  0.57711657172E+02  0.62555993152E+02  0.00000000000E+00 0. -1.
</event>
<event>
 4    1  0.3372301E+006  0.2076855E+02  0.7546771E-02  0.1522595E+00
         21   -1    0    0  503  501  0.00000000000E+00  0.00000000000E+00  0.84757347064E+01  0.84757347064E+01  0.00000000000E+00 0. -1.
         21   -1    0    0  501  502 -0.00000000000E+00 -0.00000000000E+00 -0.28490659028E+03  0.28490659028E+03  0.00000000000E+00 0. -1.
         21    1    1    2  503  504  0.16928682780E+02  0.12031303939E+02 -0.52692794631E+01  0.21426569515E+02  0.00000000000E+00 0. -1.
         21    1    1    2  504  502 -0.16928682780E+02 -0.12031303939E+02 -0.27116157611E+03  0.27195575547E+03  0.00000000000E+00 0. -1.
</event>
<event>
 4    1  0.3372301E+006  0.2087054E+02  0.7546771E-02  0.1521121E+00
         21   -1    0    0  503  501  0.00000000000E+00  0.00000000000E+00  0.26764367808E+03  0.26764367808E+03  0.00000000000E+00 0. -1.
         21   -1    0    0  501  502 -0.00000000000E+00 -0.00000000000E+00 -0.16301954687E+01  0.16301954687E+01  0.00000000000E+00 0. -1.
         21    1    1    2  503  504  0.81034122369E+01 -0.19233147055E+02  0.12749100879E+03  0.12918798922E+03  0.00000000000E+00 0. -1.
         21    1    1    2  504  502 -0.81034122369E+01  0.19233147055E+02  0.13852247382E+03  0.14008588433E+03  0.00000000000E+00 0. -1.
</event>
<event>
 4    1  0.3372301E+006  0.3018359E+02  0.7546771E-02  0.1418008E+00
         21   -1    0    0  504  501  0.00000000000E+00  0.00000000000E+00  0.38640305310E+02  0.38640305310E+02  0.00000000000E+00 0.  1.
         21   -1    0    0  503  502 -0.00000000000E+00 -0.00000000000E+00 -0.24810217330E+02  0.24810217330E+02  0.00000000000E+00 0.  1.
         21    1    1    2  503  501  0.29762983296E+02 -0.50213505765E+01  0.13986164196E+02  0.33266528602E+02  0.00000000000E+00 0.  1.
         21    1    1    2  504  502 -0.29762983296E+02  0.50213505765E+01 -0.15607621608E+00  0.30183994038E+02  0.00000000000E+00 0.  1.
</event>
<event>
 4    1  0.3372301E+006  0.3894031E+02  0.7546771E-02  0.1354810E+00
         21   -1    0    0  503  501  0.00000000000E+00  0.00000000000E+00  0.71829085023E+02  0.71829085023E+02  0.00000000000E+00 0. -1.
         21   -1    0    0  504  502 -0.00000000000E+00 -0.00000000000E+00 -0.24627067995E+02  0.24627067995E+02  0.00000000000E+00 0. -1.
         21    1    1    2  503  502  0.10594135065E+01  0.38925891165E+02  0.53765950535E+01  0.39309733328E+02  0.00000000000E+00 0. -1.
         21    1    1    2  504  501 -0.10594135065E+01 -0.38925891165E+02  0.41825421975E+02  0.57146419689E+02  0.00000000000E+00 0. -1.
</event>
<event>
 4    1  0.3372301E+006  0.2105357E+02  0.7546771E-02  0.1518501E+00
         21   -1    0    0  503  501  0.00000000000E+00  0.00000000000E+00  0.10884900835E+02  0.10884900835E+02  0.00000000000E+00 0. -1.
         21   -1    0    0  504  502 -0.00000000000E+00 -0.00000000000E+00 -0.85478676084E+03  0.85478676084E+03  0.00000000000E+00 0. -1.
         21    1    1    2  503  502  0.57727828864E+01 -0.20246671667E+02 -0.84435086547E+03  0.84461330605E+03  0.00000000000E+00 0. -1.
         21    1    1    2  504  501 -0.57727828864E+01  0.20246671667E+02  0.44900546238E+00  0.21058355628E+02  0.00000000000E+00 0. -1.
</event>
<event>
 4    1  0.3372301E+006  0.7089750E+02  0.7546771E-02  0.1226719E+00
         21   -1    0    0  503  501  0.00000000000E+00  0.00000000000E+00  0.22700184315E+03  0.22700184315E+03  0.00000000000E+00 0. -1.
         21   -1    0    0  501  502 -0.00000000000E+00 -0.00000000000E+00 -0.15377757864E+03  0.15377757864E+03  0.00000000000E+00 0.  1.
         21    1    1    2  503  504  0.75633101418E+01  0.70492917842E+02  0.21276199062E+03  0.22426350524E+03  0.00000000000E+00 0. -1.
         21    1    1    2  504  502 -0.75633101418E+01 -0.70492917842E+02 -0.13953772611E+03  0.15651591655E+03  0.00000000000E+00 0.  1.
</event>
<event>
 4    1  0.3372301E+006  0.2597672E+02  0.7546771E-02  0.1458167E+00
         21   -1    0    0  503  501  0.00000000000E+00  0.00000000000E+00  0.52983677097E+02  0.52983677097E+02  0.00000000000E+00 0. -1.
         21   -1    0    0  504  502 -0.00000000000E+00 -0.00000000000E+00 -0.15818546255E+02  0.15818546255E+02  0.00000000000E+00 0.  1.
         21    1    1    2  503  502  0.44159658685E+01  0.25598613667E+02  0.33960640210E+01  0.26197767597E+02  0.00000000000E+00 0.  1.
         21    1    1    2  504  501 -0.44159658685E+01 -0.25598613667E+02  0.33769066821E+02  0.42604455755E+02  0.00000000000E+00 0. -1.
</event>
<event>
 4    1  0.3372301E+006  0.2118792E+02  0.7546771E-02  0.1516599E+00
         21   -1    0    0  502  501  0.00000000000E+00  0.00000000000E+00  0.24731818909E+01  0.24731818909E+01  0.00000000000E+00 0.  1.
         21   -1    0    0  504  502 -0.00000000000E+00 -0.00000000000E+00 -0.35704671639E+03  0.35704671639E+03  0.00000000000E+00 0.  1.
         21    1    1    2  503  501  0.18016403425E+02  0.11150656479E+02 -0.51248027457E+02  0.55455281539E+02  0.00000000000E+00 0.  1.
         21    1    1    2  504  503 -0.18016403425E+02 -0.11150656479E+02 -0.30332550704E+03  0.30406461674E+03  0.00000000000E+00 0.  1.
</event>
<event>
 4    1  0.3372301E+006  0.2410920E+02  0.7546771E-02  0.1479021E+00
         21   -1    0    0  503  501  0.00000000000E+00  0.00000000000E+00  0.39982851769E+03  0.39982851769E+03  0.00000000000E+00 0.  1.
         21   -1    0    0  501  502 -0.00000000000E+00 -0.00000000000E+00 -0.18297958067E+02  0.18297958067E+02  0.00000000000E+00 0. -1.
         21    1    1    2  503  504  0.23766304043E+02 -0.40517158137E+01  0.39135171650E+03  0.39209363628E+03  0.00000000000E+00 0.  1.
         21    1    1    2  504  502 -0.23766304043E+02  0.40517158137E+01 -0.98211568716E+01  0.26032839477E+02  0.00000000000E+00 0. -1.
</event>
<event>
 4    1  0.3372301E+006  0.3629586E+02  0.7546771E-02  0.1371675E+00
         21   -1    0    0  503  501  0.00000000000E+00  0.00000000000E+00  0.85152866227E+03  0.85152866227E+03  0.00000000000E+00 0. -1.
         21   -1    0    0  504  502 -0.00000000000E+00 -0.00000000000E+00 -0.60310347846E+03  0.60310347846E+03  0.00000000000E+00 0. -1.
         21    1    1    2  503  502 -0.33796388722E+02  0.13236083876E+02  0.85059520345E+03  0.85136924418E+03  0.00000000000E+00 0. -1.
         21    1    1    2  504  501  0.33796388722E+02 -0.13236083876E+02 -0.60217001963E+03  0.60326289655E+03  0.00000000000E+00 0. -1.
</event>
<event>
 4    1  0.3372301E+006  0.2360729E+02  0.7546771E-02  0.1485010E+00
         21   -1    0    0  504  501  0.00000000000E+00  0.00000000000E+00  0.65035928281E+01  0.65035928281E+01  0.00000000000E+00 0.  1.
         21   -1    0    0  503  502 -0.00000000000E+00 -0.00000000000E+00 -0.16049219705E+03  0.16049219705E+03  0.00000000000E+00 0.  1.
         21    1    1    2  503  501 -0.20889843264E+02 -0.10996295046E+02 -0.13399770064E+03  0.13606133850E+03  0.00000000000E+00 0.  1.
         21    1    1    2  504  502  0.20889843264E+02  0.10996295046E+02 -0.19990903582E+02  0.30934451383E+02  0.00000000000E+00 0.  1.
</event>
<event>
 4    1  0.3372301E+006  0.2285209E+02  0.7546771E-02  0.1494364E+00
         21   -1    0    0  504  501  0.00000000000E+00  0.00000000000E+00  0.16449049996E+01  0.16449049996E+01  0.00000000000E+00 0.  1.
         21   -1    0    0  503  502 -0.00000000000E+00 -0.00000000000E+00 -0.47845597472E+03  0.47845597472E+03  0.00000000000E+00 0.  1.
         21    1    1    2  503  501 -0.21791564855E+02 -0.68808076539E+01 -0.99164423540E+02  0.10176345468E+03  0.00000000000E+00 0.  1.
         21    1    1    2  504  502  0.21791564855E+02  0.68808076539E+01 -0.37764664619E+03  0.37833742504E+03  0.00000000000E+00 0.  1.
</event>
<event>
 4    1  0.3372301E+006  0.2283163E+02  0.7546771E-02  0.1494623E+00
         21   -1    0    0  503  501  0.00000000000E+00  0.00000000000E+00  0.45171713328E+02  0.45171713328E+02  0.00000000000E+00 0. -1.
         21   -1    0    0  504  502 -0.00000000000E+00 -0.00000000000E+00 -0.29960684452E+02  0.29960684452E+02  0.00000000000E+00 0. -1.
         21    1    1    2  503  502 -0.16340241291E+02 -0.15946154260E+02  0.37061517292E+02  0.43529752872E+02  0.00000000000E+00 0. -1.
         21    1    1    2  504  501  0.16340241291E+02  0.15946154260E+02 -0.21850488417E+02  0.31602644908E+02  0.00000000000E+00 0. -1.
</event>
<event>
 4    1  0.3372301E+006  0.4005936E+02  0.7546771E-02  0.1348138E+00
         21   -1    0    0  503  501  0.00000000000E+00  0.00000000000E+00  0.14589348561E+02  0.14589348561E+02  0.00000000000E+00 0. -1.
         21   -1    0    0  501  502 -0.00000000000E+00 -0.00000000000E+00 -0.13260253454E+03  0.13260253454E+03  0.00000000000E+00 0.  1.
         21    1    1    2  503  504 -0.39900644157E+02 -0.35624618995E+01 -0.28618290901E+02  0.49231688098E+02  0.00000000000E+00 0. -1.
         21    1    1    2  504  502  0.39900644157E+02  0.35624618995E+01 -0.89394895081E+02  0.97960195005E+02  0.00000000000E+00 0.  1.
</event>
<event>
 4    1  0.3372301E+006  0.2084780E+02  0.7546771E-02  0.1521449E+00
         21   -1    0    0  502  501  0.00000000000E+00  0.00000000000E+00  0.43640004322E+02  0.43640004322E+02  0.00000000000E+00 0.  1.
         21   -1    0    0  503  502 -0.00000000000E+00 -0.00000000000E+00 -0.21128078242E+02  0.21128078242E+02  0.00000000000E+00 0. -1.
         21    1    1    2  503  504  0.18155988148E+02 -0.10246507197E+02 -0.12289150936E+02  0.24200290206E+02  0.00000000000E+00 0. -1.
         21    1    1    2  504  501 -0.18155988148E+02  0.10246507197E+02  0.34801077016E+02  0.40567792358E+02  0.00000000000E+00 0.  1.
</event>
<event>
 4    1  0.3372301E+006  0.2912713E+02  0.7546771E-02  0.1427336E+00
         21   -1    0    0  503  501  0.00000000000E+00  0.00000000000E+00  0.18829648099E+02  0.18829648099E+02  0.00000000000E+00 0.  1.
         21   -1    0    0  504  502 -0.00000000000E+00 -0.00000000000E+00 -0.13376051993E+03  0.13376051993E+03  0.00000000000E+00 0. -1.
         21    1    1    2  503  502  0.67089321277E+01  0.28343962625E+02  0.46651256828E+01  0.29498362416E+02  0.00000000000E+00 0.  1.
         21    1    1    2  504  501 -0.67089321277E+01 -0.28343962625E+02 -0.11959599751E+03  0.12309180561E+03  0.00000000000E+00 0. -1.
</event>
<event>
 4    1  0.3372301E+006  0.2039265E+02  0.7546771E-02  0.1528116E+00
         21   -1    0    0  503  501  0.00000000000E+00  0.00000000000E+00  0.33425725537E+03  0.33425725537E+03  0.00000000000E+00 0. -1.
         21   -1    0    0  504  502 -0.00000000000E+00 -0.00000000000E+00 -0.12446863567E+01  0.12446863567E+01  0.00000000000E+00 0. -1.
         21    1    1    2  503  502  0.19492991985E+02 -0.59902797635E+01  0.17004611311E+03  0.17126453449E+03  0.00000000000E+00 0. -1.
         21    1    1    2  504  501 -0.19492991985E+02  0.59902797635E+01  0.16296645590E+03  0.16423740724E+03  0.00000000000E+00 0. -1.
</event>
<event>
 4    1  0.3372301E+006  0.2734229E+02  0.7546771E-02  0.1444200E+00
         21   -1    0    0  504  501  0.00000000000E+00  0.00000000000E+00  0.39724982099E+01  0.39724982099E+01  0.00000000000E+00 0. -1.
         21   -1    0    0  503  502 -0.00000000000E+00 -0.00000000000E+00 -0.99307485432E+03  0.99307485432E+03  0.00000000000E+00 0. -1.
         21    1    1    2  503  501  0.27011753977E+02 -0.42386352052E+01 -0.94335914463E+03  0.94375530549E+03  0.00000000000E+00 0. -1.
         21    1    1    2  504  502 -0.27011753977E+02  0.42386352052E+01 -0.45743211481E+02  0.53292047042E+02  0.00000000000E+00 0. -1.
</event>
<event>
 4    1  0.3372301E+006  0.2203116E+02  0.7546771E-02  0.1505036E+00
         21   -1    0    0  504  501  0.00000000000E+00  0.00000000000E+00  0.48062937788E+02  0.48062937788E+02  0.00000000000E+00 0. -1.
         21   -1    0    0  503  502 -0.00000000000E+00 -0.00000000000E+00 -0.11721464434E+02  0.11721464434E+02  0.00000000000E+00 0. -1.
         21    1    1    2  503  501 -0.19118605586E+02  0.10947649538E+02  0.70483572798E+01  0.23131179181E+02  0.00000000000E+00 0. -1.
         21    1    1    2  504  502  0.19118605586E+02 -0.10947649538E+02  0.29293116075E+02  0.36653223041E+02  0.00000000000E+00 0. -1.
</event>
<event>
 4    1  0.3372301E+006  0.2301372E+02  0.7546771E-02  0.1492326E+00
         21   -1    0    0  504  501  0.00000000000E+00  0.00000000000E+00  0.16054534475E+02  0.16054534475E+02  0.00000000000E+00 0. -1.
         21   -1    0    0  503  502 -0.00000000000E+00 -0.00000000000E+00 -0.33424705355E+02  0.33424705355E+02  0.00000000000E+00 0. -1.
         21    1    1    2  503  501  0.12447045835E+02  0.19357231675E+02 -0.58621761365E+01  0.23748610005E+02  0.00000000000E+00 0. -1.
         21    1    1    2  504  502 -0.12447045835E+02 -0.19357231675E+02 -0.11507994743E+02  0.25730629824E+02  0.00000000000E+00 0. -1.
</event>
<event>
 4    1  0.3372301E+006  0.2394578E+02  0.7546771E-02  0.1480952E+00
         21   -1    0    0  503  501  0.00000000000E+00  0.00000000000E+00  0.86319513616E+02  0.86319513616E+02  0.00000000000E+00 0. -1.
         21   -1    0    0  504  502 -0.00000000000E+00 -0.00000000000E+00 -0.65452290914E+02  0.65452290914E+02  0.00000000000E+00 0.  1.
         21    1    1    2  503  502 -0.77855755852E+01  0.22644759660E+02 -0.61498450954E+02  0.65995907426E+02  0.00000000000E+00 0.  1.
         21    1    1    2  504  501  0.77855755852E+01 -0.22644759660E+02  0.82365673656E+02  0.85775897104E+02  0.00000000000E+00 0. -1.
</event>
<event>
 4    1  0.3372301E+006  0.2019735E+02  0.7546771E-02  0.1531040E+00
         21   -1    0    0  502  501  0.00000000000E+00  0.00000000000E+00  0.73307417131E+01  0.73307417131E+01  0.00000000000E+00 0.  1.
         21   -1    0    0  503  502 -0.00000000000E+00 -0.00000000000E+00 -0.21220859909E+03  0.21220859909E+03  0.00000000000E+00 0.  1.
         21    1    1    2  503  504 -0.80266742491E+01 -0.18533898334E+02 -0.19672415872E+03  0.19775825523E+03  0.00000000000E+00 0.  1.
         21    1    1    2  504  501  0.80266742491E+01  0.18533898334E+02 -0.81536986543E+01  0.21781085572E+02  0.00000000000E+00 0.  1.
</event>
<event>
 4    1  0.3372301E+006  0.2104865E+02  0.7546771E-02  0.1518571E+00
         21   -1    0    0  504  501  0.00000000000E+00  0.00000000000E+00  0.50957319525E+02  0.50957319525E+02  0.00000000000E+00 0.  1.
         21   -1    0    0  503  502 -0.00000000000E+00 -0.00000000000E+00 -0.34736432920E+03  0.34736432920E+03  0.00000000000E+00 0.  1.
         21    1    1    2  503  501 -0.17837990374E+02  0.11173714368E+02  0.48449050102E+02  0.52823822743E+02  0.00000000000E+00 0.  1.
         21    1    1    2  504  502  0.17837990374E+02 -0.11173714368E+02 -0.34485605978E+03  0.34549782598E+03  0.00000000000E+00 0.  1.
</event>
<event>
 4    1  0.3372301E+006  0.4219589E+02  0.7546771E-02  0.1336077E+00
         21   -1    0    0  503  501  0.00000000000E+00  0.00000000000E+00  0.20517624479E+02  0.20517624479E+02  0.00000000000E+00 0. -1.
         21   -1    0    0  504  502 -0.00000000000E+00 -0.00000000000E+00 -0.10796858378E+03  0.10796858378E+03  0.00000000000E+00 0.  1.
         21    1    1    2  503  502  0.25346818523E+02 -0.33734723386E+02 -0.15265007130E+02  0.44872187531E+02  0.00000000000E+00 0. -1.
         21    1    1    2  504  501 -0.25346818523E+02  0.33734723386E+02 -0.72185952168E+02  0.83614020723E+02  0.00000000000E+00 0.  1.
</event>
<event>
 4    1  0.3372301E+006  0.2174644E+02  0.7546771E-02  0.1508869E+00
         21   -1    0    0  502  501  0.00000000000E+00  0.00000000000E+00  0.61666862285E+03  0.61666862285E+03  0.00000000000E+00 0.  1.
         21   -1    0    0  503  502 -0.00000000000E+00 -0.00000000000E+00 -0.87371197394E+01  0.87371197394E+01  0.00000000000E+00 0. -1.
         21    1    1    2  503  504 -0.18932021210E+02 -0.10699832825E+02  0.53012892868E+01  0.22383286571E+02  0.00000000000E+00 0. -1.
         21    1    1    2  504  501  0.18932021210E+02  0.10699832825E+02  0.60263021383E+03  0.60302245602E+03  0.00000000000E+00 0.  1.
</event>
<event>
 4    1  0.3372301E+006  0.5478161E+02  0.7546771E-02  0.1278674E+00
         21   -1    0    0  503  501  0.00000000000E+00  0.00000000000E+00  0.56734984979E+02  0.56734984979E+02  0.00000000000E+00 0. -1.
         21   -1    0    0  504  502 -0.00000000000E+00 -0.00000000000E+00 -0.92214292501E+02  0.92214292501E+02  0.00000000000E+00 0.  1.
         21    1    1    2  503  502  0.18182683690E+02 -0.51676051873E+02 -0.66370236814E+02  0.86058309640E+02  0.00000000000E+00 0.  1.
         21    1    1    2  504  501 -0.18182683690E+02  0.51676051873E+02  0.30890929292E+02  0.62890967840E+02  0.00000000000E+00 0. -1.
</event>
<event>
 4    1  0.3372301E+006  0.2230105E+02  0.7546771E-02  0.1501466E+00
         21   -1    0    0  502  501  0.00000000000E+00  0.00000000000E+00  0.82213713748E+02  0.82213713748E+02  0.00000000000E+00 0. -1.
         21   -1    0    0  503  502 -0.00000000000E+00 -0.00000000000E+00 -0.46584825083E+02  0.46584825083E+02  0.00000000000E+00 0. -1.
         21    1    1    2  503  504  0.49244654900E+01 -0.21750555320E+02 -0.42258165940E+02  0.47781686929E+02  0.00000000000E+00 0. -1.
         21    1    1    2  504  501 -0.49244654900E+01  0.21750555320E+02  0.77887054605E+02  0.81016851902E+02  0.00000000000E+00 0. -1.
</event>
<event>
 4    1  0.3372301E+006  0.2160054E+02  0.7546771E-02  0.1510861E+00
         21   -1    0    0  503  501  0.00000000000E+00  0.00000000000E+00  0.11528466835E+03  0.11528466835E+03  0.00000000000E+00 0. -1.
         21   -1    0    0  504  502 -0.00000000000E+00 -0.00000000000E+00 -0.11596574962E+02  0.11596574962E+02  0.00000000000E+00 0. -1.
         21    1    1    2  503  502 -0.20110355677E+02 -0.78839549800E+01  0.10303076648E+03  0.10527070814E+03  0.00000000000E+00 0. -1.
         21    1    1    2  504  501  0.20110355677E+02  0.78839549800E+01  0.65732690831E+00  0.21610535168E+02  0.00000000000E+00 0. -1.
</event>
<event>
 4    1  0.3372301E+006  0.2951945E+02  0.7546771E-02  0.1423819E+00
         21   -1    0    0  503  501  0.00000000000E+00  0.00000000000E+00  0.23699174199E+02  0.23699174199E+02  0.00000000000E+00 0.  1.
         21   -1    0    0  504  502 -0.00000000000E+00 -0.00000000000E+00 -0.41792621580E+02  0.41792621580E+02  0.00000000000E+00 0.  1.
         21    1    1    2  503  502 -0.12963335383E+02  0.26520748014E+02 -0.20399699485E+02  0.35882389533E+02  0.00000000000E+00 0.  1.
         21    1    1    2  504  501  0.12963335383E+02 -0.26520748014E+02  0.23062521033E+01  0.29609406246E+02  0.00000000000E+00 0.  1.
</event>
<event>
 4    1  0.3372301E+006  0.2423854E+02  0.7546771E-02  0.1477505E+00
         21   -1    0    0  504  501  0.00000000000E+00  0.00000000000E+00  0.49153491006E+01  0.49153491006E+01  0.00000000000E+00 0. -1.
         21   -1    0    0  503  502 -0.00000000000E+00 -0.00000000000E+00 -0.12158951247E+03  0.12158951247E+03  0.00000000000E+00 0. -1.
         21    1    1    2  503  501  0.24203563094E+02 -0.13017427202E+01 -0.50094940084E+02  0.55650786361E+02  0.00000000000E+00 0. -1.
         21    1    1    2  504  502 -0.24203563094E+02  0.13017427202E+01 -0.66579223289E+02  0.70854075214E+02  0.00000000000E+00 0. -1.
</event>
<event>
 4    1  0.3372301E+006  0.2455650E+02  0.7546771E-02  0.1473826E+00
         21   -1    0    0  503  501  0.00000000000E+00  0.00000000000E+00  0.71419408160E+02  0.71419408160E+02  0.00000000000E+00 0.  1.
         21   -1    0    0  504  502 -0.00000000000E+00 -0.00000000000E+00 -0.90697281352E+02  0.90697281352E+02  0.00000000000E+00 0.  1.
         21    1    1    2  503  502 -0.23202774068E+02 -0.80406966005E+01  0.67554226551E+02  0.71879030677E+02  0.00000000000E+00 0.  1.
         21    1    1    2  504  501  0.23202774068E+02  0.80406966005E+01 -0.86832099742E+02  0.90237658834E+02  0.00000000000E+00 0.  1.
</event>
<event>
 4    1  0.3372301E+006  0.2068356E+02  0.7546771E-02  0.1523831E+00
         21   -1    0    0  504  501  0.00000000000E+00  0.00000000000E+00  0.83067869021E+01  0.83067869021E+01  0.00000000000E+00 0. -1.
         21   -1    0    0  503  502 -0.00000000000E+00 -0.00000000000E+00 -0.70755065902E+02  0.70755065902E+02  0.00000000000E+00 0. -1.
         21    1    1    2  503  501  0.18661067007E+02  0.89204315297E+01 -0.51845492517E+02  0.55819034521E+02  0.00000000000E+00 0. -1.
         21    1    1    2  504  502 -0.18661067007E+02 -0.89204315297E+01 -0.10602786482E+02  0.23242818282E+02  0.00000000000E+00 0. -1.
</event>
<event>
 4    1  0.3372301E+006  0.2658104E+02  0.7546771E-02  0.1451863E+00
         21   -1    0    0  504  501  0.00000000000E+00  0.00000000000E+00  0.17461395073E+03  0.17461395073E+03  0.00000000000E+00 0.  1.
         21   -1    0    0  503  502 -0.00000000000E+00 -0.00000000000E+00 -0.15596565723E+02  0.15596565723E+02  0.00000000000E+00 0.  1.
         21    1    1    2  503  501  0.68065980829E+01 -0.25694780326E+02 -0.23349281271E+01  0.26683391892E+02  0.00000000000E+00 0.  1.
         21    1    1    2  504  502 -0.68065980829E+01  0.25694780326E+02  0.16135231313E+03  0.16352712456E+03  0.00000000000E+00 0.  1.
</event>
<event>
 4    1  0.3372301E+006  0.2158659E+02  0.7546771E-02  0.1511052E+00
         21   -1    0    0  504  501  0.00000000000E+00  0.00000000000E+00  0.11278048194E+02  0.11278048194E+02  0.00000000000E+00 0.  1.
         21   -1    0    0  503  502 -0.00000000000E+00 -0.00000000000E+00 -0.13683102974E+03  0.13683102974E+03  0.00000000000E+00 0.  1.
         21    1    1    2  503  501 -0.24528840619E+00 -0.21585196080E+02 -0.12464815704E+03  0.12650353319E+03  0.00000000000E+00 0.  1.
         21    1    1    2  504  502  0.24528840619E+00  0.21585196080E+02 -0.90482450535E+00  0.21605544742E+02  0.00000000000E+00 0.  1.
</event>
<event>
 4    1  0.3372301E+006  0.7242786E+02  0.7546771E-02  0.1222609E+00
         21   -1    0    0  503  501  0.00000000000E+00  0.00000000000E+00  0.14942529458E+02  0.14942529458E+02  0.00000000000E+00 0. -1.
         21   -1    0    0  501  502 -0.00000000000E+00 -0.00000000000E+00 -0.50839764821E+03  0.50839764821E+03  0.00000000000E+00 0. -1.
         21    1    1    2  503  504 -0.56860611396E+02  0.44862742043E+02 -0.10116082348E+03  0.12441586297E+03  0.00000000000E+00 0. -1.
         21    1    1    2  504  502  0.56860611396E+02 -0.44862742043E+02 -0.39229429528E+03  0.39892431470E+03  0.00000000000E+00 0. -1.
</event>
<event>
 4    1  0.3372301E+006  0.2399446E+02  0.7546771E-02  0.1480374E+00
         21   -1    0    0  503  501  0.00000000000E+00  0.00000000000E+00  0.21745193267E+03  0.21745193267E+03  0.00000000000E+00 0.  1.
         21   -1    0    0  504  502 -0.00000000000E+00 -0.00000000000E+00 -0.26999471411E+01  0.26999471411E+01  0.00000000000E+00 0.  1.
         21    1    1    2  503  502  0.13852995852E+01  0.23954435280E+02  0.92054428759E+02  0.95130183847E+02  0.00000000000E+00 0.  1.
         21    1    1    2  504  501 -0.13852995852E+01 -0.23954435280E+02  0.12269755677E+03  0.12502169597E+03  0.00000000000E+00 0.  1.
</event>
<event>
 4    1  0.3372301E+006  0.2048032E+02  0.7546771E-02  0.1526815E+00
         21   -1    0    0  504  501  0.00000000000E+00  0.00000000000E+00  0.45641084259E+01  0.45641084259E+01  0.00000000000E+00 0. -1.
         21   -1    0    0  503  502 -0.00000000000E+00 -0.00000000000E+00 -0.19513410353E+03  0.19513410353E+03  0.00000000000E+00 0. -1.
         21    1    1    2  503  501  0.18687908285E+02 -0.83788845477E+01 -0.22659647476E+02  0.30543464867E+02  0.00000000000E+00 0. -1.
         21    1    1    2  504  502 -0.18687908285E+02  0.83788845477E+01 -0.16791034763E+03  0.16915474709E+03  0.00000000000E+00 0. -1.
</event>
<event>
 4    1  0.3372301E+006  0.2155002E+02  0.7546771E-02  0.1511555E+00
         21   -1    0    0  503  501  0.00000000000E+00  0.00000000000E+00  0.75976292597E+01  0.75976292597E+01  0.00000000000E+00 0. -1.
         21   -1    0    0  501  502 -0.00000000000E+00 -0.00000000000E+00 -0.21886820343E+03  0.21886820343E+03  0.00000000000E+00 0. -1.
         21    1    1    2  503  504 -0.12387809203E+02 -0.17633646753E+02 -0.95057157265E+01  0.23553385024E+02  0.00000000000E+00 0. -1.
         21    1    1    2  504  502  0.12387809203E+02  0.17633646753E+02 -0.20176485844E+03  0.20291244766E+03  0.00000000000E+00 0. -1.
</event>
<event>
 4    1  0.3372301E+006  0.2102441E+02  0.7546771E-02  0.1518917E+00
         21   -1    0    0  503  501  0.00000000000E+00  0.00000000000E+00  0.78948033489E+03  0.78948033489E+03  0.00000000000E+00 0. -1.
         21   -1    0    0  501  502 -0.00000000000E+00 -0.00000000000E+00 -0.29562869241E+02  0.29562869241E+02  0.00000000000E+00 0.  1.
         21    1    1    2  503  504 -0.99549308215E+01  0.18518236018E+02  0.78558380957E+03  0.78586509502E+03  0.00000000000E+00 0. -1.
         21    1    1    2  504  502  0.99549308215E+01 -0.18518236018E+02 -0.25666343929E+02  0.33178109102E+02  0.00000000000E+00 0.  1.
</event>
<event>
 4    1  0.3372301E+006  0.2255557E+02  0.7546771E-02  0.1498156E+00
         21   -1    0    0  504  501  0.00000000000E+00  0.00000000000E+00  0.94644906803E+00  0.94644906803E+00  0.00000000000E+00 0.  1.
         21   -1    0    0  503  502 -0.00000000000E+00 -0.00000000000E+00 -0.12489475799E+04  0.12489475799E+04  0.00000000000E+00 0.  1.
         21    1    1    2  503  501 -0.22472336809E+02  0.19359835452E+01 -0.10956620635E+04  0.10958942063E+04  0.00000000000E+00 0.  1.
         21    1    1    2  504  502  0.22472336809E+02 -0.19359835452E+01 -0.15233906734E+03  0.15399982270E+03  0.00000000000E+00 0.  1.
</event>
<event>
 4    1  0.3372301E+006  0.2295549E+02  0.7546771E-02  0.1493058E+00
         21   -1    0    0  503  501  0.00000000000E+00  0.00000000000E+00  0.10851721522E+02  0.10851721522E+02  0.00000000000E+00 0.  1.
         21   -1    0    0  504  502 -0.00000000000E+00 -0.00000000000E+00 -0.80157938493E+02  0.80157938493E+02  0.00000000000E+00 0. -1.
         21    1    1    2  503  502  0.63881973744E+00  0.22946598600E+02 -0.63223542849E+02  0.67261956917E+02  0.00000000000E+00 0. -1.
         21    1    1    2  504  501 -0.63881973744E+00 -0.22946598600E+02 -0.60826741223E+01  0.23747703098E+02  0.00000000000E+00 0.  1.
</event>
<event>
 4    1  0.3372301E+006  0.2213120E+02  0.7546771E-02  0.1503706E+00
         21   -1    0    0  504  501  0.00000000000E+00  0.00000000000E+00  0.27676415880E+02  0.27676415880E+02  0.00000000000E+00 0.  1.
         21   -1    0    0  503  502 -0.00000000000E+00 -0.00000000000E+00 -0.65676905587E+02  0.65676905587E+02  0.00000000000E+00 0.  1.
         21    1    1    2  503  501  0.70261925682E+01  0.20986245413E+02  0.20895178268E+02  0.30436792758E+02  0.00000000000E+00 0.  1.
         21    1    1    2  504  502 -0.70261925682E+01 -0.20986245413E+02 -0.58895667975E+02  0.62916528709E+02  0.00000000000E+00 0.  1.
</event>
<event>
 4    1  0.3372301E+006  0.2244843E+02  0.7546771E-02  0.1499543E+00
         21   -1    0    0  503  501  0.00000000000E+00  0.00000000000E+00  0.25226911270E+02  0.25226911270E+02  0.00000000000E+00 0.  1.
         21   -1    0    0  504  502 -0.00000000000E+00 -0.00000000000E+00 -0.20386168994E+02  0.20386168994E+02  0.00000000000E+00 0.  1.
         21    1    1    2  503  502 -0.92865297958E+00  0.22429208995E+02  0.56555128014E+01  0.23149873381E+02  0.00000000000E+00 0.  1.
         21    1    1    2  504  501  0.92865297958E+00 -0.22429208995E+02 -0.81477052567E+00  0.22463206884E+02  0.00000000000E+00 0.  1.
</event>
<event>
 4    1  0.3372301E+006  0.4730147E+02  0.7546771E-02  0.1310316E+00
         21   -1    0    0  503  501  0.00000000000E+00  0.00000000000E+00  0.20140900626E+03  0.20140900626E+03  0.00000000000E+00 0.  1.
         21   -1    0    0  501  502 -0.00000000000E+00 -0.00000000000E+00 -0.18379554191E+02  0.18379554191E+02  0.00000000000E+00 0.  1.
         21    1    1    2  503  504 -0.95047452127E+01  0.46336692883E+02  0.16063330878E+03  0.16745294616E+03  0.00000000000E+00 0.  1.
         21    1    1    2  504  502  0.95047452127E+01 -0.46336692883E+02  0.22396143292E+02  0.52335614291E+02  0.00000000000E+00 0.  1.
</event>
<event>
 4    1  0.3372301E+006  0.2685928E+02  0.7546771E-02  0.1449027E+00
         21   -1    0    0  504  501  0.00000000000E+00  0.00000000000E+00  0.98595957734E+01  0.98595957734E+01  0.00000000000E+00 0.  1.
         21   -1    0    0  503  502 -0.00000000000E+00 -0.00000000000E+00 -0.82549521537E+02  0.82549521537E+02  0.00000000000E+00 0.  1.
         21    1    1    2  503  501  0.19877868570E+02  0.18063537320E+02 -0.51920068425E+02  0.58456090741E+02  0.00000000000E+00 0.  1.
         21    1    1    2  504  502 -0.19877868570E+02 -0.18063537320E+02 -0.20769857339E+02  0.33953026570E+02  0.00000000000E+00 0.  1.
</event>
<event>
 4    1  0.3372301E+006  0.2435388E+02  0.7546771E-02  0.1476163E+00
         21   -1    0    0  504  501  0.00000000000E+00  0.00000000000E+00  0.30700358497E+02  0.30700358497E+02  0.00000000000E+00 0. -1.
         21   -1    0    0  503  502 -0.00000000000E+00 -0.00000000000E+00 -0.91361487213E+03  0.91361487213E+03  0.00000000000E+00 0. -1.
         21    1    1    2  503  501  0.19897071383E+02  0.14043441445E+02 -0.90859605682E+03  0.90892238731E+03  0.00000000000E+00 0. -1.
         21    1    1    2  504  502 -0.19897071383E+02 -0.14043441445E+02  0.25681543185E+02  0.35392843311E+02  0.00000000000E+00 0. -1.
</event>
<event>
 4    1  0.3372301E+006  0.2683986E+02  0.7546771E-02  0.1449223E+00
         21   -1    0    0  503  501  0.00000000000E+00  0.00000000000E+00  0.34084503065E+01  0.34084503065E+01  0.00000000000E+00 0.  1.
         21   -1    0    0  504  502 -0.00000000000E+00 -0.00000000000E+00 -0.24107963004E+03  0.24107963004E+03  0.00000000000E+00 0.  1.
         21    1    1    2  503  502 -0.26761040996E+02 -0.20554767412E+01 -0.16176324846E+03  0.16397477505E+03  0.00000000000E+00 0.  1.
         21    1    1    2  504  501  0.26761040996E+02  0.20554767412E+01 -0.75907931273E+02  0.80513305297E+02  0.00000000000E+00 0.  1.
</event>
<event>
 4    1  0.3372301E+006  0.2520058E+02  0.7546771E-02  0.1466572E+00
         21   -1    0    0  503  501  0.00000000000E+00  0.00000000000E+00  0.43898566299E+01  0.43898566299E+01  0.00000000000E+00 0.  1.
         21   -1    0    0  504  502 -0.00000000000E+00 -0.00000000000E+00 -0.57031414565E+03  0.57031414565E+03  0.00000000000E+00 0. -1.
         21    1    1    2  503  502 -0.22711594413E+02 -0.10920281217E+02 -0.53120789467E+03  0.53180531816E+03  0.00000000000E+00 0. -1.
         21    1    1    2  504  501  0.22711594413E+02  0.10920281217E+02 -0.34716394350E+02  0.42898684120E+02  0.00000000000E+00 0.  1.
</event>
<event>
 4    1  0.3372301E+006  0.2005753E+02  0.7546771E-02  0.1533158E+00
         21   -1    0    0  503  501  0.00000000000E+00  0.00000000000E+00  0.89987412018E+01  0.89987412018E+01  0.00000000000E+00 0.  1.
         21   -1    0    0  501  502 -0.00000000000E+00 -0.00000000000E+00 -0.50915690223E+03  0.50915690223E+03  0.00000000000E+00 0.  1.
         21    1    1    2  503  504 -0.19452461813E+02 -0.48894200789E+01 -0.26367700481E+01  0.20230107651E+02  0.00000000000E+00 0.  1.
         21    1    1    2  504  502  0.19452461813E+02  0.48894200789E+01 -0.49752139098E+03  0.49792553578E+03  0.00000000000E+00 0.  1.
</event>
<event>
 4    1  0.3372301E+006  0.2280044E+02  0.7546771E-02  0.1495019E+00
         21   -1    0    0  504  501  0.00000000000E+00  0.00000000000E+00  0.61013336454E+02  0.61013336454E+02  0.00000000000E+00 0. -1.
         21   -1    0    0  501  502 -0.00000000000E+00 -0.00000000000E+00 -0.14306731379E+04  0.14306731379E+04  0.00000000000E+00 0. -1.
         21    1    1    2  503  502 -0.40422761365E+01 -0.22439253220E+02 -0.14284488710E+04  0.14286308261E+04  0.00000000000E+00 0. -1.
         21    1    1    2  504  503  0.40422761365E+01  0.22439253220E+02  0.58789069564E+02  0.63055648293E+02  0.00000000000E+00 0. -1.
</event>
<event>
 4    1  0.3372301E+006  0.3322682E+02  0.7546771E-02  0.1393477E+00
         21   -1    0    0  503  501  0.00000000000E+00  0.00000000000E+00  0.10603031609E+03  0.10603031609E+03  0.00000000000E+00 0. -1.
         21   -1    0    0  504  502 -0.00000000000E+00 -0.00000000000E+00 -0.17151388129E+02  0.17151388129E+02  0.00000000000E+00 0. -1.
         21    1    1    2  503  502  0.13972070244E+02 -0.30146355547E+02  0.83046505548E+02  0.89446875761E+02  0.00000000000E+00 0. -1.
         21    1    1    2  504  501 -0.13972070244E+02  0.30146355547E+02  0.58324224093E+01  0.33734828455E+02  0.00000000000E+00 0. -1.
</event>
<event>
 4    1  0.3372301E+006  0.3167826E+02  0.7546771E-02  0.1405552E+00
         21   -1    0    0  502  501  0.00000000000E+00  0.00000000000E+00  0.30046134196E+01  0.30046134196E+01  0.00000000000E+00 0.  1.
         21   -1    0    0  504  502 -0.00000000000E+00 -0.00000000000E+00 -0.52450193206E+03  0.52450193206E+03  0.00000000000E+00 0. -1.
         21    1    1    2  503  501 -0.31978975859E+01  0.31516430271E+02 -0.10178970826E+03  0.10660514356E+03  0.00000000000E+00 0.  1.
         21    1    1    2  504  503  0.31978975859E+01 -0.31516430271E+02 -0.41970761038E+03  0.42090140192E+03  0.00000000000E+00 0. -1.
</event>
<event>
 4    1  0.3372301E+006  0.3805623E+02  0.7546771E-02  0.1360269E+00
         21   -1    0    0  504  501  0.00000000000E+00  0.00000000000E+00  0.31725196497E+01  0.31725196497E+01  0.00000000000E+00 0. -1.
         21   -1    0    0  503  502 -0.00000000000E+00 -0.00000000000E+00 -0.76350596574E+03  0.76350596574E+03  0.00000000000E+00 0. -1.
         21    1    1    2  503  501  0.37699029785E+02 -0.52019355056E+01 -0.13708874274E+03  0.14227297834E+03  0.00000000000E+00 0. -1.
         21    1    1    2  504  502 -0.37699029785E+02  0.52019355056E+01 -0.62324470335E+03  0.62440550705E+03  0.00000000000E+00 0. -1.
</event>
<event>
 4    1  0.3372301E+006  0.2240669E+02  0.7546771E-02  0.1500086E+00
         21   -1    0    0  504  501  0.00000000000E+00  0.00000000000E+00  0.13387529686E+02  0.13387529686E+02  0.00000000000E+00 0. -1.
         21   -1    0    0  503  502 -0.00000000000E+00 -0.00000000000E+00 -0.37525289333E+02  0.37525289333E+02  0.00000000000E+00 0. -1.
         21    1    1    2  503  501  0.22254285492E+02  0.26089246192E+01 -0.12702479269E+02  0.25756798909E+02  0.00000000000E+00 0. -1.
         21    1    1    2  504  502 -0.22254285492E+02 -0.26089246192E+01 -0.11435280379E+02  0.25156020110E+02  0.00000000000E+00 0. -1.
</event>
<event>
 4    1  0.3372301E+006  0.2062298E+02  0.7546771E-02  0.1524716E+00
         21   -1    0    0  503  501  0.00000000000E+00  0.00000000000E+00  0.12099540101E+03  0.12099540101E+03  0.00000000000E+00 0.  1.
         21   -1    0    0  504  502 -0.00000000000E+00 -0.00000000000E+00 -0.35590627583E+01  0.35590627583E+01  0.00000000000E+00 0.  1.
         21    1    1    2  503  502 -0.11274221849E+02  0.17268450378E+02  0.65641990440E+02  0.68805365821E+02  0.00000000000E+00 0.  1.
         21    1    1    2  504  501  0.11274221849E+02 -0.17268450378E+02  0.51794347808E+02  0.55749097944E+02  0.00000000000E+00 0.  1.
</event>
<event>
 4    1  0.3372301E+006  0.2179210E+02  0.7546771E-02  0.1508249E+00
         21   -1    0    0  504  501  0.00000000000E+00  0.00000000000E+00  0.83166867689E+02  0.83166867689E+02  0.00000000000E+00 0.  1.
         21   -1    0    0  503  502 -0.00000000000E+00 -0.00000000000E+00 -0.88523129170E+02  0.88523129170E+02  0.00000000000E+00 0. -1.
         21    1    1    2  503  501 -0.42711959740E+01 -0.21369431112E+02 -0.85708278290E+02  0.88435313470E+02  0.00000000000E+00 0. -1.
         21    1    1    2  504  502  0.42711959740E+01  0.21369431112E+02  0.80352016808E+02  0.83254683389E+02  0.00000000000E+00 0.  1.
</event>
<event>
 4    1  0.3372301E+006  0.2478881E+02  0.7546771E-02  0.1471180E+00
         21   -1    0    0  504  501  0.00000000000E+00  0.00000000000E+00  0.61122487120E+02  0.61122487120E+02  0.00000000000E+00 0. -1.
         21   -1    0    0  503  502 -0.00000000000E+00 -0.00000000000E+00 -0.24992653976E+02  0.24992653976E+02  0.00000000000E+00 0. -1.
         21    1    1    2  503  501  0.50836204145E+01  0.24261947582E+02  0.51354520252E+02  0.57024311020E+02  0.00000000000E+00 0. -1.
         21    1    1    2  504  502 -0.50836204145E+01 -0.24261947582E+02 -0.15224687108E+02  0.29090830076E+02  0.00000000000E+00 0. -1.
</event>
<event>
 4    1  0.3372301E+006  0.2909393E+02  0.7546771E-02  0.1427637E+00
         21   -1    0    0  503  501  0.00000000000E+00  0.00000000000E+00  0.22236791441E+02  0.22236791441E+02  0.00000000000E+00 0.  1.
         21   -1    0    0  501  502 -0.00000000000E+00 -0.00000000000E+00 -0.43299388597E+02  0.43299388597E+02  0.00000000000E+00 0.  1.
         21    1    1    2  503  504  0.11889920727E+02  0.26553469892E+02  0.86117466636E+00  0.29106676210E+02  0.00000000000E+00 0.  1.
         21    1    1    2  504  502 -0.11889920727E+02 -0.26553469892E+02 -0.21923771822E+02  0.36429503827E+02  0.00000000000E+00 0.  1.
</event>
<event>
 4    1  0.3372301E+006  0.2285631E+02  0.7546771E-02  0.1494310E+00
         21   -1    0    0  502  501  0.00000000000E+00  0.00000000000E+00  0.45230121977E+02  0.45230121977E+02  0.00000000000E+00 0. -1.
         21   -1    0    0  503  502 -0.00000000000E+00 -0.00000000000E+00 -0.41683808601E+03  0.41683808601E+03  0.00000000000E+00 0. -1.
         21    1    1    2  503  504 -0.22698846072E+02  0.26782835948E+01 -0.41361476696E+03  0.41424580416E+03  0.00000000000E+00 0. -1.
         21    1    1    2  504  501  0.22698846072E+02 -0.26782835948E+01  0.42006802926E+02  0.47822403830E+02  0.00000000000E+00 0. -1.
</event>
<event>
 4    1  0.3372301E+006  0.2392735E+02  0.7546771E-02  0.1481170E+00
         21   -1    0    0  503  501  0.00000000000E+00  0.00000000000E+00  0.38120858380E+02  0.38120858380E+02  0.00000000000E+00 0.  1.
         21   -1    0    0  504  502 -0.00000000000E+00 -0.00000000000E+00 -0.18663165007E+03  0.18663165007E+03  0.00000000000E+00 0.  1.
         21    1    1    2  503  502  0.20575208818E+02 -0.12213878448E+02 -0.18201529785E+03  0.18358128090E+03  0.00000000000E+00 0.  1.
         21    1    1    2  504  501 -0.20575208818E+02  0.12213878448E+02  0.33504506163E+02  0.41171227549E+02  0.00000000000E+00 0.  1.
</event>
<event>
 4    1  0.3372301E+006  0.2975797E+02  0.7546771E-02  0.1421712E+00
         21   -1    0    0  503  501  0.00000000000E+00  0.00000000000E+00  0.33189635323E+02  0.33189635323E+02  0.00000000000E+00 0.  1.
         21   -1    0    0  504  502 -0.00000000000E+00 -0.00000000000E+00 -0.37253224906E+02  0.37253224906E+02  0.00000000000E+00 0.  1.
         21    1    1    2  503  502 -0.25990444994E+02  0.14492531739E+02  0.16731354791E+02  0.34139053008E+02  0.00000000000E+00 0.  1.
         21    1    1    2  504  501  0.25990444994E+02 -0.14492531739E+02 -0.20794944374E+02  0.36303807221E+02  0.00000000000E+00 0.  1.
</event>
<event>
 4    1  0.3372301E+006  0.2813742E+02  0.7546771E-02  0.1436505E+00
         21   -1    0    0  504  501  0.00000000000E+00  0.00000000000E+00  0.36398307663E+03  0.36398307663E+03  0.00000000000E+00 0. -1.
         21   -1    0    0  503  502 -0.00000000000E+00 -0.00000000000E+00 -0.58113432945E+01  0.58113432945E+01  0.00000000000E+00 0. -1.
         21    1    1    2  503  501  0.18541428975E+02  0.21164346172E+02  0.32534270202E+03  0.32655717401E+03  0.00000000000E+00 0. -1.
         21    1    1    2  504  502 -0.18541428975E+02 -0.21164346172E+02  0.32829031309E+02  0.43237245911E+02  0.00000000000E+00 0. -1.
</event>
<event>
 4    1  0.3372301E+006  0.4626467E+02  0.7546771E-02  0.1315234E+00
         21   -1    0    0  502  501  0.00000000000E+00  0.00000000000E+00  0.25360273637E+03  0.25360273637E+03  0.00000000000E+00 0. -1.
         21   -1    0    0  504  502 -0.00000000000E+00 -0.00000000000E+00 -0.89632473932E+01  0.89632473932E+01  0.00000000000E+00 0. -1.
         21    1    1    2  503  501 -0.82020919967E+00  0.46257396758E+02  0.15403797953E+03  0.16083568831E+03  0.00000000000E+00 0. -1.
         21    1    1    2  504  503  0.82020919967E+00 -0.46257396758E+02  0.90601509446E+02  0.10173029545E+03  0.00000000000E+00 0. -1.
</event>
<event>
 4    1  0.3372301E+006  0.3024551E+02  0.7546771E-02  0.1417475E+00
         21   -1    0    0  503  501  0.00000000000E+00  0.00000000000E+00  0.42788015103E+03  0.42788015103E+03  0.00000000000E+00 0.  1.
         21   -1    0    0  501  502 -0.00000000000E+00 -0.00000000000E+00 -0.34880771317E+01  0.34880771317E+01  0.00000000000E+00 0. -1.
         21    1    1    2  503  504 -0.83681099006E+01 -0.29064850353E+02  0.34638314392E+03  0.34770112623E+03  0.00000000000E+00 0.  1.
         21    1    1    2  504  502  0.83681099006E+01  0.29064850353E+02  0.78008929978E+02  0.83667101932E+02  0.00000000000E+00 0. -1.
</event>
<event>
 4    1  0.3372301E+006  0.2622336E+02  0.7546771E-02  0.1455570E+00
         21   -1    0    0  503  501  0.00000000000E+00  0.00000000000E+00  0.37962792976E+01  0.37962792976E+01  0.00000000000E+00 0. -1.
         21   -1    0    0  501  502 -0.00000000000E+00 -0.00000000000E+00 -0.24037631126E+03  0.24037631126E+03  0.00000000000E+00 0. -1.
         21    1    1    2  503  504  0.13675414788E+02  0.22375151900E+02 -0.57684947868E+02  0.63365744710E+02  0.00000000000E+00 0. -1.
         21    1    1    2  504  502 -0.13675414788E+02 -0.22375151900E+02 -0.17889508410E+03  0.18080684585E+03  0.00000000000E+00 0. -1.
</event>
<event>
 4    1  0.3372301E+006  0.3354304E+02  0.7546771E-02  0.1391106E+00
         21   -1    0    0  503  501  0.00000000000E+00  0.00000000000E+00  0.17434386683E+03  0.17434386683E+03  0.00000000000E+00 0. -1.
         21   -1    0    0  504  502 -0.00000000000E+00 -0.00000000000E+00 -0.11087210552E+02  0.11087210552E+02  0.00000000000E+00 0. -1.
         21    1    1    2  503  502  0.13590942967E+02 -0.30666297311E+02  0.14156654883E+03  0.14548616178E+03  0.00000000000E+00 0. -1.
         21    1    1    2  504  501 -0.13590942967E+02  0.30666297311E+02  0.21690107452E+02  0.39944915606E+02  0.00000000000E+00 0. -1.
</event>
<event>
 4    1  0.3372301E+006  0.2567430E+02  0.7546771E-02  0.1461400E+00
         21   -1    0    0  504  501  0.00000000000E+00  0.00000000000E+00  0.53593999252E+02  0.53593999252E+02  0.00000000000E+00 0. -1.
         21   -1    0    0  503  502 -0.00000000000E+00 -0.00000000000E+00 -0.39511103702E+02  0.39511103702E+02  0.00000000000E+00 0. -1.
         21    1    1    2  503  501  0.21217504456E+02  0.14456387439E+02 -0.31591907718E+02  0.40708945779E+02  0.00000000000E+00 0. -1.
         21    1    1    2  504  502 -0.21217504456E+02 -0.14456387439E+02  0.45674803268E+02  0.52396157175E+02  0.00000000000E+00 0. -1.
</event>
<event>
 4    1  0.3372301E+006  0.2169134E+02  0.7546771E-02  0.1509619E+00
         21   -1    0    0  504  501  0.00000000000E+00  0.00000000000E+00  0.42302557924E+02  0.42302557924E+02  0.00000000000E+00 0. -1.
         21   -1    0    0  503  502 -0.00000000000E+00 -0.00000000000E+00 -0.61363128167E+02  0.61363128167E+02  0.00000000000E+00 0. -1.
         21    1    1    2  503  501 -0.21516963928E+02  0.27449257311E+01  0.37370314073E+02  0.43209428692E+02  0.00000000000E+00 0. -1.
         21    1    1    2  504  502  0.21516963928E+02 -0.27449257311E+01 -0.56430884316E+02  0.60456257399E+02  0.00000000000E+00 0. -1.
</event>
<event>
 4    1  0.3372301E+006  0.2893801E+02  0.7546771E-02  0.1429055E+00
         21   -1    0    0  503  501  0.00000000000E+00  0.00000000000E+00  0.30033745179E+02  0.30033745179E+02  0.00000000000E+00 0. -1.
         21   -1    0    0  504  502 -0.00000000000E+00 -0.00000000000E+00 -0.67990059460E+03  0.67990059460E+03  0.00000000000E+00 0.  1.
         21    1    1    2  503  502  0.27978034462E+02 -0.73917519346E+01  0.22679074985E+02  0.36766137289E+02  0.00000000000E+00 0. -1.
         21    1    1    2  504  501 -0.27978034462E+02  0.73917519346E+01 -0.67254592441E+03  0.67316820249E+03  0.00000000000E+00 0.  1.
</event>
<event>
 4    1  0.3372301E+006  0.2410674E+02  0.7546771E-02  0.1479049E+00
         21   -1    0    0  503  501  0.00000000000E+00  0.00000000000E+00  0.15703380730E+03  0.15703380730E+03  0.00000000000E+00 0. -1.
         21   -1    0    0  501  502 -0.00000000000E+00 -0.00000000000E+00 -0.44995186413E+02  0.44995186413E+02  0.00000000000E+00 0.  1.
         21    1    1    2  503  504  0.77310568615E+01 -0.22833431967E+02  0.15279064202E+03  0.15468068770E+03  0.00000000000E+00 0. -1.
         21    1    1    2  504  502 -0.77310568615E+01  0.22833431967E+02 -0.40752021140E+02  0.47348306016E+02  0.00000000000E+00 0.  1.
</event>
<event>
 4    1  0.3372301E+006  0.2169864E+02  0.7546771E-02  0.1509519E+00
         21   -1    0    0  504  501  0.00000000000E+00  0.00000000000E+00  0.70338461373E+00  0.70338461373E+00  0.00000000000E+00 0. -1.
         21   -1    0    0  501  502 -0.00000000000E+00 -0.00000000000E+00 -0.79246674217E+03  0.79246674217E+03  0.00000000000E+00 0. -1.
         21    1    1    2  503  502 -0.12300633993E+02  0.17875269746E+02 -0.55217963325E+03  0.55260580728E+03  0.00000000000E+00 0. -1.
         21    1    1    2  504  503  0.12300633993E+02 -0.17875269746E+02 -0.23958372431E+03  0.24056431951E+03  0.00000000000E+00 0. -1.
</event>
<event>
 4    1  0.3372301E+006  0.2273049E+02  0.7546771E-02  0.1495910E+00
         21   -1    0    0  502  501  0.00000000000E+00  0.00000000000E+00  0.57032456573E+02  0.57032456573E+02  0.00000000000E+00 0. -1.
         21   -1    0    0  503  502 -0.00000000000E+00 -0.00000000000E+00 -0.33525091301E+02  0.33525091301E+02  0.00000000000E+00 0. -1.
         21    1    1    2  503  504 -0.17213068318E+02  0.14845381234E+02 -0.26926557564E+02  0.35237970531E+02  0.00000000000E+00 0. -1.
         21    1    1    2  504  501  0.17213068318E+02 -0.14845381234E+02  0.50433922836E+02  0.55319577344E+02  0.00000000000E+00 0. -1.
</event>
<event>
 4    1  0.3372301E+006  0.2144581E+02  0.7546771E-02  0.1512994E+00
         21   -1    0    0  502  501  0.00000000000E+00  0.00000000000E+00  0.46071989779E+03  0.46071989779E+03  0.00000000000E+00 0. -1.
         21   -1    0    0  503  502 -0.00000000000E+00 -0.00000000000E+00 -0.30249637161E+02  0.30249637161E+02  0.00000000000E+00 0.  1.
         21    1    1    2  503  504  0.14351442693E+02 -0.15936082096E+02 -0.26165029016E+02  0.33830923182E+02  0.00000000000E+00 0.  1.
         21    1    1    2  504  501 -0.14351442693E+02  0.15936082096E+02  0.45663528964E+03  0.45713861177E+03  0.00000000000E+00 0. -1.
</event>
<event>
 4    1  0.3372301E+006  0.4143468E+02  0.7546771E-02  0.1340278E+00
         21   -1    0    0  503  501  0.00000000000E+00  0.00000000000E+00  0.25925545085E+02  0.25925545085E+02  0.00000000000E+00 0. -1.
         21   -1    0    0  504  502 -0.00000000000E+00 -0.00000000000E+00 -0.12594362801E+03  0.12594362801E+03  0.00000000000E+00 0. -1.
         21    1    1    2  503  502 -0.21376182751E+01  0.41379504742E+02 -0.10229903173E+03  0.11037175688E+03  0.00000000000E+00 0. -1.
         21    1    1    2  504  501  0.21376182751E+01 -0.41379504742E+02  0.22809488081E+01  0.41497416209E+02  0.00000000000E+00 0. -1.
</event>
<event>
 4    1  0.3372301E+006  0.2777396E+02  0.7546771E-02  0.1439985E+00
         21   -1    0    0  503  501  0.00000000000E+00  0.00000000000E+00  0.19776760037E+02  0.19776760037E+02  0.00000000000E+00 0. -1.
         21   -1    0    0  504  502 -0.00000000000E+00 -0.00000000000E+00 -0.15724308819E+03  0.15724308819E+03  0.00000000000E+00 0.  1.
         21    1    1    2  503  502 -0.40340810405E+01  0.27479429465E+02  0.80179794949E+01  0.28908145025E+02  0.00000000000E+00 0. -1.
         21    1    1    2  504  501  0.40340810405E+01 -0.27479429465E+02 -0.14548430765E+03  0.14811170321E+03  0.00000000000E+00 0.  1.
</event>
<event>
 4    1  0.3372301E+006  0.4318618E+02  0.7546771E-02  0.1330763E+00
         21   -1    0    0  503  501  0.00000000000E+00  0.00000000000E+00  0.19653271890E+03  0.19653271890E+03  0.00000000000E+00 0.  1.
         21   -1    0    0  501  502 -0.00000000000E+00 -0.00000000000E+00 -0.62525065931E+02  0.62525065931E+02  0.00000000000E+00 0. -1.
         21    1    1    2  503  504 -0.10676089332E+02 -0.41845752847E+02  0.18629880474E+03  0.19123883121E+03  0.00000000000E+00 0.  1.
         21    1    1    2  504  502  0.10676089332E+02  0.41845752847E+02 -0.52291151780E+02  0.67818953613E+02  0.00000000000E+00 0. -1.
</event>
<event>
 4    1  0.3372301E+006  0.2470187E+02  0.7546771E-02  0.1472166E+00
         21   -1    0    0  504  501  0.00000000000E+00  0.00000000000E+00  0.12873522779E+03  0.12873522779E+03  0.00000000000E+00 0.  1.
         21   -1    0    0  503  502 -0.00000000000E+00 -0.00000000000E+00 -0.38570572519E+02  0.38570572519E+02  0.00000000000E+00 0.  1.
         21    1    1    2  503  501  0.15681152109E+02  0.19086225554E+02 -0.33262215462E+02  0.41431359075E+02  0.00000000000E+00 0.  1.
         21    1    1    2  504  502 -0.15681152109E+02 -0.19086225554E+02  0.12342687074E+03  0.12587444124E+03  0.00000000000E+00 0.  1.
</event>
<event>
 4    1  0.3372301E+006  0.2381465E+02  0.7546771E-02  0.1482514E+00
         21   -1    0    0  504  501  0.00000000000E+00  0.00000000000E+00  0.21753474510E+02  0.21753474510E+02  0.00000000000E+00 0. -1.
         21   -1    0    0  501  502 -0.00000000000E+00 -0.00000000000E+00 -0.82795209827E+02  0.82795209827E+02  0.00000000000E+00 0.  1.
         21    1    1    2  503  502 -0.61239604163E+01 -0.23013789817E+02 -0.73789158899E+02  0.77536942060E+02  0.00000000000E+00 0.  1.
         21    1    1    2  504  503  0.61239604163E+01  0.23013789817E+02  0.12747423582E+02  0.27011742278E+02  0.00000000000E+00 0. -1.
</event>
<event>
 4    1  0.3372301E+006  0.2438866E+02  0.7546771E-02  0.1475760E+00
         21   -1    0    0  504  501  0.00000000000E+00  0.00000000000E+00  0.40844349091E+02  0.40844349091E+02  0.00000000000E+00 0. -1.
         21   -1    0    0  503  502 -0.00000000000E+00 -0.00000000000E+00 -0.42413037355E+03  0.42413037355E+03  0.00000000000E+00 0. -1.
         21    1    1    2  503  501 -0.10866268910E+02  0.21834166666E+02 -0.42010421682E+03  0.42081154882E+03  0.00000000000E+00 0. -1.
         21    1    1    2  504  502  0.10866268910E+02 -0.21834166666E+02  0.36818192353E+02  0.44163173824E+02  0.00000000000E+00 0. -1.
</event>
<event>
 4    1  0.3372301E+006  0.2394648E+02  0.7546771E-02  0.1480943E+00
         21   -1    0    0  502  501  0.00000000000E+00  0.00000000000E+00  0.20250519352E+01  0.20250519352E+01  0.00000000000E+00 0. -1.
         21   -1    0    0  504  502 -0.00000000000E+00 -0.00000000000E+00 -0.48194586982E+03  0.48194586982E+03  0.00000000000E+00 0. -1.
         21    1    1    2  503  501  0.85107268730E+00  0.23931355221E+02 -0.84552934594E+02  0.87878511798E+02  0.00000000000E+00 0. -1.
         21    1    1    2  504  503 -0.85107268730E+00 -0.23931355221E+02 -0.39536788329E+03  0.39609240996E+03  0.00000000000E+00 0. -1.
</event>
<event>
 4    1  0.3372301E+006  0.2711209E+02  0.7546771E-02  0.1446485E+00
         21   -1    0    0  504  501  0.00000000000E+00  0.00000000000E+00  0.23411754541E+02  0.23411754541E+02  0.00000000000E+00 0.  1.
         21   -1    0    0  503  502 -0.00000000000E+00 -0.00000000000E+00 -0.41229137521E+02  0.41229137521E+02  0.00000000000E+00 0.  1.
         21    1    1    2  503  501 -0.24900695011E+02  0.10724787821E+02 -0.24691807583E+02  0.36670847380E+02  0.00000000000E+00 0.  1.
         21    1    1    2  504  502  0.24900695011E+02 -0.10724787821E+02  0.68744246028E+01  0.27970044681E+02  0.00000000000E+00 0.  1.
</event>
<event>
 4    1  0.3372301E+006  0.3175961E+02  0.7546771E-02  0.1404898E+00
         21   -1    0    0  504  501  0.00000000000E+00  0.00000000000E+00  0.59481469704E+02  0.59481469704E+02  0.00000000000E+00 0. -1.
         21   -1    0    0  503  502 -0.00000000000E+00 -0.00000000000E+00 -0.17348544100E+02  0.17348544100E+02  0.00000000000E+00 0. -1.
         21    1    1    2  503  501 -0.31293622893E+02  0.54205217156E+01  0.15301001147E+02  0.35253276806E+02  0.00000000000E+00 0. -1.
         21    1    1    2  504  502  0.31293622893E+02 -0.54205217156E+01  0.26831924457E+02  0.41576736999E+02  0.00000000000E+00 0. -1.
</event>
<event>
 4    1  0.3372301E+006  0.2369692E+02  0.7546771E-02  0.1483927E+00
         21   -1    0    0  502  501  0.00000000000E+00  0.00000000000E+00  0.38303053429E+01  0.38303053429E+01  0.00000000000E+00 0.  1.
         21   -1    0    0  503  502 -0.00000000000E+00 -0.00000000000E+00 -0.48552931548E+03  0.48552931548E+03  0.00000000000E+00 0. -1.
         21    1    1    2  503  504  0.12594707698E+02 -0.20072806132E+02 -0.44527797918E+03  0.44590808801E+03  0.00000000000E+00 0. -1.
         21    1    1    2  504  501 -0.12594707698E+02  0.20072806132E+02 -0.36421030959E+02  0.43451532817E+02  0.00000000000E+00 0.  1.
</event>
<event>
 4    1  0.3372301E+006  0.2163232E+02  0.7546771E-02  0.1510425E+00
         21   -1    0    0  504  501  0.00000000000E+00  0.00000000000E+00  0.39506528657E+02  0.39506528657E+02  0.00000000000E+00 0.  1.
         21   -1    0    0  503  502 -0.00000000000E+00 -0.00000000000E+00 -0.49963612559E+02  0.49963612559E+02  0.00000000000E+00 0.  1.
         21    1    1    2  503  501 -0.21458063610E+02  0.27402137509E+01 -0.44302679654E+02  0.49301974502E+02  0.00000000000E+00 0.  1.
         21    1    1    2  504  502  0.21458063610E+02 -0.27402137509E+01  0.33845595752E+02  0.40168166713E+02  0.00000000000E+00 0.  1.
</event>
<event>
 4    1  0.3372301E+006  0.5368384E+02  0.7546771E-02  0.1282945E+00
         21   -1    0    0  504  501  0.00000000000E+00  0.00000000000E+00  0.42918589466E+02  0.42918589466E+02  0.00000000000E+00 0. -1.
         21   -1    0    0  501  502 -0.00000000000E+00 -0.00000000000E+00 -0.12088659411E+03  0.12088659411E+03  0.00000000000E+00 0.  1.
         21    1    1    2  503  502 -0.52957032557E+02  0.88038237286E+01 -0.93590753913E+02  0.10789431786E+03  0.00000000000E+00 0.  1.
         21    1    1    2  504  503  0.52957032557E+02 -0.88038237286E+01  0.15622749272E+02  0.55910865709E+02  0.00000000000E+00 0. -1.
</event>
<event>
 4    1  0.3372301E+006  0.2463433E+02  0.7546771E-02  0.1472936E+00
         21   -1    0    0  504  501  0.00000000000E+00  0.00000000000E+00  0.10851894751E+03  0.10851894751E+03  0.00000000000E+00 0.  1.
         21   -1    0    0  501  502 -0.00000000000E+00 -0.00000000000E+00 -0.16574581710E+02  0.16574581710E+02  0.00000000000E+00 0.  1.
         21    1    1    2  503  502 -0.16866992000E+02  0.17954238875E+02 -0.49413891067E+01  0.25125036100E+02  0.00000000000E+00 0.  1.
         21    1    1    2  504  503  0.16866992000E+02 -0.17954238875E+02  0.96885754912E+02  0.99968493125E+02  0.00000000000E+00 0.  1.
</event>
<event>
 4    1  0.3372301E+006  0.3897790E+02  0.7546771E-02  0.1354582E+00
         21   -1    0    0  502  501  0.00000000000E+00  0.00000000000E+00  0.27180500746E+03  0.27180500746E+03  0.00000000000E+00 0.  1.
         21   -1    0    0  503  502 -0.00000000000E+00 -0.00000000000E+00 -0.10978239672E+02  0.10978239672E+02  0.00000000000E+00 0.  1.
         21    1    1    2  503  504  0.32553763857E+02  0.21436626641E+02  0.31353547529E+02  0.50023209070E+02  0.00000000000E+00 0.  1.
         21    1    1    2  504  501 -0.32553763857E+02 -0.21436626641E+02  0.22947322026E+03  0.23276003807E+03  0.00000000000E+00 0.  1.
</event>
<event>
 4    1  0.3372301E+006  0.2293503E+02  0.7546771E-02  0.1493316E+00
         21   -1    0    0  502  501  0.00000000000E+00  0.00000000000E+00  0.10693989488E+02  0.10693989488E+02  0.00000000000E+00 0.  1.
         21   -1    0    0  503  502 -0.00000000000E+00 -0.00000000000E+00 -0.49218278223E+02  0.49218278223E+02  0.00000000000E+00 0.  1.
         21    1    1    2  503  504 -0.18552189684E+01  0.22859875892E+02 -0.18518926258E+02  0.29478235920E+02  0.00000000000E+00 0.  1.
         21    1    1    2  504  501  0.18552189684E+01 -0.22859875892E+02 -0.20005362477E+02  0.30434031791E+02  0.00000000000E+00 0.  1.
</event>
<event>
 4    1  0.3372301E+006  0.2210064E+02  0.7546771E-02  0.1504111E+00
         21   -1    0    0  504  501  0.00000000000E+00  0.00000000000E+00  0.50080648658E+02  0.50080648658E+02  0.00000000000E+00 0.  1.
         21   -1    0    0  503  502 -0.00000000000E+00 -0.00000000000E+00 -0.15278969689E+02  0.15278969689E+02  0.00000000000E+00 0. -1.
         21    1    1    2  503  501  0.11545431233E+02  0.18845198836E+02 -0.22524480479E+01  0.22215130513E+02  0.00000000000E+00 0. -1.
         21    1    1    2  504  502 -0.11545431233E+02 -0.18845198836E+02  0.37054127017E+02  0.43144487835E+02  0.00000000000E+00 0.  1.
</event>
<event>
 4    1  0.3372301E+006  0.2370898E+02  0.7546771E-02  0.1483782E+00
         21   -1    0    0  504  501  0.00000000000E+00  0.00000000000E+00  0.86519671786E+01  0.86519671786E+01  0.00000000000E+00 0.  1.
         21   -1    0    0  503  502 -0.00000000000E+00 -0.00000000000E+00 -0.50564394046E+03  0.50564394046E+03  0.00000000000E+00 0. -1.
         21    1    1    2  503  501  0.23707096736E+02 -0.29907809656E+00 -0.48855581536E+03  0.48913076024E+03  0.00000000000E+00 0. -1.
         21    1    1    2  504  502 -0.23707096736E+02  0.29907809656E+00 -0.84361579164E+01  0.25165147401E+02  0.00000000000E+00 0.  1.
</event>
<event>
 4    1  0.3372301E+006  0.2443958E+02  0.7546771E-02  0.1475171E+00
         21   -1    0    0  503  501  0.00000000000E+00  0.00000000000E+00  0.12660806972E+01  0.12660806972E+01  0.00000000000E+00 0.  1.
         21   -1    0    0  504  502 -0.00000000000E+00 -0.00000000000E+00 -0.12395343744E+04  0.12395343744E+04  0.00000000000E+00 0.  1.
         21    1    1    2  503  502 -0.20842702262E+00 -0.24438686725E+02 -0.11074018386E+04  0.11076714878E+04  0.00000000000E+00 0.  1.
         21    1    1    2  504  501  0.20842702262E+00  0.24438686725E+02 -0.13086645516E+03  0.13312896731E+03  0.00000000000E+00 0.  1.
</event>
<event>
 4    1  0.3372301E+006  0.2726861E+02  0.7546771E-02  0.1444928E+00
         21   -1    0    0  504  501  0.00000000000E+00  0.00000000000E+00  0.55917813713E+01  0.55917813713E+01  0.00000000000E+00 0.  1.
         21   -1    0    0  501  502 -0.00000000000E+00 -0.00000000000E+00 -0.57903560244E+03  0.57903560244E+03  0.00000000000E+00 0. -1.
         21    1    1    2  503  502  0.15115303127E+02  0.22695923986E+02 -0.54328404932E+03  0.54396795457E+03  0.00000000000E+00 0. -1.
         21    1    1    2  504  503 -0.15115303127E+02 -0.22695923986E+02 -0.30159771746E+02  0.40659429238E+02  0.00000000000E+00 0.  1.
</event>
<event>
 4    1  0.3372301E+006  0.2788718E+02  0.7546771E-02  0.1438894E+00
         21   -1    0    0  504  501  0.00000000000E+00  0.00000000000E+00  0.10818538063E+03  0.10818538063E+03  0.00000000000E+00 0. -1.
         21   -1    0    0  503  502 -0.00000000000E+00 -0.00000000000E+00 -0.23593437993E+02  0.23593437993E+02  0.00000000000E+00 0.  1.
         21    1    1    2  503  501 -0.18446523129E+02 -0.20914599375E+02 -0.12646323790E+02  0.30620649698E+02  0.00000000000E+00 0.  1.
         21    1    1    2  504  502  0.18446523129E+02  0.20914599375E+02  0.97238266431E+02  0.10115816893E+03  0.00000000000E+00 0. -1.
</event>
<event>
 4    1  0.3372301E+006  0.2028017E+02  0.7546771E-02  0.1529795E+00
         21   -1    0    0  504  501  0.00000000000E+00  0.00000000000E+00  0.29403490816E+01  0.29403490816E+01  0.00000000000E+00 0. -1.
         21   -1    0    0  503  502 -0.00000000000E+00 -0.00000000000E+00 -0.14937104120E+03  0.14937104120E+03  0.00000000000E+00 0. -1.
         21    1    1    2  503  501 -0.14237524858E+02 -0.14442239940E+02 -0.92415678098E+02  0.94614707984E+02  0.00000000000E+00 0. -1.
         21    1    1    2  504  502  0.14237524858E+02  0.14442239940E+02 -0.54015014024E+02  0.57696682302E+02  0.00000000000E+00 0. -1.
</event>
<event>
 4    1  0.3372301E+006  0.2188178E+02  0.7546771E-02  0.1507038E+00
         21   -1    0    0  503  501  0.00000000000E+00  0.00000000000E+00  0.38879883966E+01  0.38879883966E+01  0.00000000000E+00 0.  1.
         21   -1    0    0  501  502 -0.00000000000E+00 -0.00000000000E+00 -0.94166176517E+03  0.94166176517E+03  0.00000000000E+00 0.  1.
         21    1    1    2  503  504 -0.11301790179E+02  0.18737173303E+02 -0.28109861404E+02  0.35622695474E+02  0.00000000000E+00 0.  1.
         21    1    1    2  504  502  0.11301790179E+02 -0.18737173303E+02 -0.90966391537E+03  0.90992705810E+03  0.00000000000E+00 0.  1.
</event>
<event>
 4    1  0.3372301E+006  0.2685646E+02  0.7546771E-02  0.1449055E+00
         21   -1    0    0  504  501  0.00000000000E+00  0.00000000000E+00  0.65618374243E+02  0.65618374243E+02  0.00000000000E+00 0. -1.
         21   -1    0    0  503  502 -0.00000000000E+00 -0.00000000000E+00 -0.23435773888E+02  0.23435773888E+02  0.00000000000E+00 0. -1.
         21    1    1    2  503  501  0.26835761972E+02  0.10541075095E+01  0.53537412441E+02  0.59895941382E+02  0.00000000000E+00 0. -1.
         21    1    1    2  504  502 -0.26835761972E+02 -0.10541075095E+01 -0.11354812086E+02  0.29158206748E+02  0.00000000000E+00 0. -1.
</event>
<event>
 4    1  0.3372301E+006  0.2395223E+02  0.7546771E-02  0.1480875E+00
         21   -1    0    0  504  501  0.00000000000E+00  0.00000000000E+00  0.25139503489E+03  0.25139503489E+03  0.00000000000E+00 0. -1.
         21   -1    0    0  503  502 -0.00000000000E+00 -0.00000000000E+00 -0.40538539692E+02  0.40538539692E+02  0.00000000000E+00 0.  1.
         21    1    1    2  503  501 -0.23030979722E+02 -0.65790108135E+01 -0.36370454699E+02  0.43549045745E+02  0.00000000000E+00 0.  1.
         21    1    1    2  504  502  0.23030979722E+02  0.65790108135E+01  0.24722694990E+03  0.24838452884E+03  0.00000000000E+00 0. -1.
</event>
<event>
 4    1  0.3372301E+006  0.2105300E+02  0.7546771E-02  0.1518509E+00
         21   -1    0    0  502  501  0.00000000000E+00  0.00000000000E+00  0.55961479620E+02  0.55961479620E+02  0.00000000000E+00 0. -1.
         21   -1    0    0  503  502 -0.00000000000E+00 -0.00000000000E+00 -0.42060281079E+02  0.42060281079E+02  0.00000000000E+00 0.  1.
         21    1    1    2  503  504 -0.20953099886E+02  0.20485550523E+01 -0.37205262694E+02  0.42748807525E+02  0.00000000000E+00 0.  1.
         21    1    1    2  504  501  0.20953099886E+02 -0.20485550523E+01  0.51106461236E+02  0.55272953175E+02  0.00000000000E+00 0. -1.
</event>
<event>
 4    1  0.3372301E+006  0.2240481E+02  0.7546771E-02  0.1500110E+00
         21   -1    0    0  502  501  0.00000000000E+00  0.00000000000E+00  0.84738202149E+01  0.84738202149E+01  0.00000000000E+00 0.  1.
         21   -1    0    0  503  502 -0.00000000000E+00 -0.00000000000E+00 -0.37185690806E+03  0.37185690806E+03  0.00000000000E+00 0.  1.
         21    1    1    2  503  504  0.25181391841E+01  0.22262850262E+02 -0.35605314068E+03  0.35675736084E+03  0.00000000000E+00 0.  1.
         21    1    1    2  504  501 -0.25181391841E+01 -0.22262850262E+02 -0.73299471667E+01  0.23573367435E+02  0.00000000000E+00 0.  1.
</event>
<event>
 4    1  0.3372301E+006  0.2010343E+02  0.7546771E-02  0.1532460E+00
         21   -1    0    0  504  501  0.00000000000E+00  0.00000000000E+00  0.43493018003E+02  0.43493018003E+02  0.00000000000E+00 0. -1.
         21   -1    0    0  503  502 -0.00000000000E+00 -0.00000000000E+00 -0.15099077639E+02  0.15099077639E+02  0.00000000000E+00 0. -1.
         21    1    1    2  503  501  0.20014798839E+02  0.18856604989E+01 -0.39708736310E+01  0.20491845341E+02  0.00000000000E+00 0. -1.
         21    1    1    2  504  502 -0.20014798839E+02 -0.18856604989E+01  0.32364813995E+02  0.38100250302E+02  0.00000000000E+00 0. -1.
</event>
<event>
 4    1  0.3372301E+006  0.2228738E+02  0.7546771E-02  0.1501646E+00
         21   -1    0    0  504  501  0.00000000000E+00  0.00000000000E+00  0.25637336789E+03  0.25637336789E+03  0.00000000000E+00 0.  1.
         21   -1    0    0  503  502 -0.00000000000E+00 -0.00000000000E+00 -0.43586418332E+01  0.43586418332E+01  0.00000000000E+00 0.  1.
         21    1    1    2  503  501 -0.38208117943E+00  0.22284099733E+02  0.28845106769E+02  0.36452260169E+02  0.00000000000E+00 0.  1.
         21    1    1    2  504  502  0.38208117943E+00 -0.22284099733E+02  0.22316961929E+03  0.22427974955E+03  0.00000000000E+00 0.  1.
</event>
<event>
 4    1  0.3372301E+006  0.3376944E+02  0.7546771E-02  0.1389427E+00
         21   -1    0    0  504  501  0.00000000000E+00  0.00000000000E+00  0.92978493131E+01  0.92978493131E+01  0.00000000000E+00 0.  1.
         21   -1    0    0  503  502 -0.00000000000E+00 -0.00000000000E+00 -0.18053707305E+03  0.18053707305E+03  0.00000000000E+00 0. -1.
         21    1    1    2  503  501 -0.30972041067E+02  0.13457628254E+02 -0.31872369804E+02  0.46435148789E+02  0.00000000000E+00 0.  1.
         21    1    1    2  504  502  0.30972041067E+02 -0.13457628254E+02 -0.13936685394E+03  0.14339977358E+03  0.00000000000E+00 0. -1.
</event>
<event>
 4    1  0.3372301E+006  0.2216597E+02  0.7546771E-02  0.1503245E+00
         21   -1    0    0  504  501  0.00000000000E+00  0.00000000000E+00  0.27853164095E+03  0.27853164095E+03  0.00000000000E+00 0. -1.
         21   -1    0    0  501  502 -0.00000000000E+00 -0.00000000000E+00 -0.91848099955E+01  0.91848099955E+01  0.00000000000E+00 0. -1.
         21    1    1    2  503  502 -0.29287890470E+00 -0.22164034316E+02  0.53654654929E+01  0.22806104779E+02  0.00000000000E+00 0. -1.
         21    1    1    2  504  503  0.29287890470E+00  0.22164034316E+02  0.26398136546E+03  0.26491034616E+03  0.00000000000E+00 0. -1.
</event>
<event>
 4    1  0.3372301E+006  0.2346018E+02  0.7546771E-02  0.1486799E+00
         21   -1    0    0  503  501  0.00000000000E+00  0.00000000000E+00  0.42440291411E+03  0.42440291411E+03  0.00000000000E+00 0. -1.
         21   -1    0    0  504  502 -0.00000000000E+00 -0.00000000000E+00 -0.13500788558E+01  0.13500788558E+01  0.00000000000E+00 0. -1.
         21    1    1    2  503  502  0.18830181209E+02  0.13993017925E+02  0.16925122766E+03  0.17086941897E+03  0.00000000000E+00 0. -1.
         21    1    1    2  504  501 -0.18830181209E+02 -0.13993017925E+02  0.25380160760E+03  0.25488357400E+03  0.00000000000E+00 0. -1.
</event>
<event>
 4    1  0.3372301E+006  0.2201209E+02  0.7546771E-02  0.1505290E+00
         21   -1    0    0  502  501  0.00000000000E+00  0.00000000000E+00  0.30300789072E+02  0.30300789072E+02  0.00000000000E+00 0.  1.
         21   -1    0    0  504  502 -0.00000000000E+00 -0.00000000000E+00 -0.38979136155E+02  0.38979136155E+02  0.00000000000E+00 0.  1.
         21    1    1    2  503  501  0.11309088710E+02 -0.18884820119E+02  0.22262911882E+02  0.31307653439E+02  0.00000000000E+00 0.  1.
         21    1    1    2  504  503 -0.11309088710E+02  0.18884820119E+02 -0.30941258965E+02  0.37972271788E+02  0.00000000000E+00 0.  1.
</event>
<event>
 4    1  0.3372301E+006  0.2503187E+02  0.7546771E-02  0.1468447E+00
         21   -1    0    0  502  501  0.00000000000E+00  0.00000000000E+00  0.14124044833E+04  0.14124044833E+04  0.00000000000E+00 0. -1.
         21   -1    0    0  503  502 -0.00000000000E+00 -0.00000000000E+00 -0.14638512982E+02  0.14638512982E+02  0.00000000000E+00 0.  1.
         21    1    1    2  503  504 -0.92805216318E+01  0.23247930670E+02 -0.37432934866E+01  0.25310207592E+02  0.00000000000E+00 0.  1.
         21    1    1    2  504  501  0.92805216318E+01 -0.23247930670E+02  0.14015092638E+04  0.14017327887E+04  0.00000000000E+00 0. -1.
</event>
<event>
 4    1  0.3372301E+006  0.3567270E+02  0.7546771E-02  0.1375895E+00
         21   -1    0    0  504  501  0.00000000000E+00  0.00000000000E+00  0.90746121909E+03  0.90746121909E+03  0.00000000000E+00 0.  1.
         21   -1    0    0  501  502 -0.00000000000E+00 -0.00000000000E+00 -0.15923137943E+01  0.15923137943E+01  0.00000000000E+00 0.  1.
         21    1    1    2  503  502  0.36779215755E+01 -0.35482593968E+02  0.29592466534E+03  0.29806702121E+03  0.00000000000E+00 0.  1.
         21    1    1    2  504  503 -0.36779215755E+01  0.35482593968E+02  0.60994423996E+03  0.61098651167E+03  0.00000000000E+00 0.  1.
</event>
<event>
 4    1  0.3372301E+006  0.2351919E+02  0.7546771E-02  0.1486080E+00
         21   -1    0    0  503  501  0.00000000000E+00  0.00000000000E+00  0.50574260511E+02  0.50574260511E+02  0.00000000000E+00 0. -1.
         21   -1    0    0  501  502 -0.00000000000E+00 -0.00000000000E+00 -0.71695323505E+02  0.71695323505E+02  0.00000000000E+00 0.  1.
         21    1    1    2  503  504  0.21409610880E+02 -0.97355450339E+01  0.45718211664E+02  0.51413102930E+02  0.00000000000E+00 0. -1.
         21    1    1    2  504  502 -0.21409610880E+02  0.97355450339E+01 -0.66839274658E+02  0.70856481086E+02  0.00000000000E+00 0.  1.
</event>
<event>
 4    1  0.3372301E+006  0.2741324E+02  0.7546771E-02  0.1443501E+00
         21   -1    0    0  503  501  0.00000000000E+00  0.00000000000E+00  0.16387669056E+02  0.16387669056E+02  0.00000000000E+00 0. -1.
         21   -1    0    0  501  502 -0.00000000000E+00 -0.00000000000E+00 -0.46260880661E+02  0.46260880661E+02  0.00000000000E+00 0. -1.
         21    1    1    2  503  504  0.16964691242E+01  0.27360696344E+02 -0.12008952786E+02  0.29928258535E+02  0.00000000000E+00 0. -1.
         21    1    1    2  504  502 -0.16964691242E+01 -0.27360696344E+02 -0.17864258820E+02  0.32720291183E+02  0.00000000000E+00 0. -1.
</event>
<event>
 4    1  0.3372301E+006  0.2393003E+02  0.7546771E-02  0.1481139E+00
         21   -1    0    0  503  501  0.00000000000E+00  0.00000000000E+00  0.34859631949E+01  0.34859631949E+01  0.00000000000E+00 0.  1.
         21   -1    0    0  504  502 -0.00000000000E+00 -0.00000000000E+00 -0.19805678649E+03  0.19805678649E+03  0.00000000000E+00 0.  1.
         21    1    1    2  503  502 -0.23143922182E+02 -0.60831819268E+01 -0.13890547552E+03  0.14095168451E+03  0.00000000000E+00 0.  1.
         21    1    1    2  504  501  0.23143922182E+02  0.60831819268E+01 -0.55665347776E+02  0.60591065177E+02  0.00000000000E+00 0.  1.
</event>
<event>
 4    1  0.3372301E+006  0.2432522E+02  0.7546771E-02  0.1476496E+00
         21   -1    0    0  502  501  0.00000000000E+00  0.00000000000E+00  0.38690256485E+02  0.38690256485E+02  0.00000000000E+00 0.  1.
         21   -1    0    0  503  502 -0.00000000000E+00 -0.00000000000E+00 -0.38323172976E+02  0.38323172976E+02  0.00000000000E+00 0.  1.
         21    1    1    2  503  504  0.20292660488E+02  0.13413591990E+02 -0.29666703066E+02  0.38364433927E+02  0.00000000000E+00 0.  1.
         21    1    1    2  504  501 -0.20292660488E+02 -0.13413591990E+02  0.30033786575E+02  0.38648995534E+02  0.00000000000E+00 0.  1.
</event>
<event>
 4    1  0.3372301E+006  0.2539753E+02  0.7546771E-02  0.1464405E+00
         21   -1    0    0  502  501  0.00000000000E+00  0.00000000000E+00  0.11321041051E+02  0.11321041051E+02  0.00000000000E+00 0. -1.
         21   -1    0    0  504  502 -0.00000000000E+00 -0.00000000000E+00 -0.25965189130E+03  0.25965189130E+03  0.00000000000E+00 0. -1.
         21    1    1    2  503  501 -0.25087987876E+02 -0.39531481294E+01 -0.44636571620E+01  0.25786794121E+02  0.00000000000E+00 0. -1.
         21    1    1    2  504  503  0.25087987876E+02  0.39531481294E+01 -0.24386719309E+03  0.24518613823E+03  0.00000000000E+00 0. -1.
</event>
<event>
 4    1  0.3372301E+006  0.2053728E+02  0.7546771E-02  0.1525975E+00
         21   -1    0    0  503  501  0.00000000000E+00  0.00000000000E+00  0.94200261461E+01  0.94200261461E+01  0.00000000000E+00 0. -1.
         21   -1    0    0  501  502 -0.00000000000E+00 -0.00000000000E+00 -0.28822997674E+03  0.28822997674E+03  0.00000000000E+00 0. -1.
         21    1    1    2  503  504  0.20409126324E+02 -0.22907026197E+01 -0.26271067059E+01  0.20704623770E+02  0.00000000000E+00 0. -1.
         21    1    1    2  504  502 -0.20409126324E+02  0.22907026197E+01 -0.27618284389E+03  0.27694537912E+03  0.00000000000E+00 0. -1.
</event>
<event>
 4    1  0.3372301E+006  0.3179111E+02  0.7546771E-02  0.1404645E+00
         21   -1    0    0  503  501  0.00000000000E+00  0.00000000000E+00  0.11266349380E+03  0.11266349380E+03  0.00000000000E+00 0.  1.
         21   -1    0    0  501  502 -0.00000000000E+00 -0.00000000000E+00 -0.12456352035E+03  0.12456352035E+03  0.00000000000E+00 0.  1.
         21    1    1    2  503  504  0.31739041584E+02  0.18186843690E+01  0.10831257938E+03  0.11288174886E+03  0.00000000000E+00 0.  1.
         21    1    1    2  504  502 -0.31739041584E+02 -0.18186843690E+01 -0.12021260594E+03  0.12434526529E+03  0.00000000000E+00 0.  1.
</event>
<event>
 4    1  0.3372301E+006  0.2209366E+02  0.7546771E-02  0.1504204E+00
         21   -1    0    0  502  501  0.00000000000E+00  0.00000000000E+00  0.37375949655E+03  0.37375949655E+03  0.00000000000E+00 0. -1.
         21   -1    0    0  503  502 -0.00000000000E+00 -0.00000000000E+00 -0.14671697863E+02  0.14671697863E+02  0.00000000000E+00 0. -1.
         21    1    1    2  503  504 -0.18450780640E+02  0.12153125530E+02 -0.58262256681E+01  0.22848953410E+02  0.00000000000E+00 0. -1.
         21    1    1    2  504  501  0.18450780640E+02 -0.12153125530E+02  0.36491402435E+03  0.36558224100E+03  0.00000000000E+00 0. -1.
</event>
<event>
 4    1  0.3372301E+006  0.2037536E+02  0.7546771E-02  0.1528373E+00
         21   -1    0    0  504  501  0.00000000000E+00  0.00000000000E+00  0.13546383947E+02  0.13546383947E+02  0.00000000000E+00 0.  1.
         21   -1    0    0  503  502 -0.00000000000E+00 -0.00000000000E+00 -0.62239773885E+02  0.62239773885E+02  0.00000000000E+00 0.  1.
         21    1    1    2  503  501 -0.69875342697E+01 -0.19139741125E+02 -0.51343982233E+02  0.55239115100E+02  0.00000000000E+00 0.  1.
         21    1    1    2  504  502  0.69875342697E+01  0.19139741125E+02  0.26505922948E+01  0.20547042732E+02  0.00000000000E+00 0.  1.
</event>
<event>
 4    1  0.3372301E+006  0.2270507E+02  0.7546771E-02  0.1496235E+00
         21   -1    0    0  503  501  0.00000000000E+00  0.00000000000E+00  0.28735105817E+02  0.28735105817E+02  0.00000000000E+00 0.  1.
         21   -1    0    0  504  502 -0.00000000000E+00 -0.00000000000E+00 -0.21108353726E+02  0.21108353726E+02  0.00000000000E+00 0.  1.
         21    1    1    2  503  502  0.76505456827E+01 -0.21377307972E+02  0.13468067094E+02  0.26399033631E+02  0.00000000000E+00 0.  1.
         21    1    1    2  504  501 -0.76505456827E+01  0.21377307972E+02 -0.58413150035E+01  0.23444425912E+02  0.00000000000E+00 0.  1.
</event>
<event>
 4    1  0.3372301E+006  0.3443944E+02  0.7546771E-02  0.1384547E+00
         21   -1    0    0  503  501  0.00000000000E+00  0.00000000000E+00  0.31301089763E+03  0.31301089763E+03  0.00000000000E+00 0. -1.
         21   -1    0    0  501  502 -0.00000000000E+00 -0.00000000000E+00 -0.57954766915E+02  0.57954766915E+02  0.00000000000E+00 0. -1.
         21    1    1    2  503  504 -0.69404299993E+00  0.34432443175E+02  0.30684471048E+03  0.30877135747E+03  0.00000000000E+00 0. -1.
         21    1    1    2  504  502  0.69404299993E+00 -0.34432443175E+02 -0.51788579769E+02  0.62194307080E+02  0.00000000000E+00 0. -1.
</event>
<event>
 4    1  0.3372301E+006  0.2648426E+02  0.7546771E-02  0.1452859E+00
         21   -1    0    0  503  501  0.00000000000E+00  0.00000000000E+00  0.90595716324E+02  0.90595716324E+02  0.00000000000E+00 0.  1.
         21   -1    0    0  504  502 -0.00000000000E+00 -0.00000000000E+00 -0.10997985280E+02  0.10997985280E+02  0.00000000000E+00 0.  1.
         21    1    1    2  503  502 -0.25209639222E+02  0.81172577052E+01  0.12161034556E+02  0.29142864372E+02  0.00000000000E+00 0.  1.
         21    1    1    2  504  501  0.25209639222E+02 -0.81172577052E+01  0.67436696488E+02  0.72450837231E+02  0.00000000000E+00 0.  1.
</event>
<event>
 4    1  0.3372301E+006  0.3275195E+02  0.7546771E-02  0.1397096E+00
         21   -1    0    0  503  501  0.00000000000E+00  0.00000000000E+00  0.18453917841E+03  0.18453917841E+03  0.00000000000E+00 0.  1.
         21   -1    0    0  504  502 -0.00000000000E+00 -0.00000000000E+00 -0.65264660318E+01  0.65264660318E+01  0.00000000000E+00 0.  1.
         21    1    1    2  503  502 -0.67332917744E+01 -0.32052349521E+02  0.57415641965E+02  0.66100274358E+02  0.00000000000E+00 0.  1.
         21    1    1    2  504  501  0.67332917744E+01  0.32052349521E+02  0.12059707041E+03  0.12496537008E+03  0.00000000000E+00 0.  1.
</event>
<event>
 4    1  0.3372301E+006  0.2218023E+02  0.7546771E-02  0.1503057E+00
         21   -1    0    0  503  501  0.00000000000E+00  0.00000000000E+00  0.27940554876E+03  0.27940554876E+03  0.00000000000E+00 0.  1.
         21   -1    0    0  501  502 -0.00000000000E+00 -0.00000000000E+00 -0.11516259015E+04  0.11516259015E+04  0.00000000000E+00 0. -1.
         21    1    1    2  503  504  0.95981564617E+01 -0.19995953826E+02  0.27885835508E+03  0.27973906587E+03  0.00000000000E+00 0.  1.
         21    1    1    2  504  502 -0.95981564617E+01  0.19995953826E+02 -0.11510787079E+04  0.11512923844E+04  0.00000000000E+00 0. -1.
</event>
<event>
 4    1  0.3372301E+006  0.3307365E+02  0.7546771E-02  0.1394636E+00
         21   -1    0    0  503  501  0.00000000000E+00  0.00000000000E+00  0.13383503799E+02  0.13383503799E+02  0.00000000000E+00 0.  1.
         21   -1    0    0  504  502 -0.00000000000E+00 -0.00000000000E+00 -0.88903623544E+02  0.88903623544E+02  0.00000000000E+00 0.  1.
         21    1    1    2  503  502 -0.31251756283E+02 -0.10825618311E+02 -0.52285422654E+02  0.61867856797E+02  0.00000000000E+00 0.  1.
         21    1    1    2  504  501  0.31251756283E+02  0.10825618311E+02 -0.23234697091E+02  0.40419270546E+02  0.00000000000E+00 0.  1.
</event>
<event>
 4    1  0.3372301E+006  0.3206367E+02  0.7546771E-02  0.1402472E+00
         21   -1    0    0  503  501  0.00000000000E+00  0.00000000000E+00  0.68433981058E+01  0.68433981058E+01  0.00000000000E+00 0. -1.
         21   -1    0    0  504  502 -0.00000000000E+00 -0.00000000000E+00 -0.15988485708E+03  0.15988485708E+03  0.00000000000E+00 0. -1.
         21    1    1    2  503  502 -0.21124973477E+02 -0.24120831412E+02 -0.56034413617E+02  0.64559542454E+02  0.00000000000E+00 0. -1.
         21    1    1    2  504  501  0.21124973477E+02  0.24120831412E+02 -0.97007045353E+02  0.10216871273E+03  0.00000000000E+00 0. -1.
</event>
<event>
 4    1  0.3372301E+006  0.2968065E+02  0.7546771E-02  0.1422392E+00
         21   -1    0    0  504  501  0.00000000000E+00  0.00000000000E+00  0.61650707036E+03  0.61650707036E+03  0.00000000000E+00 0.  1.
         21   -1    0    0  501  502 -0.00000000000E+00 -0.00000000000E+00 -0.27057770998E+01  0.27057770998E+01  0.00000000000E+00 0. -1.
         21    1    1    2  503  502  0.29660775936E+02 -0.10860704344E+01  0.94216764210E+02  0.98781272701E+02  0.00000000000E+00 0. -1.
         21    1    1    2  504  503 -0.29660775936E+02  0.10860704344E+01  0.51958452905E+03  0.52043157476E+03  0.00000000000E+00 0.  1.
</event>
<event>
 4    1  0.3372301E+006  0.2933318E+02  0.7546771E-02  0.1425481E+00
         21   -1    0    0  503  501  0.00000000000E+00  0.00000000000E+00  0.56748268300E+01  0.56748268300E+01  0.00000000000E+00 0. -1.
         21   -1    0    0  504  502 -0.00000000000E+00 -0.00000000000E+00 -0.32830180709E+03  0.32830180709E+03  0.00000000000E+00 0. -1.
         21    1    1    2  503  502 -0.26351835559E+02 -0.12884725987E+02 -0.38811982166E+02  0.48649823851E+02  0.00000000000E+00 0. -1.
         21    1    1    2  504  501  0.26351835559E+02  0.12884725987E+02 -0.28381499809E+03  0.28532681006E+03  0.00000000000E+00 0. -1.
</event>
<event>
 4    1  0.3372301E+006  0.2621753E+02  0.7546771E-02  0.1455630E+00
         21   -1    0    0  503  501  0.00000000000E+00  0.00000000000E+00  0.85218958660E+01  0.85218958660E+01  0.00000000000E+00 0. -1.
         21   -1    0    0  504  502 -0.00000000000E+00 -0.00000000000E+00 -0.80749808777E+02  0.80749808777E+02  0.00000000000E+00 0. -1.
         21    1    1    2  503  502 -0.20285636755E+02  0.16608791903E+02 -0.37619069036E+02  0.45853608169E+02  0.00000000000E+00 0. -1.
         21    1    1    2  504  501  0.20285636755E+02 -0.16608791903E+02 -0.34608843875E+02  0.43418096473E+02  0.00000000000E+00 0. -1.
</event>
<event>
 4    1  0.3372301E+006  0.2788945E+02  0.7546771E-02  0.1438872E+00
         21   -1    0    0  504  501  0.00000000000E+00  0.00000000000E+00  0.46044609440E+01  0.46044609440E+01  0.00000000000E+00 0.  1.
         21   -1    0    0  503  502 -0.00000000000E+00 -0.00000000000E+00 -0.38429320869E+03  0.38429320869E+03  0.00000000000E+00 0. -1.
         21    1    1    2  503  501 -0.24895782638E+02  0.12570666880E+02 -0.44277712652E+02  0.52329126656E+02  0.00000000000E+00 0.  1.
         21    1    1    2  504  502  0.24895782638E+02 -0.12570666880E+02 -0.33541103509E+03  0.33656854298E+03  0.00000000000E+00 0. -1.
</event>
<event>
 4    1  0.3372301E+006  0.5292376E+02  0.7546771E-02  0.1285970E+00
         21   -1    0    0  503  501  0.00000000000E+00  0.00000000000E+00  0.28408024632E+03  0.28408024632E+03  0.00000000000E+00 0.  1.
         21   -1    0    0  504  502 -0.00000000000E+00 -0.00000000000E+00 -0.12702129582E+02  0.12702129582E+02  0.00000000000E+00 0.  1.
         21    1    1    2  503  502 -0.51900616231E+02 -0.10356193931E+02  0.20588636088E+03  0.21257967521E+03  0.00000000000E+00 0.  1.
         21    1    1    2  504  501  0.51900616231E+02  0.10356193931E+02  0.65491755866E+02  0.84202700695E+02  0.00000000000E+00 0.  1.
</event>
<event>
 4    1  0.3372301E+006  0.2095861E+02  0.7546771E-02  0.1519857E+00
         21   -1    0    0  503  501  0.00000000000E+00  0.00000000000E+00  0.11592670140E+04  0.11592670140E+04  0.00000000000E+00 0.  1.
         21   -1    0    0  501  502 -0.00000000000E+00 -0.00000000000E+00 -0.88259209365E+01  0.88259209365E+01  0.00000000000E+00 0. -1.
         21    1    1    2  503  504  0.47686836138E+01  0.20408891484E+02  0.11465923376E+04  0.11467838732E+04  0.00000000000E+00 0.  1.
         21    1    1    2  504  502 -0.47686836138E+01 -0.20408891484E+02  0.38487555114E+01  0.21309061782E+02  0.00000000000E+00 0. -1.
</event>
<event>
 4    1  0.3372301E+006  0.4157201E+02  0.7546771E-02  0.1339512E+00
         21   -1    0    0  502  501  0.00000000000E+00  0.00000000000E+00  0.27579435310E+03  0.27579435310E+03  0.00000000000E+00 0.  1.
         21   -1    0    0  504  502 -0.00000000000E+00 -0.00000000000E+00 -0.25435086320E+02  0.25435086320E+02  0.00000000000E+00 0.  1.
         21    1    1    2  503  501 -0.24224971961E+02 -0.33784360880E+02  0.25593129246E+03  0.25928567019E+03  0.00000000000E+00 0.  1.
         21    1    1    2  504  503  0.24224971961E+02  0.33784360880E+02 -0.55720256831E+01  0.41943769225E+02  0.00000000000E+00 0.  1.
</event>
<event>
 4    1  0.3372301E+006  0.2640923E+02  0.7546771E-02  0.1453634E+00
         21   -1    0    0  502  501  0.00000000000E+00  0.00000000000E+00  0.16746208761E+03  0.16746208761E+03  0.00000000000E+00 0.  1.
         21   -1    0    0  503  502 -0.00000000000E+00 -0.00000000000E+00 -0.29385006986E+02  0.29385006986E+02  0.00000000000E+00 0. -1.
         21    1    1    2  503  504 -0.26012978732E+02 -0.45576826624E+01 -0.22143722163E+02  0.34464357893E+02  0.00000000000E+00 0. -1.
         21    1    1    2  504  501  0.26012978732E+02  0.45576826624E+01  0.16022080278E+03  0.16238273670E+03  0.00000000000E+00 0.  1.
</event>
<event>
 4    1  0.3372301E+006  0.2612360E+02  0.7546771E-02  0.1456616E+00
         21   -1    0    0  504  501  0.00000000000E+00  0.00000000000E+00  0.10864264048E+02  0.10864264048E+02  0.00000000000E+00 0. -1.
         21   -1    0    0  503  502 -0.00000000000E+00 -0.00000000000E+00 -0.83952194609E+02  0.83952194609E+02  0.00000000000E+00 0.  1.
         21    1    1    2  503  501 -0.25997711715E+02 -0.25615721230E+01 -0.12755979271E+02  0.29071595644E+02  0.00000000000E+00 0. -1.
         21    1    1    2  504  502  0.25997711715E+02  0.25615721230E+01 -0.60331951290E+02  0.65744863013E+02  0.00000000000E+00 0.  1.
</event>
<event>
 4    1  0.3372301E+006  0.4560090E+02  0.7546771E-02  0.1318462E+00
         21   -1    0    0  502  501  0.00000000000E+00  0.00000000000E+00  0.28550374664E+02  0.28550374664E+02  0.00000000000E+00 0.  1.
         21   -1    0    0  504  502 -0.00000000000E+00 -0.00000000000E+00 -0.26034898922E+03  0.26034898922E+03  0.00000000000E+00 0.  1.
         21    1    1    2  503  501 -0.44385615902E+02 -0.10457477787E+02  0.66910990159E+01  0.46089180365E+02  0.00000000000E+00 0.  1.
         21    1    1    2  504  503  0.44385615902E+02  0.10457477787E+02 -0.23848971357E+03  0.24281018352E+03  0.00000000000E+00 0.  1.
</event>
<event>
 4    1  0.3372301E+006  0.3498842E+02  0.7546771E-02  0.1380645E+00
         21   -1    0    0  502  501  0.00000000000E+00  0.00000000000E+00  0.58763865571E+01  0.58763865571E+01  0.00000000000E+00 0. -1.
         21   -1    0    0  503  502 -0.00000000000E+00 -0.00000000000E+00 -0.21688013613E+03  0.21688013613E+03  0.00000000000E+00 0. -1.
         21    1    1    2  503  504  0.16371101568E+02  0.30922103889E+02 -0.12762476256E+03  0.13233393175E+03  0.00000000000E+00 0. -1.
         21    1    1    2  504  501 -0.16371101568E+02 -0.30922103889E+02 -0.83378987020E+02  0.90422590938E+02  0.00000000000E+00 0. -1.
</event>
<event>
 4    1  0.3372301E+006  0.2280242E+02  0.7546771E-02  0.1494994E+00
         21   -1    0    0  503  501  0.00000000000E+00  0.00000000000E+00  0.33218499338E+02  0.33218499338E+02  0.00000000000E+00 0.  1.
         21   -1    0    0  501  502 -0.00000000000E+00 -0.00000000000E+00 -0.54550061625E+02  0.54550061625E+02  0.00000000000E+00 0.  1.
         21    1    1    2  503  504  0.22234549516E+02  0.50571811964E+01  0.26391447104E+02  0.34877768766E+02  0.00000000000E+00 0.  1.
         21    1    1    2  504  502 -0.22234549516E+02 -0.50571811964E+01 -0.47723009392E+02  0.52890792197E+02  0.00000000000E+00 0.  1.
</event>
<event>
 4    1  0.3372301E+006  0.4265496E+02  0.7546771E-02  0.1333593E+00
         21   -1    0    0  503  501  0.00000000000E+00  0.00000000000E+00  0.44622261931E+03  0.44622261931E+03  0.00000000000E+00 0.  1.
         21   -1    0    0  504  502 -0.00000000000E+00 -0.00000000000E+00 -0.42568380372E+01  0.42568380372E+01  0.00000000000E+00 0.  1.
         21    1    1    2  503  502  0.23685405280E+02  0.35474599252E+02  0.26722218545E+03  0.27060514041E+03  0.00000000000E+00 0.  1.
         21    1    1    2  504  501 -0.23685405280E+02 -0.35474599252E+02  0.17474359582E+03  0.17987431694E+03  0.00000000000E+00 0.  1.
</event>
<event>
 4    1  0.3372301E+006  0.3484937E+02  0.7546771E-02  0.1381625E+00
         21   -1    0    0  504  501  0.00000000000E+00  0.00000000000E+00  0.32268853404E+03  0.32268853404E+03  0.00000000000E+00 0. -1.
         21   -1    0    0  501  502 -0.00000000000E+00 -0.00000000000E+00 -0.51828557765E+02  0.51828557765E+02  0.00000000000E+00 0. -1.
         21    1    1    2  503  502 -0.14018519503E+02 -0.31905479618E+02 -0.44901371000E+02  0.56838469687E+02  0.00000000000E+00 0. -1.
         21    1    1    2  504  503  0.14018519503E+02  0.31905479618E+02  0.31576134728E+03  0.31767862212E+03  0.00000000000E+00 0. -1.
</event>
<event>
 4    1  0.3372301E+006  0.2925735E+02  0.7546771E-02  0.1426162E+00
         21   -1    0    0  504  501  0.00000000000E+00  0.00000000000E+00  0.60778056377E+02  0.60778056377E+02  0.00000000000E+00 0. -1.
         21   -1    0    0  501  502 -0.00000000000E+00 -0.00000000000E+00 -0.10377825233E+03  0.10377825233E+03  0.00000000000E+00 0.  1.
         21    1    1    2  503  502  0.27161212823E+02  0.10874781688E+02 -0.97991725630E+02  0.10226617550E+03  0.00000000000E+00 0.  1.
         21    1    1    2  504  503 -0.27161212823E+02 -0.10874781688E+02  0.54991529678E+02  0.62290133208E+02  0.00000000000E+00 0. -1.
</event>
<event>
 4    1  0.3372301E+006  0.2283932E+02  0.7546771E-02  0.1494526E+00
         21   -1    0    0  503  501  0.00000000000E+00  0.00000000000E+00  0.22440782580E+03  0.22440782580E+03  0.00000000000E+00 0.  1.
         21   -1    0    0  504  502 -0.00000000000E+00 -0.00000000000E+00 -0.25284293966E+01  0.25284293966E+01  0.00000000000E+00 0. -1.
         21    1    1    2  503  502 -0.16761881146E+02  0.15513667528E+02  0.14316487261E+03  0.14497522301E+03  0.00000000000E+00 0.  1.
         21    1    1    2  504  501  0.16761881146E+02 -0.15513667528E+02  0.78714523795E+02  0.81961032180E+02  0.00000000000E+00 0. -1.
</event>
<event>
 4    1  0.3372301E+006  0.2527272E+02  0.7546771E-02  0.1465775E+00
         21   -1    0    0  504  501  0.00000000000E+00  0.00000000000E+00  0.66173612980E+02  0.66173612980E+02  0.00000000000E+00 0.  1.
         21   -1    0    0  503  502 -0.00000000000E+00 -0.00000000000E+00 -0.12796933565E+03  0.12796933565E+03  0.00000000000E+00 0.  1.
         21    1    1    2  503  501  0.24436883781E+02  0.64458462934E+01  0.62441062452E+02  0.67361684239E+02  0.00000000000E+00 0.  1.
         21    1    1    2  504  502 -0.24436883781E+02 -0.64458462934E+01 -0.12423678512E+03  0.12678126439E+03  0.00000000000E+00 0.  1.
</event>
<event>
 4    1  0.3372301E+006  0.2372530E+02  0.7546771E-02  0.1483586E+00
         21   -1    0    0  504  501  0.00000000000E+00  0.00000000000E+00  0.38784546921E+02  0.38784546921E+02  0.00000000000E+00 0. -1.
         21   -1    0    0  503  502 -0.00000000000E+00 -0.00000000000E+00 -0.15454250583E+02  0.15454250583E+02  0.00000000000E+00 0. -1.
         21    1    1    2  503  501 -0.20112250006E+01  0.23639898636E+02  0.49732244607E+01  0.24240932223E+02  0.00000000000E+00 0. -1.
         21    1    1    2  504  502  0.20112250006E+01 -0.23639898636E+02  0.18357071876E+02  0.29997865281E+02  0.00000000000E+00 0. -1.
</event>
<event>
 4    1  0.3372301E+006  0.3310858E+02  0.7546771E-02  0.1394371E+00
         21   -1    0    0  504  501  0.00000000000E+00  0.00000000000E+00  0.19238875786E+02  0.19238875786E+02  0.00000000000E+00 0.  1.
         21   -1    0    0  503  502 -0.00000000000E+00 -0.00000000000E+00 -0.72016407019E+02  0.72016407019E+02  0.00000000000E+00 0.  1.
         21    1    1    2  503  501  0.27933462775E+02  0.17773569303E+02 -0.55378977206E+01  0.33568533176E+02  0.00000000000E+00 0.  1.
         21    1    1    2  504  502 -0.27933462775E+02 -0.17773569303E+02 -0.47239633512E+02  0.57686749629E+02  0.00000000000E+00 0.  1.
</event>
<event>
 4    1  0.3372301E+006  0.2335298E+02  0.7546771E-02  0.1488113E+00
         21   -1    0    0  502  501  0.00000000000E+00  0.00000000000E+00  0.19830885484E+03  0.19830885484E+03  0.00000000000E+00 0. -1.
         21   -1    0    0  504  502 -0.00000000000E+00 -0.00000000000E+00 -0.77796824880E+01  0.77796824880E+01  0.00000000000E+00 0.  1.
         21    1    1    2  503  501  0.52040479183E+01  0.22765754479E+02  0.17811801829E+03  0.17964239514E+03  0.00000000000E+00 0. -1.
         21    1    1    2  504  503 -0.52040479183E+01 -0.22765754479E+02  0.12411154069E+02  0.26446142196E+02  0.00000000000E+00 0.  1.
</event>
<event>
 4    1  0.3372301E+006  0.2405247E+02  0.7546771E-02  0.1479689E+00
         21   -1    0    0  503  501  0.00000000000E+00  0.00000000000E+00  0.16494864132E+02  0.16494864132E+02  0.00000000000E+00 0. -1.
         21   -1    0    0  504  502 -0.00000000000E+00 -0.00000000000E+00 -0.14645624446E+03  0.14645624446E+03  0.00000000000E+00 0.  1.
         21    1    1    2  503  502 -0.15174176334E+01  0.24004552755E+02  0.60725184418E+01  0.24807188262E+02  0.00000000000E+00 0. -1.
         21    1    1    2  504  501  0.15174176334E+01 -0.24004552755E+02 -0.13603389877E+03  0.13814392033E+03  0.00000000000E+00 0.  1.
</event>
<event>
 4    1  0.3372301E+006  0.2100066E+02  0.7546771E-02  0.1519255E+00
         21   -1    0    0  504  501  0.00000000000E+00  0.00000000000E+00  0.28994718930E+01  0.28994718930E+01  0.00000000000E+00 0.  1.
         21   -1    0    0  503  502 -0.00000000000E+00 -0.00000000000E+00 -0.16665437574E+03  0.16665437574E+03  0.00000000000E+00 0.  1.
         21    1    1    2  503  501 -0.81742006983E+01  0.19344514869E+02 -0.10692543345E+03  0.10896823451E+03  0.00000000000E+00 0.  1.
         21    1    1    2  504  502  0.81742006983E+01 -0.19344514869E+02 -0.56829470398E+02  0.60585613129E+02  0.00000000000E+00 0.  1.
</event>
<event>
 4    1  0.3372301E+006  0.2123325E+02  0.7546771E-02  0.1515961E+00
         21   -1    0    0  503  501  0.00000000000E+00  0.00000000000E+00  0.35310655818E+03  0.35310655818E+03  0.00000000000E+00 0. -1.
         21   -1    0    0  504  502 -0.00000000000E+00 -0.00000000000E+00 -0.50346123607E+01  0.50346123607E+01  0.00000000000E+00 0.  1.
         21    1    1    2  503  502 -0.19199280849E+02  0.90685479879E+01  0.19329657064E+02  0.28713874520E+02  0.00000000000E+00 0.  1.
         21    1    1    2  504  501  0.19199280849E+02 -0.90685479879E+01  0.32874228876E+03  0.32942729602E+03  0.00000000000E+00 0. -1.
</event>
<event>
 4    1  0.3372301E+006  0.2709217E+02  0.7546771E-02  0.1446684E+00
         21   -1    0    0  503  501  0.00000000000E+00  0.00000000000E+00  0.21798565575E+02  0.21798565575E+02  0.00000000000E+00 0. -1.
         21   -1    0    0  504  502 -0.00000000000E+00 -0.00000000000E+00 -0.58354535251E+02  0.58354535251E+02  0.00000000000E+00 0. -1.
         21    1    1    2  503  502 -0.25297354056E+02 -0.96968908843E+01 -0.44342770485E+02  0.51964094425E+02  0.00000000000E+00 0. -1.
         21    1    1    2  504  501  0.25297354056E+02  0.96968908843E+01  0.77868008093E+01  0.28189006401E+02  0.00000000000E+00 0. -1.
</event>
<event>
 4    1  0.3372301E+006  0.3135893E+02  0.7546771E-02  0.1408144E+00
         21   -1    0    0  503  501  0.00000000000E+00  0.00000000000E+00  0.33701132766E+02  0.33701132766E+02  0.00000000000E+00 0. -1.
         21   -1    0    0  504  502 -0.00000000000E+00 -0.00000000000E+00 -0.15099410200E+03  0.15099410200E+03  0.00000000000E+00 0.  1.
         21    1    1    2  503  502 -0.26552740929E+02  0.16683365822E+02 -0.14159246596E+03  0.14502347797E+03  0.00000000000E+00 0.  1.
         21    1    1    2  504  501  0.26552740929E+02 -0.16683365822E+02  0.24299496727E+02  0.39671756795E+02  0.00000000000E+00 0. -1.
</event>
<event>
 4    1  0.3372301E+006  0.2800759E+02  0.7546771E-02  0.1437741E+00
         21   -1    0    0  504  501  0.00000000000E+00  0.00000000000E+00  0.55298086082E+01  0.55298086082E+01  0.00000000000E+00 0.  1.
         21   -1    0    0  503  502 -0.00000000000E+00 -0.00000000000E+00 -0.29302062124E+03  0.29302062124E+03  0.00000000000E+00 0. -1.
         21    1    1    2  503  501 -0.26873335572E+02  0.78898071458E+01 -0.36527670811E+02  0.46029294546E+02  0.00000000000E+00 0.  1.
         21    1    1    2  504  502  0.26873335572E+02 -0.78898071458E+01 -0.25096314182E+03  0.25252113530E+03  0.00000000000E+00 0. -1.
</event>
<event>
 4    1  0.3372301E+006  0.2149924E+02  0.7546771E-02  0.1512255E+00
         21   -1    0    0  502  501  0.00000000000E+00  0.00000000000E+00  0.23130939378E+02  0.23130939378E+02  0.00000000000E+00 0. -1.
         21   -1    0    0  503  502 -0.00000000000E+00 -0.00000000000E+00 -0.23522342027E+02  0.23522342027E+02  0.00000000000E+00 0. -1.
         21    1    1    2  503  504  0.31855116178E+00  0.21496881303E+02 -0.92445824809E+01  0.23402557250E+02  0.00000000000E+00 0. -1.
         21    1    1    2  504  501 -0.31855116178E+00 -0.21496881303E+02  0.88531798321E+01  0.23250724155E+02  0.00000000000E+00 0. -1.
</event>
<event>
 4    1  0.3372301E+006  0.2104339E+02  0.7546771E-02  0.1518646E+00
         21   -1    0    0  504  501  0.00000000000E+00  0.00000000000E+00  0.13476255455E+02  0.13476255455E+02  0.00000000000E+00 0.  1.
         21   -1    0    0  503  502 -0.00000000000E+00 -0.00000000000E+00 -0.40114644023E+02  0.40114644023E+02  0.00000000000E+00 0.  1.
         21    1    1    2  503  501  0.20784892668E+02 -0.32882218292E+01 -0.24714606622E+02  0.32459758879E+02  0.00000000000E+00 0.  1.
         21    1    1    2  504  502 -0.20784892668E+02  0.32882218292E+01 -0.19237819467E+01  0.21131140599E+02  0.00000000000E+00 0.  1.
</event>
<event>
 4    1  0.3372301E+006  0.2580674E+02  0.7546771E-02  0.1459977E+00
         21   -1    0    0  502  501  0.00000000000E+00  0.00000000000E+00  0.55624825842E+02  0.55624825842E+02  0.00000000000E+00 0. -1.
         21   -1    0    0  503  502 -0.00000000000E+00 -0.00000000000E+00 -0.27926862225E+02  0.27926862225E+02  0.00000000000E+00 0. -1.
         21    1    1    2  503  504  0.22507714770E+02 -0.12625000294E+02 -0.17726434324E+02  0.31308374765E+02  0.00000000000E+00 0. -1.
         21    1    1    2  504  501 -0.22507714770E+02  0.12625000294E+02  0.45424397940E+02  0.52243313302E+02  0.00000000000E+00 0. -1.
</event>
<event>
 4    1  0.3372301E+006  0.2726389E+02  0.7546771E-02  0.1444975E+00
         21   -1    0    0  504  501  0.00000000000E+00  0.00000000000E+00  0.23083624518E+02  0.23083624518E+02  0.00000000000E+00 0.  1.
         21   -1    0    0  501  502 -0.00000000000E+00 -0.00000000000E+00 -0.23321402821E+03  0.23321402821E+03  0.00000000000E+00 0. -1.
         21    1    1    2  503  502  0.44960132452E-01 -0.27263848929E+02 -0.22403842528E+03  0.22569123927E+03  0.00000000000E+00 0. -1.
         21    1    1    2  504  503 -0.44960132452E-01  0.27263848929E+02  0.13908021594E+02  0.30606413454E+02  0.00000000000E+00 0.  1.
</event>
<event>
 4    1  0.3372301E+006  0.2116229E+02  0.7546771E-02  0.1516960E+00
         21   -1    0    0  504  501  0.00000000000E+00  0.00000000000E+00  0.21652578318E+01  0.21652578318E+01  0.00000000000E+00 0. -1.
         21   -1    0    0  503  502 -0.00000000000E+00 -0.00000000000E+00 -0.23017898467E+03  0.23017898467E+03  0.00000000000E+00 0. -1.
         21    1    1    2  503  501  0.20102784222E+00  0.21161337161E+02 -0.77007598411E+02  0.79862461868E+02  0.00000000000E+00 0. -1.
         21    1    1    2  504  502 -0.20102784222E+00 -0.21161337161E+02 -0.15100612842E+03  0.15248178063E+03  0.00000000000E+00 0. -1.
</event>
<event>
 4    1  0.3372301E+006  0.2256469E+02  0.7546771E-02  0.1498038E+00
         21   -1    0    0  502  501  0.00000000000E+00  0.00000000000E+00  0.53939477630E+02  0.53939477630E+02  0.00000000000E+00 0.  1.
         21   -1    0    0  503  502 -0.00000000000E+00 -0.00000000000E+00 -0.14912845452E+02  0.14912845452E+02  0.00000000000E+00 0.  1.
         21    1    1    2  503  504  0.82127259313E+01  0.21017050621E+02 -0.13427376278E+01  0.22604606353E+02  0.00000000000E+00 0.  1.
         21    1    1    2  504  501 -0.82127259313E+01 -0.21017050621E+02  0.40369369806E+02  0.46247716728E+02  0.00000000000E+00 0.  1.
</event>
<event>
 4    1  0.3372301E+006  0.2913156E+02  0.7546771E-02  0.1427296E+00
         21   -1    0    0  503  501  0.00000000000E+00  0.00000000000E+00  0.55868049936E+03  0.55868049936E+03  0.00000000000E+00 0.  1.
         21   -1    0    0  501  502 -0.00000000000E+00 -0.00000000000E+00 -0.14014950238E+02  0.14014950238E+02  0.00000000000E+00 0. -1.
         21    1    1    2  503  504 -0.21754659865E+02 -0.19374784472E+02  0.54271754902E+03  0.54349883672E+03  0.00000000000E+00 0.  1.
         21    1    1    2  504  502  0.21754659865E+02  0.19374784472E+02  0.19480001014E+01  0.29196612879E+02  0.00000000000E+00 0. -1.
</event>
<event>
 4    1  0.3372301E+006  0.2257643E+02  0.7546771E-02  0.1497887E+00
         21   -1    0    0  502  501  0.00000000000E+00  0.00000000000E+00  0.60990406295E+02  0.60990406295E+02  0.00000000000E+00 0.  1.
         21   -1    0    0  504  502 -0.00000000000E+00 -0.00000000000E+00 -0.27072031891E+02  0.27072031891E+02  0.00000000000E+00 0. -1.
         21    1    1    2  503  501 -0.22016367928E+02 -0.49974568113E+01  0.53568865325E+02  0.58131904868E+02  0.00000000000E+00 0.  1.
         21    1    1    2  504  503  0.22016367928E+02  0.49974568113E+01 -0.19650490921E+02  0.29930533319E+02  0.00000000000E+00 0. -1.
</event>
<event>
 4    1  0.3372301E+006  0.5605155E+02  0.7546771E-02  0.1273872E+00
         21   -1    0    0  504  501  0.00000000000E+00  0.00000000000E+00  0.68208825585E+02  0.68208825585E+02  0.00000000000E+00 0. -1.
         21   -1    0    0  503  502 -0.00000000000E+00 -0.00000000000E+00 -0.52300074190E+02  0.52300074190E+02  0.00000000000E+00 0. -1.
         21    1    1    2  503  501  0.46121582409E+02 -0.31852404168E+02  0.28765392641E+02  0.63001776395E+02  0.00000000000E+00 0. -1.
         21    1    1    2  504  502 -0.46121582409E+02  0.31852404168E+02 -0.12856641246E+02  0.57507123379E+02  0.00000000000E+00 0. -1.
</event>
<event>
 4    1  0.3372301E+006  0.2011546E+02  0.7546771E-02  0.1532278E+00
         21   -1    0    0  503  501  0.00000000000E+00  0.00000000000E+00  0.34045160945E+02  0.34045160945E+02  0.00000000000E+00 0. -1.
         21   -1    0    0  504  502 -0.00000000000E+00 -0.00000000000E+00 -0.66655138460E+03  0.66655138460E+03  0.00000000000E+00 0. -1.
         21    1    1    2  503  502 -0.11015507795E+02 -0.16831235747E+02  0.30908062613E+02  0.36877367629E+02  0.00000000000E+00 0. -1.
         21    1    1    2  504  501  0.11015507795E+02  0.16831235747E+02 -0.66341428627E+03  0.66371917792E+03  0.00000000000E+00 0. -1.
</event>
<event>
 4    1  0.3372301E+006  0.2056488E+02  0.7546771E-02  0.1525569E+00
         21   -1    0    0  504  501  0.00000000000E+00  0.00000000000E+00  0.18456757857E+01  0.18456757857E+01  0.00000000000E+00 0.  1.
         21   -1    0    0  501  502 -0.00000000000E+00 -0.00000000000E+00 -0.61579364363E+03  0.61579364363E+03  0.00000000000E+00 0. -1.
         21    1    1    2  503  502  0.20526656522E+02 -0.12531979137E+01 -0.55168279947E+03  0.55206596107E+03  0.00000000000E+00 0. -1.
         21    1    1    2  504  503 -0.20526656522E+02  0.12531979137E+01 -0.62265168369E+02  0.65573358348E+02  0.00000000000E+00 0.  1.
</event>
<event>
 4    1  0.3372301E+006  0.3830324E+02  0.7546771E-02  0.1358726E+00
         21   -1    0    0  504  501  0.00000000000E+00  0.00000000000E+00  0.36033763374E+02  0.36033763374E+02  0.00000000000E+00 0.  1.
         21   -1    0    0  503  502 -0.00000000000E+00 -0.00000000000E+00 -0.75753435622E+02  0.75753435622E+02  0.00000000000E+00 0.  1.
         21    1    1    2  503  501 -0.77914775212E+01 -0.37502414200E+02  0.18152907876E+02  0.42387100127E+02  0.00000000000E+00 0.  1.
         21    1    1    2  504  502  0.77914775212E+01  0.37502414200E+02 -0.57872580125E+02  0.69400098869E+02  0.00000000000E+00 0.  1.
</event>
<event>
 4    1  0.3372301E+006  0.2661405E+02  0.7546771E-02  0.1451524E+00
         21   -1    0    0  503  501  0.00000000000E+00  0.00000000000E+00  0.16766751132E+03  0.16766751132E+03  0.00000000000E+00 0.  1.
         21   -1    0    0  504  502 -0.00000000000E+00 -0.00000000000E+00 -0.97372234286E+01  0.97372234286E+01  0.00000000000E+00 0. -1.
         21    1    1    2  503  502 -0.20165838528E+02 -0.17367978109E+02  0.12222775610E+02  0.29286583118E+02  0.00000000000E+00 0. -1.
         21    1    1    2  504  501  0.20165838528E+02  0.17367978109E+02  0.14570751228E+03  0.14811815163E+03  0.00000000000E+00 0.  1.
</event>
<event>
 4    1  0.3372301E+006  0.2186699E+02  0.7546771E-02  0.1507238E+00
         21   -1    0    0  504  501  0.00000000000E+00  0.00000000000E+00  0.21469182611E+03  0.21469182611E+03  0.00000000000E+00 0.  1.
         21   -1    0    0  503  502 -0.00000000000E+00 -0.00000000000E+00 -0.32512722483E+01  0.32512722483E+01  0.00000000000E+00 0.  1.
         21    1    1    2  503  501  0.83853467651E+01 -0.20195321457E+02  0.44562965744E+02  0.49638925905E+02  0.00000000000E+00 0.  1.
         21    1    1    2  504  502 -0.83853467651E+01  0.20195321457E+02  0.16687758812E+03  0.16830417246E+03  0.00000000000E+00 0.  1.
</event>
<event>
 4    1  0.3372301E+006  0.2575482E+02  0.7546771E-02  0.1460534E+00
         21   -1    0    0  503  501  0.00000000000E+00  0.00000000000E+00  0.10606504757E+02  0.10606504757E+02  0.00000000000E+00 0.  1.
         21   -1    0    0  504  502 -0.00000000000E+00 -0.00000000000E+00 -0.32228368013E+03  0.32228368013E+03  0.00000000000E+00 0. -1.
         21    1    1    2  503  502 -0.25697870616E+02 -0.17118162047E+01 -0.30526449582E+03  0.30634902199E+03  0.00000000000E+00 0. -1.
         21    1    1    2  504  501  0.25697870616E+02  0.17118162047E+01 -0.64126795606E+01  0.26541162900E+02  0.00000000000E+00 0.  1.
</event>
<event>
 4    1  0.3372301E+006  0.2203316E+02  0.7546771E-02  0.1505009E+00
         21   -1    0    0  504  501  0.00000000000E+00  0.00000000000E+00  0.64019149876E+02  0.64019149876E+02  0.00000000000E+00 0.  1.
         21   -1    0    0  501  502 -0.00000000000E+00 -0.00000000000E+00 -0.44189888384E+02  0.44189888384E+02  0.00000000000E+00 0. -1.
         21    1    1    2  503  502 -0.25988715083E+01 -0.21879349978E+02 -0.39329358784E+02  0.45080578422E+02  0.00000000000E+00 0. -1.
         21    1    1    2  504  503  0.25988715083E+01  0.21879349978E+02  0.59158620275E+02  0.63128459837E+02  0.00000000000E+00 0.  1.
</event>
<event>
 4    1  0.3372301E+006  0.2284817E+02  0.7546771E-02  0.1494413E+00
         21   -1    0    0  503  501  0.00000000000E+00  0.00000000000E+00  0.14158128602E+02  0.14158128602E+02  0.00000000000E+00 0.  1.
         21   -1    0    0  501  502 -0.00000000000E+00 -0.00000000000E+00 -0.57246673824E+02  0.57246673824E+02  0.00000000000E+00 0.  1.
         21    1    1    2  503  504 -0.21889285121E+02  0.65496766530E+01 -0.24488015392E+00  0.22849486508E+02  0.00000000000E+00 0.  1.
         21    1    1    2  504  502  0.21889285121E+02 -0.65496766530E+01 -0.42843665068E+02  0.48555315918E+02  0.00000000000E+00 0.  1.
</event>
<event>
 4    1  0.3372301E+006  0.3650216E+02  0.7546771E-02  0.1370299E+00
         21   -1    0    0  504  501  0.00000000000E+00  0.00000000000E+00  0.14180792815E+03  0.14180792815E+03  0.00000000000E+00 0. -1.
         21   -1    0    0  501  502 -0.00000000000E+00 -0.00000000000E+00 -0.34397754768E+02  0.34397754768E+02  0.00000000000E+00 0. -1.
         21    1    1    2  503  502 -0.36325971607E+02  0.35821027723E+01 -0.21407257216E+02  0.42316407397E+02  0.00000000000E+00 0. -1.
         21    1    1    2  504  503  0.36325971607E+02 -0.35821027723E+01  0.12881743060E+03  0.13388927552E+03  0.00000000000E+00 0. -1.
</event>
<event>
 4    1  0.3372301E+006  0.2887362E+02  0.7546771E-02  0.1429644E+00
         21   -1    0    0  504  501  0.00000000000E+00  0.00000000000E+00  0.31555912433E+02  0.31555912433E+02  0.00000000000E+00 0.  1.
         21   -1    0    0  503  502 -0.00000000000E+00 -0.00000000000E+00 -0.35270572047E+03  0.35270572047E+03  0.00000000000E+00 0.  1.
         21    1    1    2  503  501  0.28344691983E+02 -0.55012820370E+01  0.24220116556E+02  0.37686863941E+02  0.00000000000E+00 0.  1.
         21    1    1    2  504  502 -0.28344691983E+02  0.55012820370E+01 -0.34536992460E+03  0.34657476897E+03  0.00000000000E+00 0.  1.
</event>
<event>
 4    1  0.3372301E+006  0.3660691E+02  0.7546771E-02  0.1369605E+00
         21   -1    0    0  504  501  0.00000000000E+00  0.00000000000E+00  0.13781372297E+02  0.13781372297E+02  0.00000000000E+00 0.  1.
         21   -1    0    0  503  502 -0.00000000000E+00 -0.00000000000E+00 -0.97635297198E+02  0.97635297198E+02  0.00000000000E+00 0.  1.
         21    1    1    2  503  501 -0.30826441258E+02  0.19743268597E+02 -0.45482863917E+02  0.58384561706E+02  0.00000000000E+00 0.  1.
         21    1    1    2  504  502  0.30826441258E+02 -0.19743268597E+02 -0.38371060984E+02  0.53032107789E+02  0.00000000000E+00 0.  1.
</event>
<event>
 4    1  0.3372301E+006  0.9747926E+02  0.7546771E-02  0.1168249E+00
         21   -1    0    0  504  501  0.00000000000E+00  0.00000000000E+00  0.93777281852E+03  0.93777281852E+03  0.00000000000E+00 0.  1.
         21   -1    0    0  503  502 -0.00000000000E+00 -0.00000000000E+00 -0.30124730363E+02  0.30124730363E+02  0.00000000000E+00 0.  1.
         21    1    1    2  503  501  0.17772218733E+01  0.97463055316E+02  0.59579351181E+02  0.11424493318E+03  0.00000000000E+00 0.  1.
         21    1    1    2  504  502 -0.17772218733E+01 -0.97463055316E+02  0.84806873698E+03  0.85365261571E+03  0.00000000000E+00 0.  1.
</event>
<event>
 4    1  0.3372301E+006  0.2671380E+02  0.7546771E-02  0.1450504E+00
         21   -1    0    0  503  501  0.00000000000E+00  0.00000000000E+00  0.20147627727E+02  0.20147627727E+02  0.00000000000E+00 0. -1.
         21   -1    0    0  501  502 -0.00000000000E+00 -0.00000000000E+00 -0.13086814286E+03  0.13086814286E+03  0.00000000000E+00 0.  1.
         21    1    1    2  503  504  0.16650903889E+02 -0.20889575887E+02  0.91248315126E+01  0.28229231856E+02  0.00000000000E+00 0. -1.
         21    1    1    2  504  502 -0.16650903889E+02  0.20889575887E+02 -0.11984534664E+03  0.12278653873E+03  0.00000000000E+00 0.  1.
</event>
<event>
 4    1  0.3372301E+006  0.2178192E+02  0.7546771E-02  0.1508387E+00
         21   -1    0    0  504  501  0.00000000000E+00  0.00000000000E+00  0.15881450900E+03  0.15881450900E+03  0.00000000000E+00 0. -1.
         21   -1    0    0  503  502 -0.00000000000E+00 -0.00000000000E+00 -0.65051846198E+02  0.65051846198E+02  0.00000000000E+00 0. -1.
         21    1    1    2  503  501  0.21695643592E+02  0.19367639489E+01 -0.62451413508E+02  0.66140993753E+02  0.00000000000E+00 0. -1.
         21    1    1    2  504  502 -0.21695643592E+02 -0.19367639489E+01  0.15621407631E+03  0.15772536145E+03  0.00000000000E+00 0. -1.
</event>
<event>
 4    1  0.3372301E+006  0.2304199E+02  0.7546771E-02  0.1491972E+00
         21   -1    0    0  504  501  0.00000000000E+00  0.00000000000E+00  0.43721563338E+03  0.43721563338E+03  0.00000000000E+00 0. -1.
         21   -1    0    0  503  502 -0.00000000000E+00 -0.00000000000E+00 -0.24652764555E+01  0.24652764555E+01  0.00000000000E+00 0.  1.
         21    1    1    2  503  501 -0.13405696934E+02  0.18740877384E+02  0.37397473702E+03  0.37468391629E+03  0.00000000000E+00 0. -1.
         21    1    1    2  504  502  0.13405696934E+02 -0.18740877384E+02  0.60775619897E+02  0.64996993541E+02  0.00000000000E+00 0.  1.
</event>
<event>
 4    1  0.3372301E+006  0.2181237E+02  0.7546771E-02  0.1507975E+00
         21   -1    0    0  503  501  0.00000000000E+00  0.00000000000E+00  0.19901689568E+02  0.19901689568E+02  0.00000000000E+00 0. -1.
         21   -1    0    0  504  502 -0.00000000000E+00 -0.00000000000E+00 -0.24558941858E+02  0.24558941858E+02  0.00000000000E+00 0. -1.
         21    1    1    2  503  502 -0.15437845437E+02 -0.15409488455E+02 -0.59520348476E+01  0.22609867868E+02  0.00000000000E+00 0. -1.
         21    1    1    2  504  501  0.15437845437E+02  0.15409488455E+02  0.12947825579E+01  0.21850763558E+02  0.00000000000E+00 0. -1.
</event>
<event>
 4    1  0.3372301E+006  0.3122154E+02  0.7546771E-02  0.1409270E+00
         21   -1    0    0  502  501  0.00000000000E+00  0.00000000000E+00  0.24102747716E+02  0.24102747716E+02  0.00000000000E+00 0. -1.
         21   -1    0    0  504  502 -0.00000000000E+00 -0.00000000000E+00 -0.13658822239E+03  0.13658822239E+03  0.00000000000E+00 0.  1.
         21    1    1    2  503  501 -0.19276815500E+02  0.24559910640E+02  0.11166427766E+02  0.33158316235E+02  0.00000000000E+00 0. -1.
         21    1    1    2  504  503  0.19276815500E+02 -0.24559910640E+02 -0.12365190244E+03  0.12753265387E+03  0.00000000000E+00 0.  1.
</event>
<event>
 4    1  0.3372301E+006  0.3023330E+02  0.7546771E-02  0.1417580E+00
         21   -1    0    0  504  501  0.00000000000E+00  0.00000000000E+00  0.66627289896E+01  0.66627289896E+01  0.00000000000E+00 0. -1.
         21   -1    0    0  503  502 -0.00000000000E+00 -0.00000000000E+00 -0.26890158054E+03  0.26890158054E+03  0.00000000000E+00 0. -1.
         21    1    1    2  503  501 -0.29171580556E+02 -0.79417634138E+01 -0.34689901226E+02  0.46015670866E+02  0.00000000000E+00 0. -1.
         21    1    1    2  504  502  0.29171580556E+02  0.79417634138E+01 -0.22754895032E+03  0.22954863866E+03  0.00000000000E+00 0. -1.
</event>
<event>
 4    1  0.3372301E+006  0.2443055E+02  0.7546771E-02  0.1475276E+00
         21   -1    0    0  504  501  0.00000000000E+00  0.00000000000E+00  0.27846127036E+01  0.27846127036E+01  0.00000000000E+00 0.  1.
         21   -1    0    0  503  502 -0.00000000000E+00 -0.00000000000E+00 -0.50003959255E+03  0.50003959255E+03  0.00000000000E+00 0.  1.
         21    1    1    2  503  501 -0.64403115663E+00  0.24422054792E+02 -0.58589934161E+02  0.63479381860E+02  0.00000000000E+00 0.  1.
         21    1    1    2  504  502  0.64403115663E+00 -0.24422054792E+02 -0.43866504569E+03  0.43934482340E+03  0.00000000000E+00 0.  1.
</event>
<event>
 4    1  0.3372301E+006  0.2445725E+02  0.7546771E-02  0.1474968E+00
         21   -1    0    0  503  501  0.00000000000E+00  0.00000000000E+00  0.18346791962E+03  0.18346791962E+03  0.00000000000E+00 0. -1.
         21   -1    0    0  501  502 -0.00000000000E+00 -0.00000000000E+00 -0.14835080735E+03  0.14835080735E+03  0.00000000000E+00 0.  1.
         21    1    1    2  503  504 -0.23677625242E+02 -0.61259269708E+01  0.18163471057E+03  0.18327390704E+03  0.00000000000E+00 0. -1.
         21    1    1    2  504  502  0.23677625242E+02  0.61259269708E+01 -0.14651759829E+03  0.14854481993E+03  0.00000000000E+00 0.  1.
</event>
<event>
 4    1  0.3372301E+006  0.2002110E+02  0.7546771E-02  0.1533713E+00
         21   -1    0    0  502  501  0.00000000000E+00  0.00000000000E+00  0.13151990582E+04  0.13151990582E+04  0.00000000000E+00 0. -1.
         21   -1    0    0  504  502 -0.00000000000E+00 -0.00000000000E+00 -0.21985077414E+02  0.21985077414E+02  0.00000000000E+00 0.  1.
         21    1    1    2  503  501 -0.11440213862E+02 -0.16430635030E+02  0.13105485497E+04  0.13107014708E+04  0.00000000000E+00 0. -1.
         21    1    1    2  504  503  0.11440213862E+02  0.16430635030E+02 -0.17334568903E+02  0.26482664891E+02  0.00000000000E+00 0.  1.
</event>
<event>
 4    1  0.3372301E+006  0.2365592E+02  0.7546771E-02  0.1484422E+00
         21   -1    0    0  503  501  0.00000000000E+00  0.00000000000E+00  0.14527330482E+03  0.14527330482E+03  0.00000000000E+00 0. -1.
         21   -1    0    0  504  502 -0.00000000000E+00 -0.00000000000E+00 -0.15856005142E+02  0.15856005142E+02  0.00000000000E+00 0. -1.
         21    1    1    2  503  502  0.18425085143E+02  0.14836406192E+02 -0.53899770697E+01  0.24262204434E+02  0.00000000000E+00 0. -1.
         21    1    1    2  504  501 -0.18425085143E+02 -0.14836406192E+02  0.13480727675E+03  0.13686710552E+03  0.00000000000E+00 0. -1.
</event>
<event>
 4    1  0.3372301E+006  0.2283753E+02  0.7546771E-02  0.1494548E+00
         21   -1    0    0  502  501  0.00000000000E+00  0.00000000000E+00  0.21717570919E+00  0.21717570919E+00  0.00000000000E+00 0.  1.
         21   -1    0    0  504  502 -0.00000000000E+00 -0.00000000000E+00 -0.25507285003E+04  0.25507285003E+04  0.00000000000E+00 0.  1.
         21    1    1    2  503  501 -0.14341581141E+02  0.17772777611E+02 -0.96677300270E+03  0.96704270398E+03  0.00000000000E+00 0.  1.
         21    1    1    2  504  503  0.14341581141E+02 -0.17772777611E+02 -0.15837383219E+04  0.15839029720E+04  0.00000000000E+00 0.  1.
</event>
<event>
 4    1  0.3372301E+006  0.4511756E+02  0.7546771E-02  0.1320853E+00
         21   -1    0    0  504  501  0.00000000000E+00  0.00000000000E+00  0.24603870374E+03  0.24603870374E+03  0.00000000000E+00 0.  1.
         21   -1    0    0  503  502 -0.00000000000E+00 -0.00000000000E+00 -0.12664703806E+02  0.12664703806E+02  0.00000000000E+00 0.  1.
         21    1    1    2  503  501  0.95473245022E+01 -0.44095837063E+02  0.19285417206E+03  0.19806141960E+03  0.00000000000E+00 0.  1.
         21    1    1    2  504  502 -0.95473245022E+01  0.44095837063E+02  0.40519827873E+02  0.60641987948E+02  0.00000000000E+00 0.  1.
</event>
<event>
 4    1  0.3372301E+006  0.2139294E+02  0.7546771E-02  0.1513728E+00
         21   -1    0    0  504  501  0.00000000000E+00  0.00000000000E+00  0.35113099007E+02  0.35113099007E+02  0.00000000000E+00 0.  1.
         21   -1    0    0  503  502 -0.00000000000E+00 -0.00000000000E+00 -0.88600913976E+02  0.88600913976E+02  0.00000000000E+00 0.  1.
         21    1    1    2  503  501 -0.82368792181E+01  0.19743653694E+02 -0.83870213223E+02  0.86555593156E+02  0.00000000000E+00 0.  1.
         21    1    1    2  504  502  0.82368792181E+01 -0.19743653694E+02  0.30382398254E+02  0.37158419827E+02  0.00000000000E+00 0.  1.
</event>
<event>
 4    1  0.3372301E+006  0.2092321E+02  0.7546771E-02  0.1520364E+00
         21   -1    0    0  503  501  0.00000000000E+00  0.00000000000E+00  0.18232181107E+03  0.18232181107E+03  0.00000000000E+00 0.  1.
         21   -1    0    0  504  502 -0.00000000000E+00 -0.00000000000E+00 -0.81466055331E+01  0.81466055331E+01  0.00000000000E+00 0.  1.
         21    1    1    2  503  502  0.19845724204E+02 -0.66278244210E+01  0.16706497167E+03  0.16837008519E+03  0.00000000000E+00 0.  1.
         21    1    1    2  504  501 -0.19845724204E+02  0.66278244210E+01  0.71102338631E+01  0.22098331415E+02  0.00000000000E+00 0.  1.
</event>
<event>
 4    1  0.3372301E+006  0.2266695E+02  0.7546771E-02  0.1496723E+00
         21   -1    0    0  503  501  0.00000000000E+00  0.00000000000E+00  0.78255946848E+02  0.78255946848E+02  0.00000000000E+00 0.  1.
         21   -1    0    0  504  502 -0.00000000000E+00 -0.00000000000E+00 -0.66843159314E+01  0.66843159314E+01  0.00000000000E+00 0.  1.
         21    1    1    2  503  502  0.18390831422E+02 -0.13250210860E+02  0.30123931718E+02  0.37699363793E+02  0.00000000000E+00 0.  1.
         21    1    1    2  504  501 -0.18390831422E+02  0.13250210860E+02  0.41447699199E+02  0.47240898987E+02  0.00000000000E+00 0.  1.
</event>
<event>
 4    1  0.3372301E+006  0.2193575E+02  0.7546771E-02  0.1506313E+00
         21   -1    0    0  502  501  0.00000000000E+00  0.00000000000E+00  0.19642002043E+03  0.19642002043E+03  0.00000000000E+00 0.  1.
         21   -1    0    0  504  502 -0.00000000000E+00 -0.00000000000E+00 -0.40845354283E+02  0.40845354283E+02  0.00000000000E+00 0. -1.
         21    1    1    2  503  501 -0.67654172084E+01 -0.20866391235E+02  0.19280746694E+03  0.19405127276E+03  0.00000000000E+00 0.  1.
         21    1    1    2  504  503  0.67654172084E+01  0.20866391235E+02 -0.37232800788E+02  0.43214101954E+02  0.00000000000E+00 0. -1.
</event>
<event>
 4    1  0.3372301E+006  0.5265811E+02  0.7546771E-02  0.1287042E+00
         21   -1    0    0  504  501  0.00000000000E+00  0.00000000000E+00  0.48638258187E+03  0.48638258187E+03  0.00000000000E+00 0.  1.
         21   -1    0    0  503  502 -0.00000000000E+00 -0.00000000000E+00 -0.45485704738E+02  0.45485704738E+02  0.00000000000E+00 0.  1.
         21    1    1    2  503  501 -0.25667589492E+02  0.45978811191E+02 -0.28262337847E+02  0.59763165657E+02  0.00000000000E+00 0.  1.
         21    1    1    2  504  502  0.25667589492E+02 -0.45978811191E+02  0.46915921498E+03  0.47210512096E+03  0.00000000000E+00 0.  1.
</event>
<event>
 4    1  0.3372301E+006  0.2004961E+02  0.7546771E-02  0.1533279E+00
         21   -1    0    0  503  501  0.00000000000E+00  0.00000000000E+00  0.18296211506E+02  0.18296211506E+02  0.00000000000E+00 0. -1.
         21   -1    0    0  504  502 -0.00000000000E+00 -0.00000000000E+00 -0.22994710995E+02  0.22994710995E+02  0.00000000000E+00 0. -1.
         21    1    1    2  503  502  0.18100959912E+02  0.86221821419E+01 -0.67052815866E+01  0.21141134685E+02  0.00000000000E+00 0. -1.
         21    1    1    2  504  501 -0.18100959912E+02 -0.86221821419E+01  0.20067820979E+01  0.20149787816E+02  0.00000000000E+00 0. -1.
</event>
<event>
 4    1  0.3372301E+006  0.2121973E+02  0.7546771E-02  0.1516151E+00
         21   -1    0    0  504  501  0.00000000000E+00  0.00000000000E+00  0.84511526669E+01  0.84511526669E+01  0.00000000000E+00 0. -1.
         21   -1    0    0  501  502 -0.00000000000E+00 -0.00000000000E+00 -0.16276931921E+03  0.16276931921E+03  0.00000000000E+00 0. -1.
         21    1    1    2  503  502  0.18672377333E+02 -0.10080631021E+02 -0.14737336265E+03  0.14889319936E+03  0.00000000000E+00 0. -1.
         21    1    1    2  504  503 -0.18672377333E+02  0.10080631021E+02 -0.69448038969E+01  0.22327272520E+02  0.00000000000E+00 0. -1.
</event>
<event>
 4    1  0.3372301E+006  0.5525150E+02  0.7546771E-02  0.1276880E+00
         21   -1    0    0  504  501  0.00000000000E+00  0.00000000000E+00  0.12808092966E+02  0.12808092966E+02  0.00000000000E+00 0.  1.
         21   -1    0    0  503  502 -0.00000000000E+00 -0.00000000000E+00 -0.25325638370E+03  0.25325638370E+03  0.00000000000E+00 0. -1.
         21    1    1    2  503  501 -0.15464245911E+02 -0.53043240051E+02 -0.15250571614E+03  0.16220580036E+03  0.00000000000E+00 0. -1.
         21    1    1    2  504  502  0.15464245911E+02  0.53043240051E+02 -0.87942574594E+02  0.10385867630E+03  0.00000000000E+00 0.  1.
</event>
<event>
 4    1  0.3372301E+006  0.5227723E+02  0.7546771E-02  0.1288590E+00
         21   -1    0    0  502  501  0.00000000000E+00  0.00000000000E+00  0.10216178315E+02  0.10216178315E+02  0.00000000000E+00 0. -1.
         21   -1    0    0  503  502 -0.00000000000E+00 -0.00000000000E+00 -0.36456048673E+03  0.36456048673E+03  0.00000000000E+00 0. -1.
         21    1    1    2  503  504 -0.48664435186E+02 -0.19096633507E+02 -0.27385763258E+03  0.27880263913E+03  0.00000000000E+00 0. -1.
         21    1    1    2  504  501  0.48664435186E+02  0.19096633507E+02 -0.80486675830E+02  0.95974025910E+02  0.00000000000E+00 0. -1.
</event>
<event>
 4    1  0.3372301E+006  0.2043813E+02  0.7546771E-02  0.1527440E+00
         21   -1    0    0  502  501  0.00000000000E+00  0.00000000000E+00  0.18748913457E+02  0.18748913457E+02  0.00000000000E+00 0.  1.
         21   -1    0    0  504  502 -0.00000000000E+00 -0.00000000000E+00 -0.50564283575E+02  0.50564283575E+02  0.00000000000E+00 0. -1.
         21    1    1    2  503  501 -0.17839979807E+02  0.99725754515E+01  0.10012621876E+02  0.22758948515E+02  0.00000000000E+00 0.  1.
         21    1    1    2  504  503  0.17839979807E+02 -0.99725754515E+01 -0.41827991995E+02  0.46554248517E+02  0.00000000000E+00 0. -1.
</event>
<event>
 4    1  0.3372301E+006  0.4584171E+02  0.7546771E-02  0.1317283E+00
         21   -1    0    0  503  501  0.00000000000E+00  0.00000000000E+00  0.25858926847E+03  0.25858926847E+03  0.00000000000E+00 0.  1.
         21   -1    0    0  501  502 -0.00000000000E+00 -0.00000000000E+00 -0.53119481139E+03  0.53119481139E+03  0.00000000000E+00 0. -1.
         21    1    1    2  503  504  0.44574686305E+02  0.10703259124E+02  0.25555693928E+03  0.25963592130E+03  0.00000000000E+00 0.  1.
         21    1    1    2  504  502 -0.44574686305E+02 -0.10703259124E+02 -0.52816248220E+03  0.53014815856E+03  0.00000000000E+00 0. -1.
</event>
<event>
 4    1  0.3372301E+006  0.2810789E+02  0.7546771E-02  0.1436786E+00
         21   -1    0    0  504  501  0.00000000000E+00  0.00000000000E+00  0.52984082377E+01  0.52984082377E+01  0.00000000000E+00 0. -1.
         21   -1    0    0  503  502 -0.00000000000E+00 -0.00000000000E+00 -0.52068625100E+03  0.52068625100E+03  0.00000000000E+00 0.  1.
         21    1    1    2  503  501 -0.18937783689E+02  0.20770507784E+02 -0.47986018948E+03  0.48068269689E+03  0.00000000000E+00 0.  1.
         21    1    1    2  504  502  0.18937783689E+02 -0.20770507784E+02 -0.35527653287E+02  0.45301962350E+02  0.00000000000E+00 0. -1.
</event>
<event>
 4    1  0.3372301E+006  0.4243389E+02  0.7546771E-02  0.1334785E+00
         21   -1    0    0  503  501  0.00000000000E+00  0.00000000000E+00  0.96025368097E+02  0.96025368097E+02  0.00000000000E+00 0. -1.
         21   -1    0    0  504  502 -0.00000000000E+00 -0.00000000000E+00 -0.45310888840E+02  0.45310888840E+02  0.00000000000E+00 0. -1.
         21    1    1    2  503  502  0.15159591964E+02 -0.39633593412E+02 -0.28746843033E+02  0.51254423610E+02  0.00000000000E+00 0. -1.
         21    1    1    2  504  501 -0.15159591964E+02  0.39633593412E+02  0.79461322291E+02  0.90081833326E+02  0.00000000000E+00 0. -1.
</event>
<event>
 4    1  0.3372301E+006  0.2515571E+02  0.7546771E-02  0.1467069E+00
         21   -1    0    0  503  501  0.00000000000E+00  0.00000000000E+00  0.33451684920E+02  0.33451684920E+02  0.00000000000E+00 0. -1.
         21   -1    0    0  501  502 -0.00000000000E+00 -0.00000000000E+00 -0.20570589512E+02  0.20570589512E+02  0.00000000000E+00 0. -1.
         21    1    1    2  503  504  0.18640709656E+02  0.16891825064E+02  0.14098568223E+02  0.28837119072E+02  0.00000000000E+00 0. -1.
         21    1    1    2  504  502 -0.18640709656E+02 -0.16891825064E+02 -0.12174728153E+01  0.25185155360E+02  0.00000000000E+00 0. -1.
</event>
<event>
 4    1  0.3372301E+006  0.2364643E+02  0.7546771E-02  0.1484537E+00
         21   -1    0    0  503  501  0.00000000000E+00  0.00000000000E+00  0.23219168867E+03  0.23219168867E+03  0.00000000000E+00 0. -1.
         21   -1    0    0  504  502 -0.00000000000E+00 -0.00000000000E+00 -0.27309930266E+01  0.27309930266E+01  0.00000000000E+00 0. -1.
         21    1    1    2  503  502 -0.21012532115E+02 -0.10845610984E+02  0.74344760843E+02  0.78014724560E+02  0.00000000000E+00 0. -1.
         21    1    1    2  504  501  0.21012532115E+02  0.10845610984E+02  0.15511593480E+03  0.15690795713E+03  0.00000000000E+00 0. -1.
</event>
<event>
 4    1  0.3372301E+006  0.2337185E+02  0.7546771E-02  0.1487881E+00
         21   -1    0    0  503  501  0.00000000000E+00  0.00000000000E+00  0.17949258928E+03  0.17949258928E+03  0.00000000000E+00 0.  1.
         21   -1    0    0  504  502 -0.00000000000E+00 -0.00000000000E+00 -0.69984947882E+03  0.69984947882E+03  0.00000000000E+00 0.  1.
         21    1    1    2  503  502  0.21586533543E+01  0.23271947638E+02  0.17853560294E+03  0.18005889272E+03  0.00000000000E+00 0.  1.
         21    1    1    2  504  501 -0.21586533543E+01 -0.23271947638E+02 -0.69889249247E+03  0.69928317538E+03  0.00000000000E+00 0.  1.
</event>
<event>
 4    1  0.3372301E+006  0.2386281E+02  0.7546771E-02  0.1481939E+00
         21   -1    0    0  504  501  0.00000000000E+00  0.00000000000E+00  0.24798230382E+03  0.24798230382E+03  0.00000000000E+00 0.  1.
         21   -1    0    0  501  502 -0.00000000000E+00 -0.00000000000E+00 -0.15017798321E+02  0.15017798321E+02  0.00000000000E+00 0. -1.
         21    1    1    2  503  502 -0.21296147582E+02  0.10766055766E+02 -0.45475886721E+01  0.24292270815E+02  0.00000000000E+00 0. -1.
         21    1    1    2  504  503  0.21296147582E+02 -0.10766055766E+02  0.23751209417E+03  0.23870783132E+03  0.00000000000E+00 0.  1.
</event>
<event>
 4    1  0.3372301E+006  0.3435599E+02  0.7546771E-02  0.1385148E+00
         21   -1    0    0  502  501  0.00000000000E+00  0.00000000000E+00  0.61057764141E+03  0.61057764141E+03  0.00000000000E+00 0.  1.
         21   -1    0    0  503  502 -0.00000000000E+00 -0.00000000000E+00 -0.47944583103E+02  0.47944583103E+02  0.00000000000E+00 0. -1.
         21    1    1    2  503  504  0.31042746541E+02  0.14720112141E+02 -0.41238324551E+02  0.53674325576E+02  0.00000000000E+00 0. -1.
         21    1    1    2  504  501 -0.31042746541E+02 -0.14720112141E+02  0.60387138286E+03  0.60484789894E+03  0.00000000000E+00 0.  1.
</event>
<event>
 4    1  0.3372301E+006  0.2361316E+02  0.7546771E-02  0.1484939E+00
         21   -1    0    0  504  501  0.00000000000E+00  0.00000000000E+00  0.52721953353E+00  0.52721953353E+00  0.00000000000E+00 0.  1.
         21   -1    0    0  503  502 -0.00000000000E+00 -0.00000000000E+00 -0.19971056234E+04  0.19971056234E+04  0.00000000000E+00 0.  1.
         21    1    1    2  503  501 -0.14869346910E+02 -0.18343501419E+02 -0.16833630927E+04  0.16835286999E+04  0.00000000000E+00 0.  1.
         21    1    1    2  504  502  0.14869346910E+02  0.18343501419E+02 -0.31321531116E+03  0.31410414302E+03  0.00000000000E+00 0.  1.
</event>
<event>
 4    1  0.3372301E+006  0.2373952E+02  0.7546771E-02  0.1483415E+00
         21   -1    0    0  502  501  0.00000000000E+00  0.00000000000E+00  0.53529915851E+03  0.53529915851E+03  0.00000000000E+00 0.  1.
         21   -1    0    0  504  502 -0.00000000000E+00 -0.00000000000E+00 -0.58617983545E+01  0.58617983545E+01  0.00000000000E+00 0. -1.
         21    1    1    2  503  501  0.22231200603E+02  0.83269762297E+01  0.50979885432E+03  0.51035128753E+03  0.00000000000E+00 0.  1.
         21    1    1    2  504  503 -0.22231200603E+02 -0.83269762297E+01  0.19638505840E+02  0.30809669343E+02  0.00000000000E+00 0. -1.
</event>
<event>
 4    1  0.3372301E+006  0.2562842E+02  0.7546771E-02  0.1461895E+00
         21   -1    0    0  503  501  0.00000000000E+00  0.00000000000E+00  0.54987828206E+02  0.54987828206E+02  0.00000000000E+00 0.  1.
         21   -1    0    0  501  502 -0.00000000000E+00 -0.00000000000E+00 -0.24975046196E+03  0.24975046196E+03  0.00000000000E+00 0. -1.
         21    1    1    2  503  504  0.24674576236E+02 -0.69268562791E+01  0.51299527388E+02  0.57345074423E+02  0.00000000000E+00 0.  1.
         21    1    1    2  504  502 -0.24674576236E+02  0.69268562791E+01 -0.24606216114E+03  0.24739321574E+03  0.00000000000E+00 0. -1.
</event>
<event>
 4    1  0.3372301E+006  0.3475006E+02  0.7546771E-02  0.1382329E+00
         21   -1    0    0  502  501  0.00000000000E+00  0.00000000000E+00  0.31127119968E+03  0.31127119968E+03  0.00000000000E+00 0. -1.
         21   -1    0    0  503  502 -0.00000000000E+00 -0.00000000000E+00 -0.66163930144E+02  0.66163930144E+02  0.00000000000E+00 0.  1.
         21    1    1    2  503  504 -0.24666732907E+02  0.24476909038E+02 -0.60547710284E+02  0.69811116658E+02  0.00000000000E+00 0.  1.
         21    1    1    2  504  501  0.24666732907E+02 -0.24476909038E+02  0.30565497982E+03  0.30762401316E+03  0.00000000000E+00 0. -1.
</event>
<event>
 4    1  0.3372301E+006  0.4833780E+02  0.7546771E-02  0.1305545E+00
         21   -1    0    0  504  501  0.00000000000E+00  0.00000000000E+00  0.78101069755E+01  0.78101069755E+01  0.00000000000E+00 0. -1.
         21   -1    0    0  503  502 -0.00000000000E+00 -0.00000000000E+00 -0.29953332756E+03  0.29953332756E+03  0.00000000000E+00 0. -1.
         21    1    1    2  503  501 -0.25457761374E+02 -0.41090701282E+02 -0.14050356320E+03  0.14858598392E+03  0.00000000000E+00 0. -1.
         21    1    1    2  504  502  0.25457761374E+02  0.41090701282E+02 -0.15121965739E+03  0.15875745062E+03  0.00000000000E+00 0. -1.
</event>
<event>
 4    1  0.3372301E+006  0.2479963E+02  0.7546771E-02  0.1471057E+00
         21   -1    0    0  502  501  0.00000000000E+00  0.00000000000E+00  0.23750009671E+01  0.23750009671E+01  0.00000000000E+00 0. -1.
         21   -1    0    0  504  502 -0.00000000000E+00 -0.00000000000E+00 -0.49438423449E+03  0.49438423449E+03  0.00000000000E+00 0. -1.
         21    1    1    2  503  501  0.19020046938E+02 -0.15914124462E+02 -0.74603908188E+02  0.78617839323E+02  0.00000000000E+00 0. -1.
         21    1    1    2  504  503 -0.19020046938E+02  0.15914124462E+02 -0.41740532534E+03  0.41814139614E+03  0.00000000000E+00 0. -1.
</event>
<event>
 4    1  0.3372301E+006  0.4706545E+02  0.7546771E-02  0.1311423E+00
         21   -1    0    0  502  501  0.00000000000E+00  0.00000000000E+00  0.10858340244E+02  0.10858340244E+02  0.00000000000E+00 0. -1.
         21   -1    0    0  503  502 -0.00000000000E+00 -0.00000000000E+00 -0.74223407693E+03  0.74223407693E+03  0.00000000000E+00 0. -1.
         21    1    1    2  503  504  0.25476200864E+02 -0.39574232825E+02 -0.68633796469E+03  0.68794982266E+03  0.00000000000E+00 0. -1.
         21    1    1    2  504  501 -0.25476200864E+02  0.39574232825E+02 -0.45037771988E+02  0.65142594513E+02  0.00000000000E+00 0. -1.
</event>
<event>
 4    1  0.3372301E+006  0.2113452E+02  0.7546771E-02  0.1517353E+00
         21   -1    0    0  502  501  0.00000000000E+00  0.00000000000E+00  0.25188132411E+01  0.25188132411E+01  0.00000000000E+00 0. -1.
         21   -1    0    0  503  502 -0.00000000000E+00 -0.00000000000E+00 -0.17752841151E+03  0.17752841151E+03  0.00000000000E+00 0. -1.
         21    1    1    2  503  504  0.21024020113E+02  0.21583505096E+01 -0.90493996355E+02  0.92929173433E+02  0.00000000000E+00 0. -1.
         21    1    1    2  504  501 -0.21024020113E+02 -0.21583505096E+01 -0.84515601919E+02  0.87118051323E+02  0.00000000000E+00 0. -1.
</event>
<event>
 4    1  0.3372301E+006  0.2565595E+02  0.7546771E-02  0.1461597E+00
         21   -1    0    0  503  501  0.00000000000E+00  0.00000000000E+00  0.16737569369E+02  0.16737569369E+02  0.00000000000E+00 0. -1.
         21   -1    0    0  504  502 -0.00000000000E+00 -0.00000000000E+00 -0.12007472629E+03  0.12007472629E+03  0.00000000000E+00 0.  1.
         21    1    1    2  503  502  0.24226411767E+02 -0.84444490317E+01 -0.10776513372E+03  0.11077703639E+03  0.00000000000E+00 0.  1.
         21    1    1    2  504  501 -0.24226411767E+02  0.84444490317E+01  0.44279767978E+01  0.26035259267E+02  0.00000000000E+00 0. -1.
</event>
<event>
 4    1  0.3372301E+006  0.2249610E+02  0.7546771E-02  0.1498925E+00
         21   -1    0    0  504  501  0.00000000000E+00  0.00000000000E+00  0.16168768035E+03  0.16168768035E+03  0.00000000000E+00 0. -1.
         21   -1    0    0  501  502 -0.00000000000E+00 -0.00000000000E+00 -0.33317370945E+01  0.33317370945E+01  0.00000000000E+00 0.  1.
         21    1    1    2  503  502 -0.53147217470E+01 -0.21859278788E+02  0.58872339679E+02  0.63024016975E+02  0.00000000000E+00 0.  1.
         21    1    1    2  504  503  0.53147217470E+01  0.21859278788E+02  0.99483603581E+02  0.10199540047E+03  0.00000000000E+00 0. -1.
</event>
<event>
 4    1  0.3372301E+006  0.3129045E+02  0.7546771E-02  0.1408704E+00
         21   -1    0    0  502  501  0.00000000000E+00  0.00000000000E+00  0.67898905774E+01  0.67898905774E+01  0.00000000000E+00 0.  1.
         21   -1    0    0  504  502 -0.00000000000E+00 -0.00000000000E+00 -0.45890927811E+03  0.45890927811E+03  0.00000000000E+00 0. -1.
         21    1    1    2  503  501  0.12089789297E+02  0.28860509220E+02 -0.33232686819E+02  0.45645410185E+02  0.00000000000E+00 0.  1.
         21    1    1    2  504  503 -0.12089789297E+02 -0.28860509220E+02 -0.41888670071E+03  0.42005375850E+03  0.00000000000E+00 0. -1.
</event>
<event>
 4    1  0.3372301E+006  0.2563963E+02  0.7546771E-02  0.1461774E+00
         21   -1    0    0  502  501  0.00000000000E+00  0.00000000000E+00  0.68811345396E+01  0.68811345396E+01  0.00000000000E+00 0.  1.
         21   -1    0    0  503  502 -0.00000000000E+00 -0.00000000000E+00 -0.44188792692E+03  0.44188792692E+03  0.00000000000E+00 0. -1.
         21    1    1    2  503  504  0.10329779211E+02  0.23466704474E+02 -0.41615686420E+03  0.41694595115E+03  0.00000000000E+00 0. -1.
         21    1    1    2  504  501 -0.10329779211E+02 -0.23466704474E+02 -0.18849928176E+02  0.31823110307E+02  0.00000000000E+00 0.  1.
</event>
<event>
 4    1  0.3372301E+006  0.4328443E+02  0.7546771E-02  0.1330244E+00
         21   -1    0    0  504  501  0.00000000000E+00  0.00000000000E+00  0.21544744043E+03  0.21544744043E+03  0.00000000000E+00 0. -1.
         21   -1    0    0  501  502 -0.00000000000E+00 -0.00000000000E+00 -0.15072889032E+03  0.15072889032E+03  0.00000000000E+00 0.  1.
         21    1    1    2  503  502  0.43196525673E+02  0.27571079805E+01 -0.14536895244E+03  0.15167621372E+03  0.00000000000E+00 0.  1.
         21    1    1    2  504  503 -0.43196525673E+02 -0.27571079805E+01  0.21008750256E+03  0.21450011703E+03  0.00000000000E+00 0. -1.
</event>
<event>
 4    1  0.3372301E+006  0.2050151E+02  0.7546771E-02  0.1526502E+00
         21   -1    0    0  503  501  0.00000000000E+00  0.00000000000E+00  0.28906961024E+02  0.28906961024E+02  0.00000000000E+00 0. -1.
         21   -1    0    0  501  502 -0.00000000000E+00 -0.00000000000E+00 -0.25708974474E+02  0.25708974474E+02  0.00000000000E+00 0. -1.
         21    1    1    2  503  504  0.16187952730E+02  0.12580223652E+02  0.19598082989E+02  0.28361888117E+02  0.00000000000E+00 0. -1.
         21    1    1    2  504  502 -0.16187952730E+02 -0.12580223652E+02 -0.16400096439E+02  0.26254047382E+02  0.00000000000E+00 0. -1.
</event>
<event>
 4    1  0.3372301E+006  0.2293589E+02  0.7546771E-02  0.1493305E+00
         21   -1    0    0  503  501  0.00000000000E+00  0.00000000000E+00  0.16956894721E+02  0.16956894721E+02  0.00000000000E+00 0.  1.
         21   -1    0    0  501  502 -0.00000000000E+00 -0.00000000000E+00 -0.83361466775E+02  0.83361466775E+02  0.00000000000E+00 0.  1.
         21    1    1    2  503  504  0.22772722423E+02 -0.27309481468E+01  0.65422984085E+01  0.23850715562E+02  0.00000000000E+00 0.  1.
         21    1    1    2  504  502 -0.22772722423E+02  0.27309481468E+01 -0.72946870463E+02  0.76467645934E+02  0.00000000000E+00 0.  1.
</event>
<event>
 4    1  0.3372301E+006  0.3985225E+02  0.7546771E-02  0.1349354E+00
         21   -1    0    0  502  501  0.00000000000E+00  0.00000000000E+00  0.42956863973E+01  0.42956863973E+01  0.00000000000E+00 0.  1.
         21   -1    0    0  504  502 -0.00000000000E+00 -0.00000000000E+00 -0.51507269764E+03  0.51507269764E+03  0.00000000000E+00 0.  1.
         21    1    1    2  503  501 -0.18867077730E+02 -0.35103203335E+02 -0.11743819550E+03  0.12401585088E+03  0.00000000000E+00 0.  1.
         21    1    1    2  504  503  0.18867077730E+02  0.35103203335E+02 -0.39333881574E+03  0.39535253315E+03  0.00000000000E+00 0.  1.
</event>
<event>
 4    1  0.3372301E+006  0.2227247E+02  0.7546771E-02  0.1501842E+00
         21   -1    0    0  503  501  0.00000000000E+00  0.00000000000E+00  0.55930953788E+01  0.55930953788E+01  0.00000000000E+00 0.  1.
         21   -1    0    0  504  502 -0.00000000000E+00 -0.00000000000E+00 -0.33243709949E+03  0.33243709949E+03  0.00000000000E+00 0.  1.
         21    1    1    2  503  502 -0.20419827848E+02 -0.88934490169E+01 -0.18698618999E+02  0.29080941478E+02  0.00000000000E+00 0.  1.
         21    1    1    2  504  501  0.20419827848E+02  0.88934490169E+01 -0.30814538511E+03  0.30894925339E+03  0.00000000000E+00 0.  1.
</event>
<event>
 4    1  0.3372301E+006  0.2191471E+02  0.7546771E-02  0.1506595E+00
         21   -1    0    0  502  501  0.00000000000E+00  0.00000000000E+00  0.46738096730E+02  0.46738096730E+02  0.00000000000E+00 0.  1.
         21   -1    0    0  503  502 -0.00000000000E+00 -0.00000000000E+00 -0.29484154910E+02  0.29484154910E+02  0.00000000000E+00 0.  1.
         21    1    1    2  503  504  0.21873699935E+02 -0.13401148724E+01 -0.22134461580E+02  0.31147857810E+02  0.00000000000E+00 0.  1.
         21    1    1    2  504  501 -0.21873699935E+02  0.13401148724E+01  0.39388403400E+02  0.45074393829E+02  0.00000000000E+00 0.  1.
</event>
<event>
 4    1  0.3372301E+006  0.2682190E+02  0.7546771E-02  0.1449405E+00
         21   -1    0    0  504  501  0.00000000000E+00  0.00000000000E+00  0.33552593701E+02  0.33552593701E+02  0.00000000000E+00 0. -1.
         21   -1    0    0  503  502 -0.00000000000E+00 -0.00000000000E+00 -0.25070703049E+02  0.25070703049E+02  0.00000000000E+00 0. -1.
         21    1    1    2  503  501 -0.22317511513E+02  0.14877598787E+02 -0.69114759796E+01  0.27698064301E+02  0.00000000000E+00 0. -1.
         21    1    1    2  504  502  0.22317511513E+02 -0.14877598787E+02  0.15393366632E+02  0.30925232450E+02  0.00000000000E+00 0. -1.
</event>
<event>
 4    1  0.3372301E+006  0.2235722E+02  0.7546771E-02  0.1500731E+00
         21   -1    0    0  503  501  0.00000000000E+00  0.00000000000E+00  0.52802611543E+03  0.52802611543E+03  0.00000000000E+00 0.  1.
         21   -1    0    0  504  502 -0.00000000000E+00 -0.00000000000E+00 -0.97158344036E+00  0.97158344036E+00  0.00000000000E+00 0.  1.
         21    1    1    2  503  502  0.18838978000E+02  0.12039027299E+02  0.22113853118E+03  0.22226582113E+03  0.00000000000E+00 0.  1.
         21    1    1    2  504  501 -0.18838978000E+02 -0.12039027299E+02  0.30591600081E+03  0.30673187774E+03  0.00000000000E+00 0.  1.
</event>
<event>
 4    1  0.3372301E+006  0.2541403E+02  0.7546771E-02  0.1464225E+00
         21   -1    0    0  504  501  0.00000000000E+00  0.00000000000E+00  0.22486403757E+02  0.22486403757E+02  0.00000000000E+00 0. -1.
         21   -1    0    0  501  502 -0.00000000000E+00 -0.00000000000E+00 -0.32880576897E+02  0.32880576897E+02  0.00000000000E+00 0. -1.
         21    1    1    2  503  502 -0.14183865974E+02 -0.21087697574E+02 -0.15041286127E+02  0.29531564999E+02  0.00000000000E+00 0. -1.
         21    1    1    2  504  503  0.14183865974E+02  0.21087697574E+02  0.46471129869E+01  0.25835415655E+02  0.00000000000E+00 0. -1.
</event>
<event>
 4    1  0.3372301E+006  0.2400151E+02  0.7546771E-02  0.1480291E+00
         21   -1    0    0  502  501  0.00000000000E+00  0.00000000000E+00  0.55129762150E+02  0.55129762150E+02  0.00000000000E+00 0. -1.
         21   -1    0    0  504  502 -0.00000000000E+00 -0.00000000000E+00 -0.14115969388E+02  0.14115969388E+02  0.00000000000E+00 0.  1.
         21    1    1    2  503  501  0.12465240680E+02  0.20510735383E+02  0.38152563851E+02  0.45074278913E+02  0.00000000000E+00 0. -1.
         21    1    1    2  504  503 -0.12465240680E+02 -0.20510735383E+02  0.28612289111E+01  0.24171452625E+02  0.00000000000E+00 0.  1.
</event>
<event>
 4    1  0.3372301E+006  0.2583751E+02  0.7546771E-02  0.1459648E+00
         21   -1    0    0  502  501  0.00000000000E+00  0.00000000000E+00  0.73872276087E+03  0.73872276087E+03  0.00000000000E+00 0. -1.
         21   -1    0    0  503  502 -0.00000000000E+00 -0.00000000000E+00 -0.41208625506E+02  0.41208625506E+02  0.00000000000E+00 0.  1.
         21    1    1    2  503  504  0.24690778699E+02  0.76119842031E+01 -0.36909017404E+02  0.45053883539E+02  0.00000000000E+00 0.  1.
         21    1    1    2  504  501 -0.24690778699E+02 -0.76119842031E+01  0.73442315277E+03  0.73487750284E+03  0.00000000000E+00 0. -1.
</event>
<event>
 4    1  0.3372301E+006  0.2939544E+02  0.7546771E-02  0.1424924E+00
         21   -1    0    0  502  501  0.00000000000E+00  0.00000000000E+00  0.38040906386E+03  0.38040906386E+03  0.00000000000E+00 0. -1.
         21   -1    0    0  503  502 -0.00000000000E+00 -0.00000000000E+00 -0.13100902857E+02  0.13100902857E+02  0.00000000000E+00 0.  1.
         21    1    1    2  503  504 -0.48829640325E+01 -0.28987041593E+02  0.47674985762E+01  0.29779539297E+02  0.00000000000E+00 0.  1.
         21    1    1    2  504  501  0.48829640325E+01  0.28987041593E+02  0.36254066243E+03  0.36373042742E+03  0.00000000000E+00 0. -1.
</event>
<event>
 4    1  0.3372301E+006  0.2176747E+02  0.7546771E-02  0.1508583E+00
         21   -1    0    0  502  501  0.00000000000E+00  0.00000000000E+00  0.50957556903E+03  0.50957556903E+03  0.00000000000E+00 0. -1.
         21   -1    0    0  503  502 -0.00000000000E+00 -0.00000000000E+00 -0.72517948080E+01  0.72517948080E+01  0.00000000000E+00 0. -1.
         21    1    1    2  503  504 -0.83230104232E+01  0.20113438035E+02  0.98834552538E+01  0.23906182879E+02  0.00000000000E+00 0. -1.
         21    1    1    2  504  501  0.83230104232E+01 -0.20113438035E+02  0.49244031897E+03  0.49292118096E+03  0.00000000000E+00 0. -1.
</event>
<event>
 4    1  0.3372301E+006  0.2726304E+02  0.7546771E-02  0.1444984E+00
         21   -1    0    0  503  501  0.00000000000E+00  0.00000000000E+00  0.41097242561E+01  0.41097242561E+01  0.00000000000E+00 0.  1.
         21   -1    0    0  504  502 -0.00000000000E+00 -0.00000000000E+00 -0.18177153167E+03  0.18177153167E+03  0.00000000000E+00 0.  1.
         21    1    1    2  503  502  0.12542177547E+02  0.24206753497E+02 -0.82239169198E+02  0.86640372130E+02  0.00000000000E+00 0.  1.
         21    1    1    2  504  501 -0.12542177547E+02 -0.24206753497E+02 -0.95422638213E+02  0.99240883793E+02  0.00000000000E+00 0.  1.
</event>
<event>
 4    1  0.3372301E+006  0.4357307E+02  0.7546771E-02  0.1328730E+00
         21   -1    0    0  504  501  0.00000000000E+00  0.00000000000E+00  0.20186581270E+03  0.20186581270E+03  0.00000000000E+00 0.  1.
         21   -1    0    0  503  502 -0.00000000000E+00 -0.00000000000E+00 -0.35845464853E+02  0.35845464853E+02  0.00000000000E+00 0.  1.
         21    1    1    2  503  501  0.38164357783E+02  0.21026046650E+02  0.18508874589E+03  0.19014851222E+03  0.00000000000E+00 0.  1.
         21    1    1    2  504  502 -0.38164357783E+02 -0.21026046650E+02 -0.19068398042E+02  0.47562765338E+02  0.00000000000E+00 0.  1.
</event>
<event>
 4    1  0.3372301E+006  0.3199375E+02  0.7546771E-02  0.1403027E+00
         21   -1    0    0  504  501  0.00000000000E+00  0.00000000000E+00  0.56524721196E+02  0.56524721196E+02  0.00000000000E+00 0.  1.
         21   -1    0    0  503  502 -0.00000000000E+00 -0.00000000000E+00 -0.69821643438E+02  0.69821643438E+02  0.00000000000E+00 0. -1.
         21    1    1    2  503  501  0.86365935054E+00 -0.31982092945E+02  0.47718685003E+02  0.57451484533E+02  0.00000000000E+00 0.  1.
         21    1    1    2  504  502 -0.86365935054E+00  0.31982092945E+02 -0.61015607246E+02  0.68894880101E+02  0.00000000000E+00 0. -1.
</event>
<event>
 4    1  0.3372301E+006  0.2199361E+02  0.7546771E-02  0.1505537E+00
         21   -1    0    0  504  501  0.00000000000E+00  0.00000000000E+00  0.63100046821E+02  0.63100046821E+02  0.00000000000E+00 0. -1.
         21   -1    0    0  503  502 -0.00000000000E+00 -0.00000000000E+00 -0.17935856468E+02  0.17935856468E+02  0.00000000000E+00 0. -1.
         21    1    1    2  503  501 -0.13230158935E+02  0.17569343146E+02  0.53241987908E+02  0.57605800059E+02  0.00000000000E+00 0. -1.
         21    1    1    2  504  502  0.13230158935E+02 -0.17569343146E+02 -0.80777975552E+01  0.23430103230E+02  0.00000000000E+00 0. -1.
</event>
<event>
 4    1  0.3372301E+006  0.2259265E+02  0.7546771E-02  0.1497678E+00
         21   -1    0    0  502  501  0.00000000000E+00  0.00000000000E+00  0.48352859651E+02  0.48352859651E+02  0.00000000000E+00 0.  1.
         21   -1    0    0  503  502 -0.00000000000E+00 -0.00000000000E+00 -0.11803857437E+02  0.11803857437E+02  0.00000000000E+00 0.  1.
         21    1    1    2  503  504  0.19398777892E+02  0.11580821598E+02  0.84960552325E+01  0.24137335542E+02  0.00000000000E+00 0.  1.
         21    1    1    2  504  501 -0.19398777892E+02 -0.11580821598E+02  0.28052946981E+02  0.36019381545E+02  0.00000000000E+00 0.  1.
</event>
<event>
 4    1  0.3372301E+006  0.2151267E+02  0.7546771E-02  0.1512070E+00
         21   -1    0    0  502  501  0.00000000000E+00  0.00000000000E+00  0.55716411997E+02  0.55716411997E+02  0.00000000000E+00 0.  1.
         21   -1    0    0  504  502 -0.00000000000E+00 -0.00000000000E+00 -0.12697923237E+02  0.12697923237E+02  0.00000000000E+00 0.  1.
         21    1    1    2  503  501 -0.53345648235E+01 -0.20840762578E+02  0.41626341633E+02  0.46856667449E+02  0.00000000000E+00 0.  1.
         21    1    1    2  504  503  0.53345648235E+01  0.20840762578E+02  0.13921471273E+01  0.21557667785E+02  0.00000000000E+00 0.  1.
</event>
<event>
 4    1  0.3372301E+006  0.3278153E+02  0.7546771E-02  0.1396869E+00
         21   -1    0    0  504  501  0.00000000000E+00  0.00000000000E+00  0.75749946805E+01  0.75749946805E+01  0.00000000000E+00 0.  1.
         21   -1    0    0  503  502 -0.00000000000E+00 -0.00000000000E+00 -0.20743890304E+03  0.20743890304E+03  0.00000000000E+00 0. -1.
         21    1    1    2  503  501 -0.76033484356E+01  0.31887576827E+02 -0.39487543979E+02  0.51321482761E+02  0.00000000000E+00 0.  1.
         21    1    1    2  504  502  0.76033484356E+01 -0.31887576827E+02 -0.16037636438E+03  0.16369241496E+03  0.00000000000E+00 0. -1.
</event>
<event>
 4    1  0.3372301E+006  0.2172979E+02  0.7546771E-02  0.1509095E+00
         21   -1    0    0  504  501  0.00000000000E+00  0.00000000000E+00  0.29109573808E+01  0.29109573808E+01  0.00000000000E+00 0. -1.
         21   -1    0    0  503  502 -0.00000000000E+00 -0.00000000000E+00 -0.19241167723E+03  0.19241167723E+03  0.00000000000E+00 0.  1.
         21    1    1    2  503  501 -0.21477318316E+02 -0.33028425761E+01 -0.56057717724E+02  0.60121973416E+02  0.00000000000E+00 0. -1.
         21    1    1    2  504  502  0.21477318316E+02  0.33028425761E+01 -0.13344300213E+03  0.13520066120E+03  0.00000000000E+00 0.  1.
</event>
<event>
 4    1  0.3372301E+006  0.2335360E+02  0.7546771E-02  0.1488105E+00
         21   -1    0    0  502  501  0.00000000000E+00  0.00000000000E+00  0.17332302750E+03  0.17332302750E+03  0.00000000000E+00 0.  1.
         21   -1    0    0  504  502 -0.00000000000E+00 -0.00000000000E+00 -0.74112736149E+01  0.74112736149E+01  0.00000000000E+00 0. -1.
         21    1    1    2  503  501  0.21430641029E+02 -0.92799912379E+01  0.15150524086E+03  0.15329458119E+03  0.00000000000E+00 0.  1.
         21    1    1    2  504  503 -0.21430641029E+02  0.92799912379E+01  0.14406513022E+02  0.27439719928E+02  0.00000000000E+00 0. -1.
</event>
<event>
 4    1  0.3372301E+006  0.2622192E+02  0.7546771E-02  0.1455585E+00
         21   -1    0    0  502  501  0.00000000000E+00  0.00000000000E+00  0.23941168031E+03  0.23941168031E+03  0.00000000000E+00 0.  1.
         21   -1    0    0  503  502 -0.00000000000E+00 -0.00000000000E+00 -0.13529399687E+02  0.13529399687E+02  0.00000000000E+00 0.  1.
         21    1    1    2  503  504  0.23250002209E+02 -0.12125444571E+02  0.69385408477E+00  0.26231096856E+02  0.00000000000E+00 0.  1.
         21    1    1    2  504  501 -0.23250002209E+02  0.12125444571E+02  0.22518842653E+03  0.22670998314E+03  0.00000000000E+00 0.  1.
</event>
<event>
 4    1  0.3372301E+006  0.2178720E+02  0.7546771E-02  0.1508316E+00
         21   -1    0    0  503  501  0.00000000000E+00  0.00000000000E+00  0.74851737132E+01  0.74851737132E+01  0.00000000000E+00 0. -1.
         21   -1    0    0  504  502 -0.00000000000E+00 -0.00000000000E+00 -0.20341761229E+03  0.20341761229E+03  0.00000000000E+00 0.  1.
         21    1    1    2  503  502 -0.17982106965E+02  0.12301453862E+02 -0.18544930952E+03  0.18672473950E+03  0.00000000000E+00 0.  1.
         21    1    1    2  504  501  0.17982106965E+02 -0.12301453862E+02 -0.10483129054E+02  0.24178046505E+02  0.00000000000E+00 0. -1.
</event>
<event>
 4    1  0.3372301E+006  0.2085581E+02  0.7546771E-02  0.1521334E+00
         21   -1    0    0  502  501  0.00000000000E+00  0.00000000000E+00  0.73252660658E+02  0.73252660658E+02  0.00000000000E+00 0.  1.
         21   -1    0    0  504  502 -0.00000000000E+00 -0.00000000000E+00 -0.60398301616E+01  0.60398301616E+01  0.00000000000E+00 0.  1.
         21    1    1    2  503  501 -0.16307588672E+02 -0.13001053526E+02  0.38757551903E+02  0.44012642168E+02  0.00000000000E+00 0.  1.
         21    1    1    2  504  503  0.16307588672E+02  0.13001053526E+02  0.28455278593E+02  0.35279848652E+02  0.00000000000E+00 0.  1.
</event>
<event>
 4    1  0.3372301E+006  0.2940699E+02  0.7546771E-02  0.1424821E+00
         21   -1    0    0  504  501  0.00000000000E+00  0.00000000000E+00  0.48343502209E+02  0.48343502209E+02  0.00000000000E+00 0. -1.
         21   -1    0    0  503  502 -0.00000000000E+00 -0.00000000000E+00 -0.17897403525E+02  0.17897403525E+02  0.00000000000E+00 0. -1.
         21    1    1    2  503  501 -0.29063743551E+02 -0.44799328235E+01  0.15980209292E+02  0.33468463908E+02  0.00000000000E+00 0. -1.
         21    1    1    2  504  502  0.29063743551E+02  0.44799328235E+01  0.14465889392E+02  0.32772441826E+02  0.00000000000E+00 0. -1.
</event>
<event>
 4    1  0.3372301E+006  0.2752585E+02  0.7546771E-02  0.1442396E+00
         21   -1    0    0  502  501  0.00000000000E+00  0.00000000000E+00  0.53720828415E+01  0.53720828415E+01  0.00000000000E+00 0.  1.
         21   -1    0    0  503  502 -0.00000000000E+00 -0.00000000000E+00 -0.28629982719E+03  0.28629982719E+03  0.00000000000E+00 0.  1.
         21    1    1    2  503  504 -0.23420399033E+02 -0.14462263433E+02 -0.24434307596E+03  0.24588861487E+03  0.00000000000E+00 0.  1.
         21    1    1    2  504  501  0.23420399033E+02  0.14462263433E+02 -0.36584668388E+02  0.45783295159E+02  0.00000000000E+00 0.  1.
</event>
<event>
 4    1  0.3372301E+006  0.2090859E+02  0.7546771E-02  0.1520574E+00
         21   -1    0    0  503  501  0.00000000000E+00  0.00000000000E+00  0.11989515443E+03  0.11989515443E+03  0.00000000000E+00 0. -1.
         21   -1    0    0  504  502 -0.00000000000E+00 -0.00000000000E+00 -0.95968897798E+01  0.95968897798E+01  0.00000000000E+00 0. -1.
         21    1    1    2  503  502 -0.19144193073E+02  0.84064877527E+01  0.10613258282E+03  0.10817252100E+03  0.00000000000E+00 0. -1.
         21    1    1    2  504  501  0.19144193073E+02 -0.84064877527E+01  0.41656818362E+01  0.21319523210E+02  0.00000000000E+00 0. -1.
</event>
<event>
 4    1  0.3372301E+006  0.2231267E+02  0.7546771E-02  0.1501314E+00
         21   -1    0    0  504  501  0.00000000000E+00  0.00000000000E+00  0.89492185233E+01  0.89492185233E+01  0.00000000000E+00 0. -1.
         21   -1    0    0  503  502 -0.00000000000E+00 -0.00000000000E+00 -0.61129163409E+02  0.61129163409E+02  0.00000000000E+00 0. -1.
         21    1    1    2  503  501  0.22265635438E+02 -0.14479630474E+01 -0.15581644394E+02  0.27214752626E+02  0.00000000000E+00 0. -1.
         21    1    1    2  504  502 -0.22265635438E+02  0.14479630474E+01 -0.36598300492E+02  0.42863629307E+02  0.00000000000E+00 0. -1.
</event>
<event>
 4    1  0.3372301E+006  0.2471788E+02  0.7546771E-02  0.1471984E+00
         21   -1    0    0  504  501  0.00000000000E+00  0.00000000000E+00  0.42637414308E+03  0.42637414308E+03  0.00000000000E+00 0.  1.
         21   -1    0    0  503  502 -0.00000000000E+00 -0.00000000000E+00 -0.20072197487E+01  0.20072197487E+01  0.00000000000E+00 0.  1.
         21    1    1    2  503  501 -0.11700570050E+02  0.21773151600E+02  0.32675071789E+03  0.32768430709E+03  0.00000000000E+00 0.  1.
         21    1    1    2  504  502  0.11700570050E+02 -0.21773151600E+02  0.97616205440E+02  0.10069705574E+03  0.00000000000E+00 0.  1.
</event>
<event>
 4    1  0.3372301E+006  0.2114377E+02  0.7546771E-02  0.1517222E+00
         21   -1    0    0  503  501  0.00000000000E+00  0.00000000000E+00  0.72974681662E+01  0.72974681662E+01  0.00000000000E+00 0.  1.
         21   -1    0    0  504  502 -0.00000000000E+00 -0.00000000000E+00 -0.34566135047E+03  0.34566135047E+03  0.00000000000E+00 0. -1.
         21    1    1    2  503  502 -0.61210552395E+01 -0.20238376324E+02 -0.32926034773E+03  0.32993853334E+03  0.00000000000E+00 0. -1.
         21    1    1    2  504  501  0.61210552395E+01  0.20238376324E+02 -0.91035345726E+01  0.23020285298E+02  0.00000000000E+00 0.  1.
</event>
<event>
 4    1  0.3372301E+006  0.2257091E+02  0.7546771E-02  0.1497958E+00
         21   -1    0    0  502  501  0.00000000000E+00  0.00000000000E+00  0.37436280809E+02  0.37436280809E+02  0.00000000000E+00 0.  1.
         21   -1    0    0  504  502 -0.00000000000E+00 -0.00000000000E+00 -0.44789795695E+02  0.44789795695E+02  0.00000000000E+00 0.  1.
         21    1    1    2  503  501  0.52127158962E+01 -0.21960725885E+02  0.30626722375E+02  0.38045262673E+02  0.00000000000E+00 0.  1.
         21    1    1    2  504  503 -0.52127158962E+01  0.21960725885E+02 -0.37980237261E+02  0.44180813831E+02  0.00000000000E+00 0.  1.
</event>
<event>
 4    1  0.3372301E+006  0.3678583E+02  0.7546771E-02  0.1368425E+00
         21   -1    0    0  503  501  0.00000000000E+00  0.00000000000E+00  0.27165877920E+02  0.27165877920E+02  0.00000000000E+00 0.  1.
         21   -1    0    0  504  502 -0.00000000000E+00 -0.00000000000E+00 -0.89600677671E+02  0.89600677671E+02  0.00000000000E+00 0. -1.
         21    1    1    2  503  502  0.22585707835E+02  0.29035889477E+02  0.76880549994E+01  0.37580623542E+02  0.00000000000E+00 0.  1.
         21    1    1    2  504  501 -0.22585707835E+02 -0.29035889477E+02 -0.70122854750E+02  0.79185932049E+02  0.00000000000E+00 0. -1.
</event>
<event>
 4    1  0.3372301E+006  0.2535717E+02  0.7546771E-02  0.1464847E+00
         21   -1    0    0  503  501  0.00000000000E+00  0.00000000000E+00  0.41565064363E+01  0.41565064363E+01  0.00000000000E+00 0.  1.
         21   -1    0    0  501  502 -0.00000000000E+00 -0.00000000000E+00 -0.27699336092E+03  0.27699336092E+03  0.00000000000E+00 0.  1.
         21    1    1    2  503  504  0.23081623380E+02 -0.10498802334E+02 -0.43010124715E+02  0.49928519068E+02  0.00000000000E+00 0.  1.
         21    1    1    2  504  502 -0.23081623380E+02  0.10498802334E+02 -0.22982672976E+03  0.23122134828E+03  0.00000000000E+00 0.  1.
</event>
<event>
 4    1  0.3372301E+006  0.2106341E+02  0.7546771E-02  0.1518361E+00
         21   -1    0    0  503  501  0.00000000000E+00  0.00000000000E+00  0.68944755313E+01  0.68944755313E+01  0.00000000000E+00 0. -1.
         21   -1    0    0  501  502 -0.00000000000E+00 -0.00000000000E+00 -0.93652554076E+03  0.93652554076E+03  0.00000000000E+00 0. -1.
         21    1    1    2  503  504  0.19329181949E+02 -0.83695758205E+01 -0.96001222127E+01  0.23147989562E+02  0.00000000000E+00 0. -1.
         21    1    1    2  504  502 -0.19329181949E+02  0.83695758205E+01 -0.92003094302E+03  0.92027202673E+03  0.00000000000E+00 0. -1.
</event>
<event>
 4    1  0.3372301E+006  0.2625656E+02  0.7546771E-02  0.1455222E+00
         21   -1    0    0  502  501  0.00000000000E+00  0.00000000000E+00  0.78595441416E+02  0.78595441416E+02  0.00000000000E+00 0. -1.
         21   -1    0    0  504  502 -0.00000000000E+00 -0.00000000000E+00 -0.95081133184E+01  0.95081133184E+01  0.00000000000E+00 0. -1.
         21    1    1    2  503  501 -0.13762976344E+02  0.22360400054E+02  0.46804199433E+02  0.53666005003E+02  0.00000000000E+00 0. -1.
         21    1    1    2  504  503  0.13762976344E+02 -0.22360400054E+02  0.22283128665E+02  0.34437549732E+02  0.00000000000E+00 0. -1.
</event>
<event>
 4    1  0.3372301E+006  0.2135217E+02  0.7546771E-02  0.1514296E+00
         21   -1    0    0  504  501  0.00000000000E+00  0.00000000000E+00  0.91735897596E+02  0.91735897596E+02  0.00000000000E+00 0. -1.
         21   -1    0    0  501  502 -0.00000000000E+00 -0.00000000000E+00 -0.45054147370E+02  0.45054147370E+02  0.00000000000E+00 0. -1.
         21    1    1    2  503  502  0.14963327874E+02 -0.15232002353E+02 -0.41171668023E+02  0.46379104396E+02  0.00000000000E+00 0. -1.
         21    1    1    2  504  503 -0.14963327874E+02  0.15232002353E+02  0.87853418249E+02  0.90410940570E+02  0.00000000000E+00 0. -1.
</event>
<event>
 4    1  0.3372301E+006  0.2722891E+02  0.7546771E-02  0.1445322E+00
         21   -1    0    0  502  501  0.00000000000E+00  0.00000000000E+00  0.66799309899E+02  0.66799309899E+02  0.00000000000E+00 0.  1.
         21   -1    0    0  504  502 -0.00000000000E+00 -0.00000000000E+00 -0.24645354951E+02  0.24645354951E+02  0.00000000000E+00 0.  1.
         21    1    1    2  503  501  0.24182513604E+02 -0.12514773360E+02  0.54974671069E+02  0.61348414614E+02  0.00000000000E+00 0.  1.
         21    1    1    2  504  503 -0.24182513604E+02  0.12514773360E+02 -0.12820716121E+02  0.30096250237E+02  0.00000000000E+00 0.  1.
</event>
<event>
 4    1  0.3372301E+006  0.2129400E+02  0.7546771E-02  0.1515109E+00
         21   -1    0    0  503  501  0.00000000000E+00  0.00000000000E+00  0.28705494725E+03  0.28705494725E+03  0.00000000000E+00 0.  1.
         21   -1    0    0  504  502 -0.00000000000E+00 -0.00000000000E+00 -0.51596982863E+03  0.51596982863E+03  0.00000000000E+00 0.  1.
         21    1    1    2  503  502 -0.18937853494E+02  0.97361167899E+01 -0.51535475555E+03  0.51579449234E+03  0.00000000000E+00 0.  1.
         21    1    1    2  504  501  0.18937853494E+02 -0.97361167899E+01  0.28643987417E+03  0.28723028353E+03  0.00000000000E+00 0.  1.
</event>
<event>
 4    1  0.3372301E+006  0.3438658E+02  0.7546771E-02  0.1384928E+00
         21   -1    0    0  503  501  0.00000000000E+00  0.00000000000E+00  0.29551820591E+02  0.29551820591E+02  0.00000000000E+00 0. -1.
         21   -1    0    0  504  502 -0.00000000000E+00 -0.00000000000E+00 -0.40482642201E+02  0.40482642201E+02  0.00000000000E+00 0. -1.
         21    1    1    2  503  502 -0.33063881865E+02  0.94454470794E+01 -0.16910151343E+01  0.34428132199E+02  0.00000000000E+00 0. -1.
         21    1    1    2  504  501  0.33063881865E+02 -0.94454470794E+01 -0.92398064755E+01  0.35606330592E+02  0.00000000000E+00 0. -1.
</event>
<event>
 4    1  0.3372301E+006  0.4949091E+02  0.7546771E-02  0.1300395E+00
         21   -1    0    0  503  501  0.00000000000E+00  0.00000000000E+00  0.47713340860E+01  0.47713340860E+01  0.00000000000E+00 0. -1.
         21   -1    0    0  504  502 -0.00000000000E+00 -0.00000000000E+00 -0.54065933343E+03  0.54065933343E+03  0.00000000000E+00 0. -1.
         21    1    1    2  503  502  0.49469954133E+02  0.14399370302E+01 -0.32923935099E+03  0.33293828260E+03  0.00000000000E+00 0. -1.
         21    1    1    2  504  501 -0.49469954133E+02 -0.14399370302E+01 -0.20664864836E+03  0.21249238492E+03  0.00000000000E+00 0. -1.
</event>
<event>
 4    1  0.3372301E+006  0.2405405E+02  0.7546771E-02  0.1479670E+00
         21   -1    0    0  504  501  0.00000000000E+00  0.00000000000E+00  0.76955512939E+00  0.76955512939E+00  0.00000000000E+00 0. -1.
         21   -1    0    0  503  502 -0.00000000000E+00 -0.00000000000E+00 -0.10354343996E+04  0.10354343996E+04  0.00000000000E+00 0.  1.
         21    1    1    2  503  501 -0.13428771017E+01 -0.24016532359E+02 -0.78846895434E+03  0.78883578082E+03  0.00000000000E+00 0.  1.
         21    1    1    2  504  502  0.13428771017E+01  0.24016532359E+02 -0.24619589009E+03  0.24736817387E+03  0.00000000000E+00 0. -1.
</event>
<event>
 4    1  0.3372301E+006  0.2349698E+02  0.7546771E-02  0.1486350E+00
         21   -1    0    0  503  501  0.00000000000E+00  0.00000000000E+00  0.60792433803E+03  0.60792433803E+03  0.00000000000E+00 0. -1.
         21   -1    0    0  504  502 -0.00000000000E+00 -0.00000000000E+00 -0.51588541862E+01  0.51588541862E+01  0.00000000000E+00 0. -1.
         21    1    1    2  503  502 -0.11101701193E+02  0.20708945086E+02  0.57963673590E+03  0.58011279402E+03  0.00000000000E+00 0. -1.
         21    1    1    2  504  501  0.11101701193E+02 -0.20708945086E+02  0.23128747939E+02  0.32970398196E+02  0.00000000000E+00 0. -1.
</event>
<event>
 4    1  0.3372301E+006  0.3784136E+02  0.7546771E-02  0.1361622E+00
         21   -1    0    0  504  501  0.00000000000E+00  0.00000000000E+00  0.37186603524E+02  0.37186603524E+02  0.00000000000E+00 0. -1.
         21   -1    0    0  501  502 -0.00000000000E+00 -0.00000000000E+00 -0.17724942746E+03  0.17724942746E+03  0.00000000000E+00 0. -1.
         21    1    1    2  503  502 -0.10180590284E+01 -0.37827666268E+02 -0.16489050507E+03  0.16917697078E+03  0.00000000000E+00 0. -1.
         21    1    1    2  504  503  0.10180590284E+01  0.37827666268E+02  0.24827681139E+02  0.45259060201E+02  0.00000000000E+00 0. -1.
</event>
<event>
 4    1  0.3372301E+006  0.2664371E+02  0.7546771E-02  0.1451220E+00
         21   -1    0    0  504  501  0.00000000000E+00  0.00000000000E+00  0.23266478222E+02  0.23266478222E+02  0.00000000000E+00 0.  1.
         21   -1    0    0  501  502 -0.00000000000E+00 -0.00000000000E+00 -0.32108004512E+02  0.32108004512E+02  0.00000000000E+00 0.  1.
         21    1    1    2  503  502  0.21025844558E+02  0.16364623953E+02 -0.10595314607E+02  0.28673118911E+02  0.00000000000E+00 0.  1.
         21    1    1    2  504  503 -0.21025844558E+02 -0.16364623953E+02  0.17537883171E+01  0.26701363822E+02  0.00000000000E+00 0.  1.
</event>
<event>
 4    1  0.3372301E+006  0.2995418E+02  0.7546771E-02  0.1419995E+00
         21   -1    0    0  502  501  0.00000000000E+00  0.00000000000E+00  0.16115808424E+04  0.16115808424E+04  0.00000000000E+00 0.  1.
         21   -1    0    0  504  502 -0.00000000000E+00 -0.00000000000E+00 -0.43849223343E+01  0.43849223343E+01  0.00000000000E+00 0.  1.
         21    1    1    2  503  501  0.91439261654E+01  0.28524406269E+02  0.15585454642E+04  0.15588332871E+04  0.00000000000E+00 0.  1.
         21    1    1    2  504  503 -0.91439261654E+01 -0.28524406269E+02  0.48650455829E+02  0.57132477550E+02  0.00000000000E+00 0.  1.
</event>
<event>
 4    1  0.3372301E+006  0.2247910E+02  0.7546771E-02  0.1499145E+00
         21   -1    0    0  503  501  0.00000000000E+00  0.00000000000E+00  0.48481768645E+03  0.48481768645E+03  0.00000000000E+00 0.  1.
         21   -1    0    0  501  502 -0.00000000000E+00 -0.00000000000E+00 -0.30357215555E+01  0.30357215555E+01  0.00000000000E+00 0.  1.
         21    1    1    2  503  504 -0.20079460020E+02 -0.10105694055E+02  0.43855675976E+03  0.43913248718E+03  0.00000000000E+00 0.  1.
         21    1    1    2  504  502  0.20079460020E+02  0.10105694055E+02  0.43225205134E+02  0.48720920824E+02  0.00000000000E+00 0.  1.
</event>
<event>
 4    1  0.3372301E+006  0.3841998E+02  0.7546771E-02  0.1358002E+00
         21   -1    0    0  504  501  0.00000000000E+00  0.00000000000E+00  0.52853453577E+02  0.52853453577E+02  0.00000000000E+00 0.  1.
         21   -1    0    0  503  502 -0.00000000000E+00 -0.00000000000E+00 -0.30080224773E+02  0.30080224773E+02  0.00000000000E+00 0.  1.
         21    1    1    2  503  501  0.32251133146E+02  0.20879640176E+02  0.29493976615E+00  0.38421113370E+02  0.00000000000E+00 0.  1.
         21    1    1    2  504  502 -0.32251133146E+02 -0.20879640176E+02  0.22478289037E+02  0.44512564981E+02  0.00000000000E+00 0.  1.
</event>
<event>
 4    1  0.3372301E+006  0.2455348E+02  0.7546771E-02  0.1473861E+00
         21   -1    0    0  503  501  0.00000000000E+00  0.00000000000E+00  0.81196580011E+02  0.81196580011E+02  0.00000000000E+00 0. -1.
         21   -1    0    0  504  502 -0.00000000000E+00 -0.00000000000E+00 -0.19899056502E+02  0.19899056502E+02  0.00000000000E+00 0. -1.
         21    1    1    2  503  502  0.23978164096E+02  0.52840525897E+01  0.70670172501E+02  0.74814081873E+02  0.00000000000E+00 0. -1.
         21    1    1    2  504  501 -0.23978164096E+02 -0.52840525897E+01 -0.93726489918E+01  0.26281554641E+02  0.00000000000E+00 0. -1.
</event>
<event>
 4    1  0.3372301E+006  0.2474160E+02  0.7546771E-02  0.1471715E+00
         21   -1    0    0  504  501  0.00000000000E+00  0.00000000000E+00  0.21668799461E+02  0.21668799461E+02  0.00000000000E+00 0. -1.
         21   -1    0    0  501  502 -0.00000000000E+00 -0.00000000000E+00 -0.11496513883E+03  0.11496513883E+03  0.00000000000E+00 0. -1.
         21    1    1    2  503  502  0.16063263007E+02 -0.18818032799E+02 -0.10598066311E+03  0.10883036217E+03  0.00000000000E+00 0. -1.
         21    1    1    2  504  503 -0.16063263007E+02  0.18818032799E+02  0.12684323735E+02  0.27803576127E+02  0.00000000000E+00 0. -1.
</event>
<event>
 4    1  0.3372301E+006  0.2638580E+02  0.7546771E-02  0.1453877E+00
         21   -1    0    0  504  501  0.00000000000E+00  0.00000000000E+00  0.26047369430E+02  0.26047369430E+02  0.00000000000E+00 0. -1.
         21   -1    0    0  501  502 -0.00000000000E+00 -0.00000000000E+00 -0.31203142273E+03  0.31203142273E+03  0.00000000000E+00 0. -1.
         21    1    1    2  503  502  0.83727778983E+00  0.26372508929E+02 -0.30462940029E+03  0.30576998182E+03  0.00000000000E+00 0. -1.
         21    1    1    2  504  503 -0.83727778983E+00 -0.26372508929E+02  0.18645346989E+02  0.32308810341E+02  0.00000000000E+00 0. -1.
</event>
<event>
 4    1  0.3372301E+006  0.2023476E+02  0.7546771E-02  0.1530477E+00
         21   -1    0    0  503  501  0.00000000000E+00  0.00000000000E+00  0.25444630374E+01  0.25444630374E+01  0.00000000000E+00 0.  1.
         21   -1    0    0  501  502 -0.00000000000E+00 -0.00000000000E+00 -0.39983274961E+03  0.39983274961E+03  0.00000000000E+00 0. -1.
         21    1    1    2  503  504  0.17576421577E+02 -0.10025702891E+02 -0.43123758993E+02  0.47635112088E+02  0.00000000000E+00 0.  1.
         21    1    1    2  504  502 -0.17576421577E+02  0.10025702891E+02 -0.35416452758E+03  0.35474210056E+03  0.00000000000E+00 0. -1.
</event>
<event>
 4    1  0.3372301E+006  0.2035229E+02  0.7546771E-02  0.1528717E+00
         21   -1    0    0  504  501  0.00000000000E+00  0.00000000000E+00  0.46627195726E+02  0.46627195726E+02  0.00000000000E+00 0.  1.
         21   -1    0    0  503  502 -0.00000000000E+00 -0.00000000000E+00 -0.10021855164E+02  0.10021855164E+02  0.00000000000E+00 0. -1.
         21    1    1    2  503  501  0.16019901980E+02 -0.12553020653E+02  0.27848542873E+02  0.34492853276E+02  0.00000000000E+00 0.  1.
         21    1    1    2  504  502 -0.16019901980E+02  0.12553020653E+02  0.87567976884E+01  0.22156197614E+02  0.00000000000E+00 0. -1.
</event>
<event>
 4    1  0.3372301E+006  0.2424774E+02  0.7546771E-02  0.1477398E+00
         21   -1    0    0  504  501  0.00000000000E+00  0.00000000000E+00  0.20528858700E+03  0.20528858700E+03  0.00000000000E+00 0. -1.
         21   -1    0    0  501  502 -0.00000000000E+00 -0.00000000000E+00 -0.57301237996E+01  0.57301237996E+01  0.00000000000E+00 0. -1.
         21    1    1    2  503  502  0.19259678943E+02 -0.14731517627E+02  0.25159427717E+02  0.34942089915E+02  0.00000000000E+00 0. -1.
         21    1    1    2  504  503 -0.19259678943E+02  0.14731517627E+02  0.17439903549E+03  0.17607662089E+03  0.00000000000E+00 0. -1.
</event>
<event>
 4    1  0.3372301E+006  0.2661447E+02  0.7546771E-02  0.1451520E+00
         21   -1    0    0  504  501  0.00000000000E+00  0.00000000000E+00  0.28250639591E+03  0.28250639591E+03  0.00000000000E+00 0.  1.
         21   -1    0    0  501  502 -0.00000000000E+00 -0.00000000000E+00 -0.20567543505E+02  0.20567543505E+02  0.00000000000E+00 0.  1.
         21    1    1    2  503  502 -0.12583586160E+02  0.23451724675E+02 -0.11030824991E+02  0.28809879050E+02  0.00000000000E+00 0.  1.
         21    1    1    2  504  503  0.12583586160E+02 -0.23451724675E+02  0.27296967740E+03  0.27426406037E+03  0.00000000000E+00 0.  1.
</event>
<event>
 4    1  0.3372301E+006  0.2714660E+02  0.7546771E-02  0.1446141E+00
         21   -1    0    0  502  501  0.00000000000E+00  0.00000000000E+00  0.22390003736E+02  0.22390003736E+02  0.00000000000E+00 0.  1.
         21   -1    0    0  503  502 -0.00000000000E+00 -0.00000000000E+00 -0.67348327949E+02  0.67348327949E+02  0.00000000000E+00 0.  1.
         21    1    1    2  503  504 -0.25670448409E+02  0.88298423894E+01 -0.54562698760E+02  0.60942810357E+02  0.00000000000E+00 0.  1.
         21    1    1    2  504  501  0.25670448409E+02 -0.88298423894E+01  0.96043745471E+01  0.28795521328E+02  0.00000000000E+00 0.  1.
</event>
<event>
 4    1  0.3372301E+006  0.2236516E+02  0.7546771E-02  0.1500627E+00
         21   -1    0    0  503  501  0.00000000000E+00  0.00000000000E+00  0.50568948432E+02  0.50568948432E+02  0.00000000000E+00 0. -1.
         21   -1    0    0  504  502 -0.00000000000E+00 -0.00000000000E+00 -0.11882628506E+02  0.11882628506E+02  0.00000000000E+00 0. -1.
         21    1    1    2  503  502 -0.82835203042E+01 -0.20774595745E+02  0.65607842567E+01  0.23307604490E+02  0.00000000000E+00 0. -1.
         21    1    1    2  504  501  0.82835203042E+01  0.20774595745E+02  0.32125535669E+02  0.39143972448E+02  0.00000000000E+00 0. -1.
</event>
<event>
 4    1  0.3372301E+006  0.4505413E+02  0.7546771E-02  0.1321169E+00
         21   -1    0    0  503  501  0.00000000000E+00  0.00000000000E+00  0.12368293387E+03  0.12368293387E+03  0.00000000000E+00 0.  1.
         21   -1    0    0  504  502 -0.00000000000E+00 -0.00000000000E+00 -0.35048264116E+02  0.35048264116E+02  0.00000000000E+00 0. -1.
         21    1    1    2  503  502 -0.45014109334E+02  0.18986218884E+01 -0.13556114209E+02  0.47049368079E+02  0.00000000000E+00 0. -1.
         21    1    1    2  504  501  0.45014109334E+02 -0.18986218884E+01  0.10219078396E+03  0.11168182991E+03  0.00000000000E+00 0.  1.
</event>
<event>
 4    1  0.3372301E+006  0.2015957E+02  0.7546771E-02  0.1531610E+00
         21   -1    0    0  504  501  0.00000000000E+00  0.00000000000E+00  0.10710428282E+02  0.10710428282E+02  0.00000000000E+00 0. -1.
         21   -1    0    0  501  502 -0.00000000000E+00 -0.00000000000E+00 -0.24419281228E+03  0.24419281228E+03  0.00000000000E+00 0. -1.
         21    1    1    2  503  502  0.84441521744E+01 -0.18305864719E+02 -0.23387263167E+03  0.23473989058E+03  0.00000000000E+00 0. -1.
         21    1    1    2  504  503 -0.84441521744E+01  0.18305864719E+02  0.39024766833E+00  0.20163349977E+02  0.00000000000E+00 0. -1.
</event>
<event>
 4    1  0.3372301E+006  0.2352156E+02  0.7546771E-02  0.1486051E+00
         21   -1    0    0  503  501  0.00000000000E+00  0.00000000000E+00  0.99995016862E+01  0.99995016862E+01  0.00000000000E+00 0.  1.
         21   -1    0    0  501  502 -0.00000000000E+00 -0.00000000000E+00 -0.79438326522E+02  0.79438326522E+02  0.00000000000E+00 0.  1.
         21    1    1    2  503  504  0.22764581965E+02  0.59192586357E+01 -0.10083565498E+02  0.25591836745E+02  0.00000000000E+00 0.  1.
         21    1    1    2  504  502 -0.22764581965E+02 -0.59192586357E+01 -0.59355259338E+02  0.63845991463E+02  0.00000000000E+00 0.  1.
</event>
<event>
 4    1  0.3372301E+006  0.2472926E+02  0.7546771E-02  0.1471855E+00
         21   -1    0    0  503  501  0.00000000000E+00  0.00000000000E+00  0.44308631204E+03  0.44308631204E+03  0.00000000000E+00 0. -1.
         21   -1    0    0  504  502 -0.00000000000E+00 -0.00000000000E+00 -0.15200282846E+01  0.15200282846E+01  0.00000000000E+00 0. -1.
         21    1    1    2  503  502 -0.21454818008E+02  0.12297443516E+02  0.28821378018E+03  0.28927274226E+03  0.00000000000E+00 0. -1.
         21    1    1    2  504  501  0.21454818008E+02 -0.12297443516E+02  0.15335250358E+03  0.15533359806E+03  0.00000000000E+00 0. -1.
</event>
<event>
 4    1  0.3372301E+006  0.2019988E+02  0.7546771E-02  0.1531002E+00
         21   -1    0    0  504  501  0.00000000000E+00  0.00000000000E+00  0.91648130873E+01  0.91648130873E+01  0.00000000000E+00 0.  1.
         21   -1    0    0  503  502 -0.00000000000E+00 -0.00000000000E+00 -0.53404963908E+02  0.53404963908E+02  0.00000000000E+00 0.  1.
         21    1    1    2  503  501  0.16208559788E+02 -0.12054783992E+02 -0.34879300421E+02  0.40306337285E+02  0.00000000000E+00 0.  1.
         21    1    1    2  504  502 -0.16208559788E+02  0.12054783992E+02 -0.93608503996E+01  0.22263439710E+02  0.00000000000E+00 0.  1.
</event>
<event>
 4    1  0.3372301E+006  0.2171339E+02  0.7546771E-02  0.1509319E+00
         21   -1    0    0  503  501  0.00000000000E+00  0.00000000000E+00  0.31732688726E+02  0.31732688726E+02  0.00000000000E+00 0. -1.
         21   -1    0    0  504  502 -0.00000000000E+00 -0.00000000000E+00 -0.32325595392E+02  0.32325595392E+02  0.00000000000E+00 0. -1.
         21    1    1    2  503  502 -0.91566120236E+01  0.19688262539E+02  0.23248276899E+02  0.31811218215E+02  0.00000000000E+00 0. -1.
         21    1    1    2  504  501  0.91566120236E+01 -0.19688262539E+02 -0.23841183565E+02  0.32247065903E+02  0.00000000000E+00 0. -1.
</event>
<event>
 4    1  0.3372301E+006  0.2024134E+02  0.7546771E-02  0.1530378E+00
         21   -1    0    0  503  501  0.00000000000E+00  0.00000000000E+00  0.30351136557E+02  0.30351136557E+02  0.00000000000E+00 0.  1.
         21   -1    0    0  504  502 -0.00000000000E+00 -0.00000000000E+00 -0.15638948642E+02  0.15638948642E+02  0.00000000000E+00 0. -1.
         21    1    1    2  503  502  0.25388322388E+01  0.20081486516E+02  0.15862109549E+02  0.25716109527E+02  0.00000000000E+00 0.  1.
         21    1    1    2  504  501 -0.25388322388E+01 -0.20081486516E+02 -0.11499216340E+01  0.20273975673E+02  0.00000000000E+00 0. -1.
</event>
<event>
 4    1  0.3372301E+006  0.2296069E+02  0.7546771E-02  0.1492992E+00
         21   -1    0    0  503  501  0.00000000000E+00  0.00000000000E+00  0.18459901739E+02  0.18459901739E+02  0.00000000000E+00 0. -1.
         21   -1    0    0  504  502 -0.00000000000E+00 -0.00000000000E+00 -0.87080273056E+02  0.87080273056E+02  0.00000000000E+00 0.  1.
         21    1    1    2  503  502  0.13105549036E+02  0.18853060694E+02 -0.77570075788E+02  0.80896909525E+02  0.00000000000E+00 0.  1.
         21    1    1    2  504  501 -0.13105549036E+02 -0.18853060694E+02  0.89497044702E+01  0.24643265270E+02  0.00000000000E+00 0. -1.
</event>
<event>
 4    1  0.3372301E+006  0.2257973E+02  0.7546771E-02  0.1497844E+00
         21   -1    0    0  504  501  0.00000000000E+00  0.00000000000E+00  0.28003474860E+04  0.28003474860E+04  0.00000000000E+00 0. -1.
         21   -1    0    0  503  502 -0.00000000000E+00 -0.00000000000E+00 -0.18492185730E+00  0.18492185730E+00  0.00000000000E+00 0. -1.
         21    1    1    2  503  501 -0.14894214280E+02 -0.16970760765E+02  0.12260265380E+04  0.12262344458E+04  0.00000000000E+00 0. -1.
         21    1    1    2  504  502  0.14894214280E+02  0.16970760765E+02  0.15741360262E+04  0.15742979620E+04  0.00000000000E+00 0. -1.
</event>
<event>
 4    1  0.3372301E+006  0.2249647E+02  0.7546771E-02  0.1498920E+00
         21   -1    0    0  503  501  0.00000000000E+00  0.00000000000E+00  0.11716484078E+02  0.11716484078E+02  0.00000000000E+00 0. -1.
         21   -1    0    0  504  502 -0.00000000000E+00 -0.00000000000E+00 -0.89804178802E+02  0.89804178802E+02  0.00000000000E+00 0. -1.
         21    1    1    2  503  502 -0.22464492643E+02  0.11991234789E+01 -0.75612821538E+02  0.78888466253E+02  0.00000000000E+00 0. -1.
         21    1    1    2  504  501  0.22464492643E+02 -0.11991234789E+01 -0.24748731862E+01  0.22632196626E+02  0.00000000000E+00 0. -1.
</event>
<event>
 4    1  0.3372301E+006  0.2957471E+02  0.7546771E-02  0.1423329E+00
         21   -1    0    0  502  501  0.00000000000E+00  0.00000000000E+00  0.26160280285E+03  0.26160280285E+03  0.00000000000E+00 0. -1.
         21   -1    0    0  503  502 -0.00000000000E+00 -0.00000000000E+00 -0.12781568847E+03  0.12781568847E+03  0.00000000000E+00 0. -1.
         21    1    1    2  503  504  0.20899105073E+02  0.20925843081E+02 -0.12525215240E+03  0.12869640703E+03  0.00000000000E+00 0. -1.
         21    1    1    2  504  501 -0.20899105073E+02 -0.20925843081E+02  0.25903926678E+03  0.26072208429E+03  0.00000000000E+00 0. -1.
</event>
<event>
 4    1  0.3372301E+006  0.2474974E+02  0.7546771E-02  0.1471623E+00
         21   -1    0    0  503  501  0.00000000000E+00  0.00000000000E+00  0.14974964365E+03  0.14974964365E+03  0.00000000000E+00 0.  1.
         21   -1    0    0  504  502 -0.00000000000E+00 -0.00000000000E+00 -0.70231219141E+02  0.70231219141E+02  0.00000000000E+00 0.  1.
         21    1    1    2  503  502 -0.21855479518E+02  0.11614114175E+02  0.14649849649E+03  0.14857442278E+03  0.00000000000E+00 0.  1.
         21    1    1    2  504  501  0.21855479518E+02 -0.11614114175E+02 -0.66980071975E+02  0.71406440009E+02  0.00000000000E+00 0.  1.
</event>
<event>
 4    1  0.3372301E+006  0.4487844E+02  0.7546771E-02  0.1322048E+00
         21   -1    0    0  502  501  0.00000000000E+00  0.00000000000E+00  0.10744875033E+03  0.10744875033E+03  0.00000000000E+00 0. -1.
         21   -1    0    0  504  502 -0.00000000000E+00 -0.00000000000E+00 -0.36448444484E+02  0.36448444484E+02  0.00000000000E+00 0.  1.
         21    1    1    2  503  501 -0.27241840895E+02  0.35664501500E+02  0.85644004053E+02  0.96690071842E+02  0.00000000000E+00 0. -1.
         21    1    1    2  504  503  0.27241840895E+02 -0.35664501500E+02 -0.14643698202E+02  0.47207122976E+02  0.00000000000E+00 0.  1.
</event>
<event>
 4    1  0.3372301E+006  0.2236827E+02  0.7546771E-02  0.1500587E+00
         21   -1    0    0  502  501  0.00000000000E+00  0.00000000000E+00  0.26130467771E+03  0.26130467771E+03  0.00000000000E+00 0. -1.
         21   -1    0    0  504  502 -0.00000000000E+00 -0.00000000000E+00 -0.41816942516E+01  0.41816942516E+01  0.00000000000E+00 0.  1.
         21    1    1    2  503  501 -0.12346069694E+02 -0.18652457590E+02  0.22629739789E+03  0.22740020208E+03  0.00000000000E+00 0. -1.
         21    1    1    2  504  503  0.12346069694E+02  0.18652457590E+02  0.30825585561E+02  0.38086169882E+02  0.00000000000E+00 0.  1.
</event>
<event>
 4    1  0.3372301E+006  0.3759567E+02  0.7546771E-02  0.1363182E+00
         21   -1    0    0  502  501  0.00000000000E+00  0.00000000000E+00  0.10868722991E+02  0.10868722991E+02  0.00000000000E+00 0.  1.
         21   -1    0    0  504  502 -0.00000000000E+00 -0.00000000000E+00 -0.42111830594E+03  0.42111830594E+03  0.00000000000E+00 0.  1.
         21    1    1    2  503  501  0.37058852877E+02  0.63305488177E+01 -0.25552608841E+02  0.45457345320E+02  0.00000000000E+00 0.  1.
         21    1    1    2  504  503 -0.37058852877E+02 -0.63305488177E+01 -0.38469697411E+03  0.38652968361E+03  0.00000000000E+00 0.  1.
</event>
<event>
 4    1  0.3372301E+006  0.2765637E+02  0.7546771E-02  0.1441124E+00
         21   -1    0    0  503  501  0.00000000000E+00  0.00000000000E+00  0.10108571851E+04  0.10108571851E+04  0.00000000000E+00 0. -1.
         21   -1    0    0  504  502 -0.00000000000E+00 -0.00000000000E+00 -0.20946770303E+02  0.20946770303E+02  0.00000000000E+00 0. -1.
         21    1    1    2  503  502  0.10707350218E+02  0.25499555693E+02  0.10014535269E+04  0.10018353364E+04  0.00000000000E+00 0. -1.
         21    1    1    2  504  501 -0.10707350218E+02 -0.25499555693E+02 -0.11543112098E+02  0.29968619023E+02  0.00000000000E+00 0. -1.
</event>
<event>
 4    1  0.3372301E+006  0.2723186E+02  0.7546771E-02  0.1445293E+00
         21   -1    0    0  504  501  0.00000000000E+00  0.00000000000E+00  0.64189399944E+01  0.64189399944E+01  0.00000000000E+00 0.  1.
         21   -1    0    0  503  502 -0.00000000000E+00 -0.00000000000E+00 -0.11654367806E+03  0.11654367806E+03  0.00000000000E+00 0.  1.
         21    1    1    2  503  501  0.24527508014E+02 -0.11831122544E+02 -0.60798906455E+02  0.66618924759E+02  0.00000000000E+00 0.  1.
         21    1    1    2  504  502 -0.24527508014E+02  0.11831122544E+02 -0.49325831612E+02  0.56343693296E+02  0.00000000000E+00 0.  1.
</event>
<event>
 4    1  0.3372301E+006  0.5148457E+02  0.7546771E-02  0.1291861E+00
         21   -1    0    0  503  501  0.00000000000E+00  0.00000000000E+00  0.12518056463E+03  0.12518056463E+03  0.00000000000E+00 0. -1.
         21   -1    0    0  504  502 -0.00000000000E+00 -0.00000000000E+00 -0.45370986972E+02  0.45370986972E+02  0.00000000000E+00 0. -1.
         21    1    1    2  503  502  0.44821006605E+02  0.25332553030E+02 -0.22369808913E+02  0.56134385424E+02  0.00000000000E+00 0. -1.
         21    1    1    2  504  501 -0.44821006605E+02 -0.25332553030E+02  0.10217938657E+03  0.11441716618E+03  0.00000000000E+00 0. -1.
</event>
<event>
 4    1  0.3372301E+006  0.2222638E+02  0.7546771E-02  0.1502448E+00
         21   -1    0    0  503  501  0.00000000000E+00  0.00000000000E+00  0.13329031568E+03  0.13329031568E+03  0.00000000000E+00 0.  1.
         21   -1    0    0  504  502 -0.00000000000E+00 -0.00000000000E+00 -0.97925580033E+01  0.97925580033E+01  0.00000000000E+00 0. -1.
         21    1    1    2  503  502 -0.14273685376E+01 -0.22180496854E+02  0.53480719976E+01  0.22860745738E+02  0.00000000000E+00 0. -1.
         21    1    1    2  504  501  0.14273685376E+01  0.22180496854E+02  0.11814968568E+03  0.12022212795E+03  0.00000000000E+00 0.  1.
</event>
<event>
 4    1  0.3372301E+006  0.5725728E+02  0.7546771E-02  0.1269447E+00
         21   -1    0    0  503  501  0.00000000000E+00  0.00000000000E+00  0.83237593520E+02  0.83237593520E+02  0.00000000000E+00 0.  1.
         21   -1    0    0  504  502 -0.00000000000E+00 -0.00000000000E+00 -0.47311559942E+02  0.47311559942E+02  0.00000000000E+00 0.  1.
         21    1    1    2  503  502 -0.54252733267E+02  0.18304024232E+02  0.44679250843E+02  0.72626660572E+02  0.00000000000E+00 0.  1.
         21    1    1    2  504  501  0.54252733267E+02 -0.18304024232E+02 -0.87532172650E+01  0.57922492889E+02  0.00000000000E+00 0.  1.
</event>
<event>
 4    1  0.3372301E+006  0.2382476E+02  0.7546771E-02  0.1482393E+00
         21   -1    0    0  504  501  0.00000000000E+00  0.00000000000E+00  0.10238640704E+03  0.10238640704E+03  0.00000000000E+00 0.  1.
         21   -1    0    0  503  502 -0.00000000000E+00 -0.00000000000E+00 -0.25629029850E+02  0.25629029850E+02  0.00000000000E+00 0. -1.
         21    1    1    2  503  501 -0.33484059930E+00 -0.23822402684E+02  0.95042227218E+02  0.97982875761E+02  0.00000000000E+00 0.  1.
         21    1    1    2  504  502  0.33484059930E+00  0.23822402684E+02 -0.18284850024E+02  0.30032561134E+02  0.00000000000E+00 0. -1.
</event>
<event>
 4    1  0.3372301E+006  0.2504696E+02  0.7546771E-02  0.1468279E+00
         21   -1    0    0  503  501  0.00000000000E+00  0.00000000000E+00  0.99729432622E+01  0.99729432622E+01  0.00000000000E+00 0.  1.
         21   -1    0    0  501  502 -0.00000000000E+00 -0.00000000000E+00 -0.83255143252E+02  0.83255143252E+02  0.00000000000E+00 0. -1.
         21    1    1    2  503  504  0.17460577335E+02  0.17957685486E+02 -0.13595257744E+02  0.28498794045E+02  0.00000000000E+00 0.  1.
         21    1    1    2  504  502 -0.17460577335E+02 -0.17957685486E+02 -0.59686942245E+02  0.64729292469E+02  0.00000000000E+00 0. -1.
</event>
<event>
 4    1  0.3372301E+006  0.2264104E+02  0.7546771E-02  0.1497055E+00
         21   -1    0    0  504  501  0.00000000000E+00  0.00000000000E+00  0.38017454959E+02  0.38017454959E+02  0.00000000000E+00 0. -1.
         21   -1    0    0  503  502 -0.00000000000E+00 -0.00000000000E+00 -0.36514676811E+03  0.36514676811E+03  0.00000000000E+00 0.  1.
         21    1    1    2  503  501  0.21665266255E+02  0.65751817218E+01 -0.36138986256E+03  0.36209839759E+03  0.00000000000E+00 0.  1.
         21    1    1    2  504  502 -0.21665266255E+02 -0.65751817218E+01  0.34260549408E+02  0.41065825479E+02  0.00000000000E+00 0. -1.
</event>
<event>
 4    1  0.3372301E+006  0.2105613E+02  0.7546771E-02  0.1518465E+00
         21   -1    0    0  503  501  0.00000000000E+00  0.00000000000E+00  0.36539982002E+01  0.36539982002E+01  0.00000000000E+00 0.  1.
         21   -1    0    0  504  502 -0.00000000000E+00 -0.00000000000E+00 -0.24531646849E+03  0.24531646849E+03  0.00000000000E+00 0.  1.
         21    1    1    2  503  502  0.12056953805E+02 -0.17262400258E+02 -0.20932885021E+03  0.21038518989E+03  0.00000000000E+00 0.  1.
         21    1    1    2  504  501 -0.12056953805E+02  0.17262400258E+02 -0.32333620078E+02  0.38585276792E+02  0.00000000000E+00 0.  1.
</event>
<event>
 4    1  0.3372301E+006  0.2521298E+02  0.7546771E-02  0.1466435E+00
         21   -1    0    0  502  501  0.00000000000E+00  0.00000000000E+00  0.20644970690E+02  0.20644970690E+02  0.00000000000E+00 0. -1.
         21   -1    0    0  503  502 -0.00000000000E+00 -0.00000000000E+00 -0.71222211336E+02  0.71222211336E+02  0.00000000000E+00 0.  1.
         21    1    1    2  503  504  0.24961041554E+02  0.35553682880E+01 -0.59896672792E+02  0.64986965237E+02  0.00000000000E+00 0.  1.
         21    1    1    2  504  501 -0.24961041554E+02 -0.35553682880E+01  0.93194321466E+01  0.26880216789E+02  0.00000000000E+00 0. -1.
</event>
<event>
 4    1  0.3372301E+006  0.2658602E+02  0.7546771E-02  0.1451812E+00
         21   -1    0    0  502  501  0.00000000000E+00  0.00000000000E+00  0.35571561841E+02  0.35571561841E+02  0.00000000000E+00 0.  1.
         21   -1    0    0  504  502 -0.00000000000E+00 -0.00000000000E+00 -0.26586354086E+02  0.26586354086E+02  0.00000000000E+00 0. -1.
         21    1    1    2  503  501 -0.22134293236E+02  0.14727165689E+02  0.20113116912E+02  0.33336973741E+02  0.00000000000E+00 0.  1.
         21    1    1    2  504  503  0.22134293236E+02 -0.14727165689E+02 -0.11127909157E+02  0.28820942186E+02  0.00000000000E+00 0. -1.
</event>
<event>
 4    1  0.3372301E+006  0.2037025E+02  0.7546771E-02  0.1528449E+00
         21   -1    0    0  503  501  0.00000000000E+00  0.00000000000E+00  0.34292907191E+01  0.34292907191E+01  0.00000000000E+00 0. -1.
         21   -1    0    0  504  502 -0.00000000000E+00 -0.00000000000E+00 -0.15544454663E+03  0.15544454663E+03  0.00000000000E+00 0. -1.
         21    1    1    2  503  502  0.19050534468E+02  0.72127739712E+01 -0.38614676748E+02  0.43658220672E+02  0.00000000000E+00 0. -1.
         21    1    1    2  504  501 -0.19050534468E+02 -0.72127739712E+01 -0.11340057917E+03  0.11521561668E+03  0.00000000000E+00 0. -1.
</event>
<event>
 4    1  0.3372301E+006  0.2281034E+02  0.7546771E-02  0.1494894E+00
         21   -1    0    0  504  501  0.00000000000E+00  0.00000000000E+00  0.17494901071E+03  0.17494901071E+03  0.00000000000E+00 0.  1.
         21   -1    0    0  503  502 -0.00000000000E+00 -0.00000000000E+00 -0.39723739685E+01  0.39723739685E+01  0.00000000000E+00 0.  1.
         21    1    1    2  503  501  0.20682166514E+02  0.96207985104E+01  0.13033570427E+03  0.13231669427E+03  0.00000000000E+00 0.  1.
         21    1    1    2  504  502 -0.20682166514E+02 -0.96207985104E+01  0.40640932473E+02  0.46604690408E+02  0.00000000000E+00 0.  1.
</event>
<event>
 4    1  0.3372301E+006  0.2474210E+02  0.7546771E-02  0.1471709E+00
         21   -1    0    0  504  501  0.00000000000E+00  0.00000000000E+00  0.25272086144E+03  0.25272086144E+03  0.00000000000E+00 0.  1.
         21   -1    0    0  503  502 -0.00000000000E+00 -0.00000000000E+00 -0.25409504872E+01  0.25409504872E+01  0.00000000000E+00 0.  1.
         21    1    1    2  503  501 -0.71399071798E+01  0.23689521199E+02  0.15266710961E+03  0.15465903803E+03  0.00000000000E+00 0.  1.
         21    1    1    2  504  502  0.71399071798E+01 -0.23689521199E+02  0.97512801348E+02  0.10060277390E+03  0.00000000000E+00 0.  1.
</event>
<event>
 4    1  0.3372301E+006  0.2817729E+02  0.7546771E-02  0.1436127E+00
         21   -1    0    0  504  501  0.00000000000E+00  0.00000000000E+00  0.23096006777E+02  0.23096006777E+02  0.00000000000E+00 0. -1.
         21   -1    0    0  503  502 -0.00000000000E+00 -0.00000000000E+00 -0.83016453630E+02  0.83016453630E+02  0.00000000000E+00 0. -1.
         21    1    1    2  503  501  0.10920150316E+02 -0.25975178188E+02  0.10651454835E+02  0.30123297544E+02  0.00000000000E+00 0. -1.
         21    1    1    2  504  502 -0.10920150316E+02  0.25975178188E+02 -0.70571901688E+02  0.75989162863E+02  0.00000000000E+00 0. -1.
</event>
<event>
 4    1  0.3372301E+006  0.7815296E+02  0.7546771E-02  0.1208202E+00
         21   -1    0    0  502  501  0.00000000000E+00  0.00000000000E+00  0.52322958569E+03  0.52322958569E+03  0.00000000000E+00 0. -1.
         21   -1    0    0  503  502 -0.00000000000E+00 -0.00000000000E+00 -0.21176113827E+02  0.21176113827E+02  0.00000000000E+00 0. -1.
         21    1    1    2  503  504 -0.54126585188E+02 -0.56375502814E+02  0.68682243670E+02  0.10404390966E+03  0.00000000000E+00 0. -1.
         21    1    1    2  504  501  0.54126585188E+02  0.56375502814E+02  0.43337122819E+03  0.44036178986E+03  0.00000000000E+00 0. -1.
</event>
<event>
 4    1  0.3372301E+006  0.2458478E+02  0.7546771E-02  0.1473502E+00
         21   -1    0    0  504  501  0.00000000000E+00  0.00000000000E+00  0.33579548519E+02  0.33579548519E+02  0.00000000000E+00 0.  1.
         21   -1    0    0  501  502 -0.00000000000E+00 -0.00000000000E+00 -0.31441337757E+02  0.31441337757E+02  0.00000000000E+00 0.  1.
         21    1    1    2  503  502 -0.24107402686E+02 -0.48212386845E+01 -0.20187972853E+02  0.31811404475E+02  0.00000000000E+00 0.  1.
         21    1    1    2  504  503  0.24107402686E+02  0.48212386845E+01  0.22326183615E+02  0.33209481802E+02  0.00000000000E+00 0.  1.
</event>
<event>
 4    1  0.3372301E+006  0.2063754E+02  0.7546771E-02  0.1524503E+00
         21   -1    0    0  502  501  0.00000000000E+00  0.00000000000E+00  0.17364154348E+03  0.17364154348E+03  0.00000000000E+00 0.  1.
         21   -1    0    0  504  502 -0.00000000000E+00 -0.00000000000E+00 -0.40164336927E+01  0.40164336927E+01  0.00000000000E+00 0.  1.
         21    1    1    2  503  501  0.72415831055E+01 -0.19325302796E+02  0.14023708571E+03  0.14174747992E+03  0.00000000000E+00 0.  1.
         21    1    1    2  504  503 -0.72415831055E+01  0.19325302796E+02  0.29388024073E+02  0.35910497252E+02  0.00000000000E+00 0.  1.
</event>
<event>
 4    1  0.3372301E+006  0.2530496E+02  0.7546771E-02  0.1465421E+00
         21   -1    0    0  503  501  0.00000000000E+00  0.00000000000E+00  0.16560978624E+03  0.16560978624E+03  0.00000000000E+00 0.  1.
         21   -1    0    0  501  502 -0.00000000000E+00 -0.00000000000E+00 -0.91672040452E+01  0.91672040452E+01  0.00000000000E+00 0. -1.
         21    1    1    2  503  504 -0.40481941493E+01 -0.24979050057E+02  0.14467205429E+03  0.14686845853E+03  0.00000000000E+00 0.  1.
         21    1    1    2  504  502  0.40481941493E+01  0.24979050057E+02  0.11770527901E+02  0.27908531755E+02  0.00000000000E+00 0. -1.
</event>
<event>
 4    1  0.3372301E+006  0.3105108E+02  0.7546771E-02  0.1410677E+00
         21   -1    0    0  504  501  0.00000000000E+00  0.00000000000E+00  0.36744219131E+01  0.36744219131E+01  0.00000000000E+00 0.  1.
         21   -1    0    0  503  502 -0.00000000000E+00 -0.00000000000E+00 -0.99638995130E+03  0.99638995130E+03  0.00000000000E+00 0. -1.
         21    1    1    2  503  501 -0.26876354861E+02 -0.15550914514E+02 -0.92552668229E+03  0.92604741186E+03  0.00000000000E+00 0. -1.
         21    1    1    2  504  502  0.26876354861E+02  0.15550914514E+02 -0.67188847095E+02  0.74016961345E+02  0.00000000000E+00 0.  1.
</event>
<event>
 4    1  0.3372301E+006  0.3298254E+02  0.7546771E-02  0.1395330E+00
         21   -1    0    0  503  501  0.00000000000E+00  0.00000000000E+00  0.25288862398E+02  0.25288862398E+02  0.00000000000E+00 0. -1.
         21   -1    0    0  504  502 -0.00000000000E+00 -0.00000000000E+00 -0.54385428934E+02  0.54385428934E+02  0.00000000000E+00 0. -1.
         21    1    1    2  503  502  0.10326036924E+02 -0.31324450768E+02 -0.32762027312E+02  0.46488694196E+02  0.00000000000E+00 0. -1.
         21    1    1    2  504  501 -0.10326036924E+02  0.31324450768E+02  0.36654607762E+01  0.33185597135E+02  0.00000000000E+00 0. -1.
</event>
<event>
 4    1  0.3372301E+006  0.2899453E+02  0.7546771E-02  0.1428540E+00
         21   -1    0    0  503  501  0.00000000000E+00  0.00000000000E+00  0.58730200005E+01  0.58730200005E+01  0.00000000000E+00 0.  1.
         21   -1    0    0  504  502 -0.00000000000E+00 -0.00000000000E+00 -0.14400725021E+03  0.14400725021E+03  0.00000000000E+00 0.  1.
         21    1    1    2  503  502 -0.20638730155E+02 -0.20364810247E+02 -0.63262141574E+02  0.69590094377E+02  0.00000000000E+00 0.  1.
         21    1    1    2  504  501  0.20638730155E+02  0.20364810247E+02 -0.74872088636E+02  0.80290175835E+02  0.00000000000E+00 0.  1.
</event>
<event>
 4    1  0.3372301E+006  0.2007148E+02  0.7546771E-02  0.1532946E+00
         21   -1    0    0  502  501  0.00000000000E+00  0.00000000000E+00  0.30654843883E+02  0.30654843883E+02  0.00000000000E+00 0. -1.
         21   -1    0    0  503  502 -0.00000000000E+00 -0.00000000000E+00 -0.13141943104E+02  0.13141943104E+02  0.00000000000E+00 0. -1.
         21    1    1    2  503  504 -0.54243623331E+01 -0.19324608103E+02  0.87623409552E+01  0.21900748938E+02  0.00000000000E+00 0. -1.
         21    1    1    2  504  501  0.54243623331E+01  0.19324608103E+02  0.87505598237E+01  0.21896038050E+02  0.00000000000E+00 0. -1.
</event>
<event>
 4    1  0.3372301E+006  0.3219555E+02  0.7546771E-02  0.1401430E+00
         21   -1    0    0  504  501  0.00000000000E+00  0.00000000000E+00  0.92242313858E+01  0.92242313858E+01  0.00000000000E+00 0. -1.
         21   -1    0    0  503  502 -0.00000000000E+00 -0.00000000000E+00 -0.11314223965E+03  0.11314223965E+03  0.00000000000E+00 0. -1.
         21    1    1    2  503  501  0.18615283287E+02  0.26268322382E+02 -0.46913760704E+02  0.56898633341E+02  0.00000000000E+00 0. -1.
         21    1    1    2  504  502 -0.18615283287E+02 -0.26268322382E+02 -0.57004247563E+02  0.65467837698E+02  0.00000000000E+00 0. -1.
</event>
<event>
 4    1  0.3372301E+006  0.2309412E+02  0.7546771E-02  0.1491320E+00
         21   -1    0    0  504  501  0.00000000000E+00  0.00000000000E+00  0.17801613215E+02  0.17801613215E+02  0.00000000000E+00 0. -1.
         21   -1    0    0  503  502 -0.00000000000E+00 -0.00000000000E+00 -0.21851645838E+03  0.21851645838E+03  0.00000000000E+00 0.  1.
         21    1    1    2  503  501 -0.21650525189E+02  0.80369941995E+01 -0.21011775829E+03  0.21138309031E+03  0.00000000000E+00 0.  1.
         21    1    1    2  504  502  0.21650525189E+02 -0.80369941995E+01  0.94029131271E+01  0.24934981291E+02  0.00000000000E+00 0. -1.
</event>
<event>
 4    1  0.3372301E+006  0.2122807E+02  0.7546771E-02  0.1516033E+00
         21   -1    0    0  503  501  0.00000000000E+00  0.00000000000E+00  0.35209088529E+03  0.35209088529E+03  0.00000000000E+00 0. -1.
         21   -1    0    0  504  502 -0.00000000000E+00 -0.00000000000E+00 -0.11119870089E+02  0.11119870089E+02  0.00000000000E+00 0. -1.
         21    1    1    2  503  502  0.12099448763E+02  0.17442307931E+02 -0.34930919208E+00  0.21230939293E+02  0.00000000000E+00 0. -1.
         21    1    1    2  504  501 -0.12099448763E+02 -0.17442307931E+02  0.34132032440E+03  0.34197981609E+03  0.00000000000E+00 0. -1.
</event>
<event>
 4    1  0.3372301E+006  0.2601637E+02  0.7546771E-02  0.1457747E+00
         21   -1    0    0  504  501  0.00000000000E+00  0.00000000000E+00  0.34974516709E+01  0.34974516709E+01  0.00000000000E+00 0.  1.
         21   -1    0    0  501  502 -0.00000000000E+00 -0.00000000000E+00 -0.33042833472E+03  0.33042833472E+03  0.00000000000E+00 0. -1.
         21    1    1    2  503  502 -0.17434838150E+02  0.19310040895E+02 -0.27093493285E+03  0.27218116963E+03  0.00000000000E+00 0. -1.
         21    1    1    2  504  503  0.17434838150E+02 -0.19310040895E+02 -0.55995950198E+02  0.61744616764E+02  0.00000000000E+00 0.  1.
</event>
<event>
 4    1  0.3372301E+006  0.3539891E+02  0.7546771E-02  0.1377780E+00
         21   -1    0    0  504  501  0.00000000000E+00  0.00000000000E+00  0.21699189200E+03  0.21699189200E+03  0.00000000000E+00 0.  1.
         21   -1    0    0  503  502 -0.00000000000E+00 -0.00000000000E+00 -0.15576443972E+02  0.15576443972E+02  0.00000000000E+00 0. -1.
         21    1    1    2  503  501 -0.33978255457E+02 -0.99278035838E+01  0.84641627745E+01  0.36396774299E+02  0.00000000000E+00 0. -1.
         21    1    1    2  504  502  0.33978255457E+02  0.99278035838E+01  0.19295128525E+03  0.19617156167E+03  0.00000000000E+00 0.  1.
</event>
<event>
 4    1  0.3372301E+006  0.2095476E+02  0.7546771E-02  0.1519912E+00
         21   -1    0    0  502  501  0.00000000000E+00  0.00000000000E+00  0.14796094984E+04  0.14796094984E+04  0.00000000000E+00 0. -1.
         21   -1    0    0  504  502 -0.00000000000E+00 -0.00000000000E+00 -0.86002830294E+01  0.86002830294E+01  0.00000000000E+00 0.  1.
         21    1    1    2  503  501 -0.17964925231E+02 -0.10787194803E+02  0.14666584239E+04  0.14668081110E+04  0.00000000000E+00 0. -1.
         21    1    1    2  504  503  0.17964925231E+02  0.10787194803E+02  0.43507914613E+01  0.21401670416E+02  0.00000000000E+00 0.  1.
</event>
<event>
 4    1  0.3372301E+006  0.2439242E+02  0.7546771E-02  0.1475716E+00
         21   -1    0    0  502  501  0.00000000000E+00  0.00000000000E+00  0.27144799738E+03  0.27144799738E+03  0.00000000000E+00 0.  1.
         21   -1    0    0  504  502 -0.00000000000E+00 -0.00000000000E+00 -0.70619047777E+01  0.70619047777E+01  0.00000000000E+00 0. -1.
         21    1    1    2  503  501 -0.60929843249E+01  0.23619180251E+02  0.24783458807E+03  0.24903207259E+03  0.00000000000E+00 0.  1.
         21    1    1    2  504  503  0.60929843249E+01 -0.23619180251E+02  0.16551504527E+02  0.29477829565E+02  0.00000000000E+00 0. -1.
</event>
<event>
 4    1  0.3372301E+006  0.2129282E+02  0.7546771E-02  0.1515125E+00
         21   -1    0    0  503  501  0.00000000000E+00  0.00000000000E+00  0.13550919073E+04  0.13550919073E+04  0.00000000000E+00 0. -1.
         21   -1    0    0  504  502 -0.00000000000E+00 -0.00000000000E+00 -0.11585113942E+01  0.11585113942E+01  0.00000000000E+00 0. -1.
         21    1    1    2  503  502  0.10669468089E+02  0.18426790228E+02  0.12488478023E+04  0.12490293101E+04  0.00000000000E+00 0. -1.
         21    1    1    2  504  501 -0.10669468089E+02 -0.18426790228E+02  0.10508559360E+03  0.10722110860E+03  0.00000000000E+00 0. -1.
</event>
<event>
 4    1  0.3372301E+006  0.2446801E+02  0.7546771E-02  0.1474843E+00
         21   -1    0    0  504  501  0.00000000000E+00  0.00000000000E+00  0.45724832613E+01  0.45724832613E+01  0.00000000000E+00 0. -1.
         21   -1    0    0  501  502 -0.00000000000E+00 -0.00000000000E+00 -0.42382230976E+03  0.42382230976E+03  0.00000000000E+00 0. -1.
         21    1    1    2  503  502 -0.12974303172E+02  0.20744906863E+02 -0.38768840766E+03  0.38845975999E+03  0.00000000000E+00 0. -1.
         21    1    1    2  504  503  0.12974303172E+02 -0.20744906863E+02 -0.31561418843E+02  0.39935033028E+02  0.00000000000E+00 0. -1.
</event>
<event>
 4    1  0.3372301E+006  0.2257625E+02  0.7546771E-02  0.1497889E+00
         21   -1    0    0  504  501  0.00000000000E+00  0.00000000000E+00  0.41920531061E+02  0.41920531061E+02  0.00000000000E+00 0.  1.
         21   -1    0    0  503  502 -0.00000000000E+00 -0.00000000000E+00 -0.14835243261E+03  0.14835243261E+03  0.00000000000E+00 0.  1.
         21    1    1    2  503  501  0.18037296255E+01  0.22504081930E+02  0.37938686953E+02  0.44147832470E+02  0.00000000000E+00 0.  1.
         21    1    1    2  504  502 -0.18037296255E+01 -0.22504081930E+02 -0.14437058851E+03  0.14612513120E+03  0.00000000000E+00 0.  1.
</event>
<event>
 4    1  0.3372301E+006  0.2179712E+02  0.7546771E-02  0.1508181E+00
         21   -1    0    0  504  501  0.00000000000E+00  0.00000000000E+00  0.58933248906E+02  0.58933248906E+02  0.00000000000E+00 0. -1.
         21   -1    0    0  503  502 -0.00000000000E+00 -0.00000000000E+00 -0.89442246402E+01  0.89442246402E+01  0.00000000000E+00 0. -1.
         21    1    1    2  503  501 -0.81766176521E+01 -0.20205383924E+02  0.35653986437E+02  0.41789010093E+02  0.00000000000E+00 0. -1.
         21    1    1    2  504  502  0.81766176521E+01  0.20205383924E+02  0.14335037829E+02  0.26088463453E+02  0.00000000000E+00 0. -1.
</event>
<event>
 4    1  0.3372301E+006  0.2577591E+02  0.7546771E-02  0.1460308E+00
         21   -1    0    0  504  501  0.00000000000E+00  0.00000000000E+00  0.54757022774E+01  0.54757022774E+01  0.00000000000E+00 0.  1.
         21   -1    0    0  503  502 -0.00000000000E+00 -0.00000000000E+00 -0.12136527658E+03  0.12136527658E+03  0.00000000000E+00 0.  1.
         21    1    1    2  503  501 -0.11084975946E+02 -0.23270598776E+02 -0.56952572020E+02  0.62513941795E+02  0.00000000000E+00 0.  1.
         21    1    1    2  504  502  0.11084975946E+02  0.23270598776E+02 -0.58937002280E+02  0.64327037060E+02  0.00000000000E+00 0.  1.
</event>
<event>
 4    1  0.3372301E+006  0.3812991E+02  0.7546771E-02  0.1359807E+00
         21   -1    0    0  503  501  0.00000000000E+00  0.00000000000E+00  0.49708420484E+02  0.49708420484E+02  0.00000000000E+00 0.  1.
         21   -1    0    0  504  502 -0.00000000000E+00 -0.00000000000E+00 -0.11359854339E+03  0.11359854339E+03  0.00000000000E+00 0. -1.
         21    1    1    2  503  502  0.70130573800E+01  0.37479418377E+02 -0.10230595454E+03  0.10918057570E+03  0.00000000000E+00 0. -1.
         21    1    1    2  504  501 -0.70130573800E+01 -0.37479418377E+02  0.38415831639E+02  0.54126388169E+02  0.00000000000E+00 0.  1.
</event>
<event>
 4    1  0.3372301E+006  0.2102778E+02  0.7546771E-02  0.1518868E+00
         21   -1    0    0  503  501  0.00000000000E+00  0.00000000000E+00  0.69602136247E+02  0.69602136247E+02  0.00000000000E+00 0.  1.
         21   -1    0    0  501  502 -0.00000000000E+00 -0.00000000000E+00 -0.58560219567E+02  0.58560219567E+02  0.00000000000E+00 0. -1.
         21    1    1    2  503  504 -0.96115483281E+01 -0.18702561717E+02  0.66026520211E+02  0.69294076567E+02  0.00000000000E+00 0.  1.
         21    1    1    2  504  502  0.96115483281E+01  0.18702561717E+02 -0.54984603532E+02  0.58868279247E+02  0.00000000000E+00 0. -1.
</event>
<event>
 4    1  0.3372301E+006  0.3723725E+02  0.7546771E-02  0.1365483E+00
         21   -1    0    0  503  501  0.00000000000E+00  0.00000000000E+00  0.98890477789E+02  0.98890477789E+02  0.00000000000E+00 0. -1.
         21   -1    0    0  504  502 -0.00000000000E+00 -0.00000000000E+00 -0.18333683474E+02  0.18333683474E+02  0.00000000000E+00 0. -1.
         21    1    1    2  503  502  0.31541531874E+02 -0.19792529411E+02  0.68703424991E+02  0.78145844797E+02  0.00000000000E+00 0. -1.
         21    1    1    2  504  501 -0.31541531874E+02  0.19792529411E+02  0.11853369324E+02  0.39078316466E+02  0.00000000000E+00 0. -1.
</event>
<event>
 4    1  0.3372301E+006  0.2161544E+02  0.7546771E-02  0.1510656E+00
         21   -1    0    0  503  501  0.00000000000E+00  0.00000000000E+00  0.25702988388E+02  0.25702988388E+02  0.00000000000E+00 0.  1.
         21   -1    0    0  504  502 -0.00000000000E+00 -0.00000000000E+00 -0.55162482298E+02  0.55162482298E+02  0.00000000000E+00 0.  1.
         21    1    1    2  503  502  0.13486869487E+02  0.16891761968E+02 -0.47836864583E+02  0.52493741380E+02  0.00000000000E+00 0.  1.
         21    1    1    2  504  501 -0.13486869487E+02 -0.16891761968E+02  0.18377370673E+02  0.28371729306E+02  0.00000000000E+00 0.  1.
</event>
<event>
 4    1  0.3372301E+006  0.3035023E+02  0.7546771E-02  0.1416577E+00
         21   -1    0    0  502  501  0.00000000000E+00  0.00000000000E+00  0.21162628390E+03  0.21162628390E+03  0.00000000000E+00 0.  1.
         21   -1    0    0  504  502 -0.00000000000E+00 -0.00000000000E+00 -0.55097686560E+01  0.55097686560E+01  0.00000000000E+00 0.  1.
         21    1    1    2  503  501 -0.22020872697E+02  0.20885817353E+02  0.15281171574E+03  0.15579652328E+03  0.00000000000E+00 0.  1.
         21    1    1    2  504  503  0.22020872697E+02 -0.20885817353E+02  0.53304799507E+02  0.61339529272E+02  0.00000000000E+00 0.  1.
</event>
<event>
 4    1  0.3372301E+006  0.2149722E+02  0.7546771E-02  0.1512283E+00
         21   -1    0    0  504  501  0.00000000000E+00  0.00000000000E+00  0.21060220816E+02  0.21060220816E+02  0.00000000000E+00 0.  1.
         21   -1    0    0  503  502 -0.00000000000E+00 -0.00000000000E+00 -0.22054599974E+02  0.22054599974E+02  0.00000000000E+00 0.  1.
         21    1    1    2  503  501  0.20856141282E+02 -0.52107237852E+01 -0.20287644730E+01  0.21592733890E+02  0.00000000000E+00 0.  1.
         21    1    1    2  504  502 -0.20856141282E+02  0.52107237852E+01  0.10343853151E+01  0.21522086900E+02  0.00000000000E+00 0.  1.
</event>
<event>
 4    1  0.3372301E+006  0.2635339E+02  0.7546771E-02  0.1454214E+00
         21   -1    0    0  503  501  0.00000000000E+00  0.00000000000E+00  0.44968597140E+03  0.44968597140E+03  0.00000000000E+00 0. -1.
         21   -1    0    0  504  502 -0.00000000000E+00 -0.00000000000E+00 -0.19366939204E+02  0.19366939204E+02  0.00000000000E+00 0. -1.
         21    1    1    2  503  502 -0.16724879831E+02 -0.20366141449E+02  0.44014057855E+03  0.44092882669E+03  0.00000000000E+00 0. -1.
         21    1    1    2  504  501  0.16724879831E+02  0.20366141449E+02 -0.98215463559E+01  0.28124083908E+02  0.00000000000E+00 0. -1.
</event>
<event>
 4    1  0.3372301E+006  0.2030607E+02  0.7546771E-02  0.1529407E+00
         21   -1    0    0  502  501  0.00000000000E+00  0.00000000000E+00  0.10205404819E+03  0.10205404819E+03  0.00000000000E+00 0.  1.
         21   -1    0    0  503  502 -0.00000000000E+00 -0.00000000000E+00 -0.24447070383E+02  0.24447070383E+02  0.00000000000E+00 0.  1.
         21    1    1    2  503  504 -0.42087557908E+01  0.19865114205E+02 -0.18984465869E+02  0.27798315273E+02  0.00000000000E+00 0.  1.
         21    1    1    2  504  501  0.42087557908E+01 -0.19865114205E+02  0.96591443674E+02  0.98702803297E+02  0.00000000000E+00 0.  1.
</event>
<event>
 4    1  0.3372301E+006  0.2502819E+02  0.7546771E-02  0.1468488E+00
         21   -1    0    0  504  501  0.00000000000E+00  0.00000000000E+00  0.46058552250E+01  0.46058552250E+01  0.00000000000E+00 0.  1.
         21   -1    0    0  503  502 -0.00000000000E+00 -0.00000000000E+00 -0.30747547726E+03  0.30747547726E+03  0.00000000000E+00 0. -1.
         21    1    1    2  503  501  0.99224398100E+01  0.22977284920E+02 -0.26796264685E+03  0.26912894779E+03  0.00000000000E+00 0. -1.
         21    1    1    2  504  502 -0.99224398100E+01 -0.22977284920E+02 -0.34906975189E+02  0.42952384694E+02  0.00000000000E+00 0.  1.
</event>
<event>
 4    1  0.3372301E+006  0.2107696E+02  0.7546771E-02  0.1518169E+00
         21   -1    0    0  504  501  0.00000000000E+00  0.00000000000E+00  0.33443779940E+02  0.33443779940E+02  0.00000000000E+00 0.  1.
         21   -1    0    0  503  502 -0.00000000000E+00 -0.00000000000E+00 -0.82207325485E+02  0.82207325485E+02  0.00000000000E+00 0.  1.
         21    1    1    2  503  501  0.15221023232E+02 -0.14579387758E+02 -0.77329873203E+02  0.80150779068E+02  0.00000000000E+00 0.  1.
         21    1    1    2  504  502 -0.15221023232E+02  0.14579387758E+02  0.28566327657E+02  0.35500326357E+02  0.00000000000E+00 0.  1.
</event>
<event>
 4    1  0.3372301E+006  0.2134069E+02  0.7546771E-02  0.1514456E+00
         21   -1    0    0  504  501  0.00000000000E+00  0.00000000000E+00  0.33140792319E+02  0.33140792319E+02  0.00000000000E+00 0. -1.
         21   -1    0    0  501  502 -0.00000000000E+00 -0.00000000000E+00 -0.54203762454E+02  0.54203762454E+02  0.00000000000E+00 0. -1.
         21    1    1    2  503  502  0.21338154900E+02 -0.32866309791E+00 -0.48263748356E+02  0.52771339564E+02  0.00000000000E+00 0. -1.
         21    1    1    2  504  503 -0.21338154900E+02  0.32866309791E+00  0.27200778222E+02  0.34573215209E+02  0.00000000000E+00 0. -1.
</event>
<event>
 4    1  0.3372301E+006  0.2424071E+02  0.7546771E-02  0.1477480E+00
         21   -1    0    0  504  501  0.00000000000E+00  0.00000000000E+00  0.30815096128E+01  0.30815096128E+01  0.00000000000E+00 0.  1.
         21   -1    0    0  503  502 -0.00000000000E+00 -0.00000000000E+00 -0.19534498254E+03  0.19534498254E+03  0.00000000000E+00 0.  1.
         21    1    1    2  503  501 -0.10581884098E+02 -0.21809074483E+02 -0.11144767843E+03  0.11405348319E+03  0.00000000000E+00 0.  1.
         21    1    1    2  504  502  0.10581884098E+02  0.21809074483E+02 -0.80815794498E+02  0.84373008961E+02  0.00000000000E+00 0.  1.
</event>
<event>
 4    1  0.3372301E+006  0.2413270E+02  0.7546771E-02  0.1478744E+00
         21   -1    0    0  503  501  0.00000000000E+00  0.00000000000E+00  0.23902411013E+03  0.23902411013E+03  0.00000000000E+00 0.  1.
         21   -1    0    0  504  502 -0.00000000000E+00 -0.00000000000E+00 -0.25362830163E+01  0.25362830163E+01  0.00000000000E+00 0.  1.
         21    1    1    2  503  502 -0.13722455895E+02  0.19851487034E+02  0.94289869045E+02  0.97329166942E+02  0.00000000000E+00 0.  1.
         21    1    1    2  504  501  0.13722455895E+02 -0.19851487034E+02  0.14219795807E+03  0.14423122620E+03  0.00000000000E+00 0.  1.
</event>
<event>
 4    1  0.3372301E+006  0.2194052E+02  0.7546771E-02  0.1506249E+00
         21   -1    0    0  503  501  0.00000000000E+00  0.00000000000E+00  0.21963754832E+03  0.21963754832E+03  0.00000000000E+00 0.  1.
         21   -1    0    0  501  502 -0.00000000000E+00 -0.00000000000E+00 -0.17225268100E+02  0.17225268100E+02  0.00000000000E+00 0.  1.
         21    1    1    2  503  504 -0.21933719509E+02 -0.54603994616E+00  0.21184673419E+03  0.21297986993E+03  0.00000000000E+00 0.  1.
         21    1    1    2  504  502  0.21933719509E+02  0.54603994616E+00 -0.94344539688E+01  0.23882946485E+02  0.00000000000E+00 0.  1.
</event>
<event>
 4    1  0.3372301E+006  0.4218948E+02  0.7546771E-02  0.1336112E+00
         21   -1    0    0  503  501  0.00000000000E+00  0.00000000000E+00  0.41312217356E+03  0.41312217356E+03  0.00000000000E+00 0. -1.
         21   -1    0    0  504  502 -0.00000000000E+00 -0.00000000000E+00 -0.48804591989E+01  0.48804591989E+01  0.00000000000E+00 0.  1.
         21    1    1    2  503  502 -0.34325098977E+02 -0.24530381183E+02  0.27566717586E+03  0.27887693319E+03  0.00000000000E+00 0. -1.
         21    1    1    2  504  501  0.34325098977E+02  0.24530381183E+02  0.13257453851E+03  0.13912569957E+03  0.00000000000E+00 0.  1.
</event>
<event>
 4    1  0.3372301E+006  0.4376430E+02  0.7546771E-02  0.1327735E+00
         21   -1    0    0  504  501  0.00000000000E+00  0.00000000000E+00  0.41534069637E+02  0.41534069637E+02  0.00000000000E+00 0. -1.
         21   -1    0    0  503  502 -0.00000000000E+00 -0.00000000000E+00 -0.75945440786E+02  0.75945440786E+02  0.00000000000E+00 0. -1.
         21    1    1    2  503  501 -0.41218981669E+02  0.14707473021E+02  0.19608590801E+02  0.47956345207E+02  0.00000000000E+00 0. -1.
         21    1    1    2  504  502  0.41218981669E+02 -0.14707473021E+02 -0.54019961951E+02  0.69523165216E+02  0.00000000000E+00 0. -1.
</event>
<event>
 4    1  0.3372301E+006  0.2201626E+02  0.7546771E-02  0.1505235E+00
         21   -1    0    0  502  501  0.00000000000E+00  0.00000000000E+00  0.17163547211E+03  0.17163547211E+03  0.00000000000E+00 0. -1.
         21   -1    0    0  504  502 -0.00000000000E+00 -0.00000000000E+00 -0.48036960249E+01  0.48036960249E+01  0.00000000000E+00 0. -1.
         21    1    1    2  503  501  0.77244281347E+01 -0.20616718717E+02  0.14004834995E+03  0.14176831877E+03  0.00000000000E+00 0. -1.
         21    1    1    2  504  503 -0.77244281347E+01  0.20616718717E+02  0.26783426128E+02  0.34670849366E+02  0.00000000000E+00 0. -1.
</event>
<event>
 4    1  0.3372301E+006  0.2219669E+02  0.7546771E-02  0.1502839E+00
         21   -1    0    0  502  501  0.00000000000E+00  0.00000000000E+00  0.47158435397E+01  0.47158435397E+01  0.00000000000E+00 0. -1.
         21   -1    0    0  503  502 -0.00000000000E+00 -0.00000000000E+00 -0.24165992909E+03  0.24165992909E+03  0.00000000000E+00 0.  1.
         21    1    1    2  503  504  0.20665513356E+02 -0.81012018528E+01 -0.21128682529E+03  0.21244955979E+03  0.00000000000E+00 0.  1.
         21    1    1    2  504  501 -0.20665513356E+02  0.81012018528E+01 -0.25657260268E+02  0.33926212848E+02  0.00000000000E+00 0. -1.
</event>
<event>
 4    1  0.3372301E+006  0.2726234E+02  0.7546771E-02  0.1444990E+00
         21   -1    0    0  503  501  0.00000000000E+00  0.00000000000E+00  0.36119364446E+01  0.36119364446E+01  0.00000000000E+00 0.  1.
         21   -1    0    0  504  502 -0.00000000000E+00 -0.00000000000E+00 -0.20646145905E+03  0.20646145905E+03  0.00000000000E+00 0.  1.
         21    1    1    2  503  502 -0.26821306920E+02  0.48839394339E+01 -0.95354921028E+02  0.99175583354E+02  0.00000000000E+00 0.  1.
         21    1    1    2  504  501  0.26821306920E+02 -0.48839394339E+01 -0.10749460158E+03  0.11089781214E+03  0.00000000000E+00 0.  1.
</event>
<event>
 4    1  0.3372301E+006  0.2524905E+02  0.7546771E-02  0.1466036E+00
         21   -1    0    0  503  501  0.00000000000E+00  0.00000000000E+00  0.58537826812E+02  0.58537826812E+02  0.00000000000E+00 0.  1.
         21   -1    0    0  501  502 -0.00000000000E+00 -0.00000000000E+00 -0.59567928265E+02  0.59567928265E+02  0.00000000000E+00 0. -1.
         21    1    1    2  503  504 -0.11085709589E+02 -0.22685268259E+02  0.52867338623E+02  0.58587283997E+02  0.00000000000E+00 0.  1.
         21    1    1    2  504  502  0.11085709589E+02  0.22685268259E+02 -0.53897440075E+02  0.59518471080E+02  0.00000000000E+00 0. -1.
</event>
<event>
 4    1  0.3372301E+006  0.5572009E+02  0.7546771E-02  0.1275111E+00
         21   -1    0    0  504  501  0.00000000000E+00  0.00000000000E+00  0.11572199236E+03  0.11572199236E+03  0.00000000000E+00 0.  1.
         21   -1    0    0  503  502 -0.00000000000E+00 -0.00000000000E+00 -0.27571776865E+02  0.27571776865E+02  0.00000000000E+00 0.  1.
         21    1    1    2  503  501  0.43589561972E+02 -0.34708486412E+02  0.55833135131E+02  0.78880085703E+02  0.00000000000E+00 0.  1.
         21    1    1    2  504  502 -0.43589561972E+02  0.34708486412E+02  0.32317080368E+02  0.64413683527E+02  0.00000000000E+00 0.  1.
</event>
<event>
 4    1  0.3372301E+006  0.2239880E+02  0.7546771E-02  0.1500189E+00
         21   -1    0    0  504  501  0.00000000000E+00  0.00000000000E+00  0.13087947178E+02  0.13087947178E+02  0.00000000000E+00 0. -1.
         21   -1    0    0  503  502 -0.00000000000E+00 -0.00000000000E+00 -0.15356753717E+03  0.15356753717E+03  0.00000000000E+00 0. -1.
         21    1    1    2  503  501 -0.71572014566E+01 -0.21224526004E+02  0.19424535677E+01  0.22482863755E+02  0.00000000000E+00 0. -1.
         21    1    1    2  504  502  0.71572014566E+01  0.21224526004E+02 -0.14242204356E+03  0.14417262059E+03  0.00000000000E+00 0. -1.
</event>
<event>
 4    1  0.3372301E+006  0.2424210E+02  0.7546771E-02  0.1477463E+00
         21   -1    0    0  502  501  0.00000000000E+00  0.00000000000E+00  0.10254339299E+03  0.10254339299E+03  0.00000000000E+00 0.  1.
         21   -1    0    0  503  502 -0.00000000000E+00 -0.00000000000E+00 -0.86234633416E+01  0.86234633416E+01  0.00000000000E+00 0. -1.
         21    1    1    2  503  504  0.63990356921E+01 -0.23382297579E+02  0.14768853157E+02  0.28386590521E+02  0.00000000000E+00 0. -1.
         21    1    1    2  504  501 -0.63990356921E+01  0.23382297579E+02  0.79151076488E+02  0.82780265807E+02  0.00000000000E+00 0.  1.
</event>
<event>
 4    1  0.3372301E+006  0.1031897E+03  0.7546771E-02  0.1158393E+00
         21   -1    0    0  502  501  0.00000000000E+00  0.00000000000E+00  0.40145018699E+03  0.40145018699E+03  0.00000000000E+00 0.  1.
         21   -1    0    0  503  502 -0.00000000000E+00 -0.00000000000E+00 -0.21281973100E+03  0.21281973100E+03  0.00000000000E+00 0. -1.
         21    1    1    2  503  504  0.61344729789E+02  0.82975475357E+02 -0.19304366407E+03  0.21889258010E+03  0.00000000000E+00 0. -1.
         21    1    1    2  504  501 -0.61344729789E+02 -0.82975475357E+02  0.38167412007E+03  0.39537733788E+03  0.00000000000E+00 0.  1.
</event>
<event>
 4    1  0.3372301E+006  0.3677060E+02  0.7546771E-02  0.1368525E+00
         21   -1    0    0  504  501  0.00000000000E+00  0.00000000000E+00  0.12886246106E+03  0.12886246106E+03  0.00000000000E+00 0. -1.
         21   -1    0    0  503  502 -0.00000000000E+00 -0.00000000000E+00 -0.55933363907E+02  0.55933363907E+02  0.00000000000E+00 0.  1.
         21    1    1    2  503  501 -0.28248384979E+02  0.23539452443E+02 -0.46817315177E+02  0.59530984165E+02  0.00000000000E+00 0.  1.
         21    1    1    2  504  502  0.28248384979E+02 -0.23539452443E+02  0.11974641233E+03  0.12526484080E+03  0.00000000000E+00 0. -1.
</event>
<event>
 4    1  0.3372301E+006  0.2279201E+02  0.7546771E-02  0.1495126E+00
         21   -1    0    0  504  501  0.00000000000E+00  0.00000000000E+00  0.63019599713E+02  0.63019599713E+02  0.00000000000E+00 0.  1.
         21   -1    0    0  503  502 -0.00000000000E+00 -0.00000000000E+00 -0.25491200567E+02  0.25491200567E+02  0.00000000000E+00 0.  1.
         21    1    1    2  503  501  0.57122416707E+01  0.22064590619E+02 -0.17639201799E+02  0.28820432061E+02  0.00000000000E+00 0.  1.
         21    1    1    2  504  502 -0.57122416707E+01 -0.22064590619E+02  0.55167600945E+02  0.59690368219E+02  0.00000000000E+00 0.  1.
</event>
<event>
 4    1  0.3372301E+006  0.3046730E+02  0.7546771E-02  0.1415578E+00
         21   -1    0    0  503  501  0.00000000000E+00  0.00000000000E+00  0.37232115835E+03  0.37232115835E+03  0.00000000000E+00 0. -1.
         21   -1    0    0  504  502 -0.00000000000E+00 -0.00000000000E+00 -0.24971975773E+01  0.24971975773E+01  0.00000000000E+00 0. -1.
         21    1    1    2  503  502  0.29191244335E+02  0.87250995506E+01  0.19244798034E+03  0.19484476191E+03  0.00000000000E+00 0. -1.
         21    1    1    2  504  501 -0.29191244335E+02 -0.87250995506E+01  0.17737598043E+03  0.17997359402E+03  0.00000000000E+00 0. -1.
</event>
<event>
 4    1  0.3372301E+006  0.2974491E+02  0.7546771E-02  0.1421826E+00
         21   -1    0    0  503  501  0.00000000000E+00  0.00000000000E+00  0.12476864381E+04  0.12476864381E+04  0.00000000000E+00 0.  1.
         21   -1    0    0  504  502 -0.00000000000E+00 -0.00000000000E+00 -0.87343976450E+00  0.87343976450E+00  0.00000000000E+00 0.  1.
         21    1    1    2  503  502  0.18642619025E+02 -0.23177838834E+02  0.89418099012E+03  0.89467558509E+03  0.00000000000E+00 0.  1.
         21    1    1    2  504  501 -0.18642619025E+02  0.23177838834E+02  0.35263200818E+03  0.35388429274E+03  0.00000000000E+00 0.  1.
</event>
<event>
 4    1  0.3372301E+006  0.2306486E+02  0.7546771E-02  0.1491685E+00
         21   -1    0    0  503  501  0.00000000000E+00  0.00000000000E+00  0.17894960444E+03  0.17894960444E+03  0.00000000000E+00 0. -1.
         21   -1    0    0  504  502 -0.00000000000E+00 -0.00000000000E+00 -0.21751519596E+03  0.21751519596E+03  0.00000000000E+00 0. -1.
         21    1    1    2  503  502 -0.10242602520E+02 -0.20665837530E+02 -0.21615588914E+03  0.21738297118E+03  0.00000000000E+00 0. -1.
         21    1    1    2  504  501  0.10242602520E+02  0.20665837530E+02  0.17759029762E+03  0.17908182922E+03  0.00000000000E+00 0. -1.
</event>
<event>
 4    1  0.3372301E+006  0.2390906E+02  0.7546771E-02  0.1481388E+00
         21   -1    0    0  504  501  0.00000000000E+00  0.00000000000E+00  0.87615484174E+01  0.87615484174E+01  0.00000000000E+00 0.  1.
         21   -1    0    0  503  502 -0.00000000000E+00 -0.00000000000E+00 -0.57155874587E+03  0.57155874587E+03  0.00000000000E+00 0.  1.
         21    1    1    2  503  501  0.22991590662E+02  0.65597120387E+01 -0.55449588735E+03  0.55501110993E+03  0.00000000000E+00 0.  1.
         21    1    1    2  504  502 -0.22991590662E+02 -0.65597120387E+01 -0.83013101034E+01  0.25309184353E+02  0.00000000000E+00 0.  1.
</event>
<event>
 4    1  0.3372301E+006  0.2414554E+02  0.7546771E-02  0.1478594E+00
         21   -1    0    0  503  501  0.00000000000E+00  0.00000000000E+00  0.13591918309E+02  0.13591918309E+02  0.00000000000E+00 0.  1.
         21   -1    0    0  501  502 -0.00000000000E+00 -0.00000000000E+00 -0.95417031401E+02  0.95417031401E+02  0.00000000000E+00 0.  1.
         21    1    1    2  503  504  0.20334640961E+01 -0.24059765726E+02 -0.47401798224E+00  0.24150196606E+02  0.00000000000E+00 0.  1.
         21    1    1    2  504  502 -0.20334640961E+01  0.24059765726E+02 -0.81351095109E+02  0.84858753105E+02  0.00000000000E+00 0.  1.
</event>
<event>
 4    1  0.3372301E+006  0.5138864E+02  0.7546771E-02  0.1292261E+00
         21   -1    0    0  504  501  0.00000000000E+00  0.00000000000E+00  0.48611539884E+03  0.48611539884E+03  0.00000000000E+00 0.  1.
         21   -1    0    0  503  502 -0.00000000000E+00 -0.00000000000E+00 -0.71158596823E+01  0.71158596823E+01  0.00000000000E+00 0. -1.
         21    1    1    2  503  501 -0.56279629361E+01  0.51079531708E+02  0.11954896511E+03  0.13012589129E+03  0.00000000000E+00 0. -1.
         21    1    1    2  504  502  0.56279629361E+01 -0.51079531708E+02  0.35945057405E+03  0.36310536723E+03  0.00000000000E+00 0.  1.
</event>
<event>
 4    1  0.3372301E+006  0.4596782E+02  0.7546771E-02  0.1316670E+00
         21   -1    0    0  503  501  0.00000000000E+00  0.00000000000E+00  0.43602747904E+01  0.43602747904E+01  0.00000000000E+00 0. -1.
         21   -1    0    0  501  502 -0.00000000000E+00 -0.00000000000E+00 -0.80417508345E+03  0.80417508345E+03  0.00000000000E+00 0. -1.
         21    1    1    2  503  504  0.42737789519E+02 -0.16926947537E+02 -0.14506469362E+03  0.15217360330E+03  0.00000000000E+00 0. -1.
         21    1    1    2  504  502 -0.42737789519E+02  0.16926947537E+02 -0.65475011504E+03  0.65636175494E+03  0.00000000000E+00 0. -1.
</event>
<event>
 4    1  0.3372301E+006  0.2364183E+02  0.7546771E-02  0.1484592E+00
         21   -1    0    0  503  501  0.00000000000E+00  0.00000000000E+00  0.33974319257E+01  0.33974319257E+01  0.00000000000E+00 0. -1.
         21   -1    0    0  504  502 -0.00000000000E+00 -0.00000000000E+00 -0.22692078400E+03  0.22692078400E+03  0.00000000000E+00 0.  1.
         21    1    1    2  503  502 -0.18565040238E+02 -0.14638148694E+02 -0.51371570408E+02  0.56550635385E+02  0.00000000000E+00 0. -1.
         21    1    1    2  504  501  0.18565040238E+02  0.14638148694E+02 -0.17215178167E+03  0.17376758054E+03  0.00000000000E+00 0.  1.
</event>
<event>
 4    1  0.3372301E+006  0.2913327E+02  0.7546771E-02  0.1427281E+00
         21   -1    0    0  503  501  0.00000000000E+00  0.00000000000E+00  0.17411134103E+02  0.17411134103E+02  0.00000000000E+00 0.  1.
         21   -1    0    0  504  502 -0.00000000000E+00 -0.00000000000E+00 -0.50610466607E+02  0.50610466607E+02  0.00000000000E+00 0. -1.
         21    1    1    2  503  502  0.28878906715E+02  0.38414102352E+01 -0.23125105547E+02  0.37195674375E+02  0.00000000000E+00 0. -1.
         21    1    1    2  504  501 -0.28878906715E+02 -0.38414102352E+01 -0.10074226957E+02  0.30825926335E+02  0.00000000000E+00 0.  1.
</event>
<event>
 4    1  0.3372301E+006  0.2174697E+02  0.7546771E-02  0.1508862E+00
         21   -1    0    0  503  501  0.00000000000E+00  0.00000000000E+00  0.42996573098E+02  0.42996573098E+02  0.00000000000E+00 0. -1.
         21   -1    0    0  504  502 -0.00000000000E+00 -0.00000000000E+00 -0.21004352380E+02  0.21004352380E+02  0.00000000000E+00 0. -1.
         21    1    1    2  503  502 -0.11906192792E+02  0.18198166329E+02 -0.11089635082E+02  0.24411282038E+02  0.00000000000E+00 0. -1.
         21    1    1    2  504  501  0.11906192792E+02 -0.18198166329E+02  0.33081855800E+02  0.39589643440E+02  0.00000000000E+00 0. -1.
</event>
<event>
 4    1  0.3372301E+006  0.2179696E+02  0.7546771E-02  0.1508184E+00
         21   -1    0    0  504  501  0.00000000000E+00  0.00000000000E+00  0.12124262928E+04  0.12124262928E+04  0.00000000000E+00 0. -1.
         21   -1    0    0  501  502 -0.00000000000E+00 -0.00000000000E+00 -0.17143543632E+01  0.17143543632E+01  0.00000000000E+00 0. -1.
         21    1    1    2  503  502 -0.18360357146E+02 -0.11747546506E+02  0.72162550549E+02  0.75382632385E+02  0.00000000000E+00 0. -1.
         21    1    1    2  504  503  0.18360357146E+02  0.11747546506E+02  0.11385493879E+04  0.11387580148E+04  0.00000000000E+00 0. -1.
</event>
<event>
 4    1  0.3372301E+006  0.3306748E+02  0.7546771E-02  0.1394683E+00
         21   -1    0    0  503  501  0.00000000000E+00  0.00000000000E+00  0.30667973867E+03  0.30667973867E+03  0.00000000000E+00 0.  1.
         21   -1    0    0  501  502 -0.00000000000E+00 -0.00000000000E+00 -0.29389256393E+02  0.29389256393E+02  0.00000000000E+00 0.  1.
         21    1    1    2  503  504 -0.73077913501E+01 -0.32249877832E+02  0.29615740037E+03  0.29799775876E+03  0.00000000000E+00 0.  1.
         21    1    1    2  504  502  0.73077913501E+01  0.32249877832E+02 -0.18866918097E+02  0.38071236296E+02  0.00000000000E+00 0.  1.
</event>
<event>
 4    1  0.3372301E+006  0.2807271E+02  0.7546771E-02  0.1437120E+00
         21   -1    0    0  503  501  0.00000000000E+00  0.00000000000E+00  0.66377761796E+02  0.66377761796E+02  0.00000000000E+00 0. -1.
         21   -1    0    0  501  502 -0.00000000000E+00 -0.00000000000E+00 -0.42755632766E+02  0.42755632766E+02  0.00000000000E+00 0.  1.
         21    1    1    2  503  504  0.10436127232E+02  0.26060780952E+02  0.58186812110E+02  0.64604815292E+02  0.00000000000E+00 0. -1.
         21    1    1    2  504  502 -0.10436127232E+02 -0.26060780952E+02 -0.34564683080E+02  0.44528579270E+02  0.00000000000E+00 0.  1.
</event>
<event>
 4    1  0.3372301E+006  0.2102880E+02  0.7546771E-02  0.1518854E+00
         21   -1    0    0  502  501  0.00000000000E+00  0.00000000000E+00  0.90581825306E+02  0.90581825306E+02  0.00000000000E+00 0. -1.
         21   -1    0    0  503  502 -0.00000000000E+00 -0.00000000000E+00 -0.13268733375E+02  0.13268733375E+02  0.00000000000E+00 0.  1.
         21    1    1    2  503  504  0.15530281440E+02 -0.14178177502E+02 -0.26257094534E+01  0.21192090719E+02  0.00000000000E+00 0.  1.
         21    1    1    2  504  501 -0.15530281440E+02  0.14178177502E+02  0.79938801385E+02  0.82658467961E+02  0.00000000000E+00 0. -1.
</event>
<event>
 4    1  0.3372301E+006  0.2090614E+02  0.7546771E-02  0.1520609E+00
         21   -1    0    0  504  501  0.00000000000E+00  0.00000000000E+00  0.12014627291E+02  0.12014627291E+02  0.00000000000E+00 0. -1.
         21   -1    0    0  503  502 -0.00000000000E+00 -0.00000000000E+00 -0.58051261903E+02  0.58051261903E+02  0.00000000000E+00 0.  1.
         21    1    1    2  503  501 -0.16686446274E+02 -0.12594804888E+02 -0.44424252705E+02  0.49097666216E+02  0.00000000000E+00 0.  1.
         21    1    1    2  504  502  0.16686446274E+02  0.12594804888E+02 -0.16123819070E+01  0.20968222978E+02  0.00000000000E+00 0. -1.
</event>
<event>
 4    1  0.3372301E+006  0.2169840E+02  0.7546771E-02  0.1509523E+00
         21   -1    0    0  504  501  0.00000000000E+00  0.00000000000E+00  0.25408649009E+01  0.25408649009E+01  0.00000000000E+00 0.  1.
         21   -1    0    0  501  502 -0.00000000000E+00 -0.00000000000E+00 -0.23861648271E+03  0.23861648271E+03  0.00000000000E+00 0.  1.
         21    1    1    2  503  502 -0.13627517549E+02  0.16885245553E+02 -0.17503500030E+03  0.17637480569E+03  0.00000000000E+00 0.  1.
         21    1    1    2  504  503  0.13627517549E+02 -0.16885245553E+02 -0.61040617511E+02  0.64782541923E+02  0.00000000000E+00 0.  1.
</event>
<event>
 4    1  0.3372301E+006  0.3062477E+02  0.7546771E-02  0.1414243E+00
         21   -1    0    0  504  501  0.00000000000E+00  0.00000000000E+00  0.14335773185E+03  0.14335773185E+03  0.00000000000E+00 0.  1.
         21   -1    0    0  503  502 -0.00000000000E+00 -0.00000000000E+00 -0.16044786545E+03  0.16044786545E+03  0.00000000000E+00 0.  1.
         21    1    1    2  503  501 -0.22884785606E+02  0.20351003221E+02  0.14022860762E+03  0.14353375609E+03  0.00000000000E+00 0.  1.
         21    1    1    2  504  502  0.22884785606E+02 -0.20351003221E+02 -0.15731874122E+03  0.16027184120E+03  0.00000000000E+00 0.  1.
</event>
<event>
 4    1  0.3372301E+006  0.2989756E+02  0.7546771E-02  0.1420489E+00
         21   -1    0    0  504  501  0.00000000000E+00  0.00000000000E+00  0.38651897621E+01  0.38651897621E+01  0.00000000000E+00 0. -1.
         21   -1    0    0  503  502 -0.00000000000E+00 -0.00000000000E+00 -0.55818135143E+03  0.55818135143E+03  0.00000000000E+00 0.  1.
         21    1    1    2  503  501 -0.29367947094E+02  0.56024903602E+01 -0.49222627634E+03  0.49313342144E+03  0.00000000000E+00 0.  1.
         21    1    1    2  504  502  0.29367947094E+02 -0.56024903602E+01 -0.62089885321E+02  0.68913119752E+02  0.00000000000E+00 0. -1.
</event>
<event>
 4    1  0.3372301E+006  0.2369989E+02  0.7546771E-02  0.1483892E+00
         21   -1    0    0  504  501  0.00000000000E+00  0.00000000000E+00  0.52560374281E+03  0.52560374281E+03  0.00000000000E+00 0. -1.
         21   -1    0    0  503  502 -0.00000000000E+00 -0.00000000000E+00 -0.21848664395E+02  0.21848664395E+02  0.00000000000E+00 0.  1.
         21    1    1    2  503  501 -0.21815966329E+02  0.92600322984E+01 -0.15070592748E+02  0.28085714355E+02  0.00000000000E+00 0.  1.
         21    1    1    2  504  502  0.21815966329E+02 -0.92600322984E+01  0.51882567117E+03  0.51936669285E+03  0.00000000000E+00 0. -1.
</event>
<event>
 4    1  0.3372301E+006  0.2192244E+02  0.7546771E-02  0.1506491E+00
         21   -1    0    0  504  501  0.00000000000E+00  0.00000000000E+00  0.36334607589E+01  0.36334607589E+01  0.00000000000E+00 0. -1.
         21   -1    0    0  503  502 -0.00000000000E+00 -0.00000000000E+00 -0.14903744023E+03  0.14903744023E+03  0.00000000000E+00 0. -1.
         21    1    1    2  503  501  0.12850605647E+02 -0.17761065271E+02 -0.98307148153E+02  0.10072183916E+03  0.00000000000E+00 0. -1.
         21    1    1    2  504  502 -0.12850605647E+02  0.17761065271E+02 -0.47096831314E+02  0.51949061829E+02  0.00000000000E+00 0. -1.
</event>
<event>
 4    1  0.3372301E+006  0.2208141E+02  0.7546771E-02  0.1504367E+00
         21   -1    0    0  503  501  0.00000000000E+00  0.00000000000E+00  0.43263053971E+01  0.43263053971E+01  0.00000000000E+00 0.  1.
         21   -1    0    0  504  502 -0.00000000000E+00 -0.00000000000E+00 -0.44011474011E+03  0.44011474011E+03  0.00000000000E+00 0.  1.
         21    1    1    2  503  502  0.14522216879E+02 -0.16634120994E+02 -0.26226860889E+02  0.34284646657E+02  0.00000000000E+00 0.  1.
         21    1    1    2  504  501 -0.14522216879E+02  0.16634120994E+02 -0.40956157383E+03  0.41015639885E+03  0.00000000000E+00 0.  1.
</event>
<event>
 4    1  0.3372301E+006  0.2012046E+02  0.7546771E-02  0.1532202E+00
         21   -1    0    0  503  501  0.00000000000E+00  0.00000000000E+00  0.10046386520E+03  0.10046386520E+03  0.00000000000E+00 0. -1.
         21   -1    0    0  504  502 -0.00000000000E+00 -0.00000000000E+00 -0.77480216397E+01  0.77480216397E+01  0.00000000000E+00 0. -1.
         21    1    1    2  503  502  0.18655037310E+02  0.75380796410E+01  0.88755875840E+01  0.21991114494E+02  0.00000000000E+00 0. -1.
         21    1    1    2  504  501 -0.18655037310E+02 -0.75380796410E+01  0.83840255976E+02  0.86220772345E+02  0.00000000000E+00 0. -1.
</event>
<event>
 4    1  0.3372301E+006  0.2091076E+02  0.7546771E-02  0.1520543E+00
         21   -1    0    0  504  501  0.00000000000E+00  0.00000000000E+00  0.60802024038E+02  0.60802024038E+02  0.00000000000E+00 0. -1.
         21   -1    0    0  501  502 -0.00000000000E+00 -0.00000000000E+00 -0.26355608962E+02  0.26355608962E+02  0.00000000000E+00 0.  1.
         21    1    1    2  503  502 -0.20599282050E+02  0.35957442302E+01 -0.19937402874E+02  0.28892210558E+02  0.00000000000E+00 0.  1.
         21    1    1    2  504  503  0.20599282050E+02 -0.35957442302E+01  0.54383817950E+02  0.58265422443E+02  0.00000000000E+00 0. -1.
</event>
<event>
 4    1  0.3372301E+006  0.2439515E+02  0.7546771E-02  0.1475685E+00
         21   -1    0    0  503  501  0.00000000000E+00  0.00000000000E+00  0.81623908876E+01  0.81623908876E+01  0.00000000000E+00 0. -1.
         21   -1    0    0  501  502 -0.00000000000E+00 -0.00000000000E+00 -0.14612933020E+04  0.14612933020E+04  0.00000000000E+00 0.  1.
         21    1    1    2  503  504  0.18655411490E+02  0.15719384360E+02 -0.10401553130E+02  0.26520100490E+02  0.00000000000E+00 0. -1.
         21    1    1    2  504  502 -0.18655411490E+02 -0.15719384360E+02 -0.14427293580E+04  0.14429355924E+04  0.00000000000E+00 0.  1.
</event>
<event>
 4    1  0.3372301E+006  0.3663093E+02  0.7546771E-02  0.1369446E+00
         21   -1    0    0  504  501  0.00000000000E+00  0.00000000000E+00  0.13203076487E+02  0.13203076487E+02  0.00000000000E+00 0. -1.
         21   -1    0    0  503  502 -0.00000000000E+00 -0.00000000000E+00 -0.10922816133E+03  0.10922816133E+03  0.00000000000E+00 0.  1.
         21    1    1    2  503  501 -0.36170567269E+02 -0.57892201910E+01 -0.64158250746E+02  0.73878996649E+02  0.00000000000E+00 0.  1.
         21    1    1    2  504  502  0.36170567269E+02  0.57892201910E+01 -0.31866834096E+02  0.48552241167E+02  0.00000000000E+00 0. -1.
</event>
<event>
 4    1  0.3372301E+006  0.2620880E+02  0.7546771E-02  0.1455722E+00
         21   -1    0    0  502  501  0.00000000000E+00  0.00000000000E+00  0.47269819386E+01  0.47269819386E+01  0.00000000000E+00 0.  1.
         21   -1    0    0  504  502 -0.00000000000E+00 -0.00000000000E+00 -0.22260239283E+03  0.22260239283E+03  0.00000000000E+00 0. -1.
         21    1    1    2  503  501  0.72821089206E+01 -0.25176817652E+02 -0.41962346572E+02  0.49474637818E+02  0.00000000000E+00 0.  1.
         21    1    1    2  504  503 -0.72821089206E+01  0.25176817652E+02 -0.17591306432E+03  0.17785473695E+03  0.00000000000E+00 0. -1.
</event>
<event>
 4    1  0.3372301E+006  0.2233861E+02  0.7546771E-02  0.1500975E+00
         21   -1    0    0  503  501  0.00000000000E+00  0.00000000000E+00  0.99860812932E+01  0.99860812932E+01  0.00000000000E+00 0.  1.
         21   -1    0    0  504  502 -0.00000000000E+00 -0.00000000000E+00 -0.10155445794E+03  0.10155445794E+03  0.00000000000E+00 0.  1.
         21    1    1    2  503  502  0.84918201740E+01  0.20661615871E+02 -0.85531607288E+02  0.88400617789E+02  0.00000000000E+00 0.  1.
         21    1    1    2  504  501 -0.84918201740E+01 -0.20661615871E+02 -0.60367693624E+01  0.23139921447E+02  0.00000000000E+00 0.  1.
</event>
<event>
 4    1  0.3372301E+006  0.2189901E+02  0.7546771E-02  0.1506806E+00
         21   -1    0    0  503  501  0.00000000000E+00  0.00000000000E+00  0.28423986691E+03  0.28423986691E+03  0.00000000000E+00 0.  1.
         21   -1    0    0  501  502 -0.00000000000E+00 -0.00000000000E+00 -0.14694437765E+02  0.14694437765E+02  0.00000000000E+00 0.  1.
         21    1    1    2  503  504 -0.15197859710E+02 -0.15766797687E+02  0.27539753110E+03  0.27626684019E+03  0.00000000000E+00 0.  1.
         21    1    1    2  504  502  0.15197859710E+02  0.15766797687E+02 -0.58521019575E+01  0.22667464490E+02  0.00000000000E+00 0.  1.
</event>
<event>
 4    1  0.3372301E+006  0.5007655E+02  0.7546771E-02  0.1297841E+00
         21   -1    0    0  503  501  0.00000000000E+00  0.00000000000E+00  0.12973423737E+03  0.12973423737E+03  0.00000000000E+00 0.  1.
         21   -1    0    0  504  502 -0.00000000000E+00 -0.00000000000E+00 -0.19367911743E+02  0.19367911743E+02  0.00000000000E+00 0.  1.
         21    1    1    2  503  502  0.27156881234E+02  0.42073321669E+02  0.51850696089E+02  0.72084362240E+02  0.00000000000E+00 0.  1.
         21    1    1    2  504  501 -0.27156881234E+02 -0.42073321669E+02  0.58515629540E+02  0.77017786875E+02  0.00000000000E+00 0.  1.
</event>
<event>
 4    1  0.3372301E+006  0.2976588E+02  0.7546771E-02  0.1421642E+00
         21   -1    0    0  502  501  0.00000000000E+00  0.00000000000E+00  0.19292112112E+02  0.19292112112E+02  0.00000000000E+00 0. -1.
         21   -1    0    0  503  502 -0.00000000000E+00 -0.00000000000E+00 -0.73171639107E+02  0.73171639107E+02  0.00000000000E+00 0.  1.
         21    1    1    2  503  504  0.26872810121E+02 -0.12800758205E+02 -0.55150831804E+02  0.62670739449E+02  0.00000000000E+00 0.  1.
         21    1    1    2  504  501 -0.26872810121E+02  0.12800758205E+02  0.12713048094E+01  0.29793011770E+02  0.00000000000E+00 0. -1.
</event>
<event>
 4    1  0.3372301E+006  0.5061843E+02  0.7546771E-02  0.1295513E+00
         21   -1    0    0  504  501  0.00000000000E+00  0.00000000000E+00  0.39616520198E+03  0.39616520198E+03  0.00000000000E+00 0.  1.
         21   -1    0    0  503  502 -0.00000000000E+00 -0.00000000000E+00 -0.67282028871E+01  0.67282028871E+01  0.00000000000E+00 0.  1.
         21    1    1    2  503  501  0.26259242668E+02  0.43274446965E+02  0.23436697301E+03  0.23977093990E+03  0.00000000000E+00 0.  1.
         21    1    1    2  504  502 -0.26259242668E+02 -0.43274446965E+02  0.15507002609E+03  0.16312246497E+03  0.00000000000E+00 0.  1.
</event>
<event>
 4    1  0.3372301E+006  0.2072819E+02  0.7546771E-02  0.1523181E+00
         21   -1    0    0  503  501  0.00000000000E+00  0.00000000000E+00  0.39849714366E+02  0.39849714366E+02  0.00000000000E+00 0.  1.
         21   -1    0    0  504  502 -0.00000000000E+00 -0.00000000000E+00 -0.24194245376E+02  0.24194245376E+02  0.00000000000E+00 0. -1.
         21    1    1    2  503  502  0.89823663078E+01 -0.18680873157E+02 -0.16014314331E+02  0.26193819689E+02  0.00000000000E+00 0. -1.
         21    1    1    2  504  501 -0.89823663078E+01  0.18680873157E+02  0.31669783322E+02  0.37850140053E+02  0.00000000000E+00 0.  1.
</event>
<event>
 4    1  0.3372301E+006  0.2193877E+02  0.7546771E-02  0.1506272E+00
         21   -1    0    0  504  501  0.00000000000E+00  0.00000000000E+00  0.37717325220E+02  0.37717325220E+02  0.00000000000E+00 0.  1.
         21   -1    0    0  501  502 -0.00000000000E+00 -0.00000000000E+00 -0.14070605880E+03  0.14070605880E+03  0.00000000000E+00 0. -1.
         21    1    1    2  503  502 -0.13380041233E+02  0.17386314424E+02 -0.13656451652E+03  0.13831549662E+03  0.00000000000E+00 0. -1.
         21    1    1    2  504  503  0.13380041233E+02 -0.17386314424E+02  0.33575782933E+02  0.40107887407E+02  0.00000000000E+00 0.  1.
</event>
<event>
 4    1  0.3372301E+006  0.2704077E+02  0.7546771E-02  0.1447199E+00
         21   -1    0    0  503  501  0.00000000000E+00  0.00000000000E+00  0.19037473393E+03  0.19037473393E+03  0.00000000000E+00 0.  1.
         21   -1    0    0  501  502 -0.00000000000E+00 -0.00000000000E+00 -0.40348427411E+01  0.40348427411E+01  0.00000000000E+00 0. -1.
         21    1    1    2  503  504 -0.48747203957E+01  0.26597750801E+02  0.71856547954E+02  0.76776081761E+02  0.00000000000E+00 0.  1.
         21    1    1    2  504  502  0.48747203957E+01 -0.26597750801E+02  0.11448334323E+03  0.11763349491E+03  0.00000000000E+00 0. -1.
</event>
<event>
 4    1  0.3372301E+006  0.2481085E+02  0.7546771E-02  0.1470931E+00
         21   -1    0    0  502  501  0.00000000000E+00  0.00000000000E+00  0.19216858053E+01  0.19216858053E+01  0.00000000000E+00 0. -1.
         21   -1    0    0  504  502 -0.00000000000E+00 -0.00000000000E+00 -0.45422981977E+03  0.45422981977E+03  0.00000000000E+00 0. -1.
         21    1    1    2  503  501  0.24599891306E+02  0.32285592729E+01 -0.10232363663E+03  0.10528867395E+03  0.00000000000E+00 0. -1.
         21    1    1    2  504  503 -0.24599891306E+02 -0.32285592729E+01 -0.34998449733E+03  0.35086283163E+03  0.00000000000E+00 0. -1.
</event>
<event>
 4    1  0.3372301E+006  0.2649264E+02  0.7546771E-02  0.1452772E+00
         21   -1    0    0  503  501  0.00000000000E+00  0.00000000000E+00  0.31646528603E+02  0.31646528603E+02  0.00000000000E+00 0. -1.
         21   -1    0    0  504  502 -0.00000000000E+00 -0.00000000000E+00 -0.56779002658E+02  0.56779002658E+02  0.00000000000E+00 0. -1.
         21    1    1    2  503  502 -0.17838471544E+01  0.26432513198E+02  0.21947939720E+02  0.34403080132E+02  0.00000000000E+00 0. -1.
         21    1    1    2  504  501  0.17838471544E+01 -0.26432513198E+02 -0.47080413776E+02  0.54022451128E+02  0.00000000000E+00 0. -1.
</event>
<event>
 4    1  0.3372301E+006  0.3395324E+02  0.7546771E-02  0.1388075E+00
         21   -1    0    0  502  501  0.00000000000E+00  0.00000000000E+00  0.32531353138E+02  0.32531353138E+02  0.00000000000E+00 0. -1.
         21   -1    0    0  504  502 -0.00000000000E+00 -0.00000000000E+00 -0.51793239384E+02  0.51793239384E+02  0.00000000000E+00 0. -1.
         21    1    1    2  503  501  0.32499852423E+02  0.98276149179E+01  0.14062372019E+02  0.36750139174E+02  0.00000000000E+00 0. -1.
         21    1    1    2  504  503 -0.32499852423E+02 -0.98276149179E+01 -0.33324258265E+02  0.47574453348E+02  0.00000000000E+00 0. -1.
</event>
<event>
 4    1  0.3372301E+006  0.3253178E+02  0.7546771E-02  0.1398799E+00
         21   -1    0    0  502  501  0.00000000000E+00  0.00000000000E+00  0.32180342839E+03  0.32180342839E+03  0.00000000000E+00 0. -1.
         21   -1    0    0  503  502 -0.00000000000E+00 -0.00000000000E+00 -0.25538099653E+02  0.25538099653E+02  0.00000000000E+00 0. -1.
         21    1    1    2  503  504  0.17243586318E+02  0.27585788940E+02 -0.13970507027E+02  0.35404690185E+02  0.00000000000E+00 0. -1.
         21    1    1    2  504  501 -0.17243586318E+02 -0.27585788940E+02  0.31023583577E+03  0.31193683786E+03  0.00000000000E+00 0. -1.
</event>
<event>
 4    1  0.3372301E+006  0.2113703E+02  0.7546771E-02  0.1517317E+00
         21   -1    0    0  503  501  0.00000000000E+00  0.00000000000E+00  0.28926304237E+03  0.28926304237E+03  0.00000000000E+00 0.  1.
         21   -1    0    0  504  502 -0.00000000000E+00 -0.00000000000E+00 -0.15474795141E+01  0.15474795141E+01  0.00000000000E+00 0.  1.
         21    1    1    2  503  502  0.18304294927E+02  0.10570091184E+02  0.15021109896E+03  0.15169096312E+03  0.00000000000E+00 0.  1.
         21    1    1    2  504  501 -0.18304294927E+02 -0.10570091184E+02  0.13750446390E+03  0.13911955877E+03  0.00000000000E+00 0.  1.
</event>
<event>
 4    1  0.3372301E+006  0.3012019E+02  0.7546771E-02  0.1418555E+00
         21   -1    0    0  504  501  0.00000000000E+00  0.00000000000E+00  0.12223168557E+03  0.12223168557E+03  0.00000000000E+00 0.  1.
         21   -1    0    0  501  502 -0.00000000000E+00 -0.00000000000E+00 -0.39848287049E+03  0.39848287049E+03  0.00000000000E+00 0. -1.
         21    1    1    2  503  502  0.24820743685E+02  0.17063306140E+02 -0.39604675313E+03  0.39719045356E+03  0.00000000000E+00 0. -1.
         21    1    1    2  504  503 -0.24820743685E+02 -0.17063306140E+02  0.11979556821E+03  0.12352410249E+03  0.00000000000E+00 0.  1.
</event>
<event>
 4    1  0.3372301E+006  0.2311163E+02  0.7546771E-02  0.1491101E+00
         21   -1    0    0  503  501  0.00000000000E+00  0.00000000000E+00  0.28959137459E+03  0.28959137459E+03  0.00000000000E+00 0. -1.
         21   -1    0    0  504  502 -0.00000000000E+00 -0.00000000000E+00 -0.14199229033E+02  0.14199229033E+02  0.00000000000E+00 0. -1.
         21    1    1    2  503  502  0.23012775372E+02 -0.21353170668E+01 -0.39905363832E+01  0.23453609316E+02  0.00000000000E+00 0. -1.
         21    1    1    2  504  501 -0.23012775372E+02  0.21353170668E+01  0.27938268194E+03  0.28033699431E+03  0.00000000000E+00 0. -1.
</event>
<event>
 4    1  0.3372301E+006  0.5575944E+02  0.7546771E-02  0.1274964E+00
         21   -1    0    0  503  501  0.00000000000E+00  0.00000000000E+00  0.21912429118E+03  0.21912429118E+03  0.00000000000E+00 0. -1.
         21   -1    0    0  504  502 -0.00000000000E+00 -0.00000000000E+00 -0.14188856050E+02  0.14188856050E+02  0.00000000000E+00 0. -1.
         21    1    1    2  503  502  0.54670705547E+02 -0.10964886321E+02  0.10265771785E+03  0.11682346430E+03  0.00000000000E+00 0. -1.
         21    1    1    2  504  501 -0.54670705547E+02  0.10964886321E+02  0.10227771728E+03  0.11648968293E+03  0.00000000000E+00 0. -1.
</event>
<event>
 4    1  0.3372301E+006  0.2470930E+02  0.7546771E-02  0.1472082E+00
         21   -1    0    0  504  501  0.00000000000E+00  0.00000000000E+00  0.78089755131E+03  0.78089755131E+03  0.00000000000E+00 0. -1.
         21   -1    0    0  501  502 -0.00000000000E+00 -0.00000000000E+00 -0.49759788417E+02  0.49759788417E+02  0.00000000000E+00 0. -1.
         21    1    1    2  503  502 -0.17924173868E+02 -0.17008046777E+02 -0.46483920052E+02  0.52643180825E+02  0.00000000000E+00 0. -1.
         21    1    1    2  504  503  0.17924173868E+02  0.17008046777E+02  0.77762168295E+03  0.77801415890E+03  0.00000000000E+00 0. -1.
</event>
<event>
 4    1  0.3372301E+006  0.2112537E+02  0.7546771E-02  0.1517482E+00
         21   -1    0    0  504  501  0.00000000000E+00  0.00000000000E+00  0.47153419219E+03  0.47153419219E+03  0.00000000000E+00 0. -1.
         21   -1    0    0  501  502 -0.00000000000E+00 -0.00000000000E+00 -0.43322515197E+01  0.43322515197E+01  0.00000000000E+00 0.  1.
         21    1    1    2  503  502 -0.53149616053E+01  0.20445846778E+02  0.23257379682E+02  0.31419534958E+02  0.00000000000E+00 0.  1.
         21    1    1    2  504  503  0.53149616053E+01 -0.20445846778E+02  0.44394456099E+03  0.44444690875E+03  0.00000000000E+00 0. -1.
</event>
<event>
 4    1  0.3372301E+006  0.2339726E+02  0.7546771E-02  0.1487569E+00
         21   -1    0    0  504  501  0.00000000000E+00  0.00000000000E+00  0.55226780877E+01  0.55226780877E+01  0.00000000000E+00 0. -1.
         21   -1    0    0  503  502 -0.00000000000E+00 -0.00000000000E+00 -0.30367232797E+03  0.30367232797E+03  0.00000000000E+00 0.  1.
         21    1    1    2  503  501 -0.17261046908E+01 -0.23333505674E+02 -0.22193574006E+02  0.32248824034E+02  0.00000000000E+00 0. -1.
         21    1    1    2  504  502  0.17261046908E+01  0.23333505674E+02 -0.27595607588E+03  0.27694618203E+03  0.00000000000E+00 0.  1.
</event>
<event>
 4    1  0.3372301E+006  0.2331213E+02  0.7546771E-02  0.1488615E+00
         21   -1    0    0  504  501  0.00000000000E+00  0.00000000000E+00  0.69927349698E+03  0.69927349698E+03  0.00000000000E+00 0. -1.
         21   -1    0    0  503  502 -0.00000000000E+00 -0.00000000000E+00 -0.19290858776E+03  0.19290858776E+03  0.00000000000E+00 0. -1.
         21    1    1    2  503  501  0.18110004934E+02 -0.14679350180E+02 -0.19200909636E+03  0.19341910114E+03  0.00000000000E+00 0. -1.
         21    1    1    2  504  502 -0.18110004934E+02  0.14679350180E+02  0.69837400557E+03  0.69876298360E+03  0.00000000000E+00 0. -1.
</event>
<event>
 4    1  0.3372301E+006  0.3166269E+02  0.7546771E-02  0.1405678E+00
         21   -1    0    0  502  501  0.00000000000E+00  0.00000000000E+00  0.82875779106E+01  0.82875779106E+01  0.00000000000E+00 0.  1.
         21   -1    0    0  504  502 -0.00000000000E+00 -0.00000000000E+00 -0.19547504324E+03  0.19547504324E+03  0.00000000000E+00 0.  1.
         21    1    1    2  503  501  0.28748182974E+02 -0.13269060843E+02 -0.30693892515E+02  0.44098084286E+02  0.00000000000E+00 0.  1.
         21    1    1    2  504  503 -0.28748182974E+02  0.13269060843E+02 -0.15649357282E+03  0.15966453687E+03  0.00000000000E+00 0.  1.
</event>
<event>
 4    1  0.3372301E+006  0.2004302E+02  0.7546771E-02  0.1533379E+00
         21   -1    0    0  504  501  0.00000000000E+00  0.00000000000E+00  0.21029919525E+03  0.21029919525E+03  0.00000000000E+00 0.  1.
         21   -1    0    0  503  502 -0.00000000000E+00 -0.00000000000E+00 -0.45698803924E+02  0.45698803924E+02  0.00000000000E+00 0. -1.
         21    1    1    2  503  501  0.15006964659E+02 -0.13285837982E+02 -0.42995022595E+02  0.47437268546E+02  0.00000000000E+00 0. -1.
         21    1    1    2  504  502 -0.15006964659E+02  0.13285837982E+02  0.20759541393E+03  0.20856073063E+03  0.00000000000E+00 0.  1.
</event>
<event>
 4    1  0.3372301E+006  0.3296571E+02  0.7546771E-02  0.1395458E+00
         21   -1    0    0  502  501  0.00000000000E+00  0.00000000000E+00  0.24876667912E+02  0.24876667912E+02  0.00000000000E+00 0.  1.
         21   -1    0    0  504  502 -0.00000000000E+00 -0.00000000000E+00 -0.47180783200E+02  0.47180783200E+02  0.00000000000E+00 0.  1.
         21    1    1    2  503  501  0.99828526574E+01  0.31417841589E+02 -0.13450531042E+01  0.32993139971E+02  0.00000000000E+00 0.  1.
         21    1    1    2  504  503 -0.99828526574E+01 -0.31417841589E+02 -0.20959062184E+02  0.39064311141E+02  0.00000000000E+00 0.  1.
</event>
<event>
 4    1  0.3372301E+006  0.2304665E+02  0.7546771E-02  0.1491913E+00
         21   -1    0    0  504  501  0.00000000000E+00  0.00000000000E+00  0.34406353578E+01  0.34406353578E+01  0.00000000000E+00 0.  1.
         21   -1    0    0  503  502 -0.00000000000E+00 -0.00000000000E+00 -0.20307214687E+03  0.20307214687E+03  0.00000000000E+00 0.  1.
         21    1    1    2  503  501  0.43432165698E+00 -0.23042559880E+02 -0.49251529283E+02  0.54377029506E+02  0.00000000000E+00 0.  1.
         21    1    1    2  504  502 -0.43432165698E+00  0.23042559880E+02 -0.15037998223E+03  0.15213575272E+03  0.00000000000E+00 0.  1.
</event>
<event>
 4    1  0.3372301E+006  0.2020674E+02  0.7546771E-02  0.1530898E+00
         21   -1    0    0  504  501  0.00000000000E+00  0.00000000000E+00  0.44234029953E+02  0.44234029953E+02  0.00000000000E+00 0.  1.
         21   -1    0    0  501  502 -0.00000000000E+00 -0.00000000000E+00 -0.13688599602E+02  0.13688599602E+02  0.00000000000E+00 0. -1.
         21    1    1    2  503  502 -0.16880634445E+01  0.20136111427E+02 -0.12545986709E+01  0.20245655322E+02  0.00000000000E+00 0. -1.
         21    1    1    2  504  503  0.16880634445E+01 -0.20136111427E+02  0.31800029021E+02  0.37676974233E+02  0.00000000000E+00 0.  1.
</event>
<event>
 4    1  0.3372301E+006  0.2244042E+02  0.7546771E-02  0.1499647E+00
         21   -1    0    0  503  501  0.00000000000E+00  0.00000000000E+00  0.23305277506E+03  0.23305277506E+03  0.00000000000E+00 0.  1.
         21   -1    0    0  504  502 -0.00000000000E+00 -0.00000000000E+00 -0.30411731730E+01  0.30411731730E+01  0.00000000000E+00 0.  1.
         21    1    1    2  503  502 -0.22360328414E+02  0.18942987895E+01  0.17852074496E+03  0.17992562084E+03  0.00000000000E+00 0.  1.
         21    1    1    2  504  501  0.22360328414E+02 -0.18942987895E+01  0.51490856924E+02  0.56168327387E+02  0.00000000000E+00 0.  1.
</event>
<event>
 4    1  0.3372301E+006  0.3034451E+02  0.7546771E-02  0.1416626E+00
         21   -1    0    0  502  501  0.00000000000E+00  0.00000000000E+00  0.16128286274E+02  0.16128286274E+02  0.00000000000E+00 0.  1.
         21   -1    0    0  504  502 -0.00000000000E+00 -0.00000000000E+00 -0.35065567459E+03  0.35065567459E+03  0.00000000000E+00 0. -1.
         21    1    1    2  503  501  0.18807552931E+02 -0.23813132668E+02  0.53608060292E+00  0.30349245742E+02  0.00000000000E+00 0.  1.
         21    1    1    2  504  503 -0.18807552931E+02  0.23813132668E+02 -0.33506346892E+03  0.33643471512E+03  0.00000000000E+00 0. -1.
</event>
<event>
 4    1  0.3372301E+006  0.4948679E+02  0.7546771E-02  0.1300413E+00
         21   -1    0    0  503  501  0.00000000000E+00  0.00000000000E+00  0.35813626512E+03  0.35813626512E+03  0.00000000000E+00 0. -1.
         21   -1    0    0  501  502 -0.00000000000E+00 -0.00000000000E+00 -0.16599151951E+02  0.16599151951E+02  0.00000000000E+00 0. -1.
         21    1    1    2  503  504 -0.27919040546E+02  0.40859144059E+02  0.31445040815E+03  0.31832059573E+03  0.00000000000E+00 0. -1.
         21    1    1    2  504  502  0.27919040546E+02 -0.40859144059E+02  0.27086705015E+02  0.56414821340E+02  0.00000000000E+00 0. -1.
</event>
<event>
 4    1  0.3372301E+006  0.3673939E+02  0.7546771E-02  0.1368730E+00
         21   -1    0    0  503  501  0.00000000000E+00  0.00000000000E+00  0.19798531229E+03  0.19798531229E+03  0.00000000000E+00 0. -1.
         21   -1    0    0  504  502 -0.00000000000E+00 -0.00000000000E+00 -0.10159135162E+02  0.10159135162E+02  0.00000000000E+00 0. -1.
         21    1    1    2  503  502  0.11348912212E+01 -0.36721852368E+02  0.34226024099E+02  0.50211583773E+02  0.00000000000E+00 0. -1.
         21    1    1    2  504  501 -0.11348912212E+01  0.36721852368E+02  0.15360015303E+03  0.15793286368E+03  0.00000000000E+00 0. -1.
</event>
<event>
 4    1  0.3372301E+006  0.2686507E+02  0.7546771E-02  0.1448968E+00
         21   -1    0    0  502  501  0.00000000000E+00  0.00000000000E+00  0.10201616734E+04  0.10201616734E+04  0.00000000000E+00 0. -1.
         21   -1    0    0  503  502 -0.00000000000E+00 -0.00000000000E+00 -0.91011423592E+00  0.91011423592E+00  0.00000000000E+00 0.  1.
         21    1    1    2  503  504  0.13235788269E+02  0.23378322650E+02  0.26871997776E+03  0.27005954623E+03  0.00000000000E+00 0.  1.
         21    1    1    2  504  501 -0.13235788269E+02 -0.23378322650E+02  0.75053158141E+03  0.75101224141E+03  0.00000000000E+00 0. -1.
</event>
<event>
 4    1  0.3372301E+006  0.2651316E+02  0.7546771E-02  0.1452561E+00
         21   -1    0    0  503  501  0.00000000000E+00  0.00000000000E+00  0.25936542500E+02  0.25936542500E+02  0.00000000000E+00 0.  1.
         21   -1    0    0  504  502 -0.00000000000E+00 -0.00000000000E+00 -0.10369337765E+03  0.10369337765E+03  0.00000000000E+00 0.  1.
         21    1    1    2  503  502  0.20603767226E+02  0.16686291723E+02  0.16825790784E+02  0.31401509373E+02  0.00000000000E+00 0.  1.
         21    1    1    2  504  501 -0.20603767226E+02 -0.16686291723E+02 -0.94582625932E+02  0.98228410776E+02  0.00000000000E+00 0.  1.
</event>
<event>
 4    1  0.3372301E+006  0.2149873E+02  0.7546771E-02  0.1512262E+00
         21   -1    0    0  503  501  0.00000000000E+00  0.00000000000E+00  0.44993398161E+02  0.44993398161E+02  0.00000000000E+00 0.  1.
         21   -1    0    0  504  502 -0.00000000000E+00 -0.00000000000E+00 -0.10245800405E+03  0.10245800405E+03  0.00000000000E+00 0. -1.
         21    1    1    2  503  502 -0.33963349305E+01  0.21228761186E+02  0.41199905881E+02  0.46471793995E+02  0.00000000000E+00 0.  1.
         21    1    1    2  504  501  0.33963349305E+01 -0.21228761186E+02 -0.98664511773E+02  0.10097960822E+03  0.00000000000E+00 0. -1.
</event>
<event>
 4    1  0.3372301E+006  0.2508600E+02  0.7546771E-02  0.1467844E+00
         21   -1    0    0  503  501  0.00000000000E+00  0.00000000000E+00  0.12034094120E+03  0.12034094120E+03  0.00000000000E+00 0. -1.
         21   -1    0    0  501  502 -0.00000000000E+00 -0.00000000000E+00 -0.52294006695E+01  0.52294006695E+01  0.00000000000E+00 0. -1.
         21    1    1    2  503  504  0.23502776334E+02  0.87707868244E+01  0.57401456025E+02  0.62643709586E+02  0.00000000000E+00 0. -1.
         21    1    1    2  504  502 -0.23502776334E+02 -0.87707868244E+01  0.57710084506E+02  0.62926632284E+02  0.00000000000E+00 0. -1.
</event>
