<event>
 4    1  0.2825993E+006  0.2857334E+02  0.7546771E-02  0.1432413E+00
         21   -1    0    0  503  501  0.00000000000E+00  0.00000000000E+00  0.12318733569E+02  0.12318733569E+02  0.00000000000E+00 0. -1.
         21   -1    0    0  504  502 -0.00000000000E+00 -0.00000000000E+00 -0.87097266520E+02  0.87097266520E+02  0.00000000000E+00 0. -1.
         21    1    1    2  503  502 -0.73643105033E+01  0.27608017198E+02 -0.13085241967E+02  0.31427046316E+02  0.00000000000E+00 0. -1.
         21    1    1    2  504  501  0.73643105033E+01 -0.27608017198E+02 -0.61693290984E+02  0.67988953774E+02  0.00000000000E+00 0. -1.
</event>
<event>
 4    1  0.2825993E+006  0.2023448E+02  0.7546771E-02  0.1530481E+00
         21   -1    0    0  503  501  0.00000000000E+00  0.00000000000E+00  0.90444768003E+02  0.90444768003E+02  0.00000000000E+00 0. -1.
         21   -1    0    0  504  502 -0.00000000000E+00 -0.00000000000E+00 -0.89228934354E+01  0.89228934354E+01  0.00000000000E+00 0. -1.
         21    1    1    2  503  502  0.16895514086E+02  0.11134444036E+02  0.75634059851E+02  0.78293966879E+02  0.00000000000E+00 0. -1.
         21    1    1    2  504  501 -0.16895514086E+02 -0.11134444036E+02  0.58878147164E+01  0.21073694558E+02  0.00000000000E+00 0. -1.
</event>
<event>
 4    1  0.2825993E+006  0.2004160E+02  0.7546771E-02  0.1533401E+00
         21   -1    0    0  503  501  0.00000000000E+00  0.00000000000E+00  0.83275422973E+01  0.83275422973E+01  0.00000000000E+00 0. -1.
         21   -1    0    0  504  502 -0.00000000000E+00 -0.00000000000E+00 -0.67134001037E+02  0.67134001037E+02  0.00000000000E+00 0.  1.
         21    1    1    2  503  502  0.18692200343E+02 -0.72296077517E+01 -0.49423150531E+02  0.53332104686E+02  0.00000000000E+00 0.  1.
         21    1    1    2  504  501 -0.18692200343E+02  0.72296077517E+01 -0.93833082086E+01  0.22129438647E+02  0.00000000000E+00 0. -1.
</event>
<event>
 4    1  0.2825993E+006  0.3990594E+02  0.7546771E-02  0.1349038E+00
         21   -1    0    0  503  501  0.00000000000E+00  0.00000000000E+00  0.22335674430E+02  0.22335674430E+02  0.00000000000E+00 0. -1.
         21   -1    0    0  504  502 -0.00000000000E+00 -0.00000000000E+00 -0.14956093585E+03  0.14956093585E+03  0.00000000000E+00 0. -1.
         21    1    1    2  503  502  0.39062769808E+02  0.81599293656E+01 -0.14389104767E+01  0.39931878189E+02  0.00000000000E+00 0. -1.
         21    1    1    2  504  501 -0.39062769808E+02 -0.81599293656E+01 -0.12578635095E+03  0.13196473210E+03  0.00000000000E+00 0. -1.
</event>
<event>
 4    1  0.2825993E+006  0.2069601E+02  0.7546771E-02  0.1523650E+00
         21   -1    0    0  503  501  0.00000000000E+00  0.00000000000E+00  0.21465017606E+02  0.21465017606E+02  0.00000000000E+00 0.  1.
         21   -1    0    0  504  502 -0.00000000000E+00 -0.00000000000E+00 -0.11130349138E+03  0.11130349138E+03  0.00000000000E+00 0. -1.
         21    1    1    2  503  502 -0.12114340435E+02 -0.16779971375E+02 -0.10505910305E+03  0.10707819488E+03  0.00000000000E+00 0. -1.
         21    1    1    2  504  501  0.12114340435E+02  0.16779971375E+02  0.15220629278E+02  0.25690314112E+02  0.00000000000E+00 0.  1.
</event>
<event>
 4    1  0.2825993E+006  0.8359006E+02  0.7546771E-02  0.1195750E+00
         21   -1    0    0  503  501  0.00000000000E+00  0.00000000000E+00  0.36581256571E+02  0.36581256571E+02  0.00000000000E+00 0.  1.
         21   -1    0    0  504  502 -0.00000000000E+00 -0.00000000000E+00 -0.32914433276E+03  0.32914433276E+03  0.00000000000E+00 0. -1.
         21    1    1    2  503  502  0.12234181046E+02  0.82689920706E+02 -0.27817441921E+02  0.88097152322E+02  0.00000000000E+00 0.  1.
         21    1    1    2  504  501 -0.12234181046E+02 -0.82689920706E+02 -0.26474563427E+03  0.27762843701E+03  0.00000000000E+00 0. -1.
</event>
<event>
 4    1  0.2825993E+006  0.2215814E+02  0.7546771E-02  0.1503349E+00
         21   -1    0    0  503  501  0.00000000000E+00  0.00000000000E+00  0.10565868070E+03  0.10565868070E+03  0.00000000000E+00 0. -1.
         21   -1    0    0  504  502 -0.00000000000E+00 -0.00000000000E+00 -0.26979622352E+02  0.26979622352E+02  0.00000000000E+00 0. -1.
         21    1    1    2  503  502 -0.20810117725E+02  0.76106673964E+01 -0.20998629328E+02  0.30527457995E+02  0.00000000000E+00 0. -1.
         21    1    1    2  504  501  0.20810117725E+02 -0.76106673964E+01  0.99677687678E+02  0.10211084506E+03  0.00000000000E+00 0. -1.
</event>
<event>
 4    1  0.2825993E+006  0.2129316E+02  0.7546771E-02  0.1515120E+00
         21   -1    0    0  502  501  0.00000000000E+00  0.00000000000E+00  0.78810077573E+02  0.78810077573E+02  0.00000000000E+00 0.  1.
         21   -1    0    0  504  502 -0.00000000000E+00 -0.00000000000E+00 -0.73769812010E+03  0.73769812010E+03  0.00000000000E+00 0. -1.
         21    1    1    2  503  501  0.18125767523E+02  0.11173864480E+02  0.77215044809E+02  0.80097202452E+02  0.00000000000E+00 0.  1.
         21    1    1    2  504  503 -0.18125767523E+02 -0.11173864480E+02 -0.73610308734E+03  0.73641099522E+03  0.00000000000E+00 0. -1.
</event>
<event>
 4    1  0.2825993E+006  0.2081780E+02  0.7546771E-02  0.1521882E+00
         21   -1    0    0  504  501  0.00000000000E+00  0.00000000000E+00  0.30121613598E+03  0.30121613598E+03  0.00000000000E+00 0. -1.
         21   -1    0    0  501  502 -0.00000000000E+00 -0.00000000000E+00 -0.39068827435E+02  0.39068827435E+02  0.00000000000E+00 0. -1.
         21    1    1    2  503  502  0.20682951646E+02 -0.23656523559E+01 -0.35906560030E+02  0.41504961788E+02  0.00000000000E+00 0. -1.
         21    1    1    2  504  503 -0.20682951646E+02  0.23656523559E+01  0.29805386858E+03  0.29878000163E+03  0.00000000000E+00 0. -1.
</event>
<event>
 4    1  0.2825993E+006  0.2030847E+02  0.7546771E-02  0.1529371E+00
         21   -1    0    0  503  501  0.00000000000E+00  0.00000000000E+00  0.67619519601E+02  0.67619519601E+02  0.00000000000E+00 0. -1.
         21   -1    0    0  504  502 -0.00000000000E+00 -0.00000000000E+00 -0.85542570232E+01  0.85542570232E+01  0.00000000000E+00 0. -1.
         21    1    1    2  503  502 -0.19830683214E+02  0.43792579430E+01  0.49936074564E+02  0.53907749348E+02  0.00000000000E+00 0. -1.
         21    1    1    2  504  501  0.19830683214E+02 -0.43792579430E+01  0.91291880139E+01  0.22266027276E+02  0.00000000000E+00 0. -1.
</event>
<event>
 4    1  0.2825993E+006  0.3092199E+02  0.7546771E-02  0.1411750E+00
         21   -1    0    0  502  501  0.00000000000E+00  0.00000000000E+00  0.71553992534E+01  0.71553992534E+01  0.00000000000E+00 0. -1.
         21   -1    0    0  503  502 -0.00000000000E+00 -0.00000000000E+00 -0.44918629083E+03  0.44918629083E+03  0.00000000000E+00 0.  1.
         21    1    1    2  503  504  0.20092868558E+01  0.30856640358E+02 -0.41225862380E+03  0.41341666921E+03  0.00000000000E+00 0.  1.
         21    1    1    2  504  501 -0.20092868558E+01 -0.30856640358E+02 -0.29772267774E+02  0.42925020865E+02  0.00000000000E+00 0. -1.
</event>
<event>
 4    1  0.2825993E+006  0.2238187E+02  0.7546771E-02  0.1500409E+00
         21   -1    0    0  502  501  0.00000000000E+00  0.00000000000E+00  0.77137672902E+02  0.77137672902E+02  0.00000000000E+00 0. -1.
         21   -1    0    0  503  502 -0.00000000000E+00 -0.00000000000E+00 -0.93945681058E+01  0.93945681058E+01  0.00000000000E+00 0.  1.
         21    1    1    2  503  504  0.21452235732E+02 -0.63835423252E+01  0.98314912785E+01  0.24445986404E+02  0.00000000000E+00 0.  1.
         21    1    1    2  504  501 -0.21452235732E+02  0.63835423252E+01  0.57911613518E+02  0.62086254604E+02  0.00000000000E+00 0. -1.
</event>
<event>
 4    1  0.2825993E+006  0.3891113E+02  0.7546771E-02  0.1354987E+00
         21   -1    0    0  503  501  0.00000000000E+00  0.00000000000E+00  0.13524129409E+03  0.13524129409E+03  0.00000000000E+00 0. -1.
         21   -1    0    0  504  502 -0.00000000000E+00 -0.00000000000E+00 -0.11210989747E+02  0.11210989747E+02  0.00000000000E+00 0. -1.
         21    1    1    2  503  502  0.26491242984E+02  0.28500707657E+02  0.64748436140E+02  0.75540957595E+02  0.00000000000E+00 0. -1.
         21    1    1    2  504  501 -0.26491242984E+02 -0.28500707657E+02  0.59281868203E+02  0.70911326242E+02  0.00000000000E+00 0. -1.
</event>
<event>
 4    1  0.2825993E+006  0.8289298E+02  0.7546771E-02  0.1197286E+00
         21   -1    0    0  502  501  0.00000000000E+00  0.00000000000E+00  0.61847889230E+02  0.61847889230E+02  0.00000000000E+00 0.  1.
         21   -1    0    0  503  502 -0.00000000000E+00 -0.00000000000E+00 -0.15737490822E+03  0.15737490822E+03  0.00000000000E+00 0.  1.
         21    1    1    2  503  504 -0.51572871042E+02  0.64895959358E+02 -0.10720160004E+03  0.13551173240E+03  0.00000000000E+00 0.  1.
         21    1    1    2  504  501  0.51572871042E+02 -0.64895959358E+02  0.11674581046E+02  0.83711065046E+02  0.00000000000E+00 0.  1.
</event>
<event>
 4    1  0.2825993E+006  0.2167470E+02  0.7546771E-02  0.1509846E+00
         21   -1    0    0  503  501  0.00000000000E+00  0.00000000000E+00  0.51581564862E+03  0.51581564862E+03  0.00000000000E+00 0. -1.
         21   -1    0    0  504  502 -0.00000000000E+00 -0.00000000000E+00 -0.15667890158E+02  0.15667890158E+02  0.00000000000E+00 0.  1.
         21    1    1    2  503  502 -0.12303647725E+02  0.17844123346E+02  0.50797621917E+03  0.50843842471E+03  0.00000000000E+00 0. -1.
         21    1    1    2  504  501  0.12303647725E+02 -0.17844123346E+02 -0.78284607038E+01  0.23045114066E+02  0.00000000000E+00 0.  1.
</event>
<event>
 4    1  0.2825993E+006  0.2166561E+02  0.7546771E-02  0.1509970E+00
         21   -1    0    0  504  501  0.00000000000E+00  0.00000000000E+00  0.14437641162E+02  0.14437641162E+02  0.00000000000E+00 0. -1.
         21   -1    0    0  503  502 -0.00000000000E+00 -0.00000000000E+00 -0.43222404700E+03  0.43222404700E+03  0.00000000000E+00 0.  1.
         21    1    1    2  503  501 -0.15011385915E+02 -0.15622328998E+02  0.58739093404E+01  0.22447754484E+02  0.00000000000E+00 0. -1.
         21    1    1    2  504  502  0.15011385915E+02  0.15622328998E+02 -0.42366031518E+03  0.42421393368E+03  0.00000000000E+00 0.  1.
</event>
<event>
 4    1  0.2825993E+006  0.2501328E+02  0.7546771E-02  0.1468655E+00
         21   -1    0    0  504  501  0.00000000000E+00  0.00000000000E+00  0.16546117155E+02  0.16546117155E+02  0.00000000000E+00 0.  1.
         21   -1    0    0  503  502 -0.00000000000E+00 -0.00000000000E+00 -0.90422217169E+02  0.90422217169E+02  0.00000000000E+00 0.  1.
         21    1    1    2  503  501  0.18842214365E+02  0.16450991250E+02  0.38579072119E+01  0.25309041928E+02  0.00000000000E+00 0.  1.
         21    1    1    2  504  502 -0.18842214365E+02 -0.16450991250E+02 -0.77734007226E+02  0.81659292396E+02  0.00000000000E+00 0.  1.
</event>
<event>
 4    1  0.2825993E+006  0.2364051E+02  0.7546771E-02  0.1484608E+00
         21   -1    0    0  503  501  0.00000000000E+00  0.00000000000E+00  0.56041510187E+01  0.56041510187E+01  0.00000000000E+00 0. -1.
         21   -1    0    0  504  502 -0.00000000000E+00 -0.00000000000E+00 -0.99999087932E+02  0.99999087932E+02  0.00000000000E+00 0. -1.
         21    1    1    2  503  502 -0.21125485459E+02  0.10610736385E+02 -0.44433023077E+02  0.50330581183E+02  0.00000000000E+00 0. -1.
         21    1    1    2  504  501  0.21125485459E+02 -0.10610736385E+02 -0.49961913837E+02  0.55272657768E+02  0.00000000000E+00 0. -1.
</event>
<event>
 4    1  0.2825993E+006  0.2596097E+02  0.7546771E-02  0.1458334E+00
         21   -1    0    0  504  501  0.00000000000E+00  0.00000000000E+00  0.27096355086E+03  0.27096355086E+03  0.00000000000E+00 0.  1.
         21   -1    0    0  503  502 -0.00000000000E+00 -0.00000000000E+00 -0.64266840733E+01  0.64266840733E+01  0.00000000000E+00 0.  1.
         21    1    1    2  503  501  0.15441725967E+02  0.20869240521E+02  0.24085621282E+03  0.24225128968E+03  0.00000000000E+00 0.  1.
         21    1    1    2  504  502 -0.15441725967E+02 -0.20869240521E+02  0.23680653966E+02  0.35138945246E+02  0.00000000000E+00 0.  1.
</event>
<event>
 4    1  0.2825993E+006  0.2496978E+02  0.7546771E-02  0.1469142E+00
         21   -1    0    0  502  501  0.00000000000E+00  0.00000000000E+00  0.14048815447E+03  0.14048815447E+03  0.00000000000E+00 0.  1.
         21   -1    0    0  504  502 -0.00000000000E+00 -0.00000000000E+00 -0.14284872890E+03  0.14284872890E+03  0.00000000000E+00 0.  1.
         21    1    1    2  503  501  0.22061067978E+02  0.11696122995E+02  0.13827011284E+03  0.14050663371E+03  0.00000000000E+00 0.  1.
         21    1    1    2  504  503 -0.22061067978E+02 -0.11696122995E+02 -0.14063068727E+03  0.14283024965E+03  0.00000000000E+00 0.  1.
</event>
<event>
 4    1  0.2825993E+006  0.2854246E+02  0.7546771E-02  0.1432700E+00
         21   -1    0    0  503  501  0.00000000000E+00  0.00000000000E+00  0.48129364138E+02  0.48129364138E+02  0.00000000000E+00 0.  1.
         21   -1    0    0  504  502 -0.00000000000E+00 -0.00000000000E+00 -0.33959867921E+02  0.33959867921E+02  0.00000000000E+00 0. -1.
         21    1    1    2  503  502  0.15583267749E+02 -0.23913041172E+02 -0.21983629424E+02  0.36027097225E+02  0.00000000000E+00 0. -1.
         21    1    1    2  504  501 -0.15583267749E+02  0.23913041172E+02  0.36153125640E+02  0.46062134834E+02  0.00000000000E+00 0.  1.
</event>
<event>
 4    1  0.2825993E+006  0.3189406E+02  0.7546771E-02  0.1403821E+00
         21   -1    0    0  503  501  0.00000000000E+00  0.00000000000E+00  0.25001588124E+02  0.25001588124E+02  0.00000000000E+00 0. -1.
         21   -1    0    0  504  502 -0.00000000000E+00 -0.00000000000E+00 -0.57120059266E+02  0.57120059266E+02  0.00000000000E+00 0.  1.
         21    1    1    2  503  502 -0.15901110559E+02  0.27647528113E+02  0.59648065795E+01  0.32447034460E+02  0.00000000000E+00 0. -1.
         21    1    1    2  504  501  0.15901110559E+02 -0.27647528113E+02 -0.38083277722E+02  0.49674612930E+02  0.00000000000E+00 0.  1.
</event>
<event>
 4    1  0.2825993E+006  0.2202501E+02  0.7546771E-02  0.1505118E+00
         21   -1    0    0  503  501  0.00000000000E+00  0.00000000000E+00  0.28119945876E+02  0.28119945876E+02  0.00000000000E+00 0.  1.
         21   -1    0    0  504  502 -0.00000000000E+00 -0.00000000000E+00 -0.62506296258E+02  0.62506296258E+02  0.00000000000E+00 0.  1.
         21    1    1    2  503  502  0.14749832652E+02  0.16356753099E+02 -0.55749547022E+02  0.59942580261E+02  0.00000000000E+00 0.  1.
         21    1    1    2  504  501 -0.14749832652E+02 -0.16356753099E+02  0.21363196641E+02  0.30683661873E+02  0.00000000000E+00 0.  1.
</event>
<event>
 4    1  0.2825993E+006  0.4594054E+02  0.7546771E-02  0.1316802E+00
         21   -1    0    0  503  501  0.00000000000E+00  0.00000000000E+00  0.77046610400E+03  0.77046610400E+03  0.00000000000E+00 0.  1.
         21   -1    0    0  504  502 -0.00000000000E+00 -0.00000000000E+00 -0.28448488363E+01  0.28448488363E+01  0.00000000000E+00 0.  1.
         21    1    1    2  503  502  0.37839598119E+02  0.26051836788E+02  0.45828949709E+03  0.46058636164E+03  0.00000000000E+00 0.  1.
         21    1    1    2  504  501 -0.37839598119E+02 -0.26051836788E+02  0.30933175807E+03  0.31272459120E+03  0.00000000000E+00 0.  1.
</event>
<event>
 4    1  0.2825993E+006  0.2228887E+02  0.7546771E-02  0.1501626E+00
         21   -1    0    0  504  501  0.00000000000E+00  0.00000000000E+00  0.22007327890E+02  0.22007327890E+02  0.00000000000E+00 0. -1.
         21   -1    0    0  503  502 -0.00000000000E+00 -0.00000000000E+00 -0.24772744348E+03  0.24772744348E+03  0.00000000000E+00 0.  1.
         21    1    1    2  503  501  0.22258490740E+02  0.11633037304E+01 -0.24143583664E+03  0.24246248555E+03  0.00000000000E+00 0.  1.
         21    1    1    2  504  502 -0.22258490740E+02 -0.11633037304E+01  0.15715721051E+02  0.27272285818E+02  0.00000000000E+00 0. -1.
</event>
<event>
 4    1  0.2825993E+006  0.2005166E+02  0.7546771E-02  0.1533247E+00
         21   -1    0    0  504  501  0.00000000000E+00  0.00000000000E+00  0.56555872149E+03  0.56555872149E+03  0.00000000000E+00 0.  1.
         21   -1    0    0  501  502 -0.00000000000E+00 -0.00000000000E+00 -0.51761364045E+01  0.51761364045E+01  0.00000000000E+00 0.  1.
         21    1    1    2  503  502  0.73540010870E+01  0.18654430426E+02  0.15144458283E+02  0.25128146035E+02  0.00000000000E+00 0.  1.
         21    1    1    2  504  503 -0.73540010870E+01 -0.18654430426E+02  0.54523812680E+03  0.54560671186E+03  0.00000000000E+00 0.  1.
</event>
<event>
 4    1  0.2825993E+006  0.2407265E+02  0.7546771E-02  0.1479451E+00
         21   -1    0    0  504  501  0.00000000000E+00  0.00000000000E+00  0.18614476274E+02  0.18614476274E+02  0.00000000000E+00 0.  1.
         21   -1    0    0  503  502 -0.00000000000E+00 -0.00000000000E+00 -0.42741069011E+02  0.42741069011E+02  0.00000000000E+00 0.  1.
         21    1    1    2  503  501 -0.23908303775E+02 -0.28080719646E+01 -0.28052009644E+02  0.36964949650E+02  0.00000000000E+00 0.  1.
         21    1    1    2  504  502  0.23908303775E+02  0.28080719646E+01  0.39254169072E+01  0.24390595635E+02  0.00000000000E+00 0.  1.
</event>
<event>
 4    1  0.2825993E+006  0.2871088E+02  0.7546771E-02  0.1431140E+00
         21   -1    0    0  503  501  0.00000000000E+00  0.00000000000E+00  0.78936672269E+01  0.78936672269E+01  0.00000000000E+00 0.  1.
         21   -1    0    0  501  502 -0.00000000000E+00 -0.00000000000E+00 -0.13005381248E+03  0.13005381248E+03  0.00000000000E+00 0. -1.
         21    1    1    2  503  504  0.16953199099E+02 -0.23171184910E+02 -0.30462797305E+02  0.41860444210E+02  0.00000000000E+00 0.  1.
         21    1    1    2  504  502 -0.16953199099E+02  0.23171184910E+02 -0.91697347945E+02  0.96087035494E+02  0.00000000000E+00 0. -1.
</event>
<event>
 4    1  0.2825993E+006  0.2042332E+02  0.7546771E-02  0.1527660E+00
         21   -1    0    0  502  501  0.00000000000E+00  0.00000000000E+00  0.54428444126E+03  0.54428444126E+03  0.00000000000E+00 0. -1.
         21   -1    0    0  504  502 -0.00000000000E+00 -0.00000000000E+00 -0.17260134339E+01  0.17260134339E+01  0.00000000000E+00 0. -1.
         21    1    1    2  503  501  0.16457068908E+02  0.12094494330E+02  0.47484676238E+03  0.47528576630E+03  0.00000000000E+00 0. -1.
         21    1    1    2  504  503 -0.16457068908E+02 -0.12094494330E+02  0.67711665448E+02  0.70724688390E+02  0.00000000000E+00 0. -1.
</event>
<event>
 4    1  0.2825993E+006  0.2812882E+02  0.7546771E-02  0.1436587E+00
         21   -1    0    0  504  501  0.00000000000E+00  0.00000000000E+00  0.65786903185E+03  0.65786903185E+03  0.00000000000E+00 0.  1.
         21   -1    0    0  503  502 -0.00000000000E+00 -0.00000000000E+00 -0.13867111175E+01  0.13867111175E+01  0.00000000000E+00 0. -1.
         21    1    1    2  503  501 -0.63749643120E+01  0.27396901885E+02  0.20817167330E+03  0.21006350461E+03  0.00000000000E+00 0. -1.
         21    1    1    2  504  502  0.63749643120E+01 -0.27396901885E+02  0.44831064743E+03  0.44919223836E+03  0.00000000000E+00 0.  1.
</event>
<event>
 4    1  0.2825993E+006  0.2082677E+02  0.7546771E-02  0.1521753E+00
         21   -1    0    0  504  501  0.00000000000E+00  0.00000000000E+00  0.77818741654E+03  0.77818741654E+03  0.00000000000E+00 0. -1.
         21   -1    0    0  503  502 -0.00000000000E+00 -0.00000000000E+00 -0.23034627293E+01  0.23034627293E+01  0.00000000000E+00 0. -1.
         21    1    1    2  503  501 -0.80219588811E+01  0.19219847803E+02  0.72770673372E+03  0.72800470100E+03  0.00000000000E+00 0. -1.
         21    1    1    2  504  502  0.80219588811E+01 -0.19219847803E+02  0.48177220094E+02  0.52486178275E+02  0.00000000000E+00 0. -1.
</event>
<event>
 4    1  0.2825993E+006  0.2579919E+02  0.7546771E-02  0.1460058E+00
         21   -1    0    0  504  501  0.00000000000E+00  0.00000000000E+00  0.10414224666E+03  0.10414224666E+03  0.00000000000E+00 0. -1.
         21   -1    0    0  501  502 -0.00000000000E+00 -0.00000000000E+00 -0.40461072892E+02  0.40461072892E+02  0.00000000000E+00 0. -1.
         21    1    1    2  503  502  0.22779973206E+02 -0.12110775131E+02 -0.34505387084E+02  0.43083869271E+02  0.00000000000E+00 0. -1.
         21    1    1    2  504  503 -0.22779973206E+02  0.12110775131E+02  0.98186560855E+02  0.10151945028E+03  0.00000000000E+00 0. -1.
</event>
<event>
 4    1  0.2825993E+006  0.2014101E+02  0.7546771E-02  0.1531891E+00
         21   -1    0    0  503  501  0.00000000000E+00  0.00000000000E+00  0.13191614783E+02  0.13191614783E+02  0.00000000000E+00 0. -1.
         21   -1    0    0  504  502 -0.00000000000E+00 -0.00000000000E+00 -0.30751526859E+02  0.30751526859E+02  0.00000000000E+00 0. -1.
         21    1    1    2  503  502  0.18747636442E+02  0.73611551125E+01 -0.87334228912E+01  0.21952975929E+02  0.00000000000E+00 0. -1.
         21    1    1    2  504  501 -0.18747636442E+02 -0.73611551125E+01 -0.88264891851E+01  0.21990165713E+02  0.00000000000E+00 0. -1.
</event>
<event>
 4    1  0.2825993E+006  0.2121854E+02  0.7546771E-02  0.1516167E+00
         21   -1    0    0  503  501  0.00000000000E+00  0.00000000000E+00  0.56734648215E+01  0.56734648215E+01  0.00000000000E+00 0.  1.
         21   -1    0    0  501  502 -0.00000000000E+00 -0.00000000000E+00 -0.35284437742E+03  0.35284437742E+03  0.00000000000E+00 0.  1.
         21    1    1    2  503  504 -0.20689698438E+02  0.47077245873E+01 -0.15766843911E+02  0.26435197354E+02  0.00000000000E+00 0.  1.
         21    1    1    2  504  502  0.20689698438E+02 -0.47077245873E+01 -0.33140406869E+03  0.33208264489E+03  0.00000000000E+00 0.  1.
</event>
<event>
 4    1  0.2825993E+006  0.2840636E+02  0.7546771E-02  0.1433970E+00
         21   -1    0    0  504  501  0.00000000000E+00  0.00000000000E+00  0.59485008577E+02  0.59485008577E+02  0.00000000000E+00 0.  1.
         21   -1    0    0  503  502 -0.00000000000E+00 -0.00000000000E+00 -0.15469693276E+02  0.15469693276E+02  0.00000000000E+00 0.  1.
         21    1    1    2  503  501  0.97955291036E+01 -0.26664001859E+02  0.35157685540E+02  0.45199383160E+02  0.00000000000E+00 0.  1.
         21    1    1    2  504  502 -0.97955291036E+01  0.26664001859E+02  0.88576297613E+01  0.29755318694E+02  0.00000000000E+00 0.  1.
</event>
<event>
 4    1  0.2825993E+006  0.3338502E+02  0.7546771E-02  0.1392287E+00
         21   -1    0    0  504  501  0.00000000000E+00  0.00000000000E+00  0.56312264268E+02  0.56312264268E+02  0.00000000000E+00 0. -1.
         21   -1    0    0  503  502 -0.00000000000E+00 -0.00000000000E+00 -0.10404506751E+03  0.10404506751E+03  0.00000000000E+00 0.  1.
         21    1    1    2  503  501 -0.49273144582E+01 -0.33019405715E+02 -0.96016959138E+02  0.10165537872E+03  0.00000000000E+00 0.  1.
         21    1    1    2  504  502  0.49273144582E+01  0.33019405715E+02  0.48284155897E+02  0.58701953052E+02  0.00000000000E+00 0. -1.
</event>
<event>
 4    1  0.2825993E+006  0.2191061E+02  0.7546771E-02  0.1506650E+00
         21   -1    0    0  503  501  0.00000000000E+00  0.00000000000E+00  0.14566441955E+02  0.14566441955E+02  0.00000000000E+00 0. -1.
         21   -1    0    0  501  502 -0.00000000000E+00 -0.00000000000E+00 -0.56113266178E+02  0.56113266178E+02  0.00000000000E+00 0.  1.
         21    1    1    2  503  504  0.21576363618E+02  0.38125033877E+01  0.19284155535E+01  0.21995304853E+02  0.00000000000E+00 0. -1.
         21    1    1    2  504  502 -0.21576363618E+02 -0.38125033877E+01 -0.43475239777E+02  0.48684403280E+02  0.00000000000E+00 0.  1.
</event>
<event>
 4    1  0.2825993E+006  0.2134864E+02  0.7546771E-02  0.1514345E+00
         21   -1    0    0  502  501  0.00000000000E+00  0.00000000000E+00  0.20472554376E+01  0.20472554376E+01  0.00000000000E+00 0.  1.
         21   -1    0    0  504  502 -0.00000000000E+00 -0.00000000000E+00 -0.41101655719E+03  0.41101655719E+03  0.00000000000E+00 0.  1.
         21    1    1    2  503  501  0.20497101449E+02  0.59693615728E+01 -0.64657510331E+02  0.68090807659E+02  0.00000000000E+00 0.  1.
         21    1    1    2  504  503 -0.20497101449E+02 -0.59693615728E+01 -0.34431179142E+03  0.34497300497E+03  0.00000000000E+00 0.  1.
</event>
<event>
 4    1  0.2825993E+006  0.2257374E+02  0.7546771E-02  0.1497921E+00
         21   -1    0    0  504  501  0.00000000000E+00  0.00000000000E+00  0.18427990520E+02  0.18427990520E+02  0.00000000000E+00 0. -1.
         21   -1    0    0  503  502 -0.00000000000E+00 -0.00000000000E+00 -0.29514874787E+03  0.29514874787E+03  0.00000000000E+00 0.  1.
         21    1    1    2  503  501  0.45254481618E+01  0.22115472999E+02  0.10902732603E+02  0.25068773509E+02  0.00000000000E+00 0. -1.
         21    1    1    2  504  502 -0.45254481618E+01 -0.22115472999E+02 -0.28762348995E+03  0.28850796488E+03  0.00000000000E+00 0.  1.
</event>
<event>
 4    1  0.2825993E+006  0.3884640E+02  0.7546771E-02  0.1355382E+00
         21   -1    0    0  503  501  0.00000000000E+00  0.00000000000E+00  0.24180141045E+02  0.24180141045E+02  0.00000000000E+00 0. -1.
         21   -1    0    0  504  502 -0.00000000000E+00 -0.00000000000E+00 -0.15079409635E+04  0.15079409635E+04  0.00000000000E+00 0. -1.
         21    1    1    2  503  502 -0.21463420000E+02  0.32378460063E+02  0.81603650981E+01  0.39694264481E+02  0.00000000000E+00 0. -1.
         21    1    1    2  504  501  0.21463420000E+02 -0.32378460063E+02 -0.14919211876E+04  0.14924268401E+04  0.00000000000E+00 0. -1.
</event>
<event>
 4    1  0.2825993E+006  0.5231631E+02  0.7546771E-02  0.1288430E+00
         21   -1    0    0  504  501  0.00000000000E+00  0.00000000000E+00  0.27501935741E+03  0.27501935741E+03  0.00000000000E+00 0. -1.
         21   -1    0    0  503  502 -0.00000000000E+00 -0.00000000000E+00 -0.14223631326E+02  0.14223631326E+02  0.00000000000E+00 0. -1.
         21    1    1    2  503  501 -0.35420963126E+02  0.38501320662E+02  0.20965233981E+03  0.21608123451E+03  0.00000000000E+00 0. -1.
         21    1    1    2  504  502  0.35420963126E+02 -0.38501320662E+02  0.51143386278E+02  0.73161754227E+02  0.00000000000E+00 0. -1.
</event>
<event>
 4    1  0.2825993E+006  0.2739550E+02  0.7546771E-02  0.1443675E+00
         21   -1    0    0  504  501  0.00000000000E+00  0.00000000000E+00  0.39401305536E+03  0.39401305536E+03  0.00000000000E+00 0.  1.
         21   -1    0    0  501  502 -0.00000000000E+00 -0.00000000000E+00 -0.20247450372E+01  0.20247450372E+01  0.00000000000E+00 0. -1.
         21    1    1    2  503  502 -0.27378394716E+02  0.96790463920E+00  0.14779658289E+03  0.15031414854E+03  0.00000000000E+00 0.  1.
         21    1    1    2  504  503  0.27378394716E+02 -0.96790463920E+00  0.24419172744E+03  0.24572365186E+03  0.00000000000E+00 0. -1.
</event>
<event>
 4    1  0.2825993E+006  0.2514968E+02  0.7546771E-02  0.1467136E+00
         21   -1    0    0  504  501  0.00000000000E+00  0.00000000000E+00  0.13621809404E+02  0.13621809404E+02  0.00000000000E+00 0. -1.
         21   -1    0    0  501  502 -0.00000000000E+00 -0.00000000000E+00 -0.60414126913E+02  0.60414126913E+02  0.00000000000E+00 0. -1.
         21    1    1    2  503  502  0.25097312445E+02 -0.16221117335E+01 -0.41203901397E+02  0.48272847738E+02  0.00000000000E+00 0. -1.
         21    1    1    2  504  503 -0.25097312445E+02  0.16221117335E+01 -0.55884161129E+01  0.25763088578E+02  0.00000000000E+00 0. -1.
</event>
<event>
 4    1  0.2825993E+006  0.2078725E+02  0.7546771E-02  0.1522324E+00
         21   -1    0    0  503  501  0.00000000000E+00  0.00000000000E+00  0.69918255233E+00  0.69918255233E+00  0.00000000000E+00 0.  1.
         21   -1    0    0  504  502 -0.00000000000E+00 -0.00000000000E+00 -0.69989241684E+03  0.69989241684E+03  0.00000000000E+00 0.  1.
         21    1    1    2  503  502  0.12513743007E+02 -0.16598668918E+02 -0.22978879900E+03  0.23072711527E+03  0.00000000000E+00 0.  1.
         21    1    1    2  504  501 -0.12513743007E+02  0.16598668918E+02 -0.46940443528E+03  0.46986448412E+03  0.00000000000E+00 0.  1.
</event>
<event>
 4    1  0.2825993E+006  0.2463133E+02  0.7546771E-02  0.1472970E+00
         21   -1    0    0  503  501  0.00000000000E+00  0.00000000000E+00  0.35649612959E+02  0.35649612959E+02  0.00000000000E+00 0. -1.
         21   -1    0    0  504  502 -0.00000000000E+00 -0.00000000000E+00 -0.56299825066E+03  0.56299825066E+03  0.00000000000E+00 0. -1.
         21    1    1    2  503  502 -0.19894890031E+02 -0.14522253455E+02 -0.55843950671E+03  0.55898245513E+03  0.00000000000E+00 0. -1.
         21    1    1    2  504  501  0.19894890031E+02  0.14522253455E+02  0.31090869007E+02  0.39665408486E+02  0.00000000000E+00 0. -1.
</event>
<event>
 4    1  0.2825993E+006  0.2538444E+02  0.7546771E-02  0.1464548E+00
         21   -1    0    0  502  501  0.00000000000E+00  0.00000000000E+00  0.98208937450E+01  0.98208937450E+01  0.00000000000E+00 0.  1.
         21   -1    0    0  503  502 -0.00000000000E+00 -0.00000000000E+00 -0.21497671601E+03  0.21497671601E+03  0.00000000000E+00 0.  1.
         21    1    1    2  503  504  0.20141745774E+02 -0.15449267744E+02 -0.19626716821E+03  0.19790192297E+03  0.00000000000E+00 0.  1.
         21    1    1    2  504  501 -0.20141745774E+02  0.15449267744E+02 -0.88886540481E+01  0.26895686782E+02  0.00000000000E+00 0.  1.
</event>
<event>
 4    1  0.2825993E+006  0.2057163E+02  0.7546771E-02  0.1525470E+00
         21   -1    0    0  503  501  0.00000000000E+00  0.00000000000E+00  0.52956072547E+01  0.52956072547E+01  0.00000000000E+00 0. -1.
         21   -1    0    0  501  502 -0.00000000000E+00 -0.00000000000E+00 -0.10190395686E+03  0.10190395686E+03  0.00000000000E+00 0. -1.
         21    1    1    2  503  504  0.12104744229E+02  0.16633308789E+02 -0.23405156058E+02  0.31160762574E+02  0.00000000000E+00 0. -1.
         21    1    1    2  504  502 -0.12104744229E+02 -0.16633308789E+02 -0.73203193542E+02  0.76038801535E+02  0.00000000000E+00 0. -1.
</event>
<event>
 4    1  0.2825993E+006  0.2503071E+02  0.7546771E-02  0.1468460E+00
         21   -1    0    0  503  501  0.00000000000E+00  0.00000000000E+00  0.12056566093E+01  0.12056566093E+01  0.00000000000E+00 0. -1.
         21   -1    0    0  504  502 -0.00000000000E+00 -0.00000000000E+00 -0.11296072208E+04  0.11296072208E+04  0.00000000000E+00 0. -1.
         21    1    1    2  503  502 -0.33173169090E+01 -0.24809918574E+02 -0.97967265840E+03  0.97999237460E+03  0.00000000000E+00 0. -1.
         21    1    1    2  504  501  0.33173169090E+01  0.24809918574E+02 -0.14872890583E+03  0.15082050285E+03  0.00000000000E+00 0. -1.
</event>
<event>
 4    1  0.2825993E+006  0.2012585E+02  0.7546771E-02  0.1532121E+00
         21   -1    0    0  504  501  0.00000000000E+00  0.00000000000E+00  0.30524257345E+03  0.30524257345E+03  0.00000000000E+00 0. -1.
         21   -1    0    0  503  502 -0.00000000000E+00 -0.00000000000E+00 -0.25327285469E+01  0.25327285469E+01  0.00000000000E+00 0. -1.
         21    1    1    2  503  501  0.14756934323E+02  0.13685124926E+02  0.25753387389E+03  0.25831907780E+03  0.00000000000E+00 0. -1.
         21    1    1    2  504  502 -0.14756934323E+02 -0.13685124926E+02  0.45175971019E+02  0.49456224203E+02  0.00000000000E+00 0. -1.
</event>
<event>
 4    1  0.2825993E+006  0.2103704E+02  0.7546771E-02  0.1518737E+00
         21   -1    0    0  504  501  0.00000000000E+00  0.00000000000E+00  0.72019290831E+02  0.72019290831E+02  0.00000000000E+00 0. -1.
         21   -1    0    0  503  502 -0.00000000000E+00 -0.00000000000E+00 -0.32080635623E+02  0.32080635623E+02  0.00000000000E+00 0.  1.
         21    1    1    2  503  501  0.10661842470E+02  0.18135113940E+02 -0.26830854599E+02  0.34094750343E+02  0.00000000000E+00 0.  1.
         21    1    1    2  504  502 -0.10661842470E+02 -0.18135113940E+02  0.66769509806E+02  0.70005176110E+02  0.00000000000E+00 0. -1.
</event>
<event>
 4    1  0.2825993E+006  0.2344094E+02  0.7546771E-02  0.1487034E+00
         21   -1    0    0  503  501  0.00000000000E+00  0.00000000000E+00  0.47142966583E+03  0.47142966583E+03  0.00000000000E+00 0. -1.
         21   -1    0    0  504  502 -0.00000000000E+00 -0.00000000000E+00 -0.11661397495E+01  0.11661397495E+01  0.00000000000E+00 0. -1.
         21    1    1    2  503  502 -0.90317466084E+01 -0.21631120930E+02  0.24041704873E+03  0.24155710538E+03  0.00000000000E+00 0. -1.
         21    1    1    2  504  501  0.90317466084E+01  0.21631120930E+02  0.22984647735E+03  0.23103870020E+03  0.00000000000E+00 0. -1.
</event>
<event>
 4    1  0.2825993E+006  0.2100010E+02  0.7546771E-02  0.1519263E+00
         21   -1    0    0  503  501  0.00000000000E+00  0.00000000000E+00  0.70810808783E+02  0.70810808783E+02  0.00000000000E+00 0.  1.
         21   -1    0    0  501  502 -0.00000000000E+00 -0.00000000000E+00 -0.11477788917E+02  0.11477788917E+02  0.00000000000E+00 0.  1.
         21    1    1    2  503  504  0.76694959975E+01 -0.19549499258E+02  0.57492764683E+02  0.61208023011E+02  0.00000000000E+00 0.  1.
         21    1    1    2  504  502 -0.76694959975E+01  0.19549499258E+02  0.18402551836E+01  0.21080574689E+02  0.00000000000E+00 0.  1.
</event>
<event>
 4    1  0.2825993E+006  0.2193225E+02  0.7546771E-02  0.1506360E+00
         21   -1    0    0  503  501  0.00000000000E+00  0.00000000000E+00  0.42478156811E+01  0.42478156811E+01  0.00000000000E+00 0.  1.
         21   -1    0    0  504  502 -0.00000000000E+00 -0.00000000000E+00 -0.12809279567E+03  0.12809279567E+03  0.00000000000E+00 0.  1.
         21    1    1    2  503  502 -0.12684467370E+01 -0.21895537854E+02 -0.39390381279E+02  0.45084650074E+02  0.00000000000E+00 0.  1.
         21    1    1    2  504  501  0.12684467370E+01  0.21895537854E+02 -0.84454598713E+02  0.87255961279E+02  0.00000000000E+00 0.  1.
</event>
<event>
 4    1  0.2825993E+006  0.2836232E+02  0.7546771E-02  0.1434383E+00
         21   -1    0    0  504  501  0.00000000000E+00  0.00000000000E+00  0.30411797832E+02  0.30411797832E+02  0.00000000000E+00 0.  1.
         21   -1    0    0  503  502 -0.00000000000E+00 -0.00000000000E+00 -0.11512614696E+03  0.11512614696E+03  0.00000000000E+00 0. -1.
         21    1    1    2  503  501  0.26826678563E+02 -0.92059989383E+01  0.21507444418E+02  0.35594820755E+02  0.00000000000E+00 0.  1.
         21    1    1    2  504  502 -0.26826678563E+02  0.92059989383E+01 -0.10622179355E+03  0.10994312404E+03  0.00000000000E+00 0. -1.
</event>
<event>
 4    1  0.2825993E+006  0.2490544E+02  0.7546771E-02  0.1469864E+00
         21   -1    0    0  503  501  0.00000000000E+00  0.00000000000E+00  0.44242810815E+01  0.44242810815E+01  0.00000000000E+00 0.  1.
         21   -1    0    0  504  502 -0.00000000000E+00 -0.00000000000E+00 -0.14942309006E+03  0.14942309006E+03  0.00000000000E+00 0.  1.
         21    1    1    2  503  502 -0.15148933988E+02 -0.19768432775E+02 -0.91611389694E+02  0.94936441144E+02  0.00000000000E+00 0.  1.
         21    1    1    2  504  501  0.15148933988E+02  0.19768432775E+02 -0.53387419285E+02  0.58910929999E+02  0.00000000000E+00 0.  1.
</event>
<event>
 4    1  0.2825993E+006  0.3800145E+02  0.7546771E-02  0.1360613E+00
         21   -1    0    0  504  501  0.00000000000E+00  0.00000000000E+00  0.12387847911E+02  0.12387847911E+02  0.00000000000E+00 0.  1.
         21   -1    0    0  503  502 -0.00000000000E+00 -0.00000000000E+00 -0.20399175041E+03  0.20399175041E+03  0.00000000000E+00 0.  1.
         21    1    1    2  503  501 -0.17897762374E+02 -0.33522832319E+02 -0.24978354221E+02  0.45475579868E+02  0.00000000000E+00 0.  1.
         21    1    1    2  504  502  0.17897762374E+02  0.33522832319E+02 -0.16662554828E+03  0.17090401845E+03  0.00000000000E+00 0.  1.
</event>
<event>
 4    1  0.2825993E+006  0.2204871E+02  0.7546771E-02  0.1504802E+00
         21   -1    0    0  504  501  0.00000000000E+00  0.00000000000E+00  0.31905594137E+02  0.31905594137E+02  0.00000000000E+00 0.  1.
         21   -1    0    0  503  502 -0.00000000000E+00 -0.00000000000E+00 -0.29716585231E+02  0.29716585231E+02  0.00000000000E+00 0.  1.
         21    1    1    2  503  501  0.10645343663E+02  0.19308603181E+02 -0.20412785300E+02  0.30047084754E+02  0.00000000000E+00 0.  1.
         21    1    1    2  504  502 -0.10645343663E+02 -0.19308603181E+02  0.22601794207E+02  0.31575094614E+02  0.00000000000E+00 0.  1.
</event>
<event>
 4    1  0.2825993E+006  0.2937967E+02  0.7546771E-02  0.1425065E+00
         21   -1    0    0  503  501  0.00000000000E+00  0.00000000000E+00  0.14126451183E+01  0.14126451183E+01  0.00000000000E+00 0.  1.
         21   -1    0    0  504  502 -0.00000000000E+00 -0.00000000000E+00 -0.61227012786E+03  0.61227012786E+03  0.00000000000E+00 0.  1.
         21    1    1    2  503  502 -0.29283557319E+02 -0.23745589670E+01 -0.31925111703E+03  0.32060012630E+03  0.00000000000E+00 0.  1.
         21    1    1    2  504  501  0.29283557319E+02  0.23745589670E+01 -0.29160636571E+03  0.29308264668E+03  0.00000000000E+00 0.  1.
</event>
<event>
 4    1  0.2825993E+006  0.2501032E+02  0.7546771E-02  0.1468688E+00
         21   -1    0    0  504  501  0.00000000000E+00  0.00000000000E+00  0.78507752079E+03  0.78507752079E+03  0.00000000000E+00 0.  1.
         21   -1    0    0  503  502 -0.00000000000E+00 -0.00000000000E+00 -0.81376620501E+00  0.81376620501E+00  0.00000000000E+00 0. -1.
         21    1    1    2  503  501  0.24374534958E+02  0.56033878440E+01  0.44894207427E+03  0.44963819006E+03  0.00000000000E+00 0.  1.
         21    1    1    2  504  502 -0.24374534958E+02 -0.56033878440E+01  0.33532168031E+03  0.33625309693E+03  0.00000000000E+00 0. -1.
</event>
<event>
 4    1  0.2825993E+006  0.2336862E+02  0.7546771E-02  0.1487921E+00
         21   -1    0    0  503  501  0.00000000000E+00  0.00000000000E+00  0.57862791472E+02  0.57862791472E+02  0.00000000000E+00 0. -1.
         21   -1    0    0  504  502 -0.00000000000E+00 -0.00000000000E+00 -0.92344433742E+02  0.92344433742E+02  0.00000000000E+00 0.  1.
         21    1    1    2  503  502  0.23300435817E+02 -0.17838482071E+01 -0.88403179937E+02  0.91439677638E+02  0.00000000000E+00 0.  1.
         21    1    1    2  504  501 -0.23300435817E+02  0.17838482071E+01  0.53921537667E+02  0.58767547575E+02  0.00000000000E+00 0. -1.
</event>
<event>
 4    1  0.2825993E+006  0.2148734E+02  0.7546771E-02  0.1512419E+00
         21   -1    0    0  503  501  0.00000000000E+00  0.00000000000E+00  0.43026861038E+03  0.43026861038E+03  0.00000000000E+00 0. -1.
         21   -1    0    0  504  502 -0.00000000000E+00 -0.00000000000E+00 -0.14169716832E+02  0.14169716832E+02  0.00000000000E+00 0. -1.
         21    1    1    2  503  502  0.37376887196E+01  0.21159763740E+02 -0.55898178352E+01  0.22202521972E+02  0.00000000000E+00 0. -1.
         21    1    1    2  504  501 -0.37376887196E+01 -0.21159763740E+02  0.42168871138E+03  0.42223580524E+03  0.00000000000E+00 0. -1.
</event>
<event>
 4    1  0.2825993E+006  0.2027387E+02  0.7546771E-02  0.1529889E+00
         21   -1    0    0  504  501  0.00000000000E+00  0.00000000000E+00  0.52165289128E+01  0.52165289128E+01  0.00000000000E+00 0.  1.
         21   -1    0    0  503  502 -0.00000000000E+00 -0.00000000000E+00 -0.46120376449E+03  0.46120376449E+03  0.00000000000E+00 0.  1.
         21    1    1    2  503  501 -0.29036096110E+01 -0.20064866956E+02 -0.15637071594E+02  0.25603668541E+02  0.00000000000E+00 0.  1.
         21    1    1    2  504  502  0.29036096110E+01  0.20064866956E+02 -0.44035016398E+03  0.44081662486E+03  0.00000000000E+00 0.  1.
</event>
<event>
 4    1  0.2825993E+006  0.2240999E+02  0.7546771E-02  0.1500043E+00
         21   -1    0    0  504  501  0.00000000000E+00  0.00000000000E+00  0.31034203689E+02  0.31034203689E+02  0.00000000000E+00 0.  1.
         21   -1    0    0  501  502 -0.00000000000E+00 -0.00000000000E+00 -0.56429975006E+02  0.56429975006E+02  0.00000000000E+00 0. -1.
         21    1    1    2  503  502  0.75979217191E+01  0.21082673951E+02 -0.49630939274E+02  0.54455832457E+02  0.00000000000E+00 0. -1.
         21    1    1    2  504  503 -0.75979217191E+01 -0.21082673951E+02  0.24235167957E+02  0.33008346237E+02  0.00000000000E+00 0.  1.
</event>
<event>
 4    1  0.2825993E+006  0.2359775E+02  0.7546771E-02  0.1485126E+00
         21   -1    0    0  503  501  0.00000000000E+00  0.00000000000E+00  0.62283173886E+02  0.62283173886E+02  0.00000000000E+00 0. -1.
         21   -1    0    0  504  502 -0.00000000000E+00 -0.00000000000E+00 -0.94772428757E+01  0.94772428757E+01  0.00000000000E+00 0. -1.
         21    1    1    2  503  502 -0.35641723488E+01  0.23327035388E+02  0.34940341498E+02  0.42162558847E+02  0.00000000000E+00 0. -1.
         21    1    1    2  504  501  0.35641723488E+01 -0.23327035388E+02  0.17865589512E+02  0.29597857914E+02  0.00000000000E+00 0. -1.
</event>
<event>
 4    1  0.2825993E+006  0.2250039E+02  0.7546771E-02  0.1498869E+00
         21   -1    0    0  502  501  0.00000000000E+00  0.00000000000E+00  0.88462762023E+02  0.88462762023E+02  0.00000000000E+00 0. -1.
         21   -1    0    0  504  502 -0.00000000000E+00 -0.00000000000E+00 -0.26850447418E+02  0.26850447418E+02  0.00000000000E+00 0. -1.
         21    1    1    2  503  501 -0.12700811052E+02  0.18573012311E+02  0.81950475832E+02  0.84983221148E+02  0.00000000000E+00 0. -1.
         21    1    1    2  504  503  0.12700811052E+02 -0.18573012311E+02 -0.20338161227E+02  0.30329988292E+02  0.00000000000E+00 0. -1.
</event>
<event>
 4    1  0.2825993E+006  0.2974180E+02  0.7546771E-02  0.1421854E+00
         21   -1    0    0  502  501  0.00000000000E+00  0.00000000000E+00  0.55355552464E+02  0.55355552464E+02  0.00000000000E+00 0. -1.
         21   -1    0    0  503  502 -0.00000000000E+00 -0.00000000000E+00 -0.44091637267E+02  0.44091637267E+02  0.00000000000E+00 0. -1.
         21    1    1    2  503  504  0.12554873300E+02  0.26962010412E+02 -0.34071509807E+02  0.45226569951E+02  0.00000000000E+00 0. -1.
         21    1    1    2  504  501 -0.12554873300E+02 -0.26962010412E+02  0.45335425003E+02  0.54220619780E+02  0.00000000000E+00 0. -1.
</event>
<event>
 4    1  0.2825993E+006  0.3040261E+02  0.7546771E-02  0.1416129E+00
         21   -1    0    0  502  501  0.00000000000E+00  0.00000000000E+00  0.24574620440E+03  0.24574620440E+03  0.00000000000E+00 0. -1.
         21   -1    0    0  504  502 -0.00000000000E+00 -0.00000000000E+00 -0.10863364393E+02  0.10863364393E+02  0.00000000000E+00 0. -1.
         21    1    1    2  503  501 -0.12125055599E+02 -0.27880131906E+02  0.22118322150E+03  0.22326293065E+03  0.00000000000E+00 0. -1.
         21    1    1    2  504  503  0.12125055599E+02  0.27880131906E+02  0.13699618507E+02  0.33346638145E+02  0.00000000000E+00 0. -1.
</event>
<event>
 4    1  0.2825993E+006  0.2315814E+02  0.7546771E-02  0.1490522E+00
         21   -1    0    0  504  501  0.00000000000E+00  0.00000000000E+00  0.65900996331E+02  0.65900996331E+02  0.00000000000E+00 0. -1.
         21   -1    0    0  503  502 -0.00000000000E+00 -0.00000000000E+00 -0.68108545147E+02  0.68108545147E+02  0.00000000000E+00 0. -1.
         21    1    1    2  503  501  0.49315453214E+01  0.22626954871E+02  0.61770660023E+02  0.65969035658E+02  0.00000000000E+00 0. -1.
         21    1    1    2  504  502 -0.49315453214E+01 -0.22626954871E+02 -0.63978208839E+02  0.68040505820E+02  0.00000000000E+00 0. -1.
</event>
<event>
 4    1  0.2825993E+006  0.2158926E+02  0.7546771E-02  0.1511016E+00
         21   -1    0    0  504  501  0.00000000000E+00  0.00000000000E+00  0.18652155149E+02  0.18652155149E+02  0.00000000000E+00 0. -1.
         21   -1    0    0  503  502 -0.00000000000E+00 -0.00000000000E+00 -0.33920757080E+02  0.33920757080E+02  0.00000000000E+00 0. -1.
         21    1    1    2  503  501 -0.88550078412E+01  0.19689720707E+02 -0.21123026018E+02  0.30203948311E+02  0.00000000000E+00 0. -1.
         21    1    1    2  504  502  0.88550078412E+01 -0.19689720707E+02  0.58544240869E+01  0.22368963918E+02  0.00000000000E+00 0. -1.
</event>
<event>
 4    1  0.2825993E+006  0.2906252E+02  0.7546771E-02  0.1427922E+00
         21   -1    0    0  502  501  0.00000000000E+00  0.00000000000E+00  0.23748757367E+02  0.23748757367E+02  0.00000000000E+00 0. -1.
         21   -1    0    0  504  502 -0.00000000000E+00 -0.00000000000E+00 -0.11594468836E+03  0.11594468836E+03  0.00000000000E+00 0. -1.
         21    1    1    2  503  501  0.29047451111E+02 -0.93589296782E+00  0.12057844603E+02  0.31464613904E+02  0.00000000000E+00 0. -1.
         21    1    1    2  504  503 -0.29047451111E+02  0.93589296782E+00 -0.10425377559E+03  0.10822883182E+03  0.00000000000E+00 0. -1.
</event>
<event>
 4    1  0.2825993E+006  0.5102014E+02  0.7546771E-02  0.1293809E+00
         21   -1    0    0  503  501  0.00000000000E+00  0.00000000000E+00  0.50429037530E+03  0.50429037530E+03  0.00000000000E+00 0.  1.
         21   -1    0    0  504  502 -0.00000000000E+00 -0.00000000000E+00 -0.51973237657E+01  0.51973237657E+01  0.00000000000E+00 0.  1.
         21    1    1    2  503  502 -0.24203345646E+02 -0.44913833887E+02  0.22849071286E+03  0.23411762061E+03  0.00000000000E+00 0.  1.
         21    1    1    2  504  501  0.24203345646E+02  0.44913833887E+02  0.27060233867E+03  0.27537007846E+03  0.00000000000E+00 0.  1.
</event>
<event>
 4    1  0.2825993E+006  0.3434238E+02  0.7546771E-02  0.1385246E+00
         21   -1    0    0  503  501  0.00000000000E+00  0.00000000000E+00  0.73714520916E+01  0.73714520916E+01  0.00000000000E+00 0.  1.
         21   -1    0    0  504  502 -0.00000000000E+00 -0.00000000000E+00 -0.27602503185E+03  0.27602503185E+03  0.00000000000E+00 0.  1.
         21    1    1    2  503  502 -0.16829781707E+01  0.34301120347E+02 -0.42456630475E+02  0.54607368952E+02  0.00000000000E+00 0.  1.
         21    1    1    2  504  501  0.16829781707E+01 -0.34301120347E+02 -0.22619694928E+03  0.22878911499E+03  0.00000000000E+00 0.  1.
</event>
<event>
 4    1  0.2825993E+006  0.2048759E+02  0.7546771E-02  0.1526708E+00
         21   -1    0    0  502  501  0.00000000000E+00  0.00000000000E+00  0.29094468456E+03  0.29094468456E+03  0.00000000000E+00 0.  1.
         21   -1    0    0  503  502 -0.00000000000E+00 -0.00000000000E+00 -0.33032124645E+01  0.33032124645E+01  0.00000000000E+00 0. -1.
         21    1    1    2  503  504 -0.16467422059E+02  0.12188743399E+02  0.33404435718E+02  0.39186704130E+02  0.00000000000E+00 0. -1.
         21    1    1    2  504  501  0.16467422059E+02 -0.12188743399E+02  0.25423703638E+03  0.25506119290E+03  0.00000000000E+00 0.  1.
</event>
<event>
 4    1  0.2825993E+006  0.2408668E+02  0.7546771E-02  0.1479286E+00
         21   -1    0    0  503  501  0.00000000000E+00  0.00000000000E+00  0.91833340283E+01  0.91833340283E+01  0.00000000000E+00 0. -1.
         21   -1    0    0  504  502 -0.00000000000E+00 -0.00000000000E+00 -0.36165614121E+03  0.36165614121E+03  0.00000000000E+00 0. -1.
         21    1    1    2  503  502 -0.60451567249E+01  0.23315749459E+02 -0.34468431080E+03  0.34552487928E+03  0.00000000000E+00 0. -1.
         21    1    1    2  504  501  0.60451567249E+01 -0.23315749459E+02 -0.77884963885E+01  0.25314595961E+02  0.00000000000E+00 0. -1.
</event>
<event>
 4    1  0.2825993E+006  0.2240364E+02  0.7546771E-02  0.1500126E+00
         21   -1    0    0  502  501  0.00000000000E+00  0.00000000000E+00  0.45856369667E+03  0.45856369667E+03  0.00000000000E+00 0.  1.
         21   -1    0    0  503  502 -0.00000000000E+00 -0.00000000000E+00 -0.26228422141E+01  0.26228422141E+01  0.00000000000E+00 0. -1.
         21    1    1    2  503  504  0.22380914490E+02  0.10089050523E+01  0.51950019249E+02  0.56574974351E+02  0.00000000000E+00 0. -1.
         21    1    1    2  504  501 -0.22380914490E+02 -0.10089050523E+01  0.40399083521E+03  0.40461156454E+03  0.00000000000E+00 0.  1.
</event>
<event>
 4    1  0.2825993E+006  0.2006297E+02  0.7546771E-02  0.1533075E+00
         21   -1    0    0  503  501  0.00000000000E+00  0.00000000000E+00  0.53904277373E+02  0.53904277373E+02  0.00000000000E+00 0. -1.
         21   -1    0    0  504  502 -0.00000000000E+00 -0.00000000000E+00 -0.74687443656E+01  0.74687443656E+01  0.00000000000E+00 0. -1.
         21    1    1    2  503  502 -0.29512751616E+01  0.19844718066E+02  0.23634944204E+02  0.31002152308E+02  0.00000000000E+00 0. -1.
         21    1    1    2  504  501  0.29512751616E+01 -0.19844718066E+02  0.22800588803E+02  0.30370869430E+02  0.00000000000E+00 0. -1.
</event>
<event>
 4    1  0.2825993E+006  0.3040959E+02  0.7546771E-02  0.1416070E+00
         21   -1    0    0  502  501  0.00000000000E+00  0.00000000000E+00  0.17796780526E+03  0.17796780526E+03  0.00000000000E+00 0. -1.
         21   -1    0    0  503  502 -0.00000000000E+00 -0.00000000000E+00 -0.77451032736E+01  0.77451032736E+01  0.00000000000E+00 0.  1.
         21    1    1    2  503  504 -0.17897006901E+02 -0.24585372029E+02  0.31841515042E+02  0.44029824596E+02  0.00000000000E+00 0.  1.
         21    1    1    2  504  501  0.17897006901E+02  0.24585372029E+02  0.13838118694E+03  0.14168308393E+03  0.00000000000E+00 0. -1.
</event>
<event>
 4    1  0.2825993E+006  0.2159629E+02  0.7546771E-02  0.1510919E+00
         21   -1    0    0  504  501  0.00000000000E+00  0.00000000000E+00  0.20950780734E+01  0.20950780734E+01  0.00000000000E+00 0.  1.
         21   -1    0    0  501  502 -0.00000000000E+00 -0.00000000000E+00 -0.55101393004E+03  0.55101393004E+03  0.00000000000E+00 0.  1.
         21    1    1    2  503  502  0.16861732930E+02  0.13493773318E+02 -0.48795997865E+03  0.48843765285E+03  0.00000000000E+00 0.  1.
         21    1    1    2  504  503 -0.16861732930E+02 -0.13493773318E+02 -0.60958873312E+02  0.64671355261E+02  0.00000000000E+00 0.  1.
</event>
<event>
 4    1  0.2825993E+006  0.2175043E+02  0.7546771E-02  0.1508815E+00
         21   -1    0    0  502  501  0.00000000000E+00  0.00000000000E+00  0.72209770389E+03  0.72209770389E+03  0.00000000000E+00 0.  1.
         21   -1    0    0  503  502 -0.00000000000E+00 -0.00000000000E+00 -0.16279181462E+01  0.16279181462E+01  0.00000000000E+00 0.  1.
         21    1    1    2  503  504  0.11532592210E+02 -0.18441274403E+02  0.80509006875E+02  0.83395332439E+02  0.00000000000E+00 0.  1.
         21    1    1    2  504  501 -0.11532592210E+02  0.18441274403E+02  0.63996077887E+03  0.64033028960E+03  0.00000000000E+00 0.  1.
</event>
<event>
 4    1  0.2825993E+006  0.2267587E+02  0.7546771E-02  0.1496609E+00
         21   -1    0    0  504  501  0.00000000000E+00  0.00000000000E+00  0.53333195818E+03  0.53333195818E+03  0.00000000000E+00 0. -1.
         21   -1    0    0  503  502 -0.00000000000E+00 -0.00000000000E+00 -0.96858741481E+00  0.96858741481E+00  0.00000000000E+00 0. -1.
         21    1    1    2  503  501 -0.60233151038E+01 -0.21861262746E+02  0.28432823144E+03  0.28523102623E+03  0.00000000000E+00 0. -1.
         21    1    1    2  504  502  0.60233151038E+01  0.21861262746E+02  0.24803513933E+03  0.24906951936E+03  0.00000000000E+00 0. -1.
</event>
<event>
 4    1  0.2825993E+006  0.2341640E+02  0.7546771E-02  0.1487335E+00
         21   -1    0    0  503  501  0.00000000000E+00  0.00000000000E+00  0.51211710148E+02  0.51211710148E+02  0.00000000000E+00 0.  1.
         21   -1    0    0  504  502 -0.00000000000E+00 -0.00000000000E+00 -0.10754509431E+02  0.10754509431E+02  0.00000000000E+00 0. -1.
         21    1    1    2  503  502 -0.10492519779E+02  0.20934054805E+02  0.22286274069E+02  0.32326546889E+02  0.00000000000E+00 0.  1.
         21    1    1    2  504  501  0.10492519779E+02 -0.20934054805E+02  0.18170926648E+02  0.29639672690E+02  0.00000000000E+00 0. -1.
</event>
<event>
 4    1  0.2825993E+006  0.2729418E+02  0.7546771E-02  0.1444675E+00
         21   -1    0    0  504  501  0.00000000000E+00  0.00000000000E+00  0.48114985662E+01  0.48114985662E+01  0.00000000000E+00 0.  1.
         21   -1    0    0  501  502 -0.00000000000E+00 -0.00000000000E+00 -0.24099243517E+03  0.24099243517E+03  0.00000000000E+00 0.  1.
         21    1    1    2  503  502 -0.10245608962E+02  0.25298213580E+02 -0.19157772409E+03  0.19351226442E+03  0.00000000000E+00 0.  1.
         21    1    1    2  504  503  0.10245608962E+02 -0.25298213580E+02 -0.44603212512E+02  0.52291669315E+02  0.00000000000E+00 0.  1.
</event>
<event>
 4    1  0.2825993E+006  0.2052970E+02  0.7546771E-02  0.1526087E+00
         21   -1    0    0  502  501  0.00000000000E+00  0.00000000000E+00  0.23120846145E+03  0.23120846145E+03  0.00000000000E+00 0.  1.
         21   -1    0    0  503  502 -0.00000000000E+00 -0.00000000000E+00 -0.73743199022E+02  0.73743199022E+02  0.00000000000E+00 0. -1.
         21    1    1    2  503  504  0.20500873306E+02  0.10874705026E+01 -0.71846844899E+02  0.74722403068E+02  0.00000000000E+00 0. -1.
         21    1    1    2  504  501 -0.20500873306E+02 -0.10874705026E+01  0.22931210733E+03  0.23022925741E+03  0.00000000000E+00 0.  1.
</event>
<event>
 4    1  0.2825993E+006  0.2975789E+02  0.7546771E-02  0.1421712E+00
         21   -1    0    0  504  501  0.00000000000E+00  0.00000000000E+00  0.58891922498E+01  0.58891922498E+01  0.00000000000E+00 0. -1.
         21   -1    0    0  503  502 -0.00000000000E+00 -0.00000000000E+00 -0.45939024116E+03  0.45939024116E+03  0.00000000000E+00 0. -1.
         21    1    1    2  503  501 -0.32433679750E+01 -0.29580609490E+02 -0.35945618524E+02  0.46664969567E+02  0.00000000000E+00 0. -1.
         21    1    1    2  504  502  0.32433679750E+01  0.29580609490E+02 -0.41755543039E+03  0.41861446384E+03  0.00000000000E+00 0. -1.
</event>
<event>
 4    1  0.2825993E+006  0.4348955E+02  0.7546771E-02  0.1329167E+00
         21   -1    0    0  503  501  0.00000000000E+00  0.00000000000E+00  0.42435144698E+03  0.42435144698E+03  0.00000000000E+00 0.  1.
         21   -1    0    0  501  502 -0.00000000000E+00 -0.00000000000E+00 -0.98662244186E+01  0.98662244186E+01  0.00000000000E+00 0.  1.
         21    1    1    2  503  504  0.31618663576E+02 -0.29859687155E+02  0.36799924284E+03  0.37056009436E+03  0.00000000000E+00 0.  1.
         21    1    1    2  504  502 -0.31618663576E+02  0.29859687155E+02  0.46485979718E+02  0.63657577033E+02  0.00000000000E+00 0.  1.
</event>
<event>
 4    1  0.2825993E+006  0.2345542E+02  0.7546771E-02  0.1486857E+00
         21   -1    0    0  504  501  0.00000000000E+00  0.00000000000E+00  0.14274622108E+02  0.14274622108E+02  0.00000000000E+00 0. -1.
         21   -1    0    0  503  502 -0.00000000000E+00 -0.00000000000E+00 -0.50003044472E+02  0.50003044472E+02  0.00000000000E+00 0. -1.
         21    1    1    2  503  501  0.23290997897E+02 -0.27723564502E+01 -0.24768148315E+01  0.23585825299E+02  0.00000000000E+00 0. -1.
         21    1    1    2  504  502 -0.23290997897E+02  0.27723564502E+01 -0.33251607533E+02  0.40691841281E+02  0.00000000000E+00 0. -1.
</event>
<event>
 4    1  0.2825993E+006  0.2318845E+02  0.7546771E-02  0.1490145E+00
         21   -1    0    0  503  501  0.00000000000E+00  0.00000000000E+00  0.51550370841E+02  0.51550370841E+02  0.00000000000E+00 0.  1.
         21   -1    0    0  504  502 -0.00000000000E+00 -0.00000000000E+00 -0.26506873187E+03  0.26506873187E+03  0.00000000000E+00 0.  1.
         21    1    1    2  503  502  0.23181348632E+02 -0.57402397666E+00  0.48404308247E+02  0.53671980444E+02  0.00000000000E+00 0.  1.
         21    1    1    2  504  501 -0.23181348632E+02  0.57402397666E+00 -0.26192266928E+03  0.26294712227E+03  0.00000000000E+00 0.  1.
</event>
<event>
 4    1  0.2825993E+006  0.2646234E+02  0.7546771E-02  0.1453085E+00
         21   -1    0    0  504  501  0.00000000000E+00  0.00000000000E+00  0.17760533150E+01  0.17760533150E+01  0.00000000000E+00 0. -1.
         21   -1    0    0  503  502 -0.00000000000E+00 -0.00000000000E+00 -0.13816195417E+04  0.13816195417E+04  0.00000000000E+00 0. -1.
         21    1    1    2  503  501  0.13700911468E+02 -0.22639356543E+02 -0.10519053546E+03  0.10846798693E+03  0.00000000000E+00 0. -1.
         21    1    1    2  504  502 -0.13700911468E+02  0.22639356543E+02 -0.12746529529E+04  0.12749276081E+04  0.00000000000E+00 0. -1.
</event>
<event>
 4    1  0.2825993E+006  0.2071927E+02  0.7546771E-02  0.1523311E+00
         21   -1    0    0  503  501  0.00000000000E+00  0.00000000000E+00  0.10923478170E+04  0.10923478170E+04  0.00000000000E+00 0.  1.
         21   -1    0    0  501  502 -0.00000000000E+00 -0.00000000000E+00 -0.45614618787E+00  0.45614618787E+00  0.00000000000E+00 0.  1.
         21    1    1    2  503  504  0.49655797574E+01  0.20115441461E+02  0.74925112696E+03  0.74953755024E+03  0.00000000000E+00 0.  1.
         21    1    1    2  504  502 -0.49655797574E+01 -0.20115441461E+02  0.34264054387E+03  0.34326641297E+03  0.00000000000E+00 0.  1.
</event>
<event>
 4    1  0.2825993E+006  0.2091731E+02  0.7546771E-02  0.1520449E+00
         21   -1    0    0  504  501  0.00000000000E+00  0.00000000000E+00  0.13710304964E+03  0.13710304964E+03  0.00000000000E+00 0. -1.
         21   -1    0    0  503  502 -0.00000000000E+00 -0.00000000000E+00 -0.92600067968E+01  0.92600067968E+01  0.00000000000E+00 0. -1.
         21    1    1    2  503  501 -0.19466487722E+02  0.76544022481E+01  0.12316556161E+03  0.12492913826E+03  0.00000000000E+00 0. -1.
         21    1    1    2  504  502  0.19466487722E+02 -0.76544022481E+01  0.46774812331E+01  0.21433918183E+02  0.00000000000E+00 0. -1.
</event>
<event>
 4    1  0.2825993E+006  0.2099189E+02  0.7546771E-02  0.1519381E+00
         21   -1    0    0  502  501  0.00000000000E+00  0.00000000000E+00  0.26218102963E+02  0.26218102963E+02  0.00000000000E+00 0.  1.
         21   -1    0    0  504  502 -0.00000000000E+00 -0.00000000000E+00 -0.27321422711E+02  0.27321422711E+02  0.00000000000E+00 0.  1.
         21    1    1    2  503  501 -0.15747605349E+02  0.13880647299E+02  0.16054770911E+02  0.26427544582E+02  0.00000000000E+00 0.  1.
         21    1    1    2  504  503  0.15747605349E+02 -0.13880647299E+02 -0.17158090659E+02  0.27111981092E+02  0.00000000000E+00 0.  1.
</event>
<event>
 4    1  0.2825993E+006  0.3147351E+02  0.7546771E-02  0.1407210E+00
         21   -1    0    0  503  501  0.00000000000E+00  0.00000000000E+00  0.72517000607E+02  0.72517000607E+02  0.00000000000E+00 0. -1.
         21   -1    0    0  501  502 -0.00000000000E+00 -0.00000000000E+00 -0.37865971645E+02  0.37865971645E+02  0.00000000000E+00 0.  1.
         21    1    1    2  503  504  0.26939387788E+02  0.16274257544E+02  0.61452962800E+02  0.69043817319E+02  0.00000000000E+00 0. -1.
         21    1    1    2  504  502 -0.26939387788E+02 -0.16274257544E+02 -0.26801933839E+02  0.41339154932E+02  0.00000000000E+00 0.  1.
</event>
<event>
 4    1  0.2825993E+006  0.3482000E+02  0.7546771E-02  0.1381833E+00
         21   -1    0    0  502  501  0.00000000000E+00  0.00000000000E+00  0.33469514492E+01  0.33469514492E+01  0.00000000000E+00 0.  1.
         21   -1    0    0  504  502 -0.00000000000E+00 -0.00000000000E+00 -0.12083188342E+04  0.12083188342E+04  0.00000000000E+00 0.  1.
         21    1    1    2  503  501 -0.12620286947E+02  0.32452435013E+02 -0.95536089293E+02  0.10168370832E+03  0.00000000000E+00 0.  1.
         21    1    1    2  504  503  0.12620286947E+02 -0.32452435013E+02 -0.11094357935E+04  0.11099820774E+04  0.00000000000E+00 0.  1.
</event>
<event>
 4    1  0.2825993E+006  0.2379815E+02  0.7546771E-02  0.1482712E+00
         21   -1    0    0  503  501  0.00000000000E+00  0.00000000000E+00  0.67846904904E+02  0.67846904904E+02  0.00000000000E+00 0.  1.
         21   -1    0    0  504  502 -0.00000000000E+00 -0.00000000000E+00 -0.17013639032E+03  0.17013639032E+03  0.00000000000E+00 0. -1.
         21    1    1    2  503  502  0.37007741378E+01 -0.23508639246E+02 -0.16718060199E+03  0.16886593952E+03  0.00000000000E+00 0. -1.
         21    1    1    2  504  501 -0.37007741378E+01  0.23508639246E+02  0.64891116577E+02  0.69117355700E+02  0.00000000000E+00 0.  1.
</event>
<event>
 4    1  0.2825993E+006  0.2343140E+02  0.7546771E-02  0.1487151E+00
         21   -1    0    0  504  501  0.00000000000E+00  0.00000000000E+00  0.14959780898E+01  0.14959780898E+01  0.00000000000E+00 0.  1.
         21   -1    0    0  503  502 -0.00000000000E+00 -0.00000000000E+00 -0.39722414844E+03  0.39722414844E+03  0.00000000000E+00 0.  1.
         21    1    1    2  503  501  0.71467358506E-01  0.23431294227E+02 -0.14287642892E+03  0.14478502891E+03  0.00000000000E+00 0.  1.
         21    1    1    2  504  502 -0.71467358506E-01 -0.23431294227E+02 -0.25285174143E+03  0.25393509762E+03  0.00000000000E+00 0.  1.
</event>
<event>
 4    1  0.2825993E+006  0.3029802E+02  0.7546771E-02  0.1417024E+00
         21   -1    0    0  502  501  0.00000000000E+00  0.00000000000E+00  0.74549414695E+02  0.74549414695E+02  0.00000000000E+00 0. -1.
         21   -1    0    0  504  502 -0.00000000000E+00 -0.00000000000E+00 -0.50473825261E+02  0.50473825261E+02  0.00000000000E+00 0. -1.
         21    1    1    2  503  501 -0.59740644153E+01  0.29703203448E+02  0.66392013246E+02  0.72978552764E+02  0.00000000000E+00 0. -1.
         21    1    1    2  504  503  0.59740644153E+01 -0.29703203448E+02 -0.42316423812E+02  0.52044687192E+02  0.00000000000E+00 0. -1.
</event>
<event>
 4    1  0.2825993E+006  0.2751208E+02  0.7546771E-02  0.1442531E+00
         21   -1    0    0  503  501  0.00000000000E+00  0.00000000000E+00  0.19611715378E+03  0.19611715378E+03  0.00000000000E+00 0.  1.
         21   -1    0    0  501  502 -0.00000000000E+00 -0.00000000000E+00 -0.38783577888E+01  0.38783577888E+01  0.00000000000E+00 0.  1.
         21    1    1    2  503  504 -0.87344466879E+01 -0.26088774177E+02  0.10309175920E+03  0.10669969781E+03  0.00000000000E+00 0.  1.
         21    1    1    2  504  502  0.87344466879E+01  0.26088774177E+02  0.89147036791E+02  0.93295813763E+02  0.00000000000E+00 0.  1.
</event>
<event>
 4    1  0.2825993E+006  0.2922024E+02  0.7546771E-02  0.1426496E+00
         21   -1    0    0  503  501  0.00000000000E+00  0.00000000000E+00  0.17905447077E+03  0.17905447077E+03  0.00000000000E+00 0.  1.
         21   -1    0    0  504  502 -0.00000000000E+00 -0.00000000000E+00 -0.20350009225E+02  0.20350009225E+02  0.00000000000E+00 0.  1.
         21    1    1    2  503  502 -0.26065249419E+02 -0.13207012867E+02 -0.78901040314E+01  0.30266750036E+02  0.00000000000E+00 0.  1.
         21    1    1    2  504  501  0.26065249419E+02  0.13207012867E+02  0.16659456558E+03  0.16913772996E+03  0.00000000000E+00 0.  1.
</event>
<event>
 4    1  0.2825993E+006  0.2537581E+02  0.7546771E-02  0.1464643E+00
         21   -1    0    0  503  501  0.00000000000E+00  0.00000000000E+00  0.60341028554E+02  0.60341028554E+02  0.00000000000E+00 0. -1.
         21   -1    0    0  504  502 -0.00000000000E+00 -0.00000000000E+00 -0.16114876036E+02  0.16114876036E+02  0.00000000000E+00 0. -1.
         21    1    1    2  503  502  0.20219551448E+02  0.15333011555E+02 -0.10468281831E+00  0.25376021410E+02  0.00000000000E+00 0. -1.
         21    1    1    2  504  501 -0.20219551448E+02 -0.15333011555E+02  0.44330835336E+02  0.51079883180E+02  0.00000000000E+00 0. -1.
</event>
<event>
 4    1  0.2825993E+006  0.2315547E+02  0.7546771E-02  0.1490555E+00
         21   -1    0    0  502  501  0.00000000000E+00  0.00000000000E+00  0.11825895741E+03  0.11825895741E+03  0.00000000000E+00 0. -1.
         21   -1    0    0  504  502 -0.00000000000E+00 -0.00000000000E+00 -0.54152965295E+01  0.54152965295E+01  0.00000000000E+00 0. -1.
         21    1    1    2  503  501  0.54117646459E+01 -0.22514184707E+02  0.81368977472E+02  0.84599563854E+02  0.00000000000E+00 0. -1.
         21    1    1    2  504  503 -0.54117646459E+01  0.22514184707E+02  0.31474683412E+02  0.39074690088E+02  0.00000000000E+00 0. -1.
</event>
<event>
 4    1  0.2825993E+006  0.2075336E+02  0.7546771E-02  0.1522816E+00
         21   -1    0    0  503  501  0.00000000000E+00  0.00000000000E+00  0.32990992889E+01  0.32990992889E+01  0.00000000000E+00 0.  1.
         21   -1    0    0  504  502 -0.00000000000E+00 -0.00000000000E+00 -0.43010607402E+03  0.43010607402E+03  0.00000000000E+00 0.  1.
         21    1    1    2  503  502 -0.13331844268E+02 -0.15904839705E+02 -0.39425175996E+03  0.39479760920E+03  0.00000000000E+00 0.  1.
         21    1    1    2  504  501  0.13331844268E+02  0.15904839705E+02 -0.32555214766E+02  0.38607564105E+02  0.00000000000E+00 0.  1.
</event>
<event>
 4    1  0.2825993E+006  0.2299468E+02  0.7546771E-02  0.1492565E+00
         21   -1    0    0  504  501  0.00000000000E+00  0.00000000000E+00  0.48364948425E+02  0.48364948425E+02  0.00000000000E+00 0.  1.
         21   -1    0    0  503  502 -0.00000000000E+00 -0.00000000000E+00 -0.13432924888E+02  0.13432924888E+02  0.00000000000E+00 0.  1.
         21    1    1    2  503  501  0.17692750247E+02 -0.14687478212E+02  0.30796775766E+02  0.38434318325E+02  0.00000000000E+00 0.  1.
         21    1    1    2  504  502 -0.17692750247E+02  0.14687478212E+02  0.41352477702E+01  0.23363554988E+02  0.00000000000E+00 0.  1.
</event>
<event>
 4    1  0.2825993E+006  0.3010610E+02  0.7546771E-02  0.1418677E+00
         21   -1    0    0  503  501  0.00000000000E+00  0.00000000000E+00  0.23219182107E+03  0.23219182107E+03  0.00000000000E+00 0.  1.
         21   -1    0    0  504  502 -0.00000000000E+00 -0.00000000000E+00 -0.11680647416E+02  0.11680647416E+02  0.00000000000E+00 0. -1.
         21    1    1    2  503  502  0.21730299721E+02 -0.20836774786E+02  0.10759151314E+02  0.31970868716E+02  0.00000000000E+00 0. -1.
         21    1    1    2  504  501 -0.21730299721E+02  0.20836774786E+02  0.20975202234E+03  0.21190159977E+03  0.00000000000E+00 0.  1.
</event>
<event>
 4    1  0.2825993E+006  0.2184866E+02  0.7546771E-02  0.1507485E+00
         21   -1    0    0  503  501  0.00000000000E+00  0.00000000000E+00  0.23071083828E+02  0.23071083828E+02  0.00000000000E+00 0. -1.
         21   -1    0    0  504  502 -0.00000000000E+00 -0.00000000000E+00 -0.61183840301E+02  0.61183840301E+02  0.00000000000E+00 0. -1.
         21    1    1    2  503  502 -0.41569232887E+01 -0.21449562136E+02  0.15215354794E+02  0.26624626731E+02  0.00000000000E+00 0. -1.
         21    1    1    2  504  501  0.41569232887E+01  0.21449562136E+02 -0.53328111266E+02  0.57630297399E+02  0.00000000000E+00 0. -1.
</event>
<event>
 4    1  0.2825993E+006  0.2288656E+02  0.7546771E-02  0.1493928E+00
         21   -1    0    0  503  501  0.00000000000E+00  0.00000000000E+00  0.73607854908E+02  0.73607854908E+02  0.00000000000E+00 0.  1.
         21   -1    0    0  501  502 -0.00000000000E+00 -0.00000000000E+00 -0.18134307485E+02  0.18134307485E+02  0.00000000000E+00 0. -1.
         21    1    1    2  503  504 -0.21335186238E+02  0.82827803364E+01  0.63492502252E+02  0.67491425116E+02  0.00000000000E+00 0.  1.
         21    1    1    2  504  502  0.21335186238E+02 -0.82827803364E+01 -0.80189548299E+01  0.24250737277E+02  0.00000000000E+00 0. -1.
</event>
<event>
 4    1  0.2825993E+006  0.2476463E+02  0.7546771E-02  0.1471454E+00
         21   -1    0    0  502  501  0.00000000000E+00  0.00000000000E+00  0.79592312619E+02  0.79592312619E+02  0.00000000000E+00 0.  1.
         21   -1    0    0  503  502 -0.00000000000E+00 -0.00000000000E+00 -0.77701712177E+01  0.77701712177E+01  0.00000000000E+00 0.  1.
         21    1    1    2  503  504 -0.17014711299E+02 -0.17994069958E+02  0.31921515647E+02  0.40401362791E+02  0.00000000000E+00 0.  1.
         21    1    1    2  504  501  0.17014711299E+02  0.17994069958E+02  0.39900625755E+02  0.46961121045E+02  0.00000000000E+00 0.  1.
</event>
<event>
 4    1  0.2825993E+006  0.2602021E+02  0.7546771E-02  0.1457707E+00
         21   -1    0    0  504  501  0.00000000000E+00  0.00000000000E+00  0.79627485789E+02  0.79627485789E+02  0.00000000000E+00 0.  1.
         21   -1    0    0  503  502 -0.00000000000E+00 -0.00000000000E+00 -0.98459586700E+02  0.98459586700E+02  0.00000000000E+00 0.  1.
         21    1    1    2  503  501 -0.25616887257E+02 -0.45635706408E+01 -0.94527998039E+02  0.98043834600E+02  0.00000000000E+00 0.  1.
         21    1    1    2  504  502  0.25616887257E+02  0.45635706408E+01  0.75695897129E+02  0.80043237890E+02  0.00000000000E+00 0.  1.
</event>
<event>
 4    1  0.2825993E+006  0.2864687E+02  0.7546771E-02  0.1431731E+00
         21   -1    0    0  504  501  0.00000000000E+00  0.00000000000E+00  0.84503209938E+01  0.84503209938E+01  0.00000000000E+00 0.  1.
         21   -1    0    0  501  502 -0.00000000000E+00 -0.00000000000E+00 -0.11025872986E+03  0.11025872986E+03  0.00000000000E+00 0.  1.
         21    1    1    2  503  502  0.26988019072E+02  0.96067621099E+01 -0.71398167788E+02  0.76930757277E+02  0.00000000000E+00 0.  1.
         21    1    1    2  504  503 -0.26988019072E+02 -0.96067621099E+01 -0.30410241074E+02  0.41778293573E+02  0.00000000000E+00 0.  1.
</event>
<event>
 4    1  0.2825993E+006  0.2265978E+02  0.7546771E-02  0.1496815E+00
         21   -1    0    0  504  501  0.00000000000E+00  0.00000000000E+00  0.46707232990E+02  0.46707232990E+02  0.00000000000E+00 0. -1.
         21   -1    0    0  501  502 -0.00000000000E+00 -0.00000000000E+00 -0.41005358770E+02  0.41005358770E+02  0.00000000000E+00 0. -1.
         21    1    1    2  503  502  0.22603751044E+02  0.15924534974E+01 -0.34668793649E+02  0.41417275652E+02  0.00000000000E+00 0. -1.
         21    1    1    2  504  503 -0.22603751044E+02 -0.15924534974E+01  0.40370667869E+02  0.46295316108E+02  0.00000000000E+00 0. -1.
</event>
<event>
 4    1  0.2825993E+006  0.2218343E+02  0.7546771E-02  0.1503015E+00
         21   -1    0    0  504  501  0.00000000000E+00  0.00000000000E+00  0.33276472975E+02  0.33276472975E+02  0.00000000000E+00 0.  1.
         21   -1    0    0  503  502 -0.00000000000E+00 -0.00000000000E+00 -0.15853592201E+02  0.15853592201E+02  0.00000000000E+00 0.  1.
         21    1    1    2  503  501  0.19053808032E+02 -0.11360320369E+02  0.15079036944E+02  0.26823158549E+02  0.00000000000E+00 0.  1.
         21    1    1    2  504  502 -0.19053808032E+02  0.11360320369E+02  0.23438438291E+01  0.22306906627E+02  0.00000000000E+00 0.  1.
</event>
<event>
 4    1  0.2825993E+006  0.2113480E+02  0.7546771E-02  0.1517349E+00
         21   -1    0    0  504  501  0.00000000000E+00  0.00000000000E+00  0.22780507282E+01  0.22780507282E+01  0.00000000000E+00 0. -1.
         21   -1    0    0  503  502 -0.00000000000E+00 -0.00000000000E+00 -0.22851195654E+03  0.22851195654E+03  0.00000000000E+00 0.  1.
         21    1    1    2  503  501 -0.17253227444E+02  0.12206792931E+02 -0.69643844870E+02  0.72780112525E+02  0.00000000000E+00 0. -1.
         21    1    1    2  504  502  0.17253227444E+02 -0.12206792931E+02 -0.15659006094E+03  0.15800989474E+03  0.00000000000E+00 0.  1.
</event>
<event>
 4    1  0.2825993E+006  0.2136230E+02  0.7546771E-02  0.1514154E+00
         21   -1    0    0  502  501  0.00000000000E+00  0.00000000000E+00  0.95340423046E+01  0.95340423046E+01  0.00000000000E+00 0.  1.
         21   -1    0    0  504  502 -0.00000000000E+00 -0.00000000000E+00 -0.58615659385E+02  0.58615659385E+02  0.00000000000E+00 0.  1.
         21    1    1    2  503  501  0.25111526464E+01  0.21214197566E+02 -0.99478855409E+01  0.23564984463E+02  0.00000000000E+00 0.  1.
         21    1    1    2  504  503 -0.25111526464E+01 -0.21214197566E+02 -0.39133731540E+02  0.44584717227E+02  0.00000000000E+00 0.  1.
</event>
<event>
 4    1  0.2825993E+006  0.2836551E+02  0.7546771E-02  0.1434353E+00
         21   -1    0    0  504  501  0.00000000000E+00  0.00000000000E+00  0.27432972076E+02  0.27432972076E+02  0.00000000000E+00 0. -1.
         21   -1    0    0  503  502 -0.00000000000E+00 -0.00000000000E+00 -0.29746703340E+02  0.29746703340E+02  0.00000000000E+00 0. -1.
         21    1    1    2  503  501  0.19953472785E+02  0.20160873810E+02 -0.45417338468E+01  0.28726803778E+02  0.00000000000E+00 0. -1.
         21    1    1    2  504  502 -0.19953472785E+02 -0.20160873810E+02  0.22280025825E+01  0.28452871638E+02  0.00000000000E+00 0. -1.
</event>
<event>
 4    1  0.2825993E+006  0.3134990E+02  0.7546771E-02  0.1408218E+00
         21   -1    0    0  502  501  0.00000000000E+00  0.00000000000E+00  0.63109626315E+02  0.63109626315E+02  0.00000000000E+00 0.  1.
         21   -1    0    0  504  502 -0.00000000000E+00 -0.00000000000E+00 -0.11026674543E+03  0.11026674543E+03  0.00000000000E+00 0.  1.
         21    1    1    2  503  501  0.95522611498E+01 -0.29859179751E+02  0.56755167565E+02  0.64837993135E+02  0.00000000000E+00 0.  1.
         21    1    1    2  504  503 -0.95522611498E+01  0.29859179751E+02 -0.10391228668E+03  0.10853837861E+03  0.00000000000E+00 0.  1.
</event>
<event>
 4    1  0.2825993E+006  0.2087336E+02  0.7546771E-02  0.1521081E+00
         21   -1    0    0  504  501  0.00000000000E+00  0.00000000000E+00  0.24051993650E+02  0.24051993650E+02  0.00000000000E+00 0. -1.
         21   -1    0    0  503  502 -0.00000000000E+00 -0.00000000000E+00 -0.15644378566E+03  0.15644378566E+03  0.00000000000E+00 0.  1.
         21    1    1    2  503  501  0.61999246250E+01  0.19931331313E+02 -0.15105813667E+03  0.15249346769E+03  0.00000000000E+00 0.  1.
         21    1    1    2  504  502 -0.61999246250E+01 -0.19931331313E+02  0.18666344659E+02  0.28002311622E+02  0.00000000000E+00 0. -1.
</event>
<event>
 4    1  0.2825993E+006  0.2354570E+02  0.7546771E-02  0.1485757E+00
         21   -1    0    0  503  501  0.00000000000E+00  0.00000000000E+00  0.99877984086E+00  0.99877984086E+00  0.00000000000E+00 0. -1.
         21   -1    0    0  504  502 -0.00000000000E+00 -0.00000000000E+00 -0.67116469520E+03  0.67116469520E+03  0.00000000000E+00 0. -1.
         21    1    1    2  503  502 -0.46868869768E+01 -0.23074510038E+02 -0.47485588858E+03  0.47543928618E+03  0.00000000000E+00 0. -1.
         21    1    1    2  504  501  0.46868869768E+01  0.23074510038E+02 -0.19531002678E+03  0.19672418886E+03  0.00000000000E+00 0. -1.
</event>
<event>
 4    1  0.2825993E+006  0.2050150E+02  0.7546771E-02  0.1526503E+00
         21   -1    0    0  504  501  0.00000000000E+00  0.00000000000E+00  0.13699976440E+02  0.13699976440E+02  0.00000000000E+00 0. -1.
         21   -1    0    0  501  502 -0.00000000000E+00 -0.00000000000E+00 -0.46784343643E+02  0.46784343643E+02  0.00000000000E+00 0. -1.
         21    1    1    2  503  502 -0.90041595952E+01 -0.18418373400E+02 -0.34285626703E+02  0.39947660346E+02  0.00000000000E+00 0. -1.
         21    1    1    2  504  503  0.90041595952E+01  0.18418373400E+02  0.12012594999E+01  0.20536659736E+02  0.00000000000E+00 0. -1.
</event>
<event>
 4    1  0.2825993E+006  0.2285965E+02  0.7546771E-02  0.1494268E+00
         21   -1    0    0  504  501  0.00000000000E+00  0.00000000000E+00  0.28726324823E+03  0.28726324823E+03  0.00000000000E+00 0. -1.
         21   -1    0    0  501  502 -0.00000000000E+00 -0.00000000000E+00 -0.89617094238E+01  0.89617094238E+01  0.00000000000E+00 0. -1.
         21    1    1    2  503  502  0.21753532285E+02  0.70247793457E+01  0.69224912541E+01  0.23884818963E+02  0.00000000000E+00 0. -1.
         21    1    1    2  504  503 -0.21753532285E+02 -0.70247793457E+01  0.27137904755E+03  0.27234013869E+03  0.00000000000E+00 0. -1.
</event>
<event>
 4    1  0.2825993E+006  0.2373122E+02  0.7546771E-02  0.1483515E+00
         21   -1    0    0  504  501  0.00000000000E+00  0.00000000000E+00  0.85306486836E+01  0.85306486836E+01  0.00000000000E+00 0. -1.
         21   -1    0    0  503  502 -0.00000000000E+00 -0.00000000000E+00 -0.71649750550E+02  0.71649750550E+02  0.00000000000E+00 0. -1.
         21    1    1    2  503  501  0.90469744476E+01 -0.21939077271E+02 -0.20319262119E+02  0.31241691235E+02  0.00000000000E+00 0. -1.
         21    1    1    2  504  502 -0.90469744476E+01  0.21939077271E+02 -0.42799839747E+02  0.48938707998E+02  0.00000000000E+00 0. -1.
</event>
<event>
 4    1  0.2825993E+006  0.2494125E+02  0.7546771E-02  0.1469462E+00
         21   -1    0    0  502  501  0.00000000000E+00  0.00000000000E+00  0.69983329763E+02  0.69983329763E+02  0.00000000000E+00 0. -1.
         21   -1    0    0  503  502 -0.00000000000E+00 -0.00000000000E+00 -0.97077947218E+01  0.97077947218E+01  0.00000000000E+00 0. -1.
         21    1    1    2  503  504 -0.22481100677E+02 -0.10801202790E+02  0.41711344770E+02  0.48599404851E+02  0.00000000000E+00 0. -1.
         21    1    1    2  504  501  0.22481100677E+02  0.10801202790E+02  0.18564190272E+02  0.31091719634E+02  0.00000000000E+00 0. -1.
</event>
<event>
 4    1  0.2825993E+006  0.2255172E+02  0.7546771E-02  0.1498205E+00
         21   -1    0    0  503  501  0.00000000000E+00  0.00000000000E+00  0.13904606155E+04  0.13904606155E+04  0.00000000000E+00 0. -1.
         21   -1    0    0  504  502 -0.00000000000E+00 -0.00000000000E+00 -0.13354395850E+01  0.13354395850E+01  0.00000000000E+00 0.  1.
         21    1    1    2  503  502 -0.20405609871E+02 -0.96016315863E+01  0.10157344167E+03  0.10404683703E+03  0.00000000000E+00 0.  1.
         21    1    1    2  504  501  0.20405609871E+02  0.96016315863E+01  0.12875517342E+04  0.12877492180E+04  0.00000000000E+00 0. -1.
</event>
<event>
 4    1  0.2825993E+006  0.2097985E+02  0.7546771E-02  0.1519553E+00
         21   -1    0    0  503  501  0.00000000000E+00  0.00000000000E+00  0.35937757177E+01  0.35937757177E+01  0.00000000000E+00 0.  1.
         21   -1    0    0  504  502 -0.00000000000E+00 -0.00000000000E+00 -0.15277407174E+03  0.15277407174E+03  0.00000000000E+00 0. -1.
         21    1    1    2  503  502 -0.74039748198E+01 -0.19629962806E+02 -0.39772924862E+02  0.44967097249E+02  0.00000000000E+00 0.  1.
         21    1    1    2  504  501  0.74039748198E+01  0.19629962806E+02 -0.10940737116E+03  0.11140075021E+03  0.00000000000E+00 0. -1.
</event>
<event>
 4    1  0.2825993E+006  0.3498796E+02  0.7546771E-02  0.1380648E+00
         21   -1    0    0  504  501  0.00000000000E+00  0.00000000000E+00  0.90143347363E+02  0.90143347363E+02  0.00000000000E+00 0.  1.
         21   -1    0    0  503  502 -0.00000000000E+00 -0.00000000000E+00 -0.40726930626E+02  0.40726930626E+02  0.00000000000E+00 0.  1.
         21    1    1    2  503  501  0.23759244711E+02 -0.25683756683E+02 -0.28714958837E+02  0.45262632796E+02  0.00000000000E+00 0.  1.
         21    1    1    2  504  502 -0.23759244711E+02  0.25683756683E+02  0.78131375573E+02  0.85607645193E+02  0.00000000000E+00 0.  1.
</event>
<event>
 4    1  0.2825993E+006  0.2023240E+02  0.7546771E-02  0.1530512E+00
         21   -1    0    0  504  501  0.00000000000E+00  0.00000000000E+00  0.12564356807E+04  0.12564356807E+04  0.00000000000E+00 0.  1.
         21   -1    0    0  503  502 -0.00000000000E+00 -0.00000000000E+00 -0.37866250351E+00  0.37866250351E+00  0.00000000000E+00 0.  1.
         21    1    1    2  503  501 -0.18492512329E+02 -0.82083430516E+01  0.86281791867E+03  0.86305510293E+03  0.00000000000E+00 0.  1.
         21    1    1    2  504  502  0.18492512329E+02  0.82083430516E+01  0.39323909955E+03  0.39375924030E+03  0.00000000000E+00 0.  1.
</event>
<event>
 4    1  0.2825993E+006  0.2391197E+02  0.7546771E-02  0.1481353E+00
         21   -1    0    0  502  501  0.00000000000E+00  0.00000000000E+00  0.21571986535E+02  0.21571986535E+02  0.00000000000E+00 0.  1.
         21   -1    0    0  503  502 -0.00000000000E+00 -0.00000000000E+00 -0.41346468076E+02  0.41346468076E+02  0.00000000000E+00 0.  1.
         21    1    1    2  503  504  0.23910195137E+02  0.29129671458E+00 -0.28734833613E+02  0.37382789463E+02  0.00000000000E+00 0.  1.
         21    1    1    2  504  501 -0.23910195137E+02 -0.29129671458E+00  0.89603520732E+01  0.25535665148E+02  0.00000000000E+00 0.  1.
</event>
<event>
 4    1  0.2825993E+006  0.2283491E+02  0.7546771E-02  0.1494582E+00
         21   -1    0    0  503  501  0.00000000000E+00  0.00000000000E+00  0.16298321101E+01  0.16298321101E+01  0.00000000000E+00 0. -1.
         21   -1    0    0  504  502 -0.00000000000E+00 -0.00000000000E+00 -0.78787723308E+03  0.78787723308E+03  0.00000000000E+00 0. -1.
         21    1    1    2  503  502  0.22765449677E+02 -0.17797007985E+01 -0.69734873589E+03  0.69772250392E+03  0.00000000000E+00 0. -1.
         21    1    1    2  504  501 -0.22765449677E+02  0.17797007985E+01 -0.88898665079E+02  0.91784561266E+02  0.00000000000E+00 0. -1.
</event>
<event>
 4    1  0.2825993E+006  0.3102581E+02  0.7546771E-02  0.1410887E+00
         21   -1    0    0  504  501  0.00000000000E+00  0.00000000000E+00  0.10779970670E+03  0.10779970670E+03  0.00000000000E+00 0.  1.
         21   -1    0    0  503  502 -0.00000000000E+00 -0.00000000000E+00 -0.24795294842E+02  0.24795294842E+02  0.00000000000E+00 0.  1.
         21    1    1    2  503  501  0.15783250782E+02  0.26711236224E+02  0.94534812133E+02  0.99495888613E+02  0.00000000000E+00 0.  1.
         21    1    1    2  504  502 -0.15783250782E+02 -0.26711236224E+02 -0.11530400279E+02  0.33099112926E+02  0.00000000000E+00 0.  1.
</event>
<event>
 4    1  0.2825993E+006  0.2716534E+02  0.7546771E-02  0.1445954E+00
         21   -1    0    0  504  501  0.00000000000E+00  0.00000000000E+00  0.13406223696E+03  0.13406223696E+03  0.00000000000E+00 0. -1.
         21   -1    0    0  503  502 -0.00000000000E+00 -0.00000000000E+00 -0.11243729150E+02  0.11243729150E+02  0.00000000000E+00 0.  1.
         21    1    1    2  503  501 -0.10416319904E+02 -0.25088962620E+02  0.11331580482E+03  0.11652650938E+03  0.00000000000E+00 0. -1.
         21    1    1    2  504  502  0.10416319904E+02  0.25088962620E+02  0.95027029894E+01  0.28779456732E+02  0.00000000000E+00 0.  1.
</event>
<event>
 4    1  0.2825993E+006  0.2134490E+02  0.7546771E-02  0.1514397E+00
         21   -1    0    0  503  501  0.00000000000E+00  0.00000000000E+00  0.52661275960E+01  0.52661275960E+01  0.00000000000E+00 0. -1.
         21   -1    0    0  501  502 -0.00000000000E+00 -0.00000000000E+00 -0.29466582337E+03  0.29466582337E+03  0.00000000000E+00 0. -1.
         21    1    1    2  503  504 -0.55777438950E+01 -0.20603241292E+02 -0.18657704274E+02  0.28349862565E+02  0.00000000000E+00 0. -1.
         21    1    1    2  504  502  0.55777438950E+01  0.20603241292E+02 -0.27074199150E+03  0.27158208840E+03  0.00000000000E+00 0. -1.
</event>
<event>
 4    1  0.2825993E+006  0.2004048E+02  0.7546771E-02  0.1533418E+00
         21   -1    0    0  504  501  0.00000000000E+00  0.00000000000E+00  0.30130334426E+02  0.30130334426E+02  0.00000000000E+00 0.  1.
         21   -1    0    0  503  502 -0.00000000000E+00 -0.00000000000E+00 -0.33318370659E+02  0.33318370659E+02  0.00000000000E+00 0.  1.
         21    1    1    2  503  501  0.81645441610E+01  0.18301939876E+02  0.22978267936E+02  0.30489696324E+02  0.00000000000E+00 0.  1.
         21    1    1    2  504  502 -0.81645441610E+01 -0.18301939876E+02 -0.26166304170E+02  0.32959008761E+02  0.00000000000E+00 0.  1.
</event>
<event>
 4    1  0.2825993E+006  0.2024565E+02  0.7546771E-02  0.1530313E+00
         21   -1    0    0  503  501  0.00000000000E+00  0.00000000000E+00  0.72460327588E+01  0.72460327588E+01  0.00000000000E+00 0.  1.
         21   -1    0    0  504  502 -0.00000000000E+00 -0.00000000000E+00 -0.61852193598E+02  0.61852193598E+02  0.00000000000E+00 0. -1.
         21    1    1    2  503  502 -0.76963101833E+01 -0.18725737511E+02 -0.17203827932E+02  0.26567990727E+02  0.00000000000E+00 0.  1.
         21    1    1    2  504  501  0.76963101833E+01  0.18725737511E+02 -0.37402332908E+02  0.42530235630E+02  0.00000000000E+00 0. -1.
</event>
<event>
 4    1  0.2825993E+006  0.2192631E+02  0.7546771E-02  0.1506439E+00
         21   -1    0    0  502  501  0.00000000000E+00  0.00000000000E+00  0.19822125512E+01  0.19822125512E+01  0.00000000000E+00 0. -1.
         21   -1    0    0  504  502 -0.00000000000E+00 -0.00000000000E+00 -0.48530505053E+03  0.48530505053E+03  0.00000000000E+00 0. -1.
         21    1    1    2  503  501  0.20604911824E+02 -0.74967205311E+01 -0.69338943882E+02  0.72723121142E+02  0.00000000000E+00 0. -1.
         21    1    1    2  504  503 -0.20604911824E+02  0.74967205311E+01 -0.41398389410E+03  0.41456414194E+03  0.00000000000E+00 0. -1.
</event>
<event>
 4    1  0.2825993E+006  0.2768723E+02  0.7546771E-02  0.1440824E+00
         21   -1    0    0  504  501  0.00000000000E+00  0.00000000000E+00  0.13153095541E+03  0.13153095541E+03  0.00000000000E+00 0. -1.
         21   -1    0    0  503  502 -0.00000000000E+00 -0.00000000000E+00 -0.12227216556E+03  0.12227216556E+03  0.00000000000E+00 0. -1.
         21    1    1    2  503  501 -0.54468689603E+01  0.27146162516E+02 -0.11921083280E+03  0.12238384361E+03  0.00000000000E+00 0. -1.
         21    1    1    2  504  502  0.54468689603E+01 -0.27146162516E+02  0.12846962264E+03  0.13141927736E+03  0.00000000000E+00 0. -1.
</event>
<event>
 4    1  0.2825993E+006  0.2265751E+02  0.7546771E-02  0.1496844E+00
         21   -1    0    0  503  501  0.00000000000E+00  0.00000000000E+00  0.64080116684E+03  0.64080116684E+03  0.00000000000E+00 0.  1.
         21   -1    0    0  504  502 -0.00000000000E+00 -0.00000000000E+00 -0.32796442676E+01  0.32796442676E+01  0.00000000000E+00 0.  1.
         21    1    1    2  503  502  0.80596918657E+01 -0.21175556582E+02  0.38802679793E+02  0.44933403929E+02  0.00000000000E+00 0.  1.
         21    1    1    2  504  501 -0.80596918657E+01  0.21175556582E+02  0.59871884278E+03  0.59914740718E+03  0.00000000000E+00 0.  1.
</event>
<event>
 4    1  0.2825993E+006  0.2378276E+02  0.7546771E-02  0.1482896E+00
         21   -1    0    0  504  501  0.00000000000E+00  0.00000000000E+00  0.35190230762E+02  0.35190230762E+02  0.00000000000E+00 0.  1.
         21   -1    0    0  503  502 -0.00000000000E+00 -0.00000000000E+00 -0.24543021658E+02  0.24543021658E+02  0.00000000000E+00 0. -1.
         21    1    1    2  503  501 -0.43659767984E+01  0.23378581390E+02  0.22868837373E+02  0.32993992544E+02  0.00000000000E+00 0.  1.
         21    1    1    2  504  502  0.43659767984E+01 -0.23378581390E+02 -0.12221628269E+02  0.26739259877E+02  0.00000000000E+00 0. -1.
</event>
<event>
 4    1  0.2825993E+006  0.2073319E+02  0.7546771E-02  0.1523109E+00
         21   -1    0    0  503  501  0.00000000000E+00  0.00000000000E+00  0.15213957821E+04  0.15213957821E+04  0.00000000000E+00 0.  1.
         21   -1    0    0  504  502 -0.00000000000E+00 -0.00000000000E+00 -0.54378129815E+01  0.54378129815E+01  0.00000000000E+00 0. -1.
         21    1    1    2  503  502 -0.20454923440E+02  0.33854547309E+01  0.14660156185E+02  0.25392624442E+02  0.00000000000E+00 0. -1.
         21    1    1    2  504  501  0.20454923440E+02 -0.33854547309E+01  0.15012978129E+04  0.15014409706E+04  0.00000000000E+00 0.  1.
</event>
<event>
 4    1  0.2825993E+006  0.2840226E+02  0.7546771E-02  0.1434009E+00
         21   -1    0    0  503  501  0.00000000000E+00  0.00000000000E+00  0.10788840546E+02  0.10788840546E+02  0.00000000000E+00 0.  1.
         21   -1    0    0  504  502 -0.00000000000E+00 -0.00000000000E+00 -0.86342361243E+02  0.86342361243E+02  0.00000000000E+00 0.  1.
         21    1    1    2  503  502  0.45884789222E+01 -0.28029164440E+02 -0.19997391724E+02  0.34735916193E+02  0.00000000000E+00 0.  1.
         21    1    1    2  504  501 -0.45884789222E+01  0.28029164440E+02 -0.55556128974E+02  0.62395285596E+02  0.00000000000E+00 0.  1.
</event>
<event>
 4    1  0.2825993E+006  0.2895493E+02  0.7546771E-02  0.1428901E+00
         21   -1    0    0  504  501  0.00000000000E+00  0.00000000000E+00  0.18792856884E+02  0.18792856884E+02  0.00000000000E+00 0. -1.
         21   -1    0    0  503  502 -0.00000000000E+00 -0.00000000000E+00 -0.33412893887E+03  0.33412893887E+03  0.00000000000E+00 0.  1.
         21    1    1    2  503  501 -0.16215151962E+02 -0.23988678895E+02 -0.32192674452E+03  0.32322626240E+03  0.00000000000E+00 0.  1.
         21    1    1    2  504  502  0.16215151962E+02  0.23988678895E+02  0.65906625368E+01  0.29695533350E+02  0.00000000000E+00 0. -1.
</event>
<event>
 4    1  0.2825993E+006  0.2212563E+02  0.7546771E-02  0.1503779E+00
         21   -1    0    0  503  501  0.00000000000E+00  0.00000000000E+00  0.96166075486E+02  0.96166075486E+02  0.00000000000E+00 0. -1.
         21   -1    0    0  504  502 -0.00000000000E+00 -0.00000000000E+00 -0.84708381050E+02  0.84708381050E+02  0.00000000000E+00 0. -1.
         21    1    1    2  503  502 -0.67504483704E+01  0.21070717115E+02 -0.81948836731E+02  0.84883187467E+02  0.00000000000E+00 0. -1.
         21    1    1    2  504  501  0.67504483704E+01 -0.21070717115E+02  0.93406531167E+02  0.95991269069E+02  0.00000000000E+00 0. -1.
</event>
<event>
 4    1  0.2825993E+006  0.2859992E+02  0.7546771E-02  0.1432166E+00
         21   -1    0    0  502  501  0.00000000000E+00  0.00000000000E+00  0.67200430426E+01  0.67200430426E+01  0.00000000000E+00 0.  1.
         21   -1    0    0  503  502 -0.00000000000E+00 -0.00000000000E+00 -0.17379689347E+03  0.17379689347E+03  0.00000000000E+00 0.  1.
         21    1    1    2  503  504  0.10193753580E+02  0.26721579256E+02 -0.13294612041E+03  0.13598759628E+03  0.00000000000E+00 0.  1.
         21    1    1    2  504  501 -0.10193753580E+02 -0.26721579256E+02 -0.34130730016E+02  0.44529340231E+02  0.00000000000E+00 0.  1.
</event>
<event>
 4    1  0.2825993E+006  0.3294070E+02  0.7546771E-02  0.1395649E+00
         21   -1    0    0  503  501  0.00000000000E+00  0.00000000000E+00  0.31504902092E+01  0.31504902092E+01  0.00000000000E+00 0. -1.
         21   -1    0    0  504  502 -0.00000000000E+00 -0.00000000000E+00 -0.43729572032E+03  0.43729572032E+03  0.00000000000E+00 0. -1.
         21    1    1    2  503  502  0.12736180559E+02 -0.30378925869E+02 -0.11558147022E+03  0.12018388283E+03  0.00000000000E+00 0. -1.
         21    1    1    2  504  501 -0.12736180559E+02  0.30378925869E+02 -0.31856375989E+03  0.32026232770E+03  0.00000000000E+00 0. -1.
</event>
<event>
 4    1  0.2825993E+006  0.2205422E+02  0.7546771E-02  0.1504728E+00
         21   -1    0    0  502  501  0.00000000000E+00  0.00000000000E+00  0.80508186959E+00  0.80508186959E+00  0.00000000000E+00 0.  1.
         21   -1    0    0  504  502 -0.00000000000E+00 -0.00000000000E+00 -0.10010763440E+04  0.10010763440E+04  0.00000000000E+00 0.  1.
         21    1    1    2  503  501  0.21387603309E+02 -0.53813650776E+01 -0.18470145715E+03  0.18601348590E+03  0.00000000000E+00 0.  1.
         21    1    1    2  504  503 -0.21387603309E+02  0.53813650776E+01 -0.81556980499E+03  0.81586793997E+03  0.00000000000E+00 0.  1.
</event>
<event>
 4    1  0.2825993E+006  0.3011402E+02  0.7546771E-02  0.1418608E+00
         21   -1    0    0  503  501  0.00000000000E+00  0.00000000000E+00  0.26885283966E+01  0.26885283966E+01  0.00000000000E+00 0.  1.
         21   -1    0    0  501  502 -0.00000000000E+00 -0.00000000000E+00 -0.55021364229E+03  0.55021364229E+03  0.00000000000E+00 0.  1.
         21    1    1    2  503  504 -0.11882146868E+02 -0.27670725196E+02 -0.10179396923E+03  0.10615491801E+03  0.00000000000E+00 0.  1.
         21    1    1    2  504  502  0.11882146868E+02  0.27670725196E+02 -0.44573114466E+03  0.44674725267E+03  0.00000000000E+00 0.  1.
</event>
<event>
 4    1  0.2825993E+006  0.2513482E+02  0.7546771E-02  0.1467301E+00
         21   -1    0    0  503  501  0.00000000000E+00  0.00000000000E+00  0.16653138004E+02  0.16653138004E+02  0.00000000000E+00 0.  1.
         21   -1    0    0  504  502 -0.00000000000E+00 -0.00000000000E+00 -0.10452141266E+03  0.10452141266E+03  0.00000000000E+00 0. -1.
         21    1    1    2  503  502  0.21244340555E+02 -0.13432694110E+02  0.44237358944E+01  0.25521142528E+02  0.00000000000E+00 0.  1.
         21    1    1    2  504  501 -0.21244340555E+02  0.13432694110E+02 -0.92292010545E+02  0.95653408132E+02  0.00000000000E+00 0. -1.
</event>
<event>
 4    1  0.2825993E+006  0.3515763E+02  0.7546771E-02  0.1379458E+00
         21   -1    0    0  503  501  0.00000000000E+00  0.00000000000E+00  0.74698019762E+03  0.74698019762E+03  0.00000000000E+00 0. -1.
         21   -1    0    0  501  502 -0.00000000000E+00 -0.00000000000E+00 -0.26368920814E+01  0.26368920814E+01  0.00000000000E+00 0. -1.
         21    1    1    2  503  504  0.45106304991E+01  0.34867080803E+02  0.60091704299E+03  0.60194464169E+03  0.00000000000E+00 0. -1.
         21    1    1    2  504  502 -0.45106304991E+01 -0.34867080803E+02  0.14342626256E+03  0.14767244801E+03  0.00000000000E+00 0. -1.
</event>
<event>
 4    1  0.2825993E+006  0.2025469E+02  0.7546771E-02  0.1530177E+00
         21   -1    0    0  504  501  0.00000000000E+00  0.00000000000E+00  0.49117567423E+03  0.49117567423E+03  0.00000000000E+00 0.  1.
         21   -1    0    0  503  502 -0.00000000000E+00 -0.00000000000E+00 -0.85232614635E+00  0.85232614635E+00  0.00000000000E+00 0.  1.
         21    1    1    2  503  501  0.19946144366E+02 -0.35219217344E+01  0.27998741509E+03  0.28071908595E+03  0.00000000000E+00 0.  1.
         21    1    1    2  504  502 -0.19946144366E+02  0.35219217344E+01  0.21033593299E+03  0.21130891442E+03  0.00000000000E+00 0.  1.
</event>
<event>
 4    1  0.2825993E+006  0.2124822E+02  0.7546771E-02  0.1515750E+00
         21   -1    0    0  504  501  0.00000000000E+00  0.00000000000E+00  0.11957965062E+02  0.11957965062E+02  0.00000000000E+00 0. -1.
         21   -1    0    0  503  502 -0.00000000000E+00 -0.00000000000E+00 -0.45020790935E+02  0.45020790935E+02  0.00000000000E+00 0. -1.
         21    1    1    2  503  501 -0.97704223347E+01 -0.18868643061E+02 -0.27975553450E+02  0.35130021839E+02  0.00000000000E+00 0. -1.
         21    1    1    2  504  502  0.97704223347E+01  0.18868643061E+02 -0.50872724236E+01  0.21848734158E+02  0.00000000000E+00 0. -1.
</event>
<event>
 4    1  0.2825993E+006  0.2384264E+02  0.7546771E-02  0.1482180E+00
         21   -1    0    0  504  501  0.00000000000E+00  0.00000000000E+00  0.18941394630E+02  0.18941394630E+02  0.00000000000E+00 0. -1.
         21   -1    0    0  501  502 -0.00000000000E+00 -0.00000000000E+00 -0.38444067230E+02  0.38444067230E+02  0.00000000000E+00 0. -1.
         21    1    1    2  503  502 -0.20350778553E+02 -0.12422459885E+02 -0.23188907212E+02  0.33259541713E+02  0.00000000000E+00 0. -1.
         21    1    1    2  504  503  0.20350778553E+02  0.12422459885E+02  0.36862346112E+01  0.24125920146E+02  0.00000000000E+00 0. -1.
</event>
<event>
 4    1  0.2825993E+006  0.5126130E+02  0.7546771E-02  0.1292795E+00
         21   -1    0    0  503  501  0.00000000000E+00  0.00000000000E+00  0.42228259859E+02  0.42228259859E+02  0.00000000000E+00 0. -1.
         21   -1    0    0  504  502 -0.00000000000E+00 -0.00000000000E+00 -0.32253583573E+03  0.32253583573E+03  0.00000000000E+00 0.  1.
         21    1    1    2  503  502  0.77190906822E+01 -0.50676787508E+02 -0.30400055881E+03  0.30829216810E+03  0.00000000000E+00 0.  1.
         21    1    1    2  504  501 -0.77190906822E+01  0.50676787508E+02  0.23692982946E+02  0.56471927486E+02  0.00000000000E+00 0. -1.
</event>
<event>
 4    1  0.2825993E+006  0.2203559E+02  0.7546771E-02  0.1504977E+00
         21   -1    0    0  504  501  0.00000000000E+00  0.00000000000E+00  0.77916610924E+03  0.77916610924E+03  0.00000000000E+00 0.  1.
         21   -1    0    0  501  502 -0.00000000000E+00 -0.00000000000E+00 -0.11157721389E+01  0.11157721389E+01  0.00000000000E+00 0.  1.
         21    1    1    2  503  502  0.18894258073E+02  0.11339067432E+02  0.12980205850E+03  0.13165918817E+03  0.00000000000E+00 0.  1.
         21    1    1    2  504  503 -0.18894258073E+02 -0.11339067432E+02  0.64824827860E+03  0.64862269321E+03  0.00000000000E+00 0.  1.
</event>
<event>
 4    1  0.2825993E+006  0.2837957E+02  0.7546771E-02  0.1434221E+00
         21   -1    0    0  504  501  0.00000000000E+00  0.00000000000E+00  0.25822368183E+02  0.25822368183E+02  0.00000000000E+00 0. -1.
         21   -1    0    0  503  502 -0.00000000000E+00 -0.00000000000E+00 -0.74152004008E+02  0.74152004008E+02  0.00000000000E+00 0. -1.
         21    1    1    2  503  501 -0.20085696615E+02 -0.20049064756E+02  0.13883845303E+02  0.31593691878E+02  0.00000000000E+00 0. -1.
         21    1    1    2  504  502  0.20085696615E+02  0.20049064756E+02 -0.62213481127E+02  0.68380680313E+02  0.00000000000E+00 0. -1.
</event>
<event>
 4    1  0.2825993E+006  0.2509760E+02  0.7546771E-02  0.1467714E+00
         21   -1    0    0  504  501  0.00000000000E+00  0.00000000000E+00  0.31856459038E+03  0.31856459038E+03  0.00000000000E+00 0. -1.
         21   -1    0    0  503  502 -0.00000000000E+00 -0.00000000000E+00 -0.25181271156E+01  0.25181271156E+01  0.00000000000E+00 0. -1.
         21    1    1    2  503  501 -0.12295230725E+02  0.21879597227E+02  0.83620687166E+02  0.87305834831E+02  0.00000000000E+00 0. -1.
         21    1    1    2  504  502  0.12295230725E+02 -0.21879597227E+02  0.23242577610E+03  0.23377688267E+03  0.00000000000E+00 0. -1.
</event>
<event>
 4    1  0.2825993E+006  0.2241926E+02  0.7546771E-02  0.1499922E+00
         21   -1    0    0  504  501  0.00000000000E+00  0.00000000000E+00  0.63261567056E+02  0.63261567056E+02  0.00000000000E+00 0.  1.
         21   -1    0    0  503  502 -0.00000000000E+00 -0.00000000000E+00 -0.10517983099E+02  0.10517983099E+02  0.00000000000E+00 0.  1.
         21    1    1    2  503  501 -0.13012391852E+02 -0.18256533063E+02  0.81267593710E+01  0.23846751542E+02  0.00000000000E+00 0.  1.
         21    1    1    2  504  502  0.13012391852E+02  0.18256533063E+02  0.44616824586E+02  0.49932798613E+02  0.00000000000E+00 0.  1.
</event>
<event>
 4    1  0.2825993E+006  0.2177502E+02  0.7546771E-02  0.1508481E+00
         21   -1    0    0  503  501  0.00000000000E+00  0.00000000000E+00  0.44762555426E+00  0.44762555426E+00  0.00000000000E+00 0.  1.
         21   -1    0    0  504  502 -0.00000000000E+00 -0.00000000000E+00 -0.10621957167E+04  0.10621957167E+04  0.00000000000E+00 0.  1.
         21    1    1    2  503  502  0.81353556791E+01  0.20198208013E+02 -0.55880910620E+03  0.55923319715E+03  0.00000000000E+00 0.  1.
         21    1    1    2  504  501 -0.81353556791E+01 -0.20198208013E+02 -0.50293898500E+03  0.50341014516E+03  0.00000000000E+00 0.  1.
</event>
<event>
 4    1  0.2825993E+006  0.2143799E+02  0.7546771E-02  0.1513103E+00
         21   -1    0    0  504  501  0.00000000000E+00  0.00000000000E+00  0.96758530251E+02  0.96758530251E+02  0.00000000000E+00 0.  1.
         21   -1    0    0  503  502 -0.00000000000E+00 -0.00000000000E+00 -0.96964916340E+01  0.96964916340E+01  0.00000000000E+00 0.  1.
         21    1    1    2  503  501 -0.20956355150E+02 -0.45186731525E+01  0.55134236121E+01  0.22135606342E+02  0.00000000000E+00 0.  1.
         21    1    1    2  504  502  0.20956355150E+02  0.45186731525E+01  0.81548615005E+02  0.84319415543E+02  0.00000000000E+00 0.  1.
</event>
<event>
 4    1  0.2825993E+006  0.4684855E+02  0.7546771E-02  0.1312446E+00
         21   -1    0    0  502  501  0.00000000000E+00  0.00000000000E+00  0.10411765880E+03  0.10411765880E+03  0.00000000000E+00 0. -1.
         21   -1    0    0  503  502 -0.00000000000E+00 -0.00000000000E+00 -0.40490024734E+02  0.40490024734E+02  0.00000000000E+00 0. -1.
         21    1    1    2  503  504 -0.40372842857E+02  0.23765936687E+02 -0.18247458123E+02  0.50276793006E+02  0.00000000000E+00 0. -1.
         21    1    1    2  504  501  0.40372842857E+02 -0.23765936687E+02  0.81875092193E+02  0.94330890532E+02  0.00000000000E+00 0. -1.
</event>
<event>
 4    1  0.2825993E+006  0.2025618E+02  0.7546771E-02  0.1530155E+00
         21   -1    0    0  503  501  0.00000000000E+00  0.00000000000E+00  0.10347558020E+02  0.10347558020E+02  0.00000000000E+00 0.  1.
         21   -1    0    0  504  502 -0.00000000000E+00 -0.00000000000E+00 -0.40349049861E+02  0.40349049861E+02  0.00000000000E+00 0. -1.
         21    1    1    2  503  502 -0.20179949618E+02  0.17556680903E+01 -0.11671685281E+02  0.23378215807E+02  0.00000000000E+00 0.  1.
         21    1    1    2  504  501  0.20179949618E+02 -0.17556680903E+01 -0.18329806560E+02  0.27318392074E+02  0.00000000000E+00 0. -1.
</event>
<event>
 4    1  0.2825993E+006  0.2959967E+02  0.7546771E-02  0.1423108E+00
         21   -1    0    0  502  501  0.00000000000E+00  0.00000000000E+00  0.44751376995E+02  0.44751376995E+02  0.00000000000E+00 0.  1.
         21   -1    0    0  503  502 -0.00000000000E+00 -0.00000000000E+00 -0.27593348202E+03  0.27593348202E+03  0.00000000000E+00 0.  1.
         21    1    1    2  503  504 -0.18752204698E+01  0.29540212398E+02 -0.27014055051E+03  0.27175735065E+03  0.00000000000E+00 0.  1.
         21    1    1    2  504  501  0.18752204698E+01 -0.29540212398E+02  0.38958445486E+02  0.48927508367E+02  0.00000000000E+00 0.  1.
</event>
<event>
 4    1  0.2825993E+006  0.2978043E+02  0.7546771E-02  0.1421514E+00
         21   -1    0    0  503  501  0.00000000000E+00  0.00000000000E+00  0.15747153946E+02  0.15747153946E+02  0.00000000000E+00 0.  1.
         21   -1    0    0  504  502 -0.00000000000E+00 -0.00000000000E+00 -0.56471500998E+02  0.56471500998E+02  0.00000000000E+00 0.  1.
         21    1    1    2  503  502 -0.29253570800E+02 -0.55769688789E+01 -0.18489626030E+02  0.35053391521E+02  0.00000000000E+00 0.  1.
         21    1    1    2  504  501  0.29253570800E+02  0.55769688789E+01 -0.22234721021E+02  0.37165263423E+02  0.00000000000E+00 0.  1.
</event>
<event>
 4    1  0.2825993E+006  0.2275713E+02  0.7546771E-02  0.1495571E+00
         21   -1    0    0  504  501  0.00000000000E+00  0.00000000000E+00  0.19397684485E+01  0.19397684485E+01  0.00000000000E+00 0.  1.
         21   -1    0    0  503  502 -0.00000000000E+00 -0.00000000000E+00 -0.29297495432E+03  0.29297495432E+03  0.00000000000E+00 0.  1.
         21    1    1    2  503  501 -0.21007102091E+02  0.87514910274E+01 -0.10159750399E+03  0.10411503134E+03  0.00000000000E+00 0.  1.
         21    1    1    2  504  502  0.21007102091E+02 -0.87514910274E+01 -0.18943768188E+03  0.19079969143E+03  0.00000000000E+00 0.  1.
</event>
<event>
 4    1  0.2825993E+006  0.2040654E+02  0.7546771E-02  0.1527909E+00
         21   -1    0    0  504  501  0.00000000000E+00  0.00000000000E+00  0.24044691503E+02  0.24044691503E+02  0.00000000000E+00 0. -1.
         21   -1    0    0  503  502 -0.00000000000E+00 -0.00000000000E+00 -0.64845183996E+02  0.64845183996E+02  0.00000000000E+00 0.  1.
         21    1    1    2  503  501 -0.40162376837E+01  0.20007411489E+02  0.17649393092E+02  0.26980136325E+02  0.00000000000E+00 0. -1.
         21    1    1    2  504  502  0.40162376837E+01 -0.20007411489E+02 -0.58449885586E+02  0.61909739174E+02  0.00000000000E+00 0.  1.
</event>
<event>
 4    1  0.2825993E+006  0.3808717E+02  0.7546771E-02  0.1360075E+00
         21   -1    0    0  504  501  0.00000000000E+00  0.00000000000E+00  0.31618068600E+02  0.31618068600E+02  0.00000000000E+00 0. -1.
         21   -1    0    0  503  502 -0.00000000000E+00 -0.00000000000E+00 -0.73896776807E+02  0.73896776807E+02  0.00000000000E+00 0.  1.
         21    1    1    2  503  501 -0.35757415905E+02 -0.13116393494E+02  0.11345505283E+02  0.39741075233E+02  0.00000000000E+00 0. -1.
         21    1    1    2  504  502  0.35757415905E+02  0.13116393494E+02 -0.53624213490E+02  0.65773770175E+02  0.00000000000E+00 0.  1.
</event>
<event>
 4    1  0.2825993E+006  0.2875416E+02  0.7546771E-02  0.1430741E+00
         21   -1    0    0  503  501  0.00000000000E+00  0.00000000000E+00  0.27772709747E+02  0.27772709747E+02  0.00000000000E+00 0. -1.
         21   -1    0    0  504  502 -0.00000000000E+00 -0.00000000000E+00 -0.54352835232E+02  0.54352835232E+02  0.00000000000E+00 0. -1.
         21    1    1    2  503  502  0.11000132347E+02 -0.26566878766E+02  0.14325282933E+02  0.32125001014E+02  0.00000000000E+00 0. -1.
         21    1    1    2  504  501 -0.11000132347E+02  0.26566878766E+02 -0.40905408418E+02  0.50000543966E+02  0.00000000000E+00 0. -1.
</event>
<event>
 4    1  0.2825993E+006  0.2409382E+02  0.7546771E-02  0.1479201E+00
         21   -1    0    0  502  501  0.00000000000E+00  0.00000000000E+00  0.56887747269E+03  0.56887747269E+03  0.00000000000E+00 0.  1.
         21   -1    0    0  504  502 -0.00000000000E+00 -0.00000000000E+00 -0.34181627722E+02  0.34181627722E+02  0.00000000000E+00 0. -1.
         21    1    1    2  503  501 -0.23913639861E+02 -0.29410917906E+01  0.56434246537E+03  0.56485655738E+03  0.00000000000E+00 0.  1.
         21    1    1    2  504  503  0.23913639861E+02  0.29410917906E+01 -0.29646620407E+02  0.38202543030E+02  0.00000000000E+00 0. -1.
</event>
<event>
 4    1  0.2825993E+006  0.3015441E+02  0.7546771E-02  0.1418259E+00
         21   -1    0    0  503  501  0.00000000000E+00  0.00000000000E+00  0.62077586966E+02  0.62077586966E+02  0.00000000000E+00 0. -1.
         21   -1    0    0  504  502 -0.00000000000E+00 -0.00000000000E+00 -0.30341164296E+02  0.30341164296E+02  0.00000000000E+00 0. -1.
         21    1    1    2  503  502 -0.28488709148E+02 -0.98834193761E+01  0.49101596596E+02  0.57621656656E+02  0.00000000000E+00 0. -1.
         21    1    1    2  504  501  0.28488709148E+02  0.98834193761E+01 -0.17365173926E+02  0.34797094605E+02  0.00000000000E+00 0. -1.
</event>
<event>
 4    1  0.2825993E+006  0.2155893E+02  0.7546771E-02  0.1511432E+00
         21   -1    0    0  502  501  0.00000000000E+00  0.00000000000E+00  0.15811040383E+03  0.15811040383E+03  0.00000000000E+00 0. -1.
         21   -1    0    0  504  502 -0.00000000000E+00 -0.00000000000E+00 -0.25797590232E+02  0.25797590232E+02  0.00000000000E+00 0. -1.
         21    1    1    2  503  501 -0.29083529843E+01  0.21361854728E+02  0.15271290977E+03  0.15422717065E+03  0.00000000000E+00 0. -1.
         21    1    1    2  504  503  0.29083529843E+01 -0.21361854728E+02 -0.20400096177E+02  0.29680823414E+02  0.00000000000E+00 0. -1.
</event>
<event>
 4    1  0.2825993E+006  0.2033681E+02  0.7546771E-02  0.1528948E+00
         21   -1    0    0  502  501  0.00000000000E+00  0.00000000000E+00  0.20237834606E+02  0.20237834606E+02  0.00000000000E+00 0. -1.
         21   -1    0    0  504  502 -0.00000000000E+00 -0.00000000000E+00 -0.54784016059E+03  0.54784016059E+03  0.00000000000E+00 0. -1.
         21    1    1    2  503  501  0.33839772052E+01  0.20053292577E+02  0.14889682465E+02  0.25204929851E+02  0.00000000000E+00 0. -1.
         21    1    1    2  504  503 -0.33839772052E+01 -0.20053292577E+02 -0.54249200845E+03  0.54287306535E+03  0.00000000000E+00 0. -1.
</event>
<event>
 4    1  0.2825993E+006  0.2384040E+02  0.7546771E-02  0.1482207E+00
         21   -1    0    0  504  501  0.00000000000E+00  0.00000000000E+00  0.76306934155E+01  0.76306934155E+01  0.00000000000E+00 0.  1.
         21   -1    0    0  503  502 -0.00000000000E+00 -0.00000000000E+00 -0.79062281054E+02  0.79062281054E+02  0.00000000000E+00 0.  1.
         21    1    1    2  503  501  0.62786115005E+01  0.22998771793E+02 -0.46146677375E+02  0.51941123391E+02  0.00000000000E+00 0.  1.
         21    1    1    2  504  502 -0.62786115005E+01 -0.22998771793E+02 -0.25284910263E+02  0.34751851078E+02  0.00000000000E+00 0.  1.
</event>
<event>
 4    1  0.2825993E+006  0.2062834E+02  0.7546771E-02  0.1524638E+00
         21   -1    0    0  503  501  0.00000000000E+00  0.00000000000E+00  0.19718981307E+02  0.19718981307E+02  0.00000000000E+00 0.  1.
         21   -1    0    0  504  502 -0.00000000000E+00 -0.00000000000E+00 -0.35296314225E+02  0.35296314225E+02  0.00000000000E+00 0. -1.
         21    1    1    2  503  502  0.21539128083E+01 -0.20515576414E+02  0.93593317870E+01  0.22652269367E+02  0.00000000000E+00 0.  1.
         21    1    1    2  504  501 -0.21539128083E+01  0.20515576414E+02 -0.24936664704E+02  0.32363026165E+02  0.00000000000E+00 0. -1.
</event>
<event>
 4    1  0.2825993E+006  0.2350629E+02  0.7546771E-02  0.1486237E+00
         21   -1    0    0  503  501  0.00000000000E+00  0.00000000000E+00  0.14650924757E+03  0.14650924757E+03  0.00000000000E+00 0.  1.
         21   -1    0    0  504  502 -0.00000000000E+00 -0.00000000000E+00 -0.17364539078E+02  0.17364539078E+02  0.00000000000E+00 0. -1.
         21    1    1    2  503  502  0.22654261070E+02  0.62713878525E+01  0.13706728651E+03  0.13906828136E+03  0.00000000000E+00 0.  1.
         21    1    1    2  504  501 -0.22654261070E+02 -0.62713878525E+01 -0.79225780134E+01  0.24805505288E+02  0.00000000000E+00 0. -1.
</event>
<event>
 4    1  0.2825993E+006  0.3455126E+02  0.7546771E-02  0.1383746E+00
         21   -1    0    0  503  501  0.00000000000E+00  0.00000000000E+00  0.24956109940E+03  0.24956109940E+03  0.00000000000E+00 0. -1.
         21   -1    0    0  501  502 -0.00000000000E+00 -0.00000000000E+00 -0.50819167883E+01  0.50819167883E+01  0.00000000000E+00 0. -1.
         21    1    1    2  503  504  0.13834036847E+02 -0.31660837820E+02  0.91389272799E+02  0.97702550682E+02  0.00000000000E+00 0. -1.
         21    1    1    2  504  502 -0.13834036847E+02  0.31660837820E+02  0.15308990981E+03  0.15694046551E+03  0.00000000000E+00 0. -1.
</event>
<event>
 4    1  0.2825993E+006  0.3089614E+02  0.7546771E-02  0.1411965E+00
         21   -1    0    0  504  501  0.00000000000E+00  0.00000000000E+00  0.75447071415E+02  0.75447071415E+02  0.00000000000E+00 0. -1.
         21   -1    0    0  503  502 -0.00000000000E+00 -0.00000000000E+00 -0.15507182675E+02  0.15507182675E+02  0.00000000000E+00 0. -1.
         21    1    1    2  503  501 -0.23026136934E+02 -0.20600212782E+02  0.49483121809E+02  0.58336533088E+02  0.00000000000E+00 0. -1.
         21    1    1    2  504  502  0.23026136934E+02  0.20600212782E+02  0.10456766931E+02  0.32617721002E+02  0.00000000000E+00 0. -1.
</event>
<event>
 4    1  0.2825993E+006  0.2344943E+02  0.7546771E-02  0.1486930E+00
         21   -1    0    0  502  501  0.00000000000E+00  0.00000000000E+00  0.16678691644E+02  0.16678691644E+02  0.00000000000E+00 0.  1.
         21   -1    0    0  503  502 -0.00000000000E+00 -0.00000000000E+00 -0.63148204250E+02  0.63148204250E+02  0.00000000000E+00 0.  1.
         21    1    1    2  503  504 -0.22851738341E+02  0.52605818512E+01 -0.50827469857E+02  0.55975953397E+02  0.00000000000E+00 0.  1.
         21    1    1    2  504  501  0.22851738341E+02 -0.52605818512E+01  0.43579572510E+01  0.23850942497E+02  0.00000000000E+00 0.  1.
</event>
<event>
 4    1  0.2825993E+006  0.2381619E+02  0.7546771E-02  0.1482496E+00
         21   -1    0    0  503  501  0.00000000000E+00  0.00000000000E+00  0.14445929732E+03  0.14445929732E+03  0.00000000000E+00 0.  1.
         21   -1    0    0  504  502 -0.00000000000E+00 -0.00000000000E+00 -0.64717285808E+02  0.64717285808E+02  0.00000000000E+00 0. -1.
         21    1    1    2  503  502 -0.21501973910E+02  0.10240891488E+02  0.14123693709E+03  0.14323087355E+03  0.00000000000E+00 0.  1.
         21    1    1    2  504  501  0.21501973910E+02 -0.10240891488E+02 -0.61494925573E+02  0.65945709578E+02  0.00000000000E+00 0. -1.
</event>
<event>
 4    1  0.2825993E+006  0.2452955E+02  0.7546771E-02  0.1474136E+00
         21   -1    0    0  504  501  0.00000000000E+00  0.00000000000E+00  0.88130911954E+02  0.88130911954E+02  0.00000000000E+00 0.  1.
         21   -1    0    0  503  502 -0.00000000000E+00 -0.00000000000E+00 -0.26555570078E+02  0.26555570078E+02  0.00000000000E+00 0.  1.
         21    1    1    2  503  501  0.14829738921E+02 -0.19539129501E+02  0.80212890040E+02  0.83879714274E+02  0.00000000000E+00 0.  1.
         21    1    1    2  504  502 -0.14829738921E+02  0.19539129501E+02 -0.18637548163E+02  0.30806767758E+02  0.00000000000E+00 0.  1.
</event>
<event>
 4    1  0.2825993E+006  0.2359038E+02  0.7546771E-02  0.1485215E+00
         21   -1    0    0  502  501  0.00000000000E+00  0.00000000000E+00  0.29425887285E+03  0.29425887285E+03  0.00000000000E+00 0.  1.
         21   -1    0    0  503  502 -0.00000000000E+00 -0.00000000000E+00 -0.11324972559E+03  0.11324972559E+03  0.00000000000E+00 0.  1.
         21    1    1    2  503  504 -0.64123800183E+01 -0.22702144517E+02 -0.11154126689E+03  0.11400859706E+03  0.00000000000E+00 0.  1.
         21    1    1    2  504  501  0.64123800183E+01  0.22702144517E+02  0.29255041416E+03  0.29350000138E+03  0.00000000000E+00 0.  1.
</event>
<event>
 4    1  0.2825993E+006  0.2394903E+02  0.7546771E-02  0.1480913E+00
         21   -1    0    0  503  501  0.00000000000E+00  0.00000000000E+00  0.15011904224E+03  0.15011904224E+03  0.00000000000E+00 0.  1.
         21   -1    0    0  504  502 -0.00000000000E+00 -0.00000000000E+00 -0.10192337932E+02  0.10192337932E+02  0.00000000000E+00 0. -1.
         21    1    1    2  503  502  0.21139793495E+02  0.11254571454E+02  0.65875007440E+01  0.24838506671E+02  0.00000000000E+00 0. -1.
         21    1    1    2  504  501 -0.21139793495E+02 -0.11254571454E+02  0.13333920356E+03  0.13547287350E+03  0.00000000000E+00 0.  1.
</event>
<event>
 4    1  0.2825993E+006  0.2646263E+02  0.7546771E-02  0.1453082E+00
         21   -1    0    0  503  501  0.00000000000E+00  0.00000000000E+00  0.46911276075E+02  0.46911276075E+02  0.00000000000E+00 0.  1.
         21   -1    0    0  504  502 -0.00000000000E+00 -0.00000000000E+00 -0.15558959471E+02  0.15558959471E+02  0.00000000000E+00 0.  1.
         21    1    1    2  503  502 -0.26535729904E+01 -0.26329250862E+02  0.21968392659E+02  0.34393039654E+02  0.00000000000E+00 0.  1.
         21    1    1    2  504  501  0.26535729904E+01  0.26329250862E+02  0.93839239447E+01  0.28077195892E+02  0.00000000000E+00 0.  1.
</event>
<event>
 4    1  0.2825993E+006  0.2910640E+02  0.7546771E-02  0.1427524E+00
         21   -1    0    0  503  501  0.00000000000E+00  0.00000000000E+00  0.71233375974E+02  0.71233375974E+02  0.00000000000E+00 0.  1.
         21   -1    0    0  504  502 -0.00000000000E+00 -0.00000000000E+00 -0.31144379196E+02  0.31144379196E+02  0.00000000000E+00 0. -1.
         21    1    1    2  503  502  0.17184436764E+02 -0.23492076035E+02  0.60289881354E+02  0.66948131393E+02  0.00000000000E+00 0.  1.
         21    1    1    2  504  501 -0.17184436764E+02  0.23492076035E+02 -0.20200884576E+02  0.35429623777E+02  0.00000000000E+00 0. -1.
</event>
<event>
 4    1  0.2825993E+006  0.2356252E+02  0.7546771E-02  0.1485553E+00
         21   -1    0    0  502  501  0.00000000000E+00  0.00000000000E+00  0.18758263467E+03  0.18758263467E+03  0.00000000000E+00 0.  1.
         21   -1    0    0  503  502 -0.00000000000E+00 -0.00000000000E+00 -0.13290528964E+02  0.13290528964E+02  0.00000000000E+00 0. -1.
         21    1    1    2  503  504  0.12835440881E+02  0.19759656692E+02 -0.14038114672E+01  0.23604306001E+02  0.00000000000E+00 0. -1.
         21    1    1    2  504  501 -0.12835440881E+02 -0.19759656692E+02  0.17569591718E+03  0.17726885764E+03  0.00000000000E+00 0.  1.
</event>
<event>
 4    1  0.2825993E+006  0.2850752E+02  0.7546771E-02  0.1433025E+00
         21   -1    0    0  504  501  0.00000000000E+00  0.00000000000E+00  0.32794373988E+03  0.32794373988E+03  0.00000000000E+00 0.  1.
         21   -1    0    0  503  502 -0.00000000000E+00 -0.00000000000E+00 -0.94291160036E+03  0.94291160036E+03  0.00000000000E+00 0. -1.
         21    1    1    2  503  501 -0.16885589886E+02 -0.22968577175E+02 -0.94207605448E+03  0.94250727908E+03  0.00000000000E+00 0. -1.
         21    1    1    2  504  502  0.16885589886E+02  0.22968577175E+02  0.32710819401E+03  0.32834806116E+03  0.00000000000E+00 0.  1.
</event>
<event>
 4    1  0.2825993E+006  0.3604618E+02  0.7546771E-02  0.1373354E+00
         21   -1    0    0  503  501  0.00000000000E+00  0.00000000000E+00  0.90155580504E+01  0.90155580504E+01  0.00000000000E+00 0.  1.
         21   -1    0    0  501  502 -0.00000000000E+00 -0.00000000000E+00 -0.15922921881E+03  0.15922921881E+03  0.00000000000E+00 0.  1.
         21    1    1    2  503  504 -0.31576147719E+02 -0.17386029992E+02 -0.49194087917E+02  0.60986764381E+02  0.00000000000E+00 0.  1.
         21    1    1    2  504  502  0.31576147719E+02  0.17386029992E+02 -0.10101957284E+03  0.10725801248E+03  0.00000000000E+00 0.  1.
</event>
<event>
 4    1  0.2825993E+006  0.3444285E+02  0.7546771E-02  0.1384523E+00
         21   -1    0    0  504  501  0.00000000000E+00  0.00000000000E+00  0.11804261089E+03  0.11804261089E+03  0.00000000000E+00 0.  1.
         21   -1    0    0  503  502 -0.00000000000E+00 -0.00000000000E+00 -0.96204443093E+02  0.96204443093E+02  0.00000000000E+00 0. -1.
         21    1    1    2  503  501 -0.23337968959E+02  0.25330796901E+02 -0.90454902757E+02  0.96790492816E+02  0.00000000000E+00 0. -1.
         21    1    1    2  504  502  0.23337968959E+02 -0.25330796901E+02  0.11229307055E+03  0.11745656117E+03  0.00000000000E+00 0.  1.
</event>
<event>
 4    1  0.2825993E+006  0.3213323E+02  0.7546771E-02  0.1401921E+00
         21   -1    0    0  504  501  0.00000000000E+00  0.00000000000E+00  0.15140536962E+02  0.15140536962E+02  0.00000000000E+00 0. -1.
         21   -1    0    0  503  502 -0.00000000000E+00 -0.00000000000E+00 -0.17273354362E+03  0.17273354362E+03  0.00000000000E+00 0.  1.
         21    1    1    2  503  501 -0.22404487330E+02  0.23034397114E+02 -0.15187369882E+03  0.15523583637E+03  0.00000000000E+00 0.  1.
         21    1    1    2  504  502  0.22404487330E+02 -0.23034397114E+02 -0.57193078452E+01  0.32638244211E+02  0.00000000000E+00 0. -1.
</event>
<event>
 4    1  0.2825993E+006  0.3266319E+02  0.7546771E-02  0.1397781E+00
         21   -1    0    0  504  501  0.00000000000E+00  0.00000000000E+00  0.78783321625E+03  0.78783321625E+03  0.00000000000E+00 0.  1.
         21   -1    0    0  503  502 -0.00000000000E+00 -0.00000000000E+00 -0.44379283784E+01  0.44379283784E+01  0.00000000000E+00 0. -1.
         21    1    1    2  503  501 -0.13833913070E+02  0.29588960189E+02  0.61486474273E+02  0.69623776358E+02  0.00000000000E+00 0. -1.
         21    1    1    2  504  502  0.13833913070E+02 -0.29588960189E+02  0.72190881360E+03  0.72264736827E+03  0.00000000000E+00 0.  1.
</event>
<event>
 4    1  0.2825993E+006  0.2332027E+02  0.7546771E-02  0.1488515E+00
         21   -1    0    0  503  501  0.00000000000E+00  0.00000000000E+00  0.25033189579E+02  0.25033189579E+02  0.00000000000E+00 0. -1.
         21   -1    0    0  504  502 -0.00000000000E+00 -0.00000000000E+00 -0.57850551488E+03  0.57850551488E+03  0.00000000000E+00 0.  1.
         21    1    1    2  503  502  0.19321989319E+02  0.13057400131E+02  0.19312814940E+02  0.30279032190E+02  0.00000000000E+00 0. -1.
         21    1    1    2  504  501 -0.19321989319E+02 -0.13057400131E+02 -0.57278514024E+03  0.57325967227E+03  0.00000000000E+00 0.  1.
</event>
<event>
 4    1  0.2825993E+006  0.2499642E+02  0.7546771E-02  0.1468843E+00
         21   -1    0    0  502  501  0.00000000000E+00  0.00000000000E+00  0.61692652451E+01  0.61692652451E+01  0.00000000000E+00 0.  1.
         21   -1    0    0  504  502 -0.00000000000E+00 -0.00000000000E+00 -0.14435731571E+03  0.14435731571E+03  0.00000000000E+00 0.  1.
         21    1    1    2  503  501 -0.22845061570E+02 -0.10145167073E+02 -0.27980028506E+02  0.37519371640E+02  0.00000000000E+00 0.  1.
         21    1    1    2  504  503  0.22845061570E+02  0.10145167073E+02 -0.11020802196E+03  0.11300720932E+03  0.00000000000E+00 0.  1.
</event>
<event>
 4    1  0.2825993E+006  0.2021103E+02  0.7546771E-02  0.1530834E+00
         21   -1    0    0  502  501  0.00000000000E+00  0.00000000000E+00  0.34673808098E+02  0.34673808098E+02  0.00000000000E+00 0. -1.
         21   -1    0    0  504  502 -0.00000000000E+00 -0.00000000000E+00 -0.21326945826E+02  0.21326945826E+02  0.00000000000E+00 0. -1.
         21    1    1    2  503  501 -0.19223407397E+01  0.20119403684E+02  0.25406683502E+02  0.32465140768E+02  0.00000000000E+00 0. -1.
         21    1    1    2  504  503  0.19223407397E+01 -0.20119403684E+02 -0.12059821230E+02  0.23535613156E+02  0.00000000000E+00 0. -1.
</event>
<event>
 4    1  0.2825993E+006  0.2275966E+02  0.7546771E-02  0.1495538E+00
         21   -1    0    0  503  501  0.00000000000E+00  0.00000000000E+00  0.39190284538E+01  0.39190284538E+01  0.00000000000E+00 0. -1.
         21   -1    0    0  504  502 -0.00000000000E+00 -0.00000000000E+00 -0.63849290768E+03  0.63849290768E+03  0.00000000000E+00 0. -1.
         21    1    1    2  503  502 -0.18999874675E+02 -0.12530232748E+02 -0.60332032835E+03  0.60374946838E+03  0.00000000000E+00 0. -1.
         21    1    1    2  504  501  0.18999874675E+02  0.12530232748E+02 -0.31253550879E+02  0.38662467755E+02  0.00000000000E+00 0. -1.
</event>
<event>
 4    1  0.2825993E+006  0.2312530E+02  0.7546771E-02  0.1490931E+00
         21   -1    0    0  503  501  0.00000000000E+00  0.00000000000E+00  0.20051354516E+02  0.20051354516E+02  0.00000000000E+00 0.  1.
         21   -1    0    0  504  502 -0.00000000000E+00 -0.00000000000E+00 -0.92348426180E+02  0.92348426180E+02  0.00000000000E+00 0.  1.
         21    1    1    2  503  502  0.18799016268E+02  0.13467604622E+02 -0.83543312164E+02  0.86684856775E+02  0.00000000000E+00 0.  1.
         21    1    1    2  504  501 -0.18799016268E+02 -0.13467604622E+02  0.11246240499E+02  0.25714923921E+02  0.00000000000E+00 0.  1.
</event>
<event>
 4    1  0.2825993E+006  0.2602408E+02  0.7546771E-02  0.1457666E+00
         21   -1    0    0  503  501  0.00000000000E+00  0.00000000000E+00  0.17240583214E+02  0.17240583214E+02  0.00000000000E+00 0.  1.
         21   -1    0    0  504  502 -0.00000000000E+00 -0.00000000000E+00 -0.63324651386E+02  0.63324651386E+02  0.00000000000E+00 0.  1.
         21    1    1    2  503  502  0.20639097173E+02  0.15851827196E+02 -0.47862971380E+02  0.54480425722E+02  0.00000000000E+00 0.  1.
         21    1    1    2  504  501 -0.20639097173E+02 -0.15851827196E+02  0.17789032077E+01  0.26084808878E+02  0.00000000000E+00 0.  1.
</event>
<event>
 4    1  0.2825993E+006  0.2446991E+02  0.7546771E-02  0.1474822E+00
         21   -1    0    0  504  501  0.00000000000E+00  0.00000000000E+00  0.38644509252E+03  0.38644509252E+03  0.00000000000E+00 0.  1.
         21   -1    0    0  503  502 -0.00000000000E+00 -0.00000000000E+00 -0.15557963680E+01  0.15557963680E+01  0.00000000000E+00 0.  1.
         21    1    1    2  503  501 -0.59949839879E+01 -0.23724173939E+02  0.18005139976E+03  0.18170658441E+03  0.00000000000E+00 0.  1.
         21    1    1    2  504  502  0.59949839879E+01  0.23724173939E+02  0.20483789640E+03  0.20629430449E+03  0.00000000000E+00 0.  1.
</event>
<event>
 4    1  0.2825993E+006  0.2576205E+02  0.7546771E-02  0.1460456E+00
         21   -1    0    0  503  501  0.00000000000E+00  0.00000000000E+00  0.25825407203E+02  0.25825407203E+02  0.00000000000E+00 0.  1.
         21   -1    0    0  504  502 -0.00000000000E+00 -0.00000000000E+00 -0.25772234738E+02  0.25772234738E+02  0.00000000000E+00 0.  1.
         21    1    1    2  503  502 -0.16550749858E+02  0.19742230002E+02 -0.13501825762E+01  0.25797402181E+02  0.00000000000E+00 0.  1.
         21    1    1    2  504  501  0.16550749858E+02 -0.19742230002E+02  0.14033550415E+01  0.25800239760E+02  0.00000000000E+00 0.  1.
</event>
<event>
 4    1  0.2825993E+006  0.2598481E+02  0.7546771E-02  0.1458081E+00
         21   -1    0    0  504  501  0.00000000000E+00  0.00000000000E+00  0.22750880337E+02  0.22750880337E+02  0.00000000000E+00 0. -1.
         21   -1    0    0  503  502 -0.00000000000E+00 -0.00000000000E+00 -0.27394420348E+03  0.27394420348E+03  0.00000000000E+00 0.  1.
         21    1    1    2  503  501 -0.30850786494E+01  0.25801019811E+02 -0.26567810518E+03  0.26694581081E+03  0.00000000000E+00 0.  1.
         21    1    1    2  504  502  0.30850786494E+01 -0.25801019811E+02  0.14484782043E+02  0.29749273007E+02  0.00000000000E+00 0. -1.
</event>
<event>
 4    1  0.2825993E+006  0.2554102E+02  0.7546771E-02  0.1462841E+00
         21   -1    0    0  504  501  0.00000000000E+00  0.00000000000E+00  0.51823108074E+02  0.51823108074E+02  0.00000000000E+00 0.  1.
         21   -1    0    0  503  502 -0.00000000000E+00 -0.00000000000E+00 -0.46291181108E+02  0.46291181108E+02  0.00000000000E+00 0.  1.
         21    1    1    2  503  501  0.25435662363E+02  0.23174627140E+01 -0.39093079492E+02  0.46697027930E+02  0.00000000000E+00 0.  1.
         21    1    1    2  504  502 -0.25435662363E+02 -0.23174627140E+01  0.44625006459E+02  0.51417261252E+02  0.00000000000E+00 0.  1.
</event>
<event>
 4    1  0.2825993E+006  0.2437808E+02  0.7546771E-02  0.1475882E+00
         21   -1    0    0  502  501  0.00000000000E+00  0.00000000000E+00  0.49519632479E+01  0.49519632479E+01  0.00000000000E+00 0. -1.
         21   -1    0    0  504  502 -0.00000000000E+00 -0.00000000000E+00 -0.66754824314E+03  0.66754824314E+03  0.00000000000E+00 0. -1.
         21    1    1    2  503  501  0.16938941491E+02  0.17531768628E+02 -0.26769682248E+02  0.36206443318E+02  0.00000000000E+00 0. -1.
         21    1    1    2  504  503 -0.16938941491E+02 -0.17531768628E+02 -0.63582659764E+03  0.63629376307E+03  0.00000000000E+00 0. -1.
</event>
<event>
 4    1  0.2825993E+006  0.2329719E+02  0.7546771E-02  0.1488800E+00
         21   -1    0    0  503  501  0.00000000000E+00  0.00000000000E+00  0.11271348433E+01  0.11271348433E+01  0.00000000000E+00 0.  1.
         21   -1    0    0  504  502 -0.00000000000E+00 -0.00000000000E+00 -0.51043945772E+03  0.51043945772E+03  0.00000000000E+00 0.  1.
         21    1    1    2  503  502  0.18994551638E+02 -0.13489478118E+02 -0.19379294348E+03  0.19518827822E+03  0.00000000000E+00 0.  1.
         21    1    1    2  504  501 -0.18994551638E+02  0.13489478118E+02 -0.31551937940E+03  0.31637831435E+03  0.00000000000E+00 0.  1.
</event>
<event>
 4    1  0.2825993E+006  0.2142783E+02  0.7546771E-02  0.1513243E+00
         21   -1    0    0  503  501  0.00000000000E+00  0.00000000000E+00  0.14408423638E+03  0.14408423638E+03  0.00000000000E+00 0. -1.
         21   -1    0    0  504  502 -0.00000000000E+00 -0.00000000000E+00 -0.47803527161E+01  0.47803527161E+01  0.00000000000E+00 0. -1.
         21    1    1    2  503  502 -0.12929730076E+02  0.17087248051E+02  0.11262828721E+03  0.11464851960E+03  0.00000000000E+00 0. -1.
         21    1    1    2  504  501  0.12929730076E+02 -0.17087248051E+02  0.26675596451E+02  0.34216069497E+02  0.00000000000E+00 0. -1.
</event>
<event>
 4    1  0.2825993E+006  0.2039877E+02  0.7546771E-02  0.1528025E+00
         21   -1    0    0  504  501  0.00000000000E+00  0.00000000000E+00  0.42908944073E+00  0.42908944073E+00  0.00000000000E+00 0.  1.
         21   -1    0    0  503  502 -0.00000000000E+00 -0.00000000000E+00 -0.10016875073E+04  0.10016875073E+04  0.00000000000E+00 0.  1.
         21    1    1    2  503  501  0.13698518368E+02  0.15114904707E+02 -0.41116106137E+03  0.41166676832E+03  0.00000000000E+00 0.  1.
         21    1    1    2  504  502 -0.13698518368E+02 -0.15114904707E+02 -0.59009735646E+03  0.59044982839E+03  0.00000000000E+00 0.  1.
</event>
<event>
 4    1  0.2825993E+006  0.3335798E+02  0.7546771E-02  0.1392490E+00
         21   -1    0    0  504  501  0.00000000000E+00  0.00000000000E+00  0.37271812399E+02  0.37271812399E+02  0.00000000000E+00 0.  1.
         21   -1    0    0  501  502 -0.00000000000E+00 -0.00000000000E+00 -0.44081155110E+02  0.44081155110E+02  0.00000000000E+00 0.  1.
         21    1    1    2  503  502  0.92552974901E+01  0.32048312160E+02 -0.26512476132E+02  0.42610635229E+02  0.00000000000E+00 0.  1.
         21    1    1    2  504  503 -0.92552974901E+01 -0.32048312160E+02  0.19703133421E+02  0.38742332281E+02  0.00000000000E+00 0.  1.
</event>
<event>
 4    1  0.2825993E+006  0.7677393E+02  0.7546771E-02  0.1211542E+00
         21   -1    0    0  503  501  0.00000000000E+00  0.00000000000E+00  0.11378703481E+03  0.11378703481E+03  0.00000000000E+00 0. -1.
         21   -1    0    0  504  502 -0.00000000000E+00 -0.00000000000E+00 -0.20733101007E+03  0.20733101007E+03  0.00000000000E+00 0. -1.
         21    1    1    2  503  502 -0.71025574289E+02 -0.29147980936E+02 -0.18583455343E+03  0.20106893903E+03  0.00000000000E+00 0. -1.
         21    1    1    2  504  501  0.71025574289E+02  0.29147980936E+02  0.92290578167E+02  0.12004910584E+03  0.00000000000E+00 0. -1.
</event>
<event>
 4    1  0.2825993E+006  0.2402951E+02  0.7546771E-02  0.1479960E+00
         21   -1    0    0  504  501  0.00000000000E+00  0.00000000000E+00  0.37636498467E+02  0.37636498467E+02  0.00000000000E+00 0.  1.
         21   -1    0    0  503  502 -0.00000000000E+00 -0.00000000000E+00 -0.10185526278E+03  0.10185526278E+03  0.00000000000E+00 0.  1.
         21    1    1    2  503  501 -0.18683951594E+02 -0.15110509346E+02 -0.96388258913E+02  0.99338381284E+02  0.00000000000E+00 0.  1.
         21    1    1    2  504  502  0.18683951594E+02  0.15110509346E+02  0.32169494599E+02  0.40153379965E+02  0.00000000000E+00 0.  1.
</event>
<event>
 4    1  0.2825993E+006  0.2309581E+02  0.7546771E-02  0.1491298E+00
         21   -1    0    0  502  501  0.00000000000E+00  0.00000000000E+00  0.13572783198E+03  0.13572783198E+03  0.00000000000E+00 0. -1.
         21   -1    0    0  503  502 -0.00000000000E+00 -0.00000000000E+00 -0.96547288199E+02  0.96547288199E+02  0.00000000000E+00 0.  1.
         21    1    1    2  503  504  0.22562784930E+02  0.49332912497E+01 -0.94158988198E+02  0.96950150515E+02  0.00000000000E+00 0.  1.
         21    1    1    2  504  501 -0.22562784930E+02 -0.49332912497E+01  0.13333953198E+03  0.13532496966E+03  0.00000000000E+00 0. -1.
</event>
<event>
 4    1  0.2825993E+006  0.2020643E+02  0.7546771E-02  0.1530903E+00
         21   -1    0    0  503  501  0.00000000000E+00  0.00000000000E+00  0.29144413909E+02  0.29144413909E+02  0.00000000000E+00 0.  1.
         21   -1    0    0  504  502 -0.00000000000E+00 -0.00000000000E+00 -0.71334757385E+02  0.71334757385E+02  0.00000000000E+00 0.  1.
         21    1    1    2  503  502 -0.12620313221E+02 -0.15780604346E+02 -0.66132053836E+02  0.69150186723E+02  0.00000000000E+00 0.  1.
         21    1    1    2  504  501  0.12620313221E+02  0.15780604346E+02  0.23941710360E+02  0.31328984571E+02  0.00000000000E+00 0.  1.
</event>
<event>
 4    1  0.2825993E+006  0.2381306E+02  0.7546771E-02  0.1482533E+00
         21   -1    0    0  503  501  0.00000000000E+00  0.00000000000E+00  0.90265784296E+02  0.90265784296E+02  0.00000000000E+00 0. -1.
         21   -1    0    0  504  502 -0.00000000000E+00 -0.00000000000E+00 -0.12832140481E+02  0.12832140481E+02  0.00000000000E+00 0. -1.
         21    1    1    2  503  502  0.21797821088E+02  0.95873342451E+01  0.18877176898E+01  0.23887768003E+02  0.00000000000E+00 0. -1.
         21    1    1    2  504  501 -0.21797821088E+02 -0.95873342451E+01  0.75545926125E+02  0.79210156774E+02  0.00000000000E+00 0. -1.
</event>
<event>
 4    1  0.2825993E+006  0.2897991E+02  0.7546771E-02  0.1428673E+00
         21   -1    0    0  504  501  0.00000000000E+00  0.00000000000E+00  0.12897774834E+02  0.12897774834E+02  0.00000000000E+00 0. -1.
         21   -1    0    0  503  502 -0.00000000000E+00 -0.00000000000E+00 -0.16981611249E+03  0.16981611249E+03  0.00000000000E+00 0.  1.
         21    1    1    2  503  501 -0.20276007845E+01  0.28908893592E+02 -0.67246324655E+01  0.29749890343E+02  0.00000000000E+00 0. -1.
         21    1    1    2  504  502  0.20276007845E+01 -0.28908893592E+02 -0.15019370519E+03  0.15296399698E+03  0.00000000000E+00 0.  1.
</event>
<event>
 4    1  0.2825993E+006  0.4157432E+02  0.7546771E-02  0.1339499E+00
         21   -1    0    0  503  501  0.00000000000E+00  0.00000000000E+00  0.13846298214E+03  0.13846298214E+03  0.00000000000E+00 0.  1.
         21   -1    0    0  504  502 -0.00000000000E+00 -0.00000000000E+00 -0.33834207067E+02  0.33834207067E+02  0.00000000000E+00 0.  1.
         21    1    1    2  503  502  0.38986347979E+02 -0.14439153304E+02 -0.16121210623E+02  0.44590558517E+02  0.00000000000E+00 0.  1.
         21    1    1    2  504  501 -0.38986347979E+02  0.14439153304E+02  0.12074998570E+03  0.12770663069E+03  0.00000000000E+00 0.  1.
</event>
<event>
 4    1  0.2825993E+006  0.2580816E+02  0.7546771E-02  0.1459962E+00
         21   -1    0    0  504  501  0.00000000000E+00  0.00000000000E+00  0.13909152074E+03  0.13909152074E+03  0.00000000000E+00 0. -1.
         21   -1    0    0  503  502 -0.00000000000E+00 -0.00000000000E+00 -0.33432379591E+02  0.33432379591E+02  0.00000000000E+00 0. -1.
         21    1    1    2  503  501 -0.25756867036E+02 -0.16263509507E+01  0.13267505814E+03  0.13516187432E+03  0.00000000000E+00 0. -1.
         21    1    1    2  504  502  0.25756867036E+02  0.16263509507E+01 -0.27015916991E+02  0.37362026013E+02  0.00000000000E+00 0. -1.
</event>
<event>
 4    1  0.2825993E+006  0.2309686E+02  0.7546771E-02  0.1491285E+00
         21   -1    0    0  504  501  0.00000000000E+00  0.00000000000E+00  0.82985337335E+03  0.82985337335E+03  0.00000000000E+00 0.  1.
         21   -1    0    0  503  502 -0.00000000000E+00 -0.00000000000E+00 -0.10770262475E+01  0.10770262475E+01  0.00000000000E+00 0.  1.
         21    1    1    2  503  501  0.21269350164E+02 -0.90044358540E+01  0.15059823475E+03  0.15235909369E+03  0.00000000000E+00 0.  1.
         21    1    1    2  504  502 -0.21269350164E+02  0.90044358540E+01  0.67817811236E+03  0.67857130591E+03  0.00000000000E+00 0.  1.
</event>
<event>
 4    1  0.2825993E+006  0.2517836E+02  0.7546771E-02  0.1466818E+00
         21   -1    0    0  504  501  0.00000000000E+00  0.00000000000E+00  0.20528083875E+02  0.20528083875E+02  0.00000000000E+00 0.  1.
         21   -1    0    0  503  502 -0.00000000000E+00 -0.00000000000E+00 -0.58466166270E+02  0.58466166270E+02  0.00000000000E+00 0.  1.
         21    1    1    2  503  501  0.39275392233E+01  0.24870143183E+02  0.81605099803E+01  0.26467782480E+02  0.00000000000E+00 0.  1.
         21    1    1    2  504  502 -0.39275392233E+01 -0.24870143183E+02 -0.46098592376E+02  0.52526467665E+02  0.00000000000E+00 0.  1.
</event>
<event>
 4    1  0.2825993E+006  0.3758486E+02  0.7546771E-02  0.1363251E+00
         21   -1    0    0  503  501  0.00000000000E+00  0.00000000000E+00  0.46840918085E+03  0.46840918085E+03  0.00000000000E+00 0.  1.
         21   -1    0    0  504  502 -0.00000000000E+00 -0.00000000000E+00 -0.52336146651E+01  0.52336146651E+01  0.00000000000E+00 0.  1.
         21    1    1    2  503  502  0.32398044813E+02 -0.19052248233E+02  0.77423366517E+02  0.86063924807E+02  0.00000000000E+00 0.  1.
         21    1    1    2  504  501 -0.32398044813E+02  0.19052248233E+02  0.38575219967E+03  0.38757887071E+03  0.00000000000E+00 0.  1.
</event>
<event>
 4    1  0.2825993E+006  0.2134559E+02  0.7546771E-02  0.1514388E+00
         21   -1    0    0  504  501  0.00000000000E+00  0.00000000000E+00  0.22405043950E+02  0.22405043950E+02  0.00000000000E+00 0. -1.
         21   -1    0    0  503  502 -0.00000000000E+00 -0.00000000000E+00 -0.14691405076E+03  0.14691405076E+03  0.00000000000E+00 0. -1.
         21    1    1    2  503  501  0.15107790397E+02 -0.15079412198E+02 -0.14083650597E+03  0.14244492064E+03  0.00000000000E+00 0. -1.
         21    1    1    2  504  502 -0.15107790397E+02  0.15079412198E+02  0.16327499161E+02  0.26874174067E+02  0.00000000000E+00 0. -1.
</event>
<event>
 4    1  0.2825993E+006  0.2112088E+02  0.7546771E-02  0.1517546E+00
         21   -1    0    0  504  501  0.00000000000E+00  0.00000000000E+00  0.42209503724E+01  0.42209503724E+01  0.00000000000E+00 0. -1.
         21   -1    0    0  503  502 -0.00000000000E+00 -0.00000000000E+00 -0.14808903861E+03  0.14808903861E+03  0.00000000000E+00 0. -1.
         21    1    1    2  503  501  0.26000300059E+01 -0.20960233673E+02 -0.11268521067E+03  0.11464749564E+03  0.00000000000E+00 0. -1.
         21    1    1    2  504  502 -0.26000300059E+01  0.20960233673E+02 -0.31182877560E+02  0.37662493340E+02  0.00000000000E+00 0. -1.
</event>
<event>
 4    1  0.2825993E+006  0.2129122E+02  0.7546771E-02  0.1515147E+00
         21   -1    0    0  504  501  0.00000000000E+00  0.00000000000E+00  0.17787433371E+02  0.17787433371E+02  0.00000000000E+00 0. -1.
         21   -1    0    0  503  502 -0.00000000000E+00 -0.00000000000E+00 -0.41205524103E+02  0.41205524103E+02  0.00000000000E+00 0. -1.
         21    1    1    2  503  501  0.21204646979E+02 -0.19180216560E+01  0.65099128102E+01  0.22264205024E+02  0.00000000000E+00 0. -1.
         21    1    1    2  504  502 -0.21204646979E+02  0.19180216560E+01 -0.29928003542E+02  0.36728752451E+02  0.00000000000E+00 0. -1.
</event>
<event>
 4    1  0.2825993E+006  0.2521795E+02  0.7546771E-02  0.1466380E+00
         21   -1    0    0  504  501  0.00000000000E+00  0.00000000000E+00  0.10155225765E+03  0.10155225765E+03  0.00000000000E+00 0. -1.
         21   -1    0    0  501  502 -0.00000000000E+00 -0.00000000000E+00 -0.20752094273E+02  0.20752094273E+02  0.00000000000E+00 0. -1.
         21    1    1    2  503  502 -0.24286747522E+02 -0.67896184583E+01 -0.10698976650E+02  0.27393669439E+02  0.00000000000E+00 0. -1.
         21    1    1    2  504  503  0.24286747522E+02  0.67896184583E+01  0.91499140031E+02  0.94910682488E+02  0.00000000000E+00 0. -1.
</event>
<event>
 4    1  0.2825993E+006  0.4432987E+02  0.7546771E-02  0.1324824E+00
         21   -1    0    0  503  501  0.00000000000E+00  0.00000000000E+00  0.12079775565E+02  0.12079775565E+02  0.00000000000E+00 0.  1.
         21   -1    0    0  501  502 -0.00000000000E+00 -0.00000000000E+00 -0.22486379634E+03  0.22486379634E+03  0.00000000000E+00 0.  1.
         21    1    1    2  503  504 -0.37251336280E+02  0.24030716955E+02 -0.44091167812E+02  0.62523343569E+02  0.00000000000E+00 0.  1.
         21    1    1    2  504  502  0.37251336280E+02 -0.24030716955E+02 -0.16869285297E+03  0.17442022834E+03  0.00000000000E+00 0.  1.
</event>
<event>
 4    1  0.2825993E+006  0.2459036E+02  0.7546771E-02  0.1473439E+00
         21   -1    0    0  504  501  0.00000000000E+00  0.00000000000E+00  0.15068975305E+03  0.15068975305E+03  0.00000000000E+00 0.  1.
         21   -1    0    0  503  502 -0.00000000000E+00 -0.00000000000E+00 -0.88249662999E+01  0.88249662999E+01  0.00000000000E+00 0.  1.
         21    1    1    2  503  501  0.13758544447E+02  0.20381074953E+02  0.12036477870E+02  0.27378140205E+02  0.00000000000E+00 0.  1.
         21    1    1    2  504  502 -0.13758544447E+02 -0.20381074953E+02  0.12982830888E+03  0.13213657915E+03  0.00000000000E+00 0.  1.
</event>
<event>
 4    1  0.2825993E+006  0.2364205E+02  0.7546771E-02  0.1484590E+00
         21   -1    0    0  503  501  0.00000000000E+00  0.00000000000E+00  0.61875339952E+03  0.61875339952E+03  0.00000000000E+00 0. -1.
         21   -1    0    0  504  502 -0.00000000000E+00 -0.00000000000E+00 -0.39776807164E+01  0.39776807164E+01  0.00000000000E+00 0. -1.
         21    1    1    2  503  502 -0.11169061288E+02  0.20837427633E+02  0.33652185699E+02  0.41126827287E+02  0.00000000000E+00 0. -1.
         21    1    1    2  504  501  0.11169061288E+02 -0.20837427633E+02  0.58112353311E+03  0.58160425295E+03  0.00000000000E+00 0. -1.
</event>
<event>
 4    1  0.2825993E+006  0.2191214E+02  0.7546771E-02  0.1506630E+00
         21   -1    0    0  504  501  0.00000000000E+00  0.00000000000E+00  0.40419162500E+03  0.40419162500E+03  0.00000000000E+00 0.  1.
         21   -1    0    0  501  502 -0.00000000000E+00 -0.00000000000E+00 -0.14806875417E+01  0.14806875417E+01  0.00000000000E+00 0. -1.
         21    1    1    2  503  502  0.19530327620E+02 -0.99351916306E+01  0.11115986430E+03  0.11329897246E+03  0.00000000000E+00 0. -1.
         21    1    1    2  504  503 -0.19530327620E+02  0.99351916306E+01  0.29155107316E+03  0.29237334009E+03  0.00000000000E+00 0.  1.
</event>
<event>
 4    1  0.2825993E+006  0.2873537E+02  0.7546771E-02  0.1430914E+00
         21   -1    0    0  504  501  0.00000000000E+00  0.00000000000E+00  0.16071683974E+02  0.16071683974E+02  0.00000000000E+00 0. -1.
         21   -1    0    0  503  502 -0.00000000000E+00 -0.00000000000E+00 -0.65908601229E+02  0.65908601229E+02  0.00000000000E+00 0. -1.
         21    1    1    2  503  501 -0.28683410020E+02  0.17272033344E+01 -0.56716278410E+01  0.29289735474E+02  0.00000000000E+00 0. -1.
         21    1    1    2  504  502  0.28683410020E+02 -0.17272033344E+01 -0.44165289414E+02  0.52690549729E+02  0.00000000000E+00 0. -1.
</event>
<event>
 4    1  0.2825993E+006  0.2322142E+02  0.7546771E-02  0.1489736E+00
         21   -1    0    0  503  501  0.00000000000E+00  0.00000000000E+00  0.12163173826E+02  0.12163173826E+02  0.00000000000E+00 0. -1.
         21   -1    0    0  504  502 -0.00000000000E+00 -0.00000000000E+00 -0.27953545395E+03  0.27953545395E+03  0.00000000000E+00 0.  1.
         21    1    1    2  503  502 -0.14397896496E+02 -0.18219084671E+02 -0.26747086353E+03  0.26847699586E+03  0.00000000000E+00 0.  1.
         21    1    1    2  504  501  0.14397896496E+02  0.18219084671E+02  0.98583411217E-01  0.23221631908E+02  0.00000000000E+00 0. -1.
</event>
<event>
 4    1  0.2825993E+006  0.4336881E+02  0.7546771E-02  0.1329800E+00
         21   -1    0    0  503  501  0.00000000000E+00  0.00000000000E+00  0.20648976838E+01  0.20648976838E+01  0.00000000000E+00 0.  1.
         21   -1    0    0  504  502 -0.00000000000E+00 -0.00000000000E+00 -0.98328204226E+03  0.98328204226E+03  0.00000000000E+00 0.  1.
         21    1    1    2  503  502  0.37339724317E+02 -0.22058983472E+02 -0.35691056804E+03  0.35953582205E+03  0.00000000000E+00 0.  1.
         21    1    1    2  504  501 -0.37339724317E+02  0.22058983472E+02 -0.62430657654E+03  0.62581111789E+03  0.00000000000E+00 0.  1.
</event>
<event>
 4    1  0.2825993E+006  0.2187743E+02  0.7546771E-02  0.1507097E+00
         21   -1    0    0  503  501  0.00000000000E+00  0.00000000000E+00  0.93729430959E+02  0.93729430959E+02  0.00000000000E+00 0.  1.
         21   -1    0    0  501  502 -0.00000000000E+00 -0.00000000000E+00 -0.31847834082E+02  0.31847834082E+02  0.00000000000E+00 0. -1.
         21    1    1    2  503  504 -0.18471458769E+02 -0.11722925952E+02  0.88475950228E+02  0.91140636111E+02  0.00000000000E+00 0.  1.
         21    1    1    2  504  502  0.18471458769E+02  0.11722925952E+02 -0.26594353351E+02  0.34436628930E+02  0.00000000000E+00 0. -1.
</event>
<event>
 4    1  0.2825993E+006  0.2243130E+02  0.7546771E-02  0.1499766E+00
         21   -1    0    0  502  501  0.00000000000E+00  0.00000000000E+00  0.48157138687E+03  0.48157138687E+03  0.00000000000E+00 0.  1.
         21   -1    0    0  503  502 -0.00000000000E+00 -0.00000000000E+00 -0.49092970232E+01  0.49092970232E+01  0.00000000000E+00 0. -1.
         21    1    1    2  503  504  0.14438918342E+02  0.17166270550E+02  0.22521620425E+02  0.31786578835E+02  0.00000000000E+00 0. -1.
         21    1    1    2  504  501 -0.14438918342E+02 -0.17166270550E+02  0.45414046943E+03  0.45469410506E+03  0.00000000000E+00 0.  1.
</event>
<event>
 4    1  0.2825993E+006  0.2171460E+02  0.7546771E-02  0.1509302E+00
         21   -1    0    0  504  501  0.00000000000E+00  0.00000000000E+00  0.13625408925E+03  0.13625408925E+03  0.00000000000E+00 0.  1.
         21   -1    0    0  503  502 -0.00000000000E+00 -0.00000000000E+00 -0.14172984930E+02  0.14172984930E+02  0.00000000000E+00 0.  1.
         21    1    1    2  503  501  0.19142501858E+02  0.10251273638E+02  0.12643004602E+03  0.12828125555E+03  0.00000000000E+00 0.  1.
         21    1    1    2  504  502 -0.19142501858E+02 -0.10251273638E+02 -0.43489417069E+01  0.22145818625E+02  0.00000000000E+00 0.  1.
</event>
<event>
 4    1  0.2825993E+006  0.2222596E+02  0.7546771E-02  0.1502453E+00
         21   -1    0    0  504  501  0.00000000000E+00  0.00000000000E+00  0.21071274093E+02  0.21071274093E+02  0.00000000000E+00 0. -1.
         21   -1    0    0  503  502 -0.00000000000E+00 -0.00000000000E+00 -0.24395367805E+02  0.24395367805E+02  0.00000000000E+00 0. -1.
         21    1    1    2  503  501  0.20965079046E+02  0.73796170785E+01 -0.61515825439E+01  0.23061553621E+02  0.00000000000E+00 0. -1.
         21    1    1    2  504  502 -0.20965079046E+02 -0.73796170785E+01  0.28274888317E+01  0.22405088277E+02  0.00000000000E+00 0. -1.
</event>
<event>
 4    1  0.2825993E+006  0.2650027E+02  0.7546771E-02  0.1452694E+00
         21   -1    0    0  504  501  0.00000000000E+00  0.00000000000E+00  0.45795160422E+03  0.45795160422E+03  0.00000000000E+00 0. -1.
         21   -1    0    0  501  502 -0.00000000000E+00 -0.00000000000E+00 -0.53742648974E+02  0.53742648974E+02  0.00000000000E+00 0. -1.
         21    1    1    2  503  502 -0.25791749225E+02  0.60868896963E+01 -0.50066066066E+02  0.56646937477E+02  0.00000000000E+00 0. -1.
         21    1    1    2  504  503  0.25791749225E+02 -0.60868896963E+01  0.45427502131E+03  0.45504731572E+03  0.00000000000E+00 0. -1.
</event>
<event>
 4    1  0.2825993E+006  0.2431433E+02  0.7546771E-02  0.1476622E+00
         21   -1    0    0  503  501  0.00000000000E+00  0.00000000000E+00  0.39493674445E+02  0.39493674445E+02  0.00000000000E+00 0.  1.
         21   -1    0    0  504  502 -0.00000000000E+00 -0.00000000000E+00 -0.49586203009E+02  0.49586203009E+02  0.00000000000E+00 0.  1.
         21    1    1    2  503  502  0.24112538688E+02  0.31260446306E+01  0.32168411887E+02  0.40323608474E+02  0.00000000000E+00 0.  1.
         21    1    1    2  504  501 -0.24112538688E+02 -0.31260446306E+01 -0.42260940452E+02  0.48756268980E+02  0.00000000000E+00 0.  1.
</event>
<event>
 4    1  0.2825993E+006  0.2045421E+02  0.7546771E-02  0.1527202E+00
         21   -1    0    0  503  501  0.00000000000E+00  0.00000000000E+00  0.21131432014E+02  0.21131432014E+02  0.00000000000E+00 0.  1.
         21   -1    0    0  504  502 -0.00000000000E+00 -0.00000000000E+00 -0.21787283014E+02  0.21787283014E+02  0.00000000000E+00 0.  1.
         21    1    1    2  503  502 -0.15244083611E+02 -0.13637916699E+02 -0.68110919942E+01  0.21558428309E+02  0.00000000000E+00 0.  1.
         21    1    1    2  504  501  0.15244083611E+02  0.13637916699E+02  0.61552409935E+01  0.21360286719E+02  0.00000000000E+00 0.  1.
</event>
<event>
 4    1  0.2825993E+006  0.2139603E+02  0.7546771E-02  0.1513685E+00
         21   -1    0    0  504  501  0.00000000000E+00  0.00000000000E+00  0.29009163996E+02  0.29009163996E+02  0.00000000000E+00 0.  1.
         21   -1    0    0  501  502 -0.00000000000E+00 -0.00000000000E+00 -0.18738873210E+02  0.18738873210E+02  0.00000000000E+00 0.  1.
         21    1    1    2  503  502  0.20435513209E+02 -0.63387469310E+01 -0.43501954782E+01  0.21833783765E+02  0.00000000000E+00 0.  1.
         21    1    1    2  504  503 -0.20435513209E+02  0.63387469310E+01  0.14620486265E+02  0.25914253441E+02  0.00000000000E+00 0.  1.
</event>
<event>
 4    1  0.2825993E+006  0.2183656E+02  0.7546771E-02  0.1507648E+00
         21   -1    0    0  504  501  0.00000000000E+00  0.00000000000E+00  0.72757762329E+03  0.72757762329E+03  0.00000000000E+00 0. -1.
         21   -1    0    0  501  502 -0.00000000000E+00 -0.00000000000E+00 -0.13201624700E+02  0.13201624700E+02  0.00000000000E+00 0. -1.
         21    1    1    2  503  502 -0.91551633158E+01  0.19824689598E+02 -0.38908954687E+01  0.22180495949E+02  0.00000000000E+00 0. -1.
         21    1    1    2  504  503  0.91551633158E+01 -0.19824689598E+02  0.71826689406E+03  0.71859875204E+03  0.00000000000E+00 0. -1.
</event>
<event>
 4    1  0.2825993E+006  0.2788719E+02  0.7546771E-02  0.1438894E+00
         21   -1    0    0  504  501  0.00000000000E+00  0.00000000000E+00  0.15070728948E+02  0.15070728948E+02  0.00000000000E+00 0.  1.
         21   -1    0    0  503  502 -0.00000000000E+00 -0.00000000000E+00 -0.16909050172E+03  0.16909050172E+03  0.00000000000E+00 0.  1.
         21    1    1    2  503  501  0.10579706135E+02 -0.25802421709E+02 -0.15376448439E+03  0.15627287611E+03  0.00000000000E+00 0.  1.
         21    1    1    2  504  502 -0.10579706135E+02  0.25802421709E+02 -0.25528838565E+00  0.27888354561E+02  0.00000000000E+00 0.  1.
</event>
<event>
 4    1  0.2825993E+006  0.2222187E+02  0.7546771E-02  0.1502507E+00
         21   -1    0    0  504  501  0.00000000000E+00  0.00000000000E+00  0.17317688938E+03  0.17317688938E+03  0.00000000000E+00 0. -1.
         21   -1    0    0  503  502 -0.00000000000E+00 -0.00000000000E+00 -0.54133592772E+01  0.54133592772E+01  0.00000000000E+00 0.  1.
         21    1    1    2  503  501  0.64475518978E+01  0.21265949016E+02  0.14531071957E+03  0.14700005692E+03  0.00000000000E+00 0. -1.
         21    1    1    2  504  502 -0.64475518978E+01 -0.21265949016E+02  0.22452810530E+02  0.31590191733E+02  0.00000000000E+00 0.  1.
</event>
<event>
 4    1  0.2825993E+006  0.2557916E+02  0.7546771E-02  0.1462428E+00
         21   -1    0    0  503  501  0.00000000000E+00  0.00000000000E+00  0.19627922714E+03  0.19627922714E+03  0.00000000000E+00 0. -1.
         21   -1    0    0  501  502 -0.00000000000E+00 -0.00000000000E+00 -0.86213131075E+01  0.86213131075E+01  0.00000000000E+00 0. -1.
         21    1    1    2  503  504 -0.13979170834E+02  0.21421390414E+02  0.17406420598E+03  0.17593362665E+03  0.00000000000E+00 0. -1.
         21    1    1    2  504  502  0.13979170834E+02 -0.21421390414E+02  0.13593708054E+02  0.28966913594E+02  0.00000000000E+00 0. -1.
</event>
<event>
 4    1  0.2825993E+006  0.2820142E+02  0.7546771E-02  0.1435899E+00
         21   -1    0    0  503  501  0.00000000000E+00  0.00000000000E+00  0.83114532955E+02  0.83114532955E+02  0.00000000000E+00 0. -1.
         21   -1    0    0  501  502 -0.00000000000E+00 -0.00000000000E+00 -0.23609361575E+02  0.23609361575E+02  0.00000000000E+00 0. -1.
         21    1    1    2  503  504  0.22259226829E+02 -0.17316083898E+02  0.70903477979E+02  0.76306114631E+02  0.00000000000E+00 0. -1.
         21    1    1    2  504  502 -0.22259226829E+02  0.17316083898E+02 -0.11398306600E+02  0.30417779898E+02  0.00000000000E+00 0. -1.
</event>
<event>
 4    1  0.2825993E+006  0.3275048E+02  0.7546771E-02  0.1397107E+00
         21   -1    0    0  503  501  0.00000000000E+00  0.00000000000E+00  0.10281516798E+03  0.10281516798E+03  0.00000000000E+00 0. -1.
         21   -1    0    0  504  502 -0.00000000000E+00 -0.00000000000E+00 -0.29468834801E+02  0.29468834801E+02  0.00000000000E+00 0. -1.
         21    1    1    2  503  502 -0.24911064288E+02  0.21261062197E+02  0.89833822372E+02  0.95617516867E+02  0.00000000000E+00 0. -1.
         21    1    1    2  504  501  0.24911064288E+02 -0.21261062197E+02 -0.16487489190E+02  0.36666485917E+02  0.00000000000E+00 0. -1.
</event>
<event>
 4    1  0.2825993E+006  0.3103357E+02  0.7546771E-02  0.1410822E+00
         21   -1    0    0  504  501  0.00000000000E+00  0.00000000000E+00  0.53670564627E+02  0.53670564627E+02  0.00000000000E+00 0.  1.
         21   -1    0    0  503  502 -0.00000000000E+00 -0.00000000000E+00 -0.82199684242E+02  0.82199684242E+02  0.00000000000E+00 0. -1.
         21    1    1    2  503  501 -0.24694432483E+02  0.18795414234E+02  0.45799397847E+02  0.55323299207E+02  0.00000000000E+00 0.  1.
         21    1    1    2  504  502  0.24694432483E+02 -0.18795414234E+02 -0.74328517462E+02  0.80546949663E+02  0.00000000000E+00 0. -1.
</event>
<event>
 4    1  0.2825993E+006  0.2812513E+02  0.7546771E-02  0.1436622E+00
         21   -1    0    0  502  501  0.00000000000E+00  0.00000000000E+00  0.23354560088E+02  0.23354560088E+02  0.00000000000E+00 0. -1.
         21   -1    0    0  504  502 -0.00000000000E+00 -0.00000000000E+00 -0.42903699499E+02  0.42903699499E+02  0.00000000000E+00 0. -1.
         21    1    1    2  503  501 -0.15205839374E+02  0.23660201533E+02  0.54271118423E+01  0.28643956266E+02  0.00000000000E+00 0. -1.
         21    1    1    2  504  503  0.15205839374E+02 -0.23660201533E+02 -0.24976251253E+02  0.37614303321E+02  0.00000000000E+00 0. -1.
</event>
<event>
 4    1  0.2825993E+006  0.7114949E+02  0.7546771E-02  0.1226034E+00
         21   -1    0    0  504  501  0.00000000000E+00  0.00000000000E+00  0.24647332777E+02  0.24647332777E+02  0.00000000000E+00 0. -1.
         21   -1    0    0  503  502 -0.00000000000E+00 -0.00000000000E+00 -0.31743180934E+03  0.31743180934E+03  0.00000000000E+00 0.  1.
         21    1    1    2  503  501  0.67846299432E+02  0.21427298620E+02 -0.24800930143E+03  0.25801330018E+03  0.00000000000E+00 0.  1.
         21    1    1    2  504  502 -0.67846299432E+02 -0.21427298620E+02 -0.44775175133E+02  0.84065841939E+02  0.00000000000E+00 0. -1.
</event>
<event>
 4    1  0.2825993E+006  0.2006835E+02  0.7546771E-02  0.1532993E+00
         21   -1    0    0  504  501  0.00000000000E+00  0.00000000000E+00  0.20449870121E+02  0.20449870121E+02  0.00000000000E+00 0. -1.
         21   -1    0    0  503  502 -0.00000000000E+00 -0.00000000000E+00 -0.72510126417E+02  0.72510126417E+02  0.00000000000E+00 0.  1.
         21    1    1    2  503  501 -0.27998734479E+01  0.19872073810E+02  0.13638782383E+02  0.24264274021E+02  0.00000000000E+00 0. -1.
         21    1    1    2  504  502  0.27998734479E+01 -0.19872073810E+02 -0.65699038679E+02  0.68695722517E+02  0.00000000000E+00 0.  1.
</event>
<event>
 4    1  0.2825993E+006  0.2254331E+02  0.7546771E-02  0.1498314E+00
         21   -1    0    0  503  501  0.00000000000E+00  0.00000000000E+00  0.11081347977E+03  0.11081347977E+03  0.00000000000E+00 0.  1.
         21   -1    0    0  504  502 -0.00000000000E+00 -0.00000000000E+00 -0.23241450753E+03  0.23241450753E+03  0.00000000000E+00 0.  1.
         21    1    1    2  503  502 -0.19670049482E+01  0.22457327190E+02 -0.23071289553E+03  0.23181164944E+03  0.00000000000E+00 0.  1.
         21    1    1    2  504  501  0.19670049482E+01 -0.22457327190E+02  0.10911186777E+03  0.11141633786E+03  0.00000000000E+00 0.  1.
</event>
<event>
 4    1  0.2825993E+006  0.9962582E+02  0.7546771E-02  0.1164458E+00
         21   -1    0    0  504  501  0.00000000000E+00  0.00000000000E+00  0.26385080813E+03  0.26385080813E+03  0.00000000000E+00 0.  1.
         21   -1    0    0  503  502 -0.00000000000E+00 -0.00000000000E+00 -0.15034010461E+03  0.15034010461E+03  0.00000000000E+00 0.  1.
         21    1    1    2  503  501  0.91373011393E+02 -0.39702363650E+02 -0.12256905607E+03  0.15795087336E+03  0.00000000000E+00 0.  1.
         21    1    1    2  504  502 -0.91373011393E+02  0.39702363650E+02  0.23607975959E+03  0.25624003937E+03  0.00000000000E+00 0.  1.
</event>
<event>
 4    1  0.2825993E+006  0.2294920E+02  0.7546771E-02  0.1493137E+00
         21   -1    0    0  502  501  0.00000000000E+00  0.00000000000E+00  0.17661068067E+02  0.17661068067E+02  0.00000000000E+00 0.  1.
         21   -1    0    0  503  502 -0.00000000000E+00 -0.00000000000E+00 -0.13421208065E+03  0.13421208065E+03  0.00000000000E+00 0.  1.
         21    1    1    2  503  504  0.20366437198E+02  0.10577047601E+02 -0.12524661422E+03  0.12733177166E+03  0.00000000000E+00 0.  1.
         21    1    1    2  504  501 -0.20366437198E+02 -0.10577047601E+02  0.86956016376E+01  0.24541377058E+02  0.00000000000E+00 0.  1.
</event>
<event>
 4    1  0.2825993E+006  0.2124265E+02  0.7546771E-02  0.1515828E+00
         21   -1    0    0  503  501  0.00000000000E+00  0.00000000000E+00  0.70570263661E+01  0.70570263661E+01  0.00000000000E+00 0.  1.
         21   -1    0    0  504  502 -0.00000000000E+00 -0.00000000000E+00 -0.14577610608E+03  0.14577610608E+03  0.00000000000E+00 0.  1.
         21    1    1    2  503  502  0.86631757963E+01 -0.19395867775E+02 -0.12105282372E+02  0.24449706807E+02  0.00000000000E+00 0.  1.
         21    1    1    2  504  501 -0.86631757963E+01  0.19395867775E+02 -0.12661379734E+03  0.12838342564E+03  0.00000000000E+00 0.  1.
</event>
<event>
 4    1  0.2825993E+006  0.2005167E+02  0.7546771E-02  0.1533247E+00
         21   -1    0    0  503  501  0.00000000000E+00  0.00000000000E+00  0.15487262100E+02  0.15487262100E+02  0.00000000000E+00 0.  1.
         21   -1    0    0  504  502 -0.00000000000E+00 -0.00000000000E+00 -0.27530855903E+03  0.27530855903E+03  0.00000000000E+00 0.  1.
         21    1    1    2  503  502  0.16336624356E+02  0.11626864605E+02  0.84621162739E+01  0.21764114678E+02  0.00000000000E+00 0.  1.
         21    1    1    2  504  501 -0.16336624356E+02 -0.11626864605E+02 -0.26828341321E+03  0.26903170645E+03  0.00000000000E+00 0.  1.
</event>
<event>
 4    1  0.2825993E+006  0.2325018E+02  0.7546771E-02  0.1489380E+00
         21   -1    0    0  502  501  0.00000000000E+00  0.00000000000E+00  0.11540026806E+04  0.11540026806E+04  0.00000000000E+00 0.  1.
         21   -1    0    0  503  502 -0.00000000000E+00 -0.00000000000E+00 -0.11398761108E+01  0.11398761108E+01  0.00000000000E+00 0. -1.
         21    1    1    2  503  504  0.17151593539E+02 -0.15696927806E+02  0.13314745984E+03  0.13516218689E+03  0.00000000000E+00 0. -1.
         21    1    1    2  504  501 -0.17151593539E+02  0.15696927806E+02  0.10197153447E+04  0.10199803698E+04  0.00000000000E+00 0.  1.
</event>
<event>
 4    1  0.2825993E+006  0.2387968E+02  0.7546771E-02  0.1481738E+00
         21   -1    0    0  504  501  0.00000000000E+00  0.00000000000E+00  0.87035291347E+02  0.87035291347E+02  0.00000000000E+00 0. -1.
         21   -1    0    0  501  502 -0.00000000000E+00 -0.00000000000E+00 -0.13835984545E+03  0.13835984545E+03  0.00000000000E+00 0.  1.
         21    1    1    2  503  502 -0.22377773349E+02  0.83351290928E+01 -0.13565917738E+03  0.13774487839E+03  0.00000000000E+00 0.  1.
         21    1    1    2  504  503  0.22377773349E+02 -0.83351290928E+01  0.84334623269E+02  0.87650258408E+02  0.00000000000E+00 0. -1.
</event>
<event>
 4    1  0.2825993E+006  0.2310914E+02  0.7546771E-02  0.1491132E+00
         21   -1    0    0  504  501  0.00000000000E+00  0.00000000000E+00  0.43499892843E+00  0.43499892843E+00  0.00000000000E+00 0. -1.
         21   -1    0    0  503  502 -0.00000000000E+00 -0.00000000000E+00 -0.15523661477E+04  0.15523661477E+04  0.00000000000E+00 0. -1.
         21    1    1    2  503  501  0.22002735661E+02 -0.70648282242E+01 -0.42088093590E+03  0.42151488038E+03  0.00000000000E+00 0. -1.
         21    1    1    2  504  502 -0.22002735661E+02  0.70648282242E+01 -0.11310502129E+04  0.11312862663E+04  0.00000000000E+00 0. -1.
</event>
<event>
 4    1  0.2825993E+006  0.3332084E+02  0.7546771E-02  0.1392769E+00
         21   -1    0    0  502  501  0.00000000000E+00  0.00000000000E+00  0.14796970380E+02  0.14796970380E+02  0.00000000000E+00 0.  1.
         21   -1    0    0  504  502 -0.00000000000E+00 -0.00000000000E+00 -0.10695859082E+03  0.10695859082E+03  0.00000000000E+00 0.  1.
         21    1    1    2  503  501 -0.32987444741E+02 -0.47018256167E+01 -0.12821567392E+02  0.35702538636E+02  0.00000000000E+00 0.  1.
         21    1    1    2  504  503  0.32987444741E+02  0.47018256167E+01 -0.79340053050E+02  0.86053022566E+02  0.00000000000E+00 0.  1.
</event>
<event>
 4    1  0.2825993E+006  0.3295307E+02  0.7546771E-02  0.1395554E+00
         21   -1    0    0  503  501  0.00000000000E+00  0.00000000000E+00  0.81582497146E+03  0.81582497146E+03  0.00000000000E+00 0. -1.
         21   -1    0    0  501  502 -0.00000000000E+00 -0.00000000000E+00 -0.23315560256E+01  0.23315560256E+01  0.00000000000E+00 0. -1.
         21    1    1    2  503  504  0.10800179313E+02 -0.31132958614E+02  0.67472093212E+03  0.67552515958E+03  0.00000000000E+00 0. -1.
         21    1    1    2  504  502 -0.10800179313E+02  0.31132958614E+02  0.13877248332E+03  0.14263136791E+03  0.00000000000E+00 0. -1.
</event>
<event>
 4    1  0.2825993E+006  0.2013869E+02  0.7546771E-02  0.1531926E+00
         21   -1    0    0  503  501  0.00000000000E+00  0.00000000000E+00  0.14401857312E+02  0.14401857312E+02  0.00000000000E+00 0. -1.
         21   -1    0    0  504  502 -0.00000000000E+00 -0.00000000000E+00 -0.39176303731E+02  0.39176303731E+02  0.00000000000E+00 0. -1.
         21    1    1    2  503  502 -0.18946856677E+02  0.68252181076E+01  0.18180442045E+01  0.20220590122E+02  0.00000000000E+00 0. -1.
         21    1    1    2  504  501  0.18946856677E+02 -0.68252181076E+01 -0.26592490623E+02  0.33357570920E+02  0.00000000000E+00 0. -1.
</event>
<event>
 4    1  0.2825993E+006  0.2558818E+02  0.7546771E-02  0.1462330E+00
         21   -1    0    0  504  501  0.00000000000E+00  0.00000000000E+00  0.35535775436E+03  0.35535775436E+03  0.00000000000E+00 0. -1.
         21   -1    0    0  503  502 -0.00000000000E+00 -0.00000000000E+00 -0.23488064383E+03  0.23488064383E+03  0.00000000000E+00 0.  1.
         21    1    1    2  503  501 -0.16371002705E+02 -0.19665834515E+02 -0.23372083252E+03  0.23511737990E+03  0.00000000000E+00 0.  1.
         21    1    1    2  504  502  0.16371002705E+02  0.19665834515E+02  0.35419794305E+03  0.35512101829E+03  0.00000000000E+00 0. -1.
</event>
<event>
 4    1  0.2825993E+006  0.2685167E+02  0.7546771E-02  0.1449104E+00
         21   -1    0    0  504  501  0.00000000000E+00  0.00000000000E+00  0.74112906394E+02  0.74112906394E+02  0.00000000000E+00 0.  1.
         21   -1    0    0  501  502 -0.00000000000E+00 -0.00000000000E+00 -0.97301955757E+01  0.97301955757E+01  0.00000000000E+00 0.  1.
         21    1    1    2  503  502 -0.15739402697E+02  0.21755072978E+02  0.31648155987E+02  0.41504430786E+02  0.00000000000E+00 0.  1.
         21    1    1    2  504  503  0.15739402697E+02 -0.21755072978E+02  0.32734554831E+02  0.42338671183E+02  0.00000000000E+00 0.  1.
</event>
<event>
 4    1  0.2825993E+006  0.2354553E+02  0.7546771E-02  0.1485759E+00
         21   -1    0    0  502  501  0.00000000000E+00  0.00000000000E+00  0.47197197245E+03  0.47197197245E+03  0.00000000000E+00 0.  1.
         21   -1    0    0  504  502 -0.00000000000E+00 -0.00000000000E+00 -0.10949872030E+02  0.10949872030E+02  0.00000000000E+00 0. -1.
         21    1    1    2  503  501 -0.23446175492E+02 -0.21607587203E+01  0.45865350610E+03  0.45925747755E+03  0.00000000000E+00 0.  1.
         21    1    1    2  504  503  0.23446175492E+02  0.21607587203E+01  0.23685943213E+01  0.23664366936E+02  0.00000000000E+00 0. -1.
</event>
<event>
 4    1  0.2825993E+006  0.3684823E+02  0.7546771E-02  0.1368015E+00
         21   -1    0    0  504  501  0.00000000000E+00  0.00000000000E+00  0.38122734106E+01  0.38122734106E+01  0.00000000000E+00 0. -1.
         21   -1    0    0  503  502 -0.00000000000E+00 -0.00000000000E+00 -0.36017894536E+03  0.36017894536E+03  0.00000000000E+00 0. -1.
         21    1    1    2  503  501  0.22666581423E+02 -0.29051987350E+02 -0.15896661125E+03  0.16318141859E+03  0.00000000000E+00 0. -1.
         21    1    1    2  504  502 -0.22666581423E+02  0.29051987350E+02 -0.19740006071E+03  0.20080980018E+03  0.00000000000E+00 0. -1.
</event>
<event>
 4    1  0.2825993E+006  0.2681920E+02  0.7546771E-02  0.1449433E+00
         21   -1    0    0  503  501  0.00000000000E+00  0.00000000000E+00  0.16347039420E+02  0.16347039420E+02  0.00000000000E+00 0.  1.
         21   -1    0    0  504  502 -0.00000000000E+00 -0.00000000000E+00 -0.59260059131E+02  0.59260059131E+02  0.00000000000E+00 0.  1.
         21    1    1    2  503  502  0.26521323654E+02  0.39861174120E+01 -0.22729306566E+01  0.26915347929E+02  0.00000000000E+00 0.  1.
         21    1    1    2  504  501 -0.26521323654E+02 -0.39861174120E+01 -0.40640089054E+02  0.48691750623E+02  0.00000000000E+00 0.  1.
</event>
<event>
 4    1  0.2825993E+006  0.2521301E+02  0.7546771E-02  0.1466434E+00
         21   -1    0    0  503  501  0.00000000000E+00  0.00000000000E+00  0.11972807111E+03  0.11972807111E+03  0.00000000000E+00 0.  1.
         21   -1    0    0  504  502 -0.00000000000E+00 -0.00000000000E+00 -0.53198441936E+01  0.53198441936E+01  0.00000000000E+00 0.  1.
         21    1    1    2  503  502  0.22725262858E+02 -0.10920550025E+02  0.59961400087E+02  0.65046640845E+02  0.00000000000E+00 0.  1.
         21    1    1    2  504  501 -0.22725262858E+02  0.10920550025E+02  0.54446826828E+02  0.60001274457E+02  0.00000000000E+00 0.  1.
</event>
<event>
 4    1  0.2825993E+006  0.6225201E+02  0.7546771E-02  0.1252367E+00
         21   -1    0    0  504  501  0.00000000000E+00  0.00000000000E+00  0.80917662038E+02  0.80917662038E+02  0.00000000000E+00 0.  1.
         21   -1    0    0  503  502 -0.00000000000E+00 -0.00000000000E+00 -0.72792224096E+02  0.72792224096E+02  0.00000000000E+00 0.  1.
         21    1    1    2  503  501 -0.36742212191E+02  0.50252590858E+02  0.49012798771E+02  0.79231101772E+02  0.00000000000E+00 0.  1.
         21    1    1    2  504  502  0.36742212191E+02 -0.50252590858E+02 -0.40887360828E+02  0.74478784363E+02  0.00000000000E+00 0.  1.
</event>
<event>
 4    1  0.2825993E+006  0.2039127E+02  0.7546771E-02  0.1528136E+00
         21   -1    0    0  504  501  0.00000000000E+00  0.00000000000E+00  0.94724751201E+01  0.94724751201E+01  0.00000000000E+00 0.  1.
         21   -1    0    0  503  502 -0.00000000000E+00 -0.00000000000E+00 -0.18147028777E+03  0.18147028777E+03  0.00000000000E+00 0. -1.
         21    1    1    2  503  501  0.19427934062E+02 -0.61934834724E+01 -0.28724888318E+01  0.20592597008E+02  0.00000000000E+00 0.  1.
         21    1    1    2  504  502 -0.19427934062E+02  0.61934834724E+01 -0.16912532382E+03  0.17035016588E+03  0.00000000000E+00 0. -1.
</event>
<event>
 4    1  0.2825993E+006  0.3222708E+02  0.7546771E-02  0.1401181E+00
         21   -1    0    0  503  501  0.00000000000E+00  0.00000000000E+00  0.69336536557E+02  0.69336536557E+02  0.00000000000E+00 0.  1.
         21   -1    0    0  504  502 -0.00000000000E+00 -0.00000000000E+00 -0.14978927837E+02  0.14978927837E+02  0.00000000000E+00 0.  1.
         21    1    1    2  503  502 -0.27737013850E+02 -0.16408611095E+02  0.27244501329E+02  0.42200086588E+02  0.00000000000E+00 0.  1.
         21    1    1    2  504  501  0.27737013850E+02  0.16408611095E+02  0.27113107391E+02  0.42115377806E+02  0.00000000000E+00 0.  1.
</event>
<event>
 4    1  0.2825993E+006  0.3944294E+02  0.7546771E-02  0.1351781E+00
         21   -1    0    0  503  501  0.00000000000E+00  0.00000000000E+00  0.24009400448E+03  0.24009400448E+03  0.00000000000E+00 0.  1.
         21   -1    0    0  504  502 -0.00000000000E+00 -0.00000000000E+00 -0.65645924243E+01  0.65645924243E+01  0.00000000000E+00 0. -1.
         21    1    1    2  503  502 -0.34172605019E+02  0.19697171933E+02  0.10274278917E+03  0.11005374252E+03  0.00000000000E+00 0. -1.
         21    1    1    2  504  501  0.34172605019E+02 -0.19697171933E+02  0.13078662289E+03  0.13660485439E+03  0.00000000000E+00 0.  1.
</event>
<event>
 4    1  0.2825993E+006  0.2332372E+02  0.7546771E-02  0.1488473E+00
         21   -1    0    0  503  501  0.00000000000E+00  0.00000000000E+00  0.26953257006E+02  0.26953257006E+02  0.00000000000E+00 0.  1.
         21   -1    0    0  504  502 -0.00000000000E+00 -0.00000000000E+00 -0.22026720620E+02  0.22026720620E+02  0.00000000000E+00 0.  1.
         21    1    1    2  503  502  0.14413829116E+02  0.18336781468E+02  0.95487281111E+01  0.25202663211E+02  0.00000000000E+00 0.  1.
         21    1    1    2  504  501 -0.14413829116E+02 -0.18336781468E+02 -0.46221917254E+01  0.23777314414E+02  0.00000000000E+00 0.  1.
</event>
<event>
 4    1  0.2825993E+006  0.2811429E+02  0.7546771E-02  0.1436725E+00
         21   -1    0    0  503  501  0.00000000000E+00  0.00000000000E+00  0.10727654321E+03  0.10727654321E+03  0.00000000000E+00 0. -1.
         21   -1    0    0  501  502 -0.00000000000E+00 -0.00000000000E+00 -0.21507247493E+03  0.21507247493E+03  0.00000000000E+00 0. -1.
         21    1    1    2  503  504  0.19605828318E+02  0.20150060223E+02  0.10449170915E+03  0.10820781262E+03  0.00000000000E+00 0. -1.
         21    1    1    2  504  502 -0.19605828318E+02 -0.20150060223E+02 -0.21228764087E+03  0.21414120551E+03  0.00000000000E+00 0. -1.
</event>
<event>
 4    1  0.2825993E+006  0.2264300E+02  0.7546771E-02  0.1497030E+00
         21   -1    0    0  504  501  0.00000000000E+00  0.00000000000E+00  0.67136183979E+03  0.67136183979E+03  0.00000000000E+00 0.  1.
         21   -1    0    0  503  502 -0.00000000000E+00 -0.00000000000E+00 -0.79225437639E+00  0.79225437639E+00  0.00000000000E+00 0.  1.
         21    1    1    2  503  501 -0.29529864231E+01 -0.22449619602E+02  0.39911049422E+03  0.39975228848E+03  0.00000000000E+00 0.  1.
         21    1    1    2  504  502  0.29529864231E+01  0.22449619602E+02  0.27145909119E+03  0.27240180568E+03  0.00000000000E+00 0.  1.
</event>
<event>
 4    1  0.2825993E+006  0.3008305E+02  0.7546771E-02  0.1418876E+00
         21   -1    0    0  503  501  0.00000000000E+00  0.00000000000E+00  0.21775379495E+03  0.21775379495E+03  0.00000000000E+00 0. -1.
         21   -1    0    0  504  502 -0.00000000000E+00 -0.00000000000E+00 -0.44201089872E+01  0.44201089872E+01  0.00000000000E+00 0. -1.
         21    1    1    2  503  502  0.18561059353E+02 -0.23674390564E+02  0.13381995242E+03  0.13715964916E+03  0.00000000000E+00 0. -1.
         21    1    1    2  504  501 -0.18561059353E+02  0.23674390564E+02  0.79513733544E+02  0.85014254775E+02  0.00000000000E+00 0. -1.
</event>
<event>
 4    1  0.2825993E+006  0.2780918E+02  0.7546771E-02  0.1439645E+00
         21   -1    0    0  503  501  0.00000000000E+00  0.00000000000E+00  0.66162906774E+03  0.66162906774E+03  0.00000000000E+00 0. -1.
         21   -1    0    0  504  502 -0.00000000000E+00 -0.00000000000E+00 -0.28763607020E+03  0.28763607020E+03  0.00000000000E+00 0.  1.
         21    1    1    2  503  502 -0.10161700846E+01 -0.27790606353E+02 -0.28667071351E+03  0.28801640298E+03  0.00000000000E+00 0.  1.
         21    1    1    2  504  501  0.10161700846E+01  0.27790606353E+02  0.66066371104E+03  0.66124873496E+03  0.00000000000E+00 0. -1.
</event>
<event>
 4    1  0.2825993E+006  0.4645900E+02  0.7546771E-02  0.1314301E+00
         21   -1    0    0  504  501  0.00000000000E+00  0.00000000000E+00  0.16297528385E+02  0.16297528385E+02  0.00000000000E+00 0.  1.
         21   -1    0    0  501  502 -0.00000000000E+00 -0.00000000000E+00 -0.16077893229E+03  0.16077893229E+03  0.00000000000E+00 0.  1.
         21    1    1    2  503  502 -0.58719736258E+01 -0.46086429762E+02 -0.10941224853E+03  0.11886748593E+03  0.00000000000E+00 0.  1.
         21    1    1    2  504  503  0.58719736258E+01  0.46086429762E+02 -0.35069155375E+02  0.58208974748E+02  0.00000000000E+00 0.  1.
</event>
<event>
 4    1  0.2825993E+006  0.3133147E+02  0.7546771E-02  0.1408368E+00
         21   -1    0    0  504  501  0.00000000000E+00  0.00000000000E+00  0.11432073226E+03  0.11432073226E+03  0.00000000000E+00 0. -1.
         21   -1    0    0  501  502 -0.00000000000E+00 -0.00000000000E+00 -0.59326024999E+02  0.59326024999E+02  0.00000000000E+00 0.  1.
         21    1    1    2  503  502  0.23192576394E+02  0.21065737547E+02 -0.52797097890E+02  0.61393765513E+02  0.00000000000E+00 0.  1.
         21    1    1    2  504  503 -0.23192576394E+02 -0.21065737547E+02  0.10779180515E+03  0.11225299174E+03  0.00000000000E+00 0. -1.
</event>
<event>
 4    1  0.2825993E+006  0.3128726E+02  0.7546771E-02  0.1408730E+00
         21   -1    0    0  502  501  0.00000000000E+00  0.00000000000E+00  0.62707686337E+01  0.62707686337E+01  0.00000000000E+00 0.  1.
         21   -1    0    0  504  502 -0.00000000000E+00 -0.00000000000E+00 -0.15895850747E+03  0.15895850747E+03  0.00000000000E+00 0.  1.
         21    1    1    2  503  501  0.11000865854E+02  0.29289478362E+02 -0.87414550355E+02  0.92845011746E+02  0.00000000000E+00 0.  1.
         21    1    1    2  504  503 -0.11000865854E+02 -0.29289478362E+02 -0.65273188486E+02  0.72384264363E+02  0.00000000000E+00 0.  1.
</event>
<event>
 4    1  0.2825993E+006  0.2421243E+02  0.7546771E-02  0.1477810E+00
         21   -1    0    0  503  501  0.00000000000E+00  0.00000000000E+00  0.26886435873E+02  0.26886435873E+02  0.00000000000E+00 0. -1.
         21   -1    0    0  501  502 -0.00000000000E+00 -0.00000000000E+00 -0.12256743276E+04  0.12256743276E+04  0.00000000000E+00 0.  1.
         21    1    1    2  503  504  0.15374809330E+02  0.18704459865E+02  0.21290772105E+02  0.32241875839E+02  0.00000000000E+00 0. -1.
         21    1    1    2  504  502 -0.15374809330E+02 -0.18704459865E+02 -0.12200786639E+04  0.12203188877E+04  0.00000000000E+00 0.  1.
</event>
<event>
 4    1  0.2825993E+006  0.2513844E+02  0.7546771E-02  0.1467261E+00
         21   -1    0    0  504  501  0.00000000000E+00  0.00000000000E+00  0.53761839891E+01  0.53761839891E+01  0.00000000000E+00 0.  1.
         21   -1    0    0  503  502 -0.00000000000E+00 -0.00000000000E+00 -0.12329015474E+03  0.12329015474E+03  0.00000000000E+00 0.  1.
         21    1    1    2  503  501 -0.17474288135E+02 -0.18071818975E+02 -0.45069078373E+02  0.51605844750E+02  0.00000000000E+00 0.  1.
         21    1    1    2  504  502  0.17474288135E+02  0.18071818975E+02 -0.72844892381E+02  0.77060493983E+02  0.00000000000E+00 0.  1.
</event>
<event>
 4    1  0.2825993E+006  0.2064434E+02  0.7546771E-02  0.1524404E+00
         21   -1    0    0  504  501  0.00000000000E+00  0.00000000000E+00  0.13157794942E+01  0.13157794942E+01  0.00000000000E+00 0.  1.
         21   -1    0    0  501  502 -0.00000000000E+00 -0.00000000000E+00 -0.76674165284E+03  0.76674165284E+03  0.00000000000E+00 0.  1.
         21    1    1    2  503  502 -0.20178031704E+02 -0.43630121538E+01 -0.67456345857E+03  0.67487928437E+03  0.00000000000E+00 0.  1.
         21    1    1    2  504  503  0.20178031704E+02  0.43630121538E+01 -0.90862414776E+02  0.93178147961E+02  0.00000000000E+00 0.  1.
</event>
<event>
 4    1  0.2825993E+006  0.2230684E+02  0.7546771E-02  0.1501391E+00
         21   -1    0    0  503  501  0.00000000000E+00  0.00000000000E+00  0.13763225255E+02  0.13763225255E+02  0.00000000000E+00 0.  1.
         21   -1    0    0  501  502 -0.00000000000E+00 -0.00000000000E+00 -0.21766088457E+03  0.21766088457E+03  0.00000000000E+00 0.  1.
         21    1    1    2  503  504 -0.14354414185E+02 -0.17074712218E+02  0.37171097388E+01  0.22614418160E+02  0.00000000000E+00 0.  1.
         21    1    1    2  504  502  0.14354414185E+02  0.17074712218E+02 -0.20761476905E+03  0.20880969166E+03  0.00000000000E+00 0.  1.
</event>
<event>
 4    1  0.2825993E+006  0.2231782E+02  0.7546771E-02  0.1501247E+00
         21   -1    0    0  504  501  0.00000000000E+00  0.00000000000E+00  0.77101991485E+01  0.77101991485E+01  0.00000000000E+00 0.  1.
         21   -1    0    0  503  502 -0.00000000000E+00 -0.00000000000E+00 -0.42364977796E+03  0.42364977796E+03  0.00000000000E+00 0. -1.
         21    1    1    2  503  501  0.50519161815E+01  0.21738517115E+02 -0.94136996233E+01  0.24221947156E+02  0.00000000000E+00 0.  1.
         21    1    1    2  504  502 -0.50519161815E+01 -0.21738517115E+02 -0.40652587919E+03  0.40713802995E+03  0.00000000000E+00 0. -1.
</event>
<event>
 4    1  0.2825993E+006  0.2135046E+02  0.7546771E-02  0.1514320E+00
         21   -1    0    0  502  501  0.00000000000E+00  0.00000000000E+00  0.13193541414E+03  0.13193541414E+03  0.00000000000E+00 0. -1.
         21   -1    0    0  504  502 -0.00000000000E+00 -0.00000000000E+00 -0.26439780318E+03  0.26439780318E+03  0.00000000000E+00 0. -1.
         21    1    1    2  503  501  0.17628180812E+02  0.12045307145E+02  0.13063637701E+03  0.13236957801E+03  0.00000000000E+00 0. -1.
         21    1    1    2  504  503 -0.17628180812E+02 -0.12045307145E+02 -0.26309876605E+03  0.26396363932E+03  0.00000000000E+00 0. -1.
</event>
<event>
 4    1  0.2825993E+006  0.2341856E+02  0.7546771E-02  0.1487308E+00
         21   -1    0    0  504  501  0.00000000000E+00  0.00000000000E+00  0.14578949270E+02  0.14578949270E+02  0.00000000000E+00 0.  1.
         21   -1    0    0  501  502 -0.00000000000E+00 -0.00000000000E+00 -0.13594519446E+03  0.13594519446E+03  0.00000000000E+00 0.  1.
         21    1    1    2  503  502 -0.21001855083E+02 -0.10361028124E+02 -0.12469069859E+03  0.12687079701E+03  0.00000000000E+00 0.  1.
         21    1    1    2  504  503  0.21001855083E+02  0.10361028124E+02  0.33244533925E+01  0.23653346720E+02  0.00000000000E+00 0.  1.
</event>
<event>
 4    1  0.2825993E+006  0.2680244E+02  0.7546771E-02  0.1449603E+00
         21   -1    0    0  504  501  0.00000000000E+00  0.00000000000E+00  0.12044904137E+03  0.12044904137E+03  0.00000000000E+00 0.  1.
         21   -1    0    0  503  502 -0.00000000000E+00 -0.00000000000E+00 -0.22214024372E+03  0.22214024372E+03  0.00000000000E+00 0. -1.
         21    1    1    2  503  501  0.36994259481E+01  0.26545905592E+02 -0.21982510660E+03  0.22145303870E+03  0.00000000000E+00 0. -1.
         21    1    1    2  504  502 -0.36994259481E+01 -0.26545905592E+02  0.11813390426E+03  0.12113624640E+03  0.00000000000E+00 0.  1.
</event>
<event>
 4    1  0.2825993E+006  0.2281945E+02  0.7546771E-02  0.1494778E+00
         21   -1    0    0  504  501  0.00000000000E+00  0.00000000000E+00  0.78227609096E+02  0.78227609096E+02  0.00000000000E+00 0.  1.
         21   -1    0    0  501  502 -0.00000000000E+00 -0.00000000000E+00 -0.35282658236E+02  0.35282658236E+02  0.00000000000E+00 0.  1.
         21    1    1    2  503  502  0.10134471547E+02  0.20445534423E+02 -0.29649252021E+02  0.37413975154E+02  0.00000000000E+00 0.  1.
         21    1    1    2  504  503 -0.10134471547E+02 -0.20445534423E+02  0.72594202881E+02  0.76096292179E+02  0.00000000000E+00 0.  1.
</event>
<event>
 4    1  0.2825993E+006  0.2807683E+02  0.7546771E-02  0.1437081E+00
         21   -1    0    0  504  501  0.00000000000E+00  0.00000000000E+00  0.22377678851E+02  0.22377678851E+02  0.00000000000E+00 0. -1.
         21   -1    0    0  501  502 -0.00000000000E+00 -0.00000000000E+00 -0.41184401443E+02  0.41184401443E+02  0.00000000000E+00 0. -1.
         21    1    1    2  503  502  0.10305154141E+02  0.26117273710E+02 -0.21490245696E+02  0.35357302611E+02  0.00000000000E+00 0. -1.
         21    1    1    2  504  503 -0.10305154141E+02 -0.26117273710E+02  0.26835231030E+01  0.28204777683E+02  0.00000000000E+00 0. -1.
</event>
<event>
 4    1  0.2825993E+006  0.3249466E+02  0.7546771E-02  0.1399087E+00
         21   -1    0    0  503  501  0.00000000000E+00  0.00000000000E+00  0.25878173499E+02  0.25878173499E+02  0.00000000000E+00 0.  1.
         21   -1    0    0  504  502 -0.00000000000E+00 -0.00000000000E+00 -0.58617372498E+02  0.58617372498E+02  0.00000000000E+00 0.  1.
         21    1    1    2  503  502  0.23592062786E+02  0.22345414220E+02 -0.39660048800E+02  0.51272043396E+02  0.00000000000E+00 0.  1.
         21    1    1    2  504  501 -0.23592062786E+02 -0.22345414220E+02  0.69208498003E+01  0.33223502601E+02  0.00000000000E+00 0.  1.
</event>
<event>
 4    1  0.2825993E+006  0.2054801E+02  0.7546771E-02  0.1525817E+00
         21   -1    0    0  503  501  0.00000000000E+00  0.00000000000E+00  0.19398062827E+03  0.19398062827E+03  0.00000000000E+00 0. -1.
         21   -1    0    0  504  502 -0.00000000000E+00 -0.00000000000E+00 -0.30485356693E+01  0.30485356693E+01  0.00000000000E+00 0. -1.
         21    1    1    2  503  502  0.15987775114E+02  0.12907822860E+02  0.14815186723E+03  0.14957003914E+03  0.00000000000E+00 0. -1.
         21    1    1    2  504  501 -0.15987775114E+02 -0.12907822860E+02  0.42780225368E+02  0.47459124798E+02  0.00000000000E+00 0. -1.
</event>
<event>
 4    1  0.2825993E+006  0.2013564E+02  0.7546771E-02  0.1531972E+00
         21   -1    0    0  504  501  0.00000000000E+00  0.00000000000E+00  0.21313119471E+02  0.21313119471E+02  0.00000000000E+00 0. -1.
         21   -1    0    0  503  502 -0.00000000000E+00 -0.00000000000E+00 -0.12015362831E+03  0.12015362831E+03  0.00000000000E+00 0.  1.
         21    1    1    2  503  501 -0.13370604623E+02  0.15055589301E+02  0.15472594640E+02  0.25393798891E+02  0.00000000000E+00 0. -1.
         21    1    1    2  504  502  0.13370604623E+02 -0.15055589301E+02 -0.11431310348E+03  0.11607294889E+03  0.00000000000E+00 0.  1.
</event>
<event>
 4    1  0.2825993E+006  0.2330377E+02  0.7546771E-02  0.1488718E+00
         21   -1    0    0  503  501  0.00000000000E+00  0.00000000000E+00  0.10336213821E+02  0.10336213821E+02  0.00000000000E+00 0. -1.
         21   -1    0    0  504  502 -0.00000000000E+00 -0.00000000000E+00 -0.36669827957E+03  0.36669827957E+03  0.00000000000E+00 0.  1.
         21    1    1    2  503  502  0.19998131791E+02  0.11964133522E+02 -0.36909158190E+01  0.23594249843E+02  0.00000000000E+00 0. -1.
         21    1    1    2  504  501 -0.19998131791E+02 -0.11964133522E+02 -0.35267114993E+03  0.35344024355E+03  0.00000000000E+00 0.  1.
</event>
<event>
 4    1  0.2825993E+006  0.2483492E+02  0.7546771E-02  0.1470659E+00
         21   -1    0    0  504  501  0.00000000000E+00  0.00000000000E+00  0.61655176216E+01  0.61655176216E+01  0.00000000000E+00 0.  1.
         21   -1    0    0  503  502 -0.00000000000E+00 -0.00000000000E+00 -0.13502831384E+03  0.13502831384E+03  0.00000000000E+00 0.  1.
         21    1    1    2  503  501 -0.98896141666E+01 -0.22780887082E+02 -0.28492887480E+02  0.37797062340E+02  0.00000000000E+00 0.  1.
         21    1    1    2  504  502  0.98896141666E+01  0.22780887082E+02 -0.10036990874E+03  0.10339676912E+03  0.00000000000E+00 0.  1.
</event>
<event>
 4    1  0.2825993E+006  0.2195938E+02  0.7546771E-02  0.1505996E+00
         21   -1    0    0  504  501  0.00000000000E+00  0.00000000000E+00  0.26548028128E+02  0.26548028128E+02  0.00000000000E+00 0.  1.
         21   -1    0    0  501  502 -0.00000000000E+00 -0.00000000000E+00 -0.78846801114E+02  0.78846801114E+02  0.00000000000E+00 0.  1.
         21    1    1    2  503  502  0.15046540067E+02 -0.15994248499E+02 -0.72380102819E+02  0.75637911375E+02  0.00000000000E+00 0.  1.
         21    1    1    2  504  503 -0.15046540067E+02  0.15994248499E+02  0.20081329834E+02  0.29756917867E+02  0.00000000000E+00 0.  1.
</event>
<event>
 4    1  0.2825993E+006  0.2185665E+02  0.7546771E-02  0.1507377E+00
         21   -1    0    0  504  501  0.00000000000E+00  0.00000000000E+00  0.11309188325E+02  0.11309188325E+02  0.00000000000E+00 0. -1.
         21   -1    0    0  503  502 -0.00000000000E+00 -0.00000000000E+00 -0.52139598763E+02  0.52139598763E+02  0.00000000000E+00 0. -1.
         21    1    1    2  503  501  0.15120555087E+02 -0.15782334125E+02 -0.65925081001E+01  0.22829244832E+02  0.00000000000E+00 0. -1.
         21    1    1    2  504  502 -0.15120555087E+02  0.15782334125E+02 -0.34237902338E+02  0.40619542256E+02  0.00000000000E+00 0. -1.
</event>
<event>
 4    1  0.2825993E+006  0.3498515E+02  0.7546771E-02  0.1380668E+00
         21   -1    0    0  503  501  0.00000000000E+00  0.00000000000E+00  0.44656555585E+02  0.44656555585E+02  0.00000000000E+00 0. -1.
         21   -1    0    0  501  502 -0.00000000000E+00 -0.00000000000E+00 -0.22567823751E+03  0.22567823751E+03  0.00000000000E+00 0.  1.
         21    1    1    2  503  504  0.33547449474E+02 -0.99261837900E+01  0.36183010191E+02  0.50330614116E+02  0.00000000000E+00 0. -1.
         21    1    1    2  504  502 -0.33547449474E+02  0.99261837900E+01 -0.21720469212E+03  0.22000417898E+03  0.00000000000E+00 0.  1.
</event>
<event>
 4    1  0.2825993E+006  0.2756526E+02  0.7546771E-02  0.1442011E+00
         21   -1    0    0  502  501  0.00000000000E+00  0.00000000000E+00  0.97738246037E+03  0.97738246037E+03  0.00000000000E+00 0.  1.
         21   -1    0    0  503  502 -0.00000000000E+00 -0.00000000000E+00 -0.55435963594E+01  0.55435963594E+01  0.00000000000E+00 0.  1.
         21    1    1    2  503  504 -0.11333569262E+02  0.25127554363E+02  0.30218649076E+02  0.40902451423E+02  0.00000000000E+00 0.  1.
         21    1    1    2  504  501  0.11333569262E+02 -0.25127554363E+02  0.94162021494E+03  0.94202360531E+03  0.00000000000E+00 0.  1.
</event>
<event>
 4    1  0.2825993E+006  0.3039265E+02  0.7546771E-02  0.1416214E+00
         21   -1    0    0  504  501  0.00000000000E+00  0.00000000000E+00  0.84787362717E+02  0.84787362717E+02  0.00000000000E+00 0. -1.
         21   -1    0    0  503  502 -0.00000000000E+00 -0.00000000000E+00 -0.15418288444E+02  0.15418288444E+02  0.00000000000E+00 0.  1.
         21    1    1    2  503  501 -0.15573877706E+02  0.26099190113E+02  0.61823716578E+02  0.68890386288E+02  0.00000000000E+00 0. -1.
         21    1    1    2  504  502  0.15573877706E+02 -0.26099190113E+02  0.75453576950E+01  0.31315264873E+02  0.00000000000E+00 0.  1.
</event>
<event>
 4    1  0.2825993E+006  0.2764935E+02  0.7546771E-02  0.1441192E+00
         21   -1    0    0  503  501  0.00000000000E+00  0.00000000000E+00  0.37332768075E+02  0.37332768075E+02  0.00000000000E+00 0.  1.
         21   -1    0    0  501  502 -0.00000000000E+00 -0.00000000000E+00 -0.16935547643E+03  0.16935547643E+03  0.00000000000E+00 0.  1.
         21    1    1    2  503  504  0.73541736977E+01 -0.26653384424E+02  0.30883606585E+02  0.41452188455E+02  0.00000000000E+00 0.  1.
         21    1    1    2  504  502 -0.73541736977E+01  0.26653384424E+02 -0.16290631494E+03  0.16523605606E+03  0.00000000000E+00 0.  1.
</event>
<event>
 4    1  0.2825993E+006  0.2605714E+02  0.7546771E-02  0.1457316E+00
         21   -1    0    0  503  501  0.00000000000E+00  0.00000000000E+00  0.20366431060E+03  0.20366431060E+03  0.00000000000E+00 0. -1.
         21   -1    0    0  504  502 -0.00000000000E+00 -0.00000000000E+00 -0.63016027611E+02  0.63016027611E+02  0.00000000000E+00 0.  1.
         21    1    1    2  503  502 -0.24419755302E+02  0.90911959863E+01 -0.59440996943E+02  0.64901513165E+02  0.00000000000E+00 0.  1.
         21    1    1    2  504  501  0.24419755302E+02 -0.90911959863E+01  0.20008927993E+03  0.20177882505E+03  0.00000000000E+00 0. -1.
</event>
<event>
 4    1  0.2825993E+006  0.2231960E+02  0.7546771E-02  0.1501223E+00
         21   -1    0    0  503  501  0.00000000000E+00  0.00000000000E+00  0.49906635077E+01  0.49906635077E+01  0.00000000000E+00 0.  1.
         21   -1    0    0  504  502 -0.00000000000E+00 -0.00000000000E+00 -0.10131884959E+03  0.10131884959E+03  0.00000000000E+00 0. -1.
         21    1    1    2  503  502  0.10878580747E+02 -0.19489002821E+02 -0.41697563453E+02  0.47295364973E+02  0.00000000000E+00 0. -1.
         21    1    1    2  504  501 -0.10878580747E+02  0.19489002821E+02 -0.54630622631E+02  0.59014148126E+02  0.00000000000E+00 0.  1.
</event>
<event>
 4    1  0.2825993E+006  0.3835327E+02  0.7546771E-02  0.1358415E+00
         21   -1    0    0  502  501  0.00000000000E+00  0.00000000000E+00  0.26408489382E+03  0.26408489382E+03  0.00000000000E+00 0. -1.
         21   -1    0    0  503  502 -0.00000000000E+00 -0.00000000000E+00 -0.56336825612E+01  0.56336825612E+01  0.00000000000E+00 0. -1.
         21    1    1    2  503  504  0.32317504548E+02  0.20653132448E+02  0.11489597570E+03  0.12112827173E+03  0.00000000000E+00 0. -1.
         21    1    1    2  504  501 -0.32317504548E+02 -0.20653132448E+02  0.14355523556E+03  0.14859030465E+03  0.00000000000E+00 0. -1.
</event>
<event>
 4    1  0.2825993E+006  0.2844117E+02  0.7546771E-02  0.1433645E+00
         21   -1    0    0  503  501  0.00000000000E+00  0.00000000000E+00  0.59254284121E+02  0.59254284121E+02  0.00000000000E+00 0. -1.
         21   -1    0    0  501  502 -0.00000000000E+00 -0.00000000000E+00 -0.18190372148E+02  0.18190372148E+02  0.00000000000E+00 0. -1.
         21    1    1    2  503  504 -0.28413392095E+02  0.12566530047E+01  0.39874900330E+02  0.48978645382E+02  0.00000000000E+00 0. -1.
         21    1    1    2  504  502  0.28413392095E+02 -0.12566530047E+01  0.11890116426E+01  0.28466010887E+02  0.00000000000E+00 0. -1.
</event>
<event>
 4    1  0.2825993E+006  0.2170969E+02  0.7546771E-02  0.1509369E+00
         21   -1    0    0  504  501  0.00000000000E+00  0.00000000000E+00  0.35075042342E+01  0.35075042342E+01  0.00000000000E+00 0. -1.
         21   -1    0    0  503  502 -0.00000000000E+00 -0.00000000000E+00 -0.29468128073E+03  0.29468128073E+03  0.00000000000E+00 0.  1.
         21    1    1    2  503  501  0.13989249129E+02  0.16601549310E+02 -0.35619400933E+02  0.41713933565E+02  0.00000000000E+00 0. -1.
         21    1    1    2  504  502 -0.13989249129E+02 -0.16601549310E+02 -0.25555437556E+03  0.25647485140E+03  0.00000000000E+00 0.  1.
</event>
<event>
 4    1  0.2825993E+006  0.2596331E+02  0.7546771E-02  0.1458309E+00
         21   -1    0    0  502  501  0.00000000000E+00  0.00000000000E+00  0.16860274738E+03  0.16860274738E+03  0.00000000000E+00 0.  1.
         21   -1    0    0  503  502 -0.00000000000E+00 -0.00000000000E+00 -0.25339185941E+02  0.25339185941E+02  0.00000000000E+00 0.  1.
         21    1    1    2  503  504 -0.24695556670E+02 -0.80139210772E+01 -0.17360734953E+02  0.31232812367E+02  0.00000000000E+00 0.  1.
         21    1    1    2  504  501  0.24695556670E+02  0.80139210772E+01  0.16062429639E+03  0.16270912095E+03  0.00000000000E+00 0.  1.
</event>
<event>
 4    1  0.2825993E+006  0.2001379E+02  0.7546771E-02  0.1533825E+00
         21   -1    0    0  503  501  0.00000000000E+00  0.00000000000E+00  0.13502173409E+03  0.13502173409E+03  0.00000000000E+00 0. -1.
         21   -1    0    0  504  502 -0.00000000000E+00 -0.00000000000E+00 -0.98595327963E+01  0.98595327963E+01  0.00000000000E+00 0. -1.
         21    1    1    2  503  502  0.19999839964E+02  0.74712960003E+00  0.12315101379E+03  0.12476667824E+03  0.00000000000E+00 0. -1.
         21    1    1    2  504  501 -0.19999839964E+02 -0.74712960003E+00  0.20111875026E+01  0.20114588646E+02  0.00000000000E+00 0. -1.
</event>
<event>
 4    1  0.2825993E+006  0.2194800E+02  0.7546771E-02  0.1506148E+00
         21   -1    0    0  502  501  0.00000000000E+00  0.00000000000E+00  0.12609777162E+02  0.12609777162E+02  0.00000000000E+00 0. -1.
         21   -1    0    0  504  502 -0.00000000000E+00 -0.00000000000E+00 -0.42061379703E+02  0.42061379703E+02  0.00000000000E+00 0.  1.
         21    1    1    2  503  501 -0.21681402620E+02  0.34104912215E+01 -0.64451731979E+01  0.22874766173E+02  0.00000000000E+00 0. -1.
         21    1    1    2  504  503  0.21681402620E+02 -0.34104912215E+01 -0.23006429343E+02  0.31796390692E+02  0.00000000000E+00 0.  1.
</event>
<event>
 4    1  0.2825993E+006  0.2715486E+02  0.7546771E-02  0.1446059E+00
         21   -1    0    0  503  501  0.00000000000E+00  0.00000000000E+00  0.10795029949E+02  0.10795029949E+02  0.00000000000E+00 0.  1.
         21   -1    0    0  504  502 -0.00000000000E+00 -0.00000000000E+00 -0.73771740420E+02  0.73771740420E+02  0.00000000000E+00 0.  1.
         21    1    1    2  503  502  0.26967469879E+02 -0.31846651806E+01 -0.19981115284E+02  0.33713965830E+02  0.00000000000E+00 0.  1.
         21    1    1    2  504  501 -0.26967469879E+02  0.31846651806E+01 -0.42995595186E+02  0.50852804538E+02  0.00000000000E+00 0.  1.
</event>
<event>
 4    1  0.2825993E+006  0.2088656E+02  0.7546771E-02  0.1520891E+00
         21   -1    0    0  503  501  0.00000000000E+00  0.00000000000E+00  0.11578108069E+02  0.11578108069E+02  0.00000000000E+00 0. -1.
         21   -1    0    0  504  502 -0.00000000000E+00 -0.00000000000E+00 -0.74526342708E+02  0.74526342708E+02  0.00000000000E+00 0. -1.
         21    1    1    2  503  502  0.83716298997E+00 -0.20869778965E+02 -0.12018239464E+01  0.20921111269E+02  0.00000000000E+00 0. -1.
         21    1    1    2  504  501 -0.83716298997E+00  0.20869778965E+02 -0.61746410693E+02  0.65183339508E+02  0.00000000000E+00 0. -1.
</event>
<event>
 4    1  0.2825993E+006  0.2402459E+02  0.7546771E-02  0.1480018E+00
         21   -1    0    0  503  501  0.00000000000E+00  0.00000000000E+00  0.10706588179E+02  0.10706588179E+02  0.00000000000E+00 0.  1.
         21   -1    0    0  501  502 -0.00000000000E+00 -0.00000000000E+00 -0.11716670147E+03  0.11716670147E+03  0.00000000000E+00 0.  1.
         21    1    1    2  503  504  0.20626916083E+02  0.12317112835E+02 -0.62509652629E+01  0.24824494002E+02  0.00000000000E+00 0.  1.
         21    1    1    2  504  502 -0.20626916083E+02 -0.12317112835E+02 -0.10020914802E+03  0.10304879564E+03  0.00000000000E+00 0.  1.
</event>
<event>
 4    1  0.2825993E+006  0.4053141E+02  0.7546771E-02  0.1345400E+00
         21   -1    0    0  502  501  0.00000000000E+00  0.00000000000E+00  0.43760453134E+03  0.43760453134E+03  0.00000000000E+00 0.  1.
         21   -1    0    0  503  502 -0.00000000000E+00 -0.00000000000E+00 -0.22020625573E+02  0.22020625573E+02  0.00000000000E+00 0. -1.
         21    1    1    2  503  504  0.36687685382E+02  0.17228139085E+02 -0.15167962064E+01  0.40559779410E+02  0.00000000000E+00 0. -1.
         21    1    1    2  504  501 -0.36687685382E+02 -0.17228139085E+02  0.41710070197E+03  0.41906537750E+03  0.00000000000E+00 0.  1.
</event>
<event>
 4    1  0.2825993E+006  0.2494043E+02  0.7546771E-02  0.1469471E+00
         21   -1    0    0  502  501  0.00000000000E+00  0.00000000000E+00  0.12231889166E+02  0.12231889166E+02  0.00000000000E+00 0.  1.
         21   -1    0    0  503  502 -0.00000000000E+00 -0.00000000000E+00 -0.10648401617E+03  0.10648401617E+03  0.00000000000E+00 0. -1.
         21    1    1    2  503  504  0.11261797075E+02 -0.22253021442E+02 -0.90029909670E+02  0.93420606248E+02  0.00000000000E+00 0. -1.
         21    1    1    2  504  501 -0.11261797075E+02  0.22253021442E+02 -0.42222173318E+01  0.25295299086E+02  0.00000000000E+00 0.  1.
</event>
<event>
 4    1  0.2825993E+006  0.4496570E+02  0.7546771E-02  0.1321611E+00
         21   -1    0    0  503  501  0.00000000000E+00  0.00000000000E+00  0.43157073969E+02  0.43157073969E+02  0.00000000000E+00 0. -1.
         21   -1    0    0  504  502 -0.00000000000E+00 -0.00000000000E+00 -0.75659222616E+02  0.75659222616E+02  0.00000000000E+00 0. -1.
         21    1    1    2  503  502 -0.32649062581E+02 -0.30918494340E+02 -0.52910010609E+02  0.69436185108E+02  0.00000000000E+00 0. -1.
         21    1    1    2  504  501  0.32649062581E+02  0.30918494340E+02  0.20407861962E+02  0.49380111477E+02  0.00000000000E+00 0. -1.
</event>
<event>
 4    1  0.2825993E+006  0.2115258E+02  0.7546771E-02  0.1517098E+00
         21   -1    0    0  504  501  0.00000000000E+00  0.00000000000E+00  0.14448929031E+03  0.14448929031E+03  0.00000000000E+00 0. -1.
         21   -1    0    0  503  502 -0.00000000000E+00 -0.00000000000E+00 -0.18429371501E+03  0.18429371501E+03  0.00000000000E+00 0. -1.
         21    1    1    2  503  501 -0.48799321975E+01 -0.20581975128E+02  0.14310232492E+03  0.14465720458E+03  0.00000000000E+00 0. -1.
         21    1    1    2  504  502  0.48799321975E+01  0.20581975128E+02 -0.18290674963E+03  0.18412580074E+03  0.00000000000E+00 0. -1.
</event>
<event>
 4    1  0.2825993E+006  0.2206261E+02  0.7546771E-02  0.1504617E+00
         21   -1    0    0  503  501  0.00000000000E+00  0.00000000000E+00  0.40573820637E+03  0.40573820637E+03  0.00000000000E+00 0. -1.
         21   -1    0    0  504  502 -0.00000000000E+00 -0.00000000000E+00 -0.99514005186E+01  0.99514005186E+01  0.00000000000E+00 0. -1.
         21    1    1    2  503  502 -0.21733413458E+02 -0.37970320843E+01  0.29791387675E+01  0.22262838566E+02  0.00000000000E+00 0. -1.
         21    1    1    2  504  501  0.21733413458E+02  0.37970320843E+01  0.39280766709E+03  0.39342676833E+03  0.00000000000E+00 0. -1.
</event>
<event>
 4    1  0.2825993E+006  0.2131061E+02  0.7546771E-02  0.1514876E+00
         21   -1    0    0  503  501  0.00000000000E+00  0.00000000000E+00  0.26695422612E+03  0.26695422612E+03  0.00000000000E+00 0.  1.
         21   -1    0    0  504  502 -0.00000000000E+00 -0.00000000000E+00 -0.31276864030E+01  0.31276864030E+01  0.00000000000E+00 0.  1.
         21    1    1    2  503  502 -0.51601201987E+01 -0.20676440874E+02  0.40714706593E+02  0.45954644821E+02  0.00000000000E+00 0.  1.
         21    1    1    2  504  501  0.51601201987E+01  0.20676440874E+02  0.22311183312E+03  0.22412726770E+03  0.00000000000E+00 0.  1.
</event>
<event>
 4    1  0.2825993E+006  0.2183187E+02  0.7546771E-02  0.1507711E+00
         21   -1    0    0  503  501  0.00000000000E+00  0.00000000000E+00  0.66679972615E+01  0.66679972615E+01  0.00000000000E+00 0.  1.
         21   -1    0    0  504  502 -0.00000000000E+00 -0.00000000000E+00 -0.14687429805E+03  0.14687429805E+03  0.00000000000E+00 0. -1.
         21    1    1    2  503  502  0.16230351193E+02 -0.14601587196E+02 -0.12510704356E+03  0.12699764958E+03  0.00000000000E+00 0. -1.
         21    1    1    2  504  501 -0.16230351193E+02  0.14601587196E+02 -0.15099257224E+02  0.26544645735E+02  0.00000000000E+00 0.  1.
</event>
<event>
 4    1  0.2825993E+006  0.2142620E+02  0.7546771E-02  0.1513266E+00
         21   -1    0    0  502  501  0.00000000000E+00  0.00000000000E+00  0.21742157253E+01  0.21742157253E+01  0.00000000000E+00 0. -1.
         21   -1    0    0  504  502 -0.00000000000E+00 -0.00000000000E+00 -0.23339410918E+03  0.23339410918E+03  0.00000000000E+00 0. -1.
         21    1    1    2  503  501 -0.89116606504E+01  0.19484972099E+02 -0.79246369504E+02  0.82091832193E+02  0.00000000000E+00 0. -1.
         21    1    1    2  504  503  0.89116606504E+01 -0.19484972099E+02 -0.15197352395E+03  0.15347649272E+03  0.00000000000E+00 0. -1.
</event>
<event>
 4    1  0.2825993E+006  0.2552641E+02  0.7546771E-02  0.1463000E+00
         21   -1    0    0  504  501  0.00000000000E+00  0.00000000000E+00  0.17589078936E+01  0.17589078936E+01  0.00000000000E+00 0. -1.
         21   -1    0    0  503  502 -0.00000000000E+00 -0.00000000000E+00 -0.38743224534E+03  0.38743224534E+03  0.00000000000E+00 0. -1.
         21    1    1    2  503  501 -0.18726714156E+02 -0.17346690752E+02 -0.23357088743E+03  0.23496160742E+03  0.00000000000E+00 0. -1.
         21    1    1    2  504  502  0.18726714156E+02  0.17346690752E+02 -0.15210245001E+03  0.15422954581E+03  0.00000000000E+00 0. -1.
</event>
<event>
 4    1  0.2825993E+006  0.2649440E+02  0.7546771E-02  0.1452754E+00
         21   -1    0    0  503  501  0.00000000000E+00  0.00000000000E+00  0.71782054617E+01  0.71782054617E+01  0.00000000000E+00 0.  1.
         21   -1    0    0  504  502 -0.00000000000E+00 -0.00000000000E+00 -0.12884683477E+03  0.12884683477E+03  0.00000000000E+00 0.  1.
         21    1    1    2  503  502  0.18797443927E+02 -0.18671081961E+02 -0.94225666913E+02  0.97879668496E+02  0.00000000000E+00 0.  1.
         21    1    1    2  504  501 -0.18797443927E+02  0.18671081961E+02 -0.27442962396E+02  0.38145371735E+02  0.00000000000E+00 0.  1.
</event>
<event>
 4    1  0.2825993E+006  0.3473151E+02  0.7546771E-02  0.1382461E+00
         21   -1    0    0  503  501  0.00000000000E+00  0.00000000000E+00  0.66217283427E+02  0.66217283427E+02  0.00000000000E+00 0. -1.
         21   -1    0    0  504  502 -0.00000000000E+00 -0.00000000000E+00 -0.72832658142E+02  0.72832658142E+02  0.00000000000E+00 0.  1.
         21    1    1    2  503  502  0.10178681833E+02  0.33206504254E+02  0.56897856856E+02  0.66660660089E+02  0.00000000000E+00 0. -1.
         21    1    1    2  504  501 -0.10178681833E+02 -0.33206504254E+02 -0.63513231571E+02  0.72389281480E+02  0.00000000000E+00 0.  1.
</event>
<event>
 4    1  0.2825993E+006  0.2699157E+02  0.7546771E-02  0.1447693E+00
         21   -1    0    0  503  501  0.00000000000E+00  0.00000000000E+00  0.56093995706E+01  0.56093995706E+01  0.00000000000E+00 0. -1.
         21   -1    0    0  504  502 -0.00000000000E+00 -0.00000000000E+00 -0.16784946701E+03  0.16784946701E+03  0.00000000000E+00 0.  1.
         21    1    1    2  503  502 -0.22502108970E+02 -0.14906365919E+02 -0.39869647387E+02  0.48146998201E+02  0.00000000000E+00 0. -1.
         21    1    1    2  504  501  0.22502108970E+02  0.14906365919E+02 -0.12237042005E+03  0.12531186838E+03  0.00000000000E+00 0.  1.
</event>
<event>
 4    1  0.2825993E+006  0.4539039E+02  0.7546771E-02  0.1319499E+00
         21   -1    0    0  502  501  0.00000000000E+00  0.00000000000E+00  0.12772572037E+03  0.12772572037E+03  0.00000000000E+00 0. -1.
         21   -1    0    0  504  502 -0.00000000000E+00 -0.00000000000E+00 -0.21438865776E+02  0.21438865776E+02  0.00000000000E+00 0. -1.
         21    1    1    2  503  501 -0.44918076516E+02  0.65310231176E+01  0.90255280888E+02  0.10102625198E+03  0.00000000000E+00 0. -1.
         21    1    1    2  504  503  0.44918076516E+02 -0.65310231176E+01  0.16031573705E+02  0.48138334166E+02  0.00000000000E+00 0. -1.
</event>
<event>
 4    1  0.2825993E+006  0.3650203E+02  0.7546771E-02  0.1370300E+00
         21   -1    0    0  503  501  0.00000000000E+00  0.00000000000E+00  0.27924206420E+03  0.27924206420E+03  0.00000000000E+00 0. -1.
         21   -1    0    0  501  502 -0.00000000000E+00 -0.00000000000E+00 -0.54454495673E+01  0.54454495673E+01  0.00000000000E+00 0. -1.
         21    1    1    2  503  504  0.48375538111E+01  0.36180057206E+02  0.18697562657E+03  0.19050533693E+03  0.00000000000E+00 0. -1.
         21    1    1    2  504  502 -0.48375538111E+01 -0.36180057206E+02  0.86820988064E+02  0.94182176842E+02  0.00000000000E+00 0. -1.
</event>
<event>
 4    1  0.2825993E+006  0.2881843E+02  0.7546771E-02  0.1430150E+00
         21   -1    0    0  503  501  0.00000000000E+00  0.00000000000E+00  0.53328070868E+01  0.53328070868E+01  0.00000000000E+00 0.  1.
         21   -1    0    0  504  502 -0.00000000000E+00 -0.00000000000E+00 -0.22546677264E+03  0.22546677264E+03  0.00000000000E+00 0.  1.
         21    1    1    2  503  502  0.22000874542E+02  0.18613521262E+02 -0.17424420000E+03  0.17661127622E+03  0.00000000000E+00 0.  1.
         21    1    1    2  504  501 -0.22000874542E+02 -0.18613521262E+02 -0.45889765550E+02  0.54188303504E+02  0.00000000000E+00 0.  1.
</event>
<event>
 4    1  0.2825993E+006  0.2144415E+02  0.7546771E-02  0.1513017E+00
         21   -1    0    0  503  501  0.00000000000E+00  0.00000000000E+00  0.15389530969E+03  0.15389530969E+03  0.00000000000E+00 0.  1.
         21   -1    0    0  504  502 -0.00000000000E+00 -0.00000000000E+00 -0.18050895067E+02  0.18050895067E+02  0.00000000000E+00 0.  1.
         21    1    1    2  503  502  0.17619603491E+02  0.12222976503E+02 -0.10613343143E+02  0.23926860104E+02  0.00000000000E+00 0.  1.
         21    1    1    2  504  501 -0.17619603491E+02 -0.12222976503E+02  0.14645775776E+03  0.14801934465E+03  0.00000000000E+00 0.  1.
</event>
<event>
 4    1  0.2825993E+006  0.2079209E+02  0.7546771E-02  0.1522254E+00
         21   -1    0    0  503  501  0.00000000000E+00  0.00000000000E+00  0.70178852162E+02  0.70178852162E+02  0.00000000000E+00 0. -1.
         21   -1    0    0  504  502 -0.00000000000E+00 -0.00000000000E+00 -0.49912382609E+02  0.49912382609E+02  0.00000000000E+00 0.  1.
         21    1    1    2  503  502  0.20741800157E+02 -0.14452790127E+01  0.66351488954E+02  0.69532950402E+02  0.00000000000E+00 0. -1.
         21    1    1    2  504  501 -0.20741800157E+02  0.14452790127E+01 -0.46085019401E+02  0.50558284369E+02  0.00000000000E+00 0.  1.
</event>
<event>
 4    1  0.2825993E+006  0.3082100E+02  0.7546771E-02  0.1412593E+00
         21   -1    0    0  504  501  0.00000000000E+00  0.00000000000E+00  0.33921446343E+02  0.33921446343E+02  0.00000000000E+00 0. -1.
         21   -1    0    0  503  502 -0.00000000000E+00 -0.00000000000E+00 -0.11770127796E+03  0.11770127796E+03  0.00000000000E+00 0.  1.
         21    1    1    2  503  501  0.24565662125E+02 -0.18613502282E+02  0.24291108193E+02  0.39242733851E+02  0.00000000000E+00 0. -1.
         21    1    1    2  504  502 -0.24565662125E+02  0.18613502282E+02 -0.10807093981E+03  0.11237999045E+03  0.00000000000E+00 0.  1.
</event>
<event>
 4    1  0.2825993E+006  0.2016129E+02  0.7546771E-02  0.1531584E+00
         21   -1    0    0  503  501  0.00000000000E+00  0.00000000000E+00  0.14330445068E+01  0.14330445068E+01  0.00000000000E+00 0. -1.
         21   -1    0    0  504  502 -0.00000000000E+00 -0.00000000000E+00 -0.30440671839E+03  0.30440671839E+03  0.00000000000E+00 0. -1.
         21    1    1    2  503  502 -0.74603774331E+01 -0.18730200079E+02 -0.11155162902E+03  0.11335891479E+03  0.00000000000E+00 0. -1.
         21    1    1    2  504  501  0.74603774331E+01  0.18730200079E+02 -0.19142204487E+03  0.19248084811E+03  0.00000000000E+00 0. -1.
</event>
<event>
 4    1  0.2825993E+006  0.3990610E+02  0.7546771E-02  0.1349037E+00
         21   -1    0    0  503  501  0.00000000000E+00  0.00000000000E+00  0.19447853391E+02  0.19447853391E+02  0.00000000000E+00 0.  1.
         21   -1    0    0  501  502 -0.00000000000E+00 -0.00000000000E+00 -0.15596703650E+03  0.15596703650E+03  0.00000000000E+00 0. -1.
         21    1    1    2  503  504  0.23872215186E+02 -0.31978336857E+02 -0.78125406502E+01  0.40663650567E+02  0.00000000000E+00 0.  1.
         21    1    1    2  504  502 -0.23872215186E+02  0.31978336857E+02 -0.12870664246E+03  0.13475123932E+03  0.00000000000E+00 0. -1.
</event>
<event>
 4    1  0.2825993E+006  0.2287543E+02  0.7546771E-02  0.1494068E+00
         21   -1    0    0  504  501  0.00000000000E+00  0.00000000000E+00  0.62204280997E+03  0.62204280997E+03  0.00000000000E+00 0.  1.
         21   -1    0    0  503  502 -0.00000000000E+00 -0.00000000000E+00 -0.94857669876E+01  0.94857669876E+01  0.00000000000E+00 0. -1.
         21    1    1    2  503  501  0.77659850872E+01 -0.21516853120E+02  0.60771615771E+03  0.60814653977E+03  0.00000000000E+00 0.  1.
         21    1    1    2  504  502 -0.77659850872E+01  0.21516853120E+02  0.48408852660E+01  0.23382037181E+02  0.00000000000E+00 0. -1.
</event>
<event>
 4    1  0.2825993E+006  0.2514635E+02  0.7546771E-02  0.1467173E+00
         21   -1    0    0  504  501  0.00000000000E+00  0.00000000000E+00  0.17052528829E+03  0.17052528829E+03  0.00000000000E+00 0. -1.
         21   -1    0    0  501  502 -0.00000000000E+00 -0.00000000000E+00 -0.15753704739E+02  0.15753704739E+02  0.00000000000E+00 0.  1.
         21    1    1    2  503  502  0.13029873181E+02  0.21507240184E+02 -0.40575045652E+01  0.25471598276E+02  0.00000000000E+00 0.  1.
         21    1    1    2  504  503 -0.13029873181E+02 -0.21507240184E+02  0.15882908812E+03  0.16080739476E+03  0.00000000000E+00 0. -1.
</event>
<event>
 4    1  0.2825993E+006  0.3009547E+02  0.7546771E-02  0.1418769E+00
         21   -1    0    0  504  501  0.00000000000E+00  0.00000000000E+00  0.28933424941E+02  0.28933424941E+02  0.00000000000E+00 0.  1.
         21   -1    0    0  503  502 -0.00000000000E+00 -0.00000000000E+00 -0.13826426750E+03  0.13826426750E+03  0.00000000000E+00 0. -1.
         21    1    1    2  503  501  0.27073973087E+02  0.13142949384E+02  0.18863158941E+02  0.35518388230E+02  0.00000000000E+00 0.  1.
         21    1    1    2  504  502 -0.27073973087E+02 -0.13142949384E+02 -0.12819400150E+03  0.13167930421E+03  0.00000000000E+00 0. -1.
</event>
<event>
 4    1  0.2825993E+006  0.2253930E+02  0.7546771E-02  0.1498366E+00
         21   -1    0    0  503  501  0.00000000000E+00  0.00000000000E+00  0.23484443644E+02  0.23484443644E+02  0.00000000000E+00 0.  1.
         21   -1    0    0  504  502 -0.00000000000E+00 -0.00000000000E+00 -0.21690984561E+02  0.21690984561E+02  0.00000000000E+00 0.  1.
         21    1    1    2  503  502  0.20994237643E+02 -0.82013334592E+01  0.20727395241E+01  0.22634401558E+02  0.00000000000E+00 0.  1.
         21    1    1    2  504  501 -0.20994237643E+02  0.82013334592E+01 -0.27928044087E+00  0.22541026647E+02  0.00000000000E+00 0.  1.
</event>
<event>
 4    1  0.2825993E+006  0.3108523E+02  0.7546771E-02  0.1410394E+00
         21   -1    0    0  503  501  0.00000000000E+00  0.00000000000E+00  0.35887198936E+02  0.35887198936E+02  0.00000000000E+00 0.  1.
         21   -1    0    0  501  502 -0.00000000000E+00 -0.00000000000E+00 -0.28983121528E+02  0.28983121528E+02  0.00000000000E+00 0.  1.
         21    1    1    2  503  504  0.14788885704E+01 -0.31050029768E+02  0.12093651293E+02  0.33354877628E+02  0.00000000000E+00 0.  1.
         21    1    1    2  504  502 -0.14788885704E+01  0.31050029768E+02 -0.51895738847E+01  0.31515442836E+02  0.00000000000E+00 0.  1.
</event>
<event>
 4    1  0.2825993E+006  0.2608380E+02  0.7546771E-02  0.1457035E+00
         21   -1    0    0  502  501  0.00000000000E+00  0.00000000000E+00  0.93922482179E+01  0.93922482179E+01  0.00000000000E+00 0. -1.
         21   -1    0    0  504  502 -0.00000000000E+00 -0.00000000000E+00 -0.13809185513E+03  0.13809185513E+03  0.00000000000E+00 0.  1.
         21    1    1    2  503  501  0.23531427859E+02 -0.11253297081E+02 -0.13503651548E+02  0.29371983205E+02  0.00000000000E+00 0. -1.
         21    1    1    2  504  503 -0.23531427859E+02  0.11253297081E+02 -0.11519595537E+03  0.11811212015E+03  0.00000000000E+00 0.  1.
</event>
<event>
 4    1  0.2825993E+006  0.2209084E+02  0.7546771E-02  0.1504241E+00
         21   -1    0    0  504  501  0.00000000000E+00  0.00000000000E+00  0.97072442935E+01  0.97072442935E+01  0.00000000000E+00 0.  1.
         21   -1    0    0  503  502 -0.00000000000E+00 -0.00000000000E+00 -0.10915704004E+03  0.10915704004E+03  0.00000000000E+00 0. -1.
         21    1    1    2  503  501  0.26252903428E+01 -0.21934285091E+02 -0.60736087064E+01  0.22910559455E+02  0.00000000000E+00 0.  1.
         21    1    1    2  504  502 -0.26252903428E+01  0.21934285091E+02 -0.93376187041E+02  0.95953724879E+02  0.00000000000E+00 0. -1.
</event>
<event>
 4    1  0.2825993E+006  0.7178613E+02  0.7546771E-02  0.1224318E+00
         21   -1    0    0  503  501  0.00000000000E+00  0.00000000000E+00  0.79190049722E+02  0.79190049722E+02  0.00000000000E+00 0.  1.
         21   -1    0    0  504  502 -0.00000000000E+00 -0.00000000000E+00 -0.12562260425E+03  0.12562260425E+03  0.00000000000E+00 0. -1.
         21    1    1    2  503  502 -0.49157428428E+02 -0.52314396909E+02 -0.94311979687E+02  0.11852425240E+03  0.00000000000E+00 0. -1.
         21    1    1    2  504  501  0.49157428428E+02  0.52314396909E+02  0.47879425156E+02  0.86288401578E+02  0.00000000000E+00 0.  1.
</event>
<event>
 4    1  0.2825993E+006  0.2006807E+02  0.7546771E-02  0.1532998E+00
         21   -1    0    0  504  501  0.00000000000E+00  0.00000000000E+00  0.37082877555E+02  0.37082877555E+02  0.00000000000E+00 0. -1.
         21   -1    0    0  501  502 -0.00000000000E+00 -0.00000000000E+00 -0.67042090036E+03  0.67042090036E+03  0.00000000000E+00 0. -1.
         21    1    1    2  503  502 -0.15134813757E+02 -0.13178190156E+02 -0.66754397613E+03  0.66784555651E+03  0.00000000000E+00 0. -1.
         21    1    1    2  504  503  0.15134813757E+02  0.13178190156E+02  0.34205953318E+02  0.39658221413E+02  0.00000000000E+00 0. -1.
</event>
<event>
 4    1  0.2825993E+006  0.2075615E+02  0.7546771E-02  0.1522775E+00
         21   -1    0    0  502  501  0.00000000000E+00  0.00000000000E+00  0.89798725233E+02  0.89798725233E+02  0.00000000000E+00 0.  1.
         21   -1    0    0  503  502 -0.00000000000E+00 -0.00000000000E+00 -0.13976872390E+02  0.13976872390E+02  0.00000000000E+00 0.  1.
         21    1    1    2  503  504  0.63738934620E+00  0.20746364654E+02 -0.41389278829E+01  0.21164797083E+02  0.00000000000E+00 0.  1.
         21    1    1    2  504  501 -0.63738934620E+00 -0.20746364654E+02  0.79960780726E+02  0.82610800540E+02  0.00000000000E+00 0.  1.
</event>
<event>
 4    1  0.2825993E+006  0.2770559E+02  0.7546771E-02  0.1440646E+00
         21   -1    0    0  504  501  0.00000000000E+00  0.00000000000E+00  0.24679949600E+01  0.24679949600E+01  0.00000000000E+00 0. -1.
         21   -1    0    0  501  502 -0.00000000000E+00 -0.00000000000E+00 -0.62332501638E+03  0.62332501638E+03  0.00000000000E+00 0.  1.
         21    1    1    2  503  502  0.25820528527E+02 -0.10044904143E+02 -0.53190711991E+03  0.53262818551E+03  0.00000000000E+00 0.  1.
         21    1    1    2  504  503 -0.25820528527E+02  0.10044904143E+02 -0.88949901515E+02  0.93164825831E+02  0.00000000000E+00 0. -1.
</event>
<event>
 4    1  0.2825993E+006  0.2016868E+02  0.7546771E-02  0.1531473E+00
         21   -1    0    0  504  501  0.00000000000E+00  0.00000000000E+00  0.95115247256E+01  0.95115247256E+01  0.00000000000E+00 0.  1.
         21   -1    0    0  501  502 -0.00000000000E+00 -0.00000000000E+00 -0.10511126609E+04  0.10511126609E+04  0.00000000000E+00 0. -1.
         21    1    1    2  503  502  0.10466988742E+02 -0.17240002912E+02 -0.10402122349E+04  0.10404077418E+04  0.00000000000E+00 0. -1.
         21    1    1    2  504  503 -0.10466988742E+02  0.17240002912E+02 -0.13889012577E+01  0.20216443813E+02  0.00000000000E+00 0.  1.
</event>
<event>
 4    1  0.2825993E+006  0.2963732E+02  0.7546771E-02  0.1422775E+00
         21   -1    0    0  503  501  0.00000000000E+00  0.00000000000E+00  0.23522200943E+03  0.23522200943E+03  0.00000000000E+00 0. -1.
         21   -1    0    0  501  502 -0.00000000000E+00 -0.00000000000E+00 -0.44684679601E+01  0.44684679601E+01  0.00000000000E+00 0. -1.
         21    1    1    2  503  504 -0.29141255834E+02  0.53998292216E+01  0.16395733607E+03  0.16661446215E+03  0.00000000000E+00 0. -1.
         21    1    1    2  504  502  0.29141255834E+02 -0.53998292216E+01  0.66796205399E+02  0.73076015237E+02  0.00000000000E+00 0. -1.
</event>
<event>
 4    1  0.2825993E+006  0.2126327E+02  0.7546771E-02  0.1515539E+00
         21   -1    0    0  503  501  0.00000000000E+00  0.00000000000E+00  0.53049219608E+03  0.53049219608E+03  0.00000000000E+00 0. -1.
         21   -1    0    0  501  502 -0.00000000000E+00 -0.00000000000E+00 -0.32819188193E+01  0.32819188193E+01  0.00000000000E+00 0. -1.
         21    1    1    2  503  504  0.11961688980E+02  0.17579668250E+02  0.49323832333E+03  0.49369643541E+03  0.00000000000E+00 0. -1.
         21    1    1    2  504  502 -0.11961688980E+02 -0.17579668250E+02  0.33971953929E+02  0.40077679484E+02  0.00000000000E+00 0. -1.
</event>
<event>
 4    1  0.2825993E+006  0.2634212E+02  0.7546771E-02  0.1454331E+00
         21   -1    0    0  504  501  0.00000000000E+00  0.00000000000E+00  0.62027287271E+03  0.62027287271E+03  0.00000000000E+00 0. -1.
         21   -1    0    0  503  502 -0.00000000000E+00 -0.00000000000E+00 -0.18386254847E+02  0.18386254847E+02  0.00000000000E+00 0.  1.
         21    1    1    2  503  501 -0.86994995690E+01  0.24864149772E+02 -0.85189920613E+01  0.27685383552E+02  0.00000000000E+00 0.  1.
         21    1    1    2  504  502  0.86994995690E+01 -0.24864149772E+02  0.61040560993E+03  0.61097374401E+03  0.00000000000E+00 0. -1.
</event>
<event>
 4    1  0.2825993E+006  0.3042140E+02  0.7546771E-02  0.1415969E+00
         21   -1    0    0  503  501  0.00000000000E+00  0.00000000000E+00  0.23552950531E+02  0.23552950531E+02  0.00000000000E+00 0. -1.
         21   -1    0    0  504  502 -0.00000000000E+00 -0.00000000000E+00 -0.32897820639E+03  0.32897820639E+03  0.00000000000E+00 0.  1.
         21    1    1    2  503  502 -0.29917959070E+02 -0.55115462646E+01 -0.31811710231E+03  0.31956838423E+03  0.00000000000E+00 0.  1.
         21    1    1    2  504  501  0.29917959070E+02  0.55115462646E+01  0.12691846451E+02  0.32962772691E+02  0.00000000000E+00 0. -1.
</event>
<event>
 4    1  0.2825993E+006  0.2115424E+02  0.7546771E-02  0.1517074E+00
         21   -1    0    0  504  501  0.00000000000E+00  0.00000000000E+00  0.32113130504E+02  0.32113130504E+02  0.00000000000E+00 0.  1.
         21   -1    0    0  503  502 -0.00000000000E+00 -0.00000000000E+00 -0.14724681395E+02  0.14724681395E+02  0.00000000000E+00 0.  1.
         21    1    1    2  503  501  0.17493259076E+02  0.11894854268E+02  0.14117043333E+02  0.25432117168E+02  0.00000000000E+00 0.  1.
         21    1    1    2  504  502 -0.17493259076E+02 -0.11894854268E+02  0.32714057765E+01  0.21405694731E+02  0.00000000000E+00 0.  1.
</event>
<event>
 4    1  0.2825993E+006  0.2907815E+02  0.7546771E-02  0.1427780E+00
         21   -1    0    0  503  501  0.00000000000E+00  0.00000000000E+00  0.54311362042E+02  0.54311362042E+02  0.00000000000E+00 0. -1.
         21   -1    0    0  504  502 -0.00000000000E+00 -0.00000000000E+00 -0.18076579604E+02  0.18076579604E+02  0.00000000000E+00 0. -1.
         21    1    1    2  503  502  0.20595867668E+02 -0.20526795334E+02  0.31599582204E+02  0.42942667443E+02  0.00000000000E+00 0. -1.
         21    1    1    2  504  501 -0.20595867668E+02  0.20526795334E+02  0.46352002343E+01  0.29445274203E+02  0.00000000000E+00 0. -1.
</event>
<event>
 4    1  0.2825993E+006  0.2835900E+02  0.7546771E-02  0.1434414E+00
         21   -1    0    0  502  501  0.00000000000E+00  0.00000000000E+00  0.39991029474E+01  0.39991029474E+01  0.00000000000E+00 0.  1.
         21   -1    0    0  503  502 -0.00000000000E+00 -0.00000000000E+00 -0.26960951370E+03  0.26960951370E+03  0.00000000000E+00 0.  1.
         21    1    1    2  503  504 -0.24608553657E+02 -0.14094403580E+02 -0.20176514817E+03  0.20374839420E+03  0.00000000000E+00 0.  1.
         21    1    1    2  504  501  0.24608553657E+02  0.14094403580E+02 -0.63845262586E+02  0.69860222445E+02  0.00000000000E+00 0.  1.
</event>
<event>
 4    1  0.2825993E+006  0.2253515E+02  0.7546771E-02  0.1498419E+00
         21   -1    0    0  504  501  0.00000000000E+00  0.00000000000E+00  0.85184324752E+01  0.85184324752E+01  0.00000000000E+00 0. -1.
         21   -1    0    0  503  502 -0.00000000000E+00 -0.00000000000E+00 -0.89698316532E+02  0.89698316532E+02  0.00000000000E+00 0. -1.
         21    1    1    2  503  501 -0.82649351579E+01  0.20964825781E+02 -0.69029351504E+02  0.72614629671E+02  0.00000000000E+00 0. -1.
         21    1    1    2  504  502  0.82649351579E+01 -0.20964825781E+02 -0.12150532553E+02  0.25602119336E+02  0.00000000000E+00 0. -1.
</event>
<event>
 4    1  0.2825993E+006  0.2106489E+02  0.7546771E-02  0.1518340E+00
         21   -1    0    0  503  501  0.00000000000E+00  0.00000000000E+00  0.61032893645E+02  0.61032893645E+02  0.00000000000E+00 0. -1.
         21   -1    0    0  501  502 -0.00000000000E+00 -0.00000000000E+00 -0.74267662144E+01  0.74267662144E+01  0.00000000000E+00 0. -1.
         21    1    1    2  503  504  0.66981256163E+01  0.19971599640E+02  0.31770866961E+02  0.38119780514E+02  0.00000000000E+00 0. -1.
         21    1    1    2  504  502 -0.66981256163E+01 -0.19971599640E+02  0.21835260470E+02  0.30339879346E+02  0.00000000000E+00 0. -1.
</event>
<event>
 4    1  0.2825993E+006  0.3124161E+02  0.7546771E-02  0.1409105E+00
         21   -1    0    0  502  501  0.00000000000E+00  0.00000000000E+00  0.29720444823E+01  0.29720444823E+01  0.00000000000E+00 0.  1.
         21   -1    0    0  503  502 -0.00000000000E+00 -0.00000000000E+00 -0.66406652083E+03  0.66406652083E+03  0.00000000000E+00 0. -1.
         21    1    1    2  503  504  0.26970968168E+02  0.15767222878E+02 -0.56766551260E+03  0.56852455764E+03  0.00000000000E+00 0. -1.
         21    1    1    2  504  501 -0.26970968168E+02 -0.15767222878E+02 -0.93428963747E+02  0.98514007674E+02  0.00000000000E+00 0.  1.
</event>
<event>
 4    1  0.2825993E+006  0.2318528E+02  0.7546771E-02  0.1490185E+00
         21   -1    0    0  503  501  0.00000000000E+00  0.00000000000E+00  0.15128791644E+02  0.15128791644E+02  0.00000000000E+00 0.  1.
         21   -1    0    0  504  502 -0.00000000000E+00 -0.00000000000E+00 -0.40081887735E+02  0.40081887735E+02  0.00000000000E+00 0.  1.
         21    1    1    2  503  502 -0.18719825546E+02  0.13679383605E+02 -0.31758481526E+01  0.23401782320E+02  0.00000000000E+00 0.  1.
         21    1    1    2  504  501  0.18719825546E+02 -0.13679383605E+02 -0.21777247939E+02  0.31808897059E+02  0.00000000000E+00 0.  1.
</event>
<event>
 4    1  0.2825993E+006  0.2113108E+02  0.7546771E-02  0.1517402E+00
         21   -1    0    0  503  501  0.00000000000E+00  0.00000000000E+00  0.74910535507E+01  0.74910535507E+01  0.00000000000E+00 0.  1.
         21   -1    0    0  504  502 -0.00000000000E+00 -0.00000000000E+00 -0.28806331671E+03  0.28806331671E+03  0.00000000000E+00 0. -1.
         21    1    1    2  503  502  0.63248470036E+00 -0.21121609759E+02 -0.27188876806E+03  0.27270868089E+03  0.00000000000E+00 0. -1.
         21    1    1    2  504  501 -0.63248470036E+00  0.21121609759E+02 -0.86834951004E+01  0.22845689371E+02  0.00000000000E+00 0.  1.
</event>
<event>
 4    1  0.2825993E+006  0.2548275E+02  0.7546771E-02  0.1463475E+00
         21   -1    0    0  503  501  0.00000000000E+00  0.00000000000E+00  0.98349051653E+02  0.98349051653E+02  0.00000000000E+00 0.  1.
         21   -1    0    0  504  502 -0.00000000000E+00 -0.00000000000E+00 -0.68132158004E+01  0.68132158004E+01  0.00000000000E+00 0.  1.
         21    1    1    2  503  502 -0.85710547378E+01 -0.23998074418E+02  0.55010277986E+02  0.60625912275E+02  0.00000000000E+00 0.  1.
         21    1    1    2  504  501  0.85710547378E+01  0.23998074418E+02  0.36525557866E+02  0.44536355178E+02  0.00000000000E+00 0.  1.
</event>
<event>
 4    1  0.2825993E+006  0.2211785E+02  0.7546771E-02  0.1503883E+00
         21   -1    0    0  502  501  0.00000000000E+00  0.00000000000E+00  0.10908191087E+02  0.10908191087E+02  0.00000000000E+00 0.  1.
         21   -1    0    0  504  502 -0.00000000000E+00 -0.00000000000E+00 -0.65616668588E+02  0.65616668588E+02  0.00000000000E+00 0.  1.
         21    1    1    2  503  501  0.11082332028E+02 -0.19141083233E+02 -0.58273773000E+01  0.22872635981E+02  0.00000000000E+00 0.  1.
         21    1    1    2  504  503 -0.11082332028E+02  0.19141083233E+02 -0.48881100200E+02  0.53652223694E+02  0.00000000000E+00 0.  1.
</event>
<event>
 4    1  0.2825993E+006  0.2279965E+02  0.7546771E-02  0.1495029E+00
         21   -1    0    0  503  501  0.00000000000E+00  0.00000000000E+00  0.15454543670E+01  0.15454543670E+01  0.00000000000E+00 0.  1.
         21   -1    0    0  504  502 -0.00000000000E+00 -0.00000000000E+00 -0.35455245708E+03  0.35455245708E+03  0.00000000000E+00 0.  1.
         21    1    1    2  503  502 -0.17069038354E+02  0.15115294963E+02 -0.21683850258E+03  0.21803385153E+03  0.00000000000E+00 0.  1.
         21    1    1    2  504  501  0.17069038354E+02 -0.15115294963E+02 -0.13616850013E+03  0.13806405991E+03  0.00000000000E+00 0.  1.
</event>
<event>
 4    1  0.2825993E+006  0.4205942E+02  0.7546771E-02  0.1336823E+00
         21   -1    0    0  502  501  0.00000000000E+00  0.00000000000E+00  0.48852064191E+03  0.48852064191E+03  0.00000000000E+00 0.  1.
         21   -1    0    0  503  502 -0.00000000000E+00 -0.00000000000E+00 -0.14709441638E+02  0.14709441638E+02  0.00000000000E+00 0.  1.
         21    1    1    2  503  504 -0.83352055574E+01  0.41225224140E+02  0.18445917720E+02  0.45926535223E+02  0.00000000000E+00 0.  1.
         21    1    1    2  504  501  0.83352055574E+01 -0.41225224140E+02  0.45536528255E+03  0.45730354832E+03  0.00000000000E+00 0.  1.
</event>
<event>
 4    1  0.2825993E+006  0.2551737E+02  0.7546771E-02  0.1463098E+00
         21   -1    0    0  503  501  0.00000000000E+00  0.00000000000E+00  0.16294857322E+03  0.16294857322E+03  0.00000000000E+00 0.  1.
         21   -1    0    0  504  502 -0.00000000000E+00 -0.00000000000E+00 -0.75198496633E+02  0.75198496633E+02  0.00000000000E+00 0. -1.
         21    1    1    2  503  502  0.24387869180E+01 -0.25400560052E+02 -0.71991597586E+02  0.76380143071E+02  0.00000000000E+00 0. -1.
         21    1    1    2  504  501 -0.24387869180E+01  0.25400560052E+02  0.15974167417E+03  0.16176692678E+03  0.00000000000E+00 0.  1.
</event>
<event>
 4    1  0.2825993E+006  0.2067137E+02  0.7546771E-02  0.1524009E+00
         21   -1    0    0  504  501  0.00000000000E+00  0.00000000000E+00  0.42116557853E+03  0.42116557853E+03  0.00000000000E+00 0.  1.
         21   -1    0    0  501  502 -0.00000000000E+00 -0.00000000000E+00 -0.32698189784E+01  0.32698189784E+01  0.00000000000E+00 0. -1.
         21    1    1    2  503  502 -0.95429290208E+01 -0.18336799861E+02  0.32703152536E+02  0.38688524257E+02  0.00000000000E+00 0. -1.
         21    1    1    2  504  503  0.95429290208E+01  0.18336799861E+02  0.38519260702E+03  0.38574687325E+03  0.00000000000E+00 0.  1.
</event>
<event>
 4    1  0.2825993E+006  0.2367344E+02  0.7546771E-02  0.1484210E+00
         21   -1    0    0  503  501  0.00000000000E+00  0.00000000000E+00  0.10591626166E+03  0.10591626166E+03  0.00000000000E+00 0.  1.
         21   -1    0    0  501  502 -0.00000000000E+00 -0.00000000000E+00 -0.71548918617E+01  0.71548918617E+01  0.00000000000E+00 0. -1.
         21    1    1    2  503  504  0.16595746595E+02 -0.16882331455E+02  0.78234202548E+02  0.81737521181E+02  0.00000000000E+00 0.  1.
         21    1    1    2  504  502 -0.16595746595E+02  0.16882331455E+02  0.20527167252E+02  0.31333632343E+02  0.00000000000E+00 0. -1.
</event>
<event>
 4    1  0.2825993E+006  0.5835470E+02  0.7546771E-02  0.1265528E+00
         21   -1    0    0  502  501  0.00000000000E+00  0.00000000000E+00  0.16175779366E+03  0.16175779366E+03  0.00000000000E+00 0. -1.
         21   -1    0    0  503  502 -0.00000000000E+00 -0.00000000000E+00 -0.21053017431E+02  0.21053017431E+02  0.00000000000E+00 0.  1.
         21    1    1    2  503  504 -0.39172785361E+02 -0.43252325815E+02  0.71085134491E+02  0.91969381573E+02  0.00000000000E+00 0. -1.
         21    1    1    2  504  501  0.39172785361E+02  0.43252325815E+02  0.69619641740E+02  0.90841429520E+02  0.00000000000E+00 0.  1.
</event>
<event>
 4    1  0.2825993E+006  0.2050575E+02  0.7546771E-02  0.1526440E+00
         21   -1    0    0  503  501  0.00000000000E+00  0.00000000000E+00  0.49393006996E+03  0.49393006996E+03  0.00000000000E+00 0.  1.
         21   -1    0    0  501  502 -0.00000000000E+00 -0.00000000000E+00 -0.96091244428E+01  0.96091244428E+01  0.00000000000E+00 0.  1.
         21    1    1    2  503  504 -0.19049748961E+02  0.75889924804E+01  0.48251889220E+03  0.48295441511E+03  0.00000000000E+00 0.  1.
         21    1    1    2  504  502  0.19049748961E+02 -0.75889924804E+01  0.18020533146E+01  0.20584779292E+02  0.00000000000E+00 0.  1.
</event>
<event>
 4    1  0.2825993E+006  0.3199870E+02  0.7546771E-02  0.1402988E+00
         21   -1    0    0  503  501  0.00000000000E+00  0.00000000000E+00  0.35399902006E+03  0.35399902006E+03  0.00000000000E+00 0.  1.
         21   -1    0    0  504  502 -0.00000000000E+00 -0.00000000000E+00 -0.95632564796E+03  0.95632564796E+03  0.00000000000E+00 0.  1.
         21    1    1    2  503  502 -0.31604482489E+02 -0.50073139632E+01  0.35300749347E+03  0.35445480242E+03  0.00000000000E+00 0.  1.
         21    1    1    2  504  501  0.31604482489E+02  0.50073139632E+01 -0.95533412137E+03  0.95586986560E+03  0.00000000000E+00 0.  1.
</event>
<event>
 4    1  0.2825993E+006  0.3761778E+02  0.7546771E-02  0.1363041E+00
         21   -1    0    0  503  501  0.00000000000E+00  0.00000000000E+00  0.13774185571E+02  0.13774185571E+02  0.00000000000E+00 0. -1.
         21   -1    0    0  504  502 -0.00000000000E+00 -0.00000000000E+00 -0.11023726175E+03  0.11023726175E+03  0.00000000000E+00 0. -1.
         21    1    1    2  503  502 -0.31774787665E+02  0.20136046914E+02 -0.64406746653E+02  0.74587710321E+02  0.00000000000E+00 0. -1.
         21    1    1    2  504  501  0.31774787665E+02 -0.20136046914E+02 -0.32056329527E+02  0.49423737002E+02  0.00000000000E+00 0. -1.
</event>
<event>
 4    1  0.2825993E+006  0.2813462E+02  0.7546771E-02  0.1436532E+00
         21   -1    0    0  504  501  0.00000000000E+00  0.00000000000E+00  0.10916933632E+04  0.10916933632E+04  0.00000000000E+00 0.  1.
         21   -1    0    0  501  502 -0.00000000000E+00 -0.00000000000E+00 -0.22023705056E+01  0.22023705056E+01  0.00000000000E+00 0. -1.
         21    1    1    2  503  502  0.22906383431E+02  0.16335679480E+02  0.96790073064E+02  0.10079620563E+03  0.00000000000E+00 0. -1.
         21    1    1    2  504  503 -0.22906383431E+02 -0.16335679480E+02  0.99270091961E+03  0.99309952805E+03  0.00000000000E+00 0.  1.
</event>
<event>
 4    1  0.2825993E+006  0.2168650E+02  0.7546771E-02  0.1509685E+00
         21   -1    0    0  504  501  0.00000000000E+00  0.00000000000E+00  0.15472077712E+03  0.15472077712E+03  0.00000000000E+00 0. -1.
         21   -1    0    0  501  502 -0.00000000000E+00 -0.00000000000E+00 -0.29690749945E+02  0.29690749945E+02  0.00000000000E+00 0.  1.
         21    1    1    2  503  502  0.48235468714E+00 -0.21681132609E+02 -0.24843387449E+02  0.32977235742E+02  0.00000000000E+00 0.  1.
         21    1    1    2  504  503 -0.48235468714E+00  0.21681132609E+02  0.14987341463E+03  0.15143429133E+03  0.00000000000E+00 0. -1.
</event>
<event>
 4    1  0.2825993E+006  0.2453343E+02  0.7546771E-02  0.1474091E+00
         21   -1    0    0  503  501  0.00000000000E+00  0.00000000000E+00  0.16763632443E+03  0.16763632443E+03  0.00000000000E+00 0.  1.
         21   -1    0    0  504  502 -0.00000000000E+00 -0.00000000000E+00 -0.47408362335E+01  0.47408362335E+01  0.00000000000E+00 0.  1.
         21    1    1    2  503  502  0.22266637339E+02  0.10299808242E+02  0.38991182084E+02  0.46067357950E+02  0.00000000000E+00 0.  1.
         21    1    1    2  504  501 -0.22266637339E+02 -0.10299808242E+02  0.12390430611E+03  0.12630980271E+03  0.00000000000E+00 0.  1.
</event>
<event>
 4    1  0.2825993E+006  0.2379801E+02  0.7546771E-02  0.1482713E+00
         21   -1    0    0  504  501  0.00000000000E+00  0.00000000000E+00  0.37567176574E+02  0.37567176574E+02  0.00000000000E+00 0. -1.
         21   -1    0    0  503  502 -0.00000000000E+00 -0.00000000000E+00 -0.58727522538E+03  0.58727522538E+03  0.00000000000E+00 0.  1.
         21    1    1    2  503  501 -0.13204386484E+02 -0.19798725239E+02 -0.58323918097E+03  0.58372449628E+03  0.00000000000E+00 0.  1.
         21    1    1    2  504  502  0.13204386484E+02  0.19798725239E+02  0.33531132157E+02  0.41117905676E+02  0.00000000000E+00 0. -1.
</event>
<event>
 4    1  0.2825993E+006  0.2157959E+02  0.7546771E-02  0.1511148E+00
         21   -1    0    0  504  501  0.00000000000E+00  0.00000000000E+00  0.15448954389E+03  0.15448954389E+03  0.00000000000E+00 0.  1.
         21   -1    0    0  503  502 -0.00000000000E+00 -0.00000000000E+00 -0.12123480099E+03  0.12123480099E+03  0.00000000000E+00 0. -1.
         21    1    1    2  503  501 -0.20446389257E+02 -0.69009897851E+01  0.15276489801E+03  0.15428153667E+03  0.00000000000E+00 0.  1.
         21    1    1    2  504  502  0.20446389257E+02  0.69009897851E+01 -0.11951015511E+03  0.12144280822E+03  0.00000000000E+00 0. -1.
</event>
<event>
 4    1  0.2825993E+006  0.6946181E+02  0.7546771E-02  0.1230683E+00
         21   -1    0    0  503  501  0.00000000000E+00  0.00000000000E+00  0.25494093658E+02  0.25494093658E+02  0.00000000000E+00 0.  1.
         21   -1    0    0  504  502 -0.00000000000E+00 -0.00000000000E+00 -0.83543346431E+03  0.83543346431E+03  0.00000000000E+00 0.  1.
         21    1    1    2  503  502 -0.18830854086E+02 -0.66860615556E+02 -0.26391005946E+02  0.74306313143E+02  0.00000000000E+00 0.  1.
         21    1    1    2  504  501  0.18830854086E+02  0.66860615556E+02 -0.78354836471E+03  0.78662124483E+03  0.00000000000E+00 0.  1.
</event>
<event>
 4    1  0.2825993E+006  0.2276761E+02  0.7546771E-02  0.1495437E+00
         21   -1    0    0  503  501  0.00000000000E+00  0.00000000000E+00  0.25256796057E+02  0.25256796057E+02  0.00000000000E+00 0.  1.
         21   -1    0    0  504  502 -0.00000000000E+00 -0.00000000000E+00 -0.64851843796E+02  0.64851843796E+02  0.00000000000E+00 0. -1.
         21    1    1    2  503  502  0.18928216288E+02 -0.12652534119E+02 -0.57046542645E+02  0.61422080877E+02  0.00000000000E+00 0. -1.
         21    1    1    2  504  501 -0.18928216288E+02  0.12652534119E+02  0.17451494906E+02  0.28686558976E+02  0.00000000000E+00 0.  1.
</event>
<event>
 4    1  0.2825993E+006  0.3089189E+02  0.7546771E-02  0.1412001E+00
         21   -1    0    0  504  501  0.00000000000E+00  0.00000000000E+00  0.78258631852E+03  0.78258631852E+03  0.00000000000E+00 0. -1.
         21   -1    0    0  503  502 -0.00000000000E+00 -0.00000000000E+00 -0.46889822404E+01  0.46889822404E+01  0.00000000000E+00 0.  1.
         21    1    1    2  503  501 -0.43128409813E+01  0.30589352803E+02  0.50343125369E+02  0.59065551501E+02  0.00000000000E+00 0.  1.
         21    1    1    2  504  502  0.43128409813E+01 -0.30589352803E+02  0.72755421091E+03  0.72820974926E+03  0.00000000000E+00 0. -1.
</event>
<event>
 4    1  0.2825993E+006  0.2592805E+02  0.7546771E-02  0.1458684E+00
         21   -1    0    0  503  501  0.00000000000E+00  0.00000000000E+00  0.23242959258E+01  0.23242959258E+01  0.00000000000E+00 0.  1.
         21   -1    0    0  504  502 -0.00000000000E+00 -0.00000000000E+00 -0.56122457312E+03  0.56122457312E+03  0.00000000000E+00 0.  1.
         21    1    1    2  503  502  0.19430573157E+02  0.17167312916E+02 -0.83290016105E+02  0.87232394148E+02  0.00000000000E+00 0.  1.
         21    1    1    2  504  501 -0.19430573157E+02 -0.17167312916E+02 -0.47561026109E+03  0.47631647490E+03  0.00000000000E+00 0.  1.
</event>
<event>
 4    1  0.2825993E+006  0.2156069E+02  0.7546771E-02  0.1511408E+00
         21   -1    0    0  502  501  0.00000000000E+00  0.00000000000E+00  0.53826892979E+03  0.53826892979E+03  0.00000000000E+00 0.  1.
         21   -1    0    0  504  502 -0.00000000000E+00 -0.00000000000E+00 -0.10268203062E+01  0.10268203062E+01  0.00000000000E+00 0.  1.
         21    1    1    2  503  501 -0.20505184235E+02  0.66633805267E+01  0.37611941495E+03  0.37673688102E+03  0.00000000000E+00 0.  1.
         21    1    1    2  504  503  0.20505184235E+02 -0.66633805267E+01  0.16112269453E+03  0.16255886907E+03  0.00000000000E+00 0.  1.
</event>
<event>
 4    1  0.2825993E+006  0.2819448E+02  0.7546771E-02  0.1435965E+00
         21   -1    0    0  504  501  0.00000000000E+00  0.00000000000E+00  0.10723511427E+01  0.10723511427E+01  0.00000000000E+00 0. -1.
         21   -1    0    0  503  502 -0.00000000000E+00 -0.00000000000E+00 -0.74982116262E+03  0.74982116262E+03  0.00000000000E+00 0. -1.
         21    1    1    2  503  501 -0.28141731733E+02  0.17238856489E+01 -0.41440933264E+03  0.41536733602E+03  0.00000000000E+00 0. -1.
         21    1    1    2  504  502  0.28141731733E+02 -0.17238856489E+01 -0.33433947883E+03  0.33552617774E+03  0.00000000000E+00 0. -1.
</event>
<event>
 4    1  0.2825993E+006  0.2442560E+02  0.7546771E-02  0.1475333E+00
         21   -1    0    0  503  501  0.00000000000E+00  0.00000000000E+00  0.69707880820E+02  0.69707880820E+02  0.00000000000E+00 0. -1.
         21   -1    0    0  504  502 -0.00000000000E+00 -0.00000000000E+00 -0.11887939537E+02  0.11887939537E+02  0.00000000000E+00 0.  1.
         21    1    1    2  503  502 -0.24424099505E+02  0.27095275780E+00  0.73198031765E+01  0.25498815081E+02  0.00000000000E+00 0.  1.
         21    1    1    2  504  501  0.24424099505E+02 -0.27095275780E+00  0.50500138107E+02  0.56097005275E+02  0.00000000000E+00 0. -1.
</event>
<event>
 4    1  0.2825993E+006  0.2049049E+02  0.7546771E-02  0.1526665E+00
         21   -1    0    0  503  501  0.00000000000E+00  0.00000000000E+00  0.10616129631E+03  0.10616129631E+03  0.00000000000E+00 0.  1.
         21   -1    0    0  501  502 -0.00000000000E+00 -0.00000000000E+00 -0.96202422908E+01  0.96202422908E+01  0.00000000000E+00 0. -1.
         21    1    1    2  503  504 -0.20261978182E+02  0.30516424331E+01  0.92695617435E+02  0.94933333308E+02  0.00000000000E+00 0.  1.
         21    1    1    2  504  502  0.20261978182E+02 -0.30516424331E+01  0.38454365839E+01  0.20848205292E+02  0.00000000000E+00 0. -1.
</event>
<event>
 4    1  0.2825993E+006  0.3154488E+02  0.7546771E-02  0.1406630E+00
         21   -1    0    0  502  501  0.00000000000E+00  0.00000000000E+00  0.71193081515E+02  0.71193081515E+02  0.00000000000E+00 0.  1.
         21   -1    0    0  504  502 -0.00000000000E+00 -0.00000000000E+00 -0.55413164975E+02  0.55413164975E+02  0.00000000000E+00 0. -1.
         21    1    1    2  503  501 -0.31389105788E+02  0.31310064096E+01  0.62630292588E+02  0.70125834847E+02  0.00000000000E+00 0.  1.
         21    1    1    2  504  503  0.31389105788E+02 -0.31310064096E+01 -0.46850376048E+02  0.56480411642E+02  0.00000000000E+00 0. -1.
</event>
<event>
 4    1  0.2825993E+006  0.2118904E+02  0.7546771E-02  0.1516583E+00
         21   -1    0    0  504  501  0.00000000000E+00  0.00000000000E+00  0.56896905332E+01  0.56896905332E+01  0.00000000000E+00 0.  1.
         21   -1    0    0  501  502 -0.00000000000E+00 -0.00000000000E+00 -0.88948581982E+02  0.88948581982E+02  0.00000000000E+00 0.  1.
         21    1    1    2  503  502 -0.42671122976E+00  0.21184739060E+02 -0.57525771116E+02  0.61304074857E+02  0.00000000000E+00 0.  1.
         21    1    1    2  504  503  0.42671122976E+00 -0.21184739060E+02 -0.25733120333E+02  0.33334197659E+02  0.00000000000E+00 0.  1.
</event>
<event>
 4    1  0.2825993E+006  0.2270160E+02  0.7546771E-02  0.1496280E+00
         21   -1    0    0  504  501  0.00000000000E+00  0.00000000000E+00  0.23410666606E+03  0.23410666606E+03  0.00000000000E+00 0. -1.
         21   -1    0    0  503  502 -0.00000000000E+00 -0.00000000000E+00 -0.17947415046E+02  0.17947415046E+02  0.00000000000E+00 0. -1.
         21    1    1    2  503  501  0.17983202850E+02  0.13855209940E+02  0.22612476648E+03  0.22726146274E+03  0.00000000000E+00 0. -1.
         21    1    1    2  504  502 -0.17983202850E+02 -0.13855209940E+02 -0.99655154683E+01  0.24792618373E+02  0.00000000000E+00 0. -1.
</event>
<event>
 4    1  0.2825993E+006  0.2389144E+02  0.7546771E-02  0.1481598E+00
         21   -1    0    0  503  501  0.00000000000E+00  0.00000000000E+00  0.95463320776E+01  0.95463320776E+01  0.00000000000E+00 0.  1.
         21   -1    0    0  504  502 -0.00000000000E+00 -0.00000000000E+00 -0.64652132796E+02  0.64652132796E+02  0.00000000000E+00 0.  1.
         21    1    1    2  503  502  0.26068850798E+01  0.23748791973E+02 -0.17381838715E+02  0.29545376747E+02  0.00000000000E+00 0.  1.
         21    1    1    2  504  501 -0.26068850798E+01 -0.23748791973E+02 -0.37723962003E+02  0.44653088126E+02  0.00000000000E+00 0.  1.
</event>
<event>
 4    1  0.2825993E+006  0.2390820E+02  0.7546771E-02  0.1481398E+00
         21   -1    0    0  503  501  0.00000000000E+00  0.00000000000E+00  0.93771567432E+02  0.93771567432E+02  0.00000000000E+00 0. -1.
         21   -1    0    0  504  502 -0.00000000000E+00 -0.00000000000E+00 -0.60956863022E+01  0.60956863022E+01  0.00000000000E+00 0. -1.
         21    1    1    2  503  502 -0.23045344581E+02  0.63650608919E+01  0.43812181493E+02  0.49911012354E+02  0.00000000000E+00 0. -1.
         21    1    1    2  504  501  0.23045344581E+02 -0.63650608919E+01  0.43863699637E+02  0.49956241380E+02  0.00000000000E+00 0. -1.
</event>
<event>
 4    1  0.2825993E+006  0.2378459E+02  0.7546771E-02  0.1482874E+00
         21   -1    0    0  504  501  0.00000000000E+00  0.00000000000E+00  0.23296484650E+02  0.23296484650E+02  0.00000000000E+00 0. -1.
         21   -1    0    0  503  502 -0.00000000000E+00 -0.00000000000E+00 -0.39847714430E+02  0.39847714430E+02  0.00000000000E+00 0. -1.
         21    1    1    2  503  501 -0.17393733123E+02  0.16222351249E+02 -0.28007722459E+02  0.36744239676E+02  0.00000000000E+00 0. -1.
         21    1    1    2  504  502  0.17393733123E+02 -0.16222351249E+02  0.11456492680E+02  0.26399959404E+02  0.00000000000E+00 0. -1.
</event>
<event>
 4    1  0.2825993E+006  0.2685377E+02  0.7546771E-02  0.1449083E+00
         21   -1    0    0  502  501  0.00000000000E+00  0.00000000000E+00  0.17003678386E+03  0.17003678386E+03  0.00000000000E+00 0. -1.
         21   -1    0    0  503  502 -0.00000000000E+00 -0.00000000000E+00 -0.42587674501E+01  0.42587674501E+01  0.00000000000E+00 0. -1.
         21    1    1    2  503  504  0.48497071722E+01  0.26412214007E+02  0.77258861199E+02  0.81792764608E+02  0.00000000000E+00 0. -1.
         21    1    1    2  504  501 -0.48497071722E+01 -0.26412214007E+02  0.88519155206E+02  0.92502786697E+02  0.00000000000E+00 0. -1.
</event>
<event>
 4    1  0.2825993E+006  0.3071060E+02  0.7546771E-02  0.1413520E+00
         21   -1    0    0  504  501  0.00000000000E+00  0.00000000000E+00  0.14231650920E+02  0.14231650920E+02  0.00000000000E+00 0. -1.
         21   -1    0    0  503  502 -0.00000000000E+00 -0.00000000000E+00 -0.15884660325E+04  0.15884660325E+04  0.00000000000E+00 0.  1.
         21    1    1    2  503  501 -0.26650425084E+02 -0.15260932800E+02 -0.15715718426E+04  0.15718718770E+04  0.00000000000E+00 0.  1.
         21    1    1    2  504  502  0.26650425084E+02  0.15260932800E+02 -0.26625389615E+01  0.30825806410E+02  0.00000000000E+00 0. -1.
</event>
<event>
 4    1  0.2825993E+006  0.2712058E+02  0.7546771E-02  0.1446401E+00
         21   -1    0    0  504  501  0.00000000000E+00  0.00000000000E+00  0.36202623918E+00  0.36202623918E+00  0.00000000000E+00 0.  1.
         21   -1    0    0  503  502 -0.00000000000E+00 -0.00000000000E+00 -0.23185509261E+04  0.23185509261E+04  0.00000000000E+00 0.  1.
         21    1    1    2  503  501 -0.73469750086E+00  0.27110631580E+02 -0.75126398495E+03  0.75175335131E+03  0.00000000000E+00 0.  1.
         21    1    1    2  504  502  0.73469750086E+00 -0.27110631580E+02 -0.15669249149E+04  0.15671596010E+04  0.00000000000E+00 0.  1.
</event>
<event>
 4    1  0.2825993E+006  0.2422381E+02  0.7546771E-02  0.1477677E+00
         21   -1    0    0  503  501  0.00000000000E+00  0.00000000000E+00  0.64402074905E+01  0.64402074905E+01  0.00000000000E+00 0. -1.
         21   -1    0    0  504  502 -0.00000000000E+00 -0.00000000000E+00 -0.93195550865E+02  0.93195550865E+02  0.00000000000E+00 0. -1.
         21    1    1    2  503  502  0.22338319287E+02  0.93697747585E+01 -0.35932423530E+02  0.43335115649E+02  0.00000000000E+00 0. -1.
         21    1    1    2  504  501 -0.22338319287E+02 -0.93697747585E+01 -0.50822919845E+02  0.56300642706E+02  0.00000000000E+00 0. -1.
</event>
<event>
 4    1  0.2825993E+006  0.2021161E+02  0.7546771E-02  0.1530825E+00
         21   -1    0    0  503  501  0.00000000000E+00  0.00000000000E+00  0.32720197149E+03  0.32720197149E+03  0.00000000000E+00 0. -1.
         21   -1    0    0  501  502 -0.00000000000E+00 -0.00000000000E+00 -0.10197607159E+03  0.10197607159E+03  0.00000000000E+00 0.  1.
         21    1    1    2  503  504  0.12607713104E+02  0.15797296646E+02  0.32588432059E+03  0.32651048898E+03  0.00000000000E+00 0. -1.
         21    1    1    2  504  502 -0.12607713104E+02 -0.15797296646E+02 -0.10065842068E+03  0.10266755410E+03  0.00000000000E+00 0.  1.
</event>
<event>
 4    1  0.2825993E+006  0.2210173E+02  0.7546771E-02  0.1504097E+00
         21   -1    0    0  504  501  0.00000000000E+00  0.00000000000E+00  0.34815044523E+02  0.34815044523E+02  0.00000000000E+00 0.  1.
         21   -1    0    0  503  502 -0.00000000000E+00 -0.00000000000E+00 -0.15116563735E+02  0.15116563735E+02  0.00000000000E+00 0. -1.
         21    1    1    2  503  501  0.13066048350E+02  0.17825960664E+02  0.31586229739E+01  0.22326293740E+02  0.00000000000E+00 0. -1.
         21    1    1    2  504  502 -0.13066048350E+02 -0.17825960664E+02  0.16539857814E+02  0.27605314517E+02  0.00000000000E+00 0.  1.
</event>
<event>
 4    1  0.2825993E+006  0.6490666E+02  0.7546771E-02  0.1244015E+00
         21   -1    0    0  504  501  0.00000000000E+00  0.00000000000E+00  0.16045039839E+03  0.16045039839E+03  0.00000000000E+00 0. -1.
         21   -1    0    0  503  502 -0.00000000000E+00 -0.00000000000E+00 -0.28655605275E+02  0.28655605275E+02  0.00000000000E+00 0.  1.
         21    1    1    2  503  501 -0.18094090877E+02 -0.62333603261E+02  0.38539010156E+02  0.75485955806E+02  0.00000000000E+00 0.  1.
         21    1    1    2  504  502  0.18094090877E+02  0.62333603261E+02  0.93255782963E+02  0.11362004786E+03  0.00000000000E+00 0. -1.
</event>
<event>
 4    1  0.2825993E+006  0.2215915E+02  0.7546771E-02  0.1503335E+00
         21   -1    0    0  503  501  0.00000000000E+00  0.00000000000E+00  0.23808994302E+02  0.23808994302E+02  0.00000000000E+00 0.  1.
         21   -1    0    0  501  502 -0.00000000000E+00 -0.00000000000E+00 -0.31846720176E+02  0.31846720176E+02  0.00000000000E+00 0. -1.
         21    1    1    2  503  504  0.24615050123E+01 -0.22022014870E+02 -0.20538611327E+02  0.30213617809E+02  0.00000000000E+00 0. -1.
         21    1    1    2  504  502 -0.24615050123E+01  0.22022014870E+02  0.12500885452E+02  0.25442096669E+02  0.00000000000E+00 0.  1.
</event>
<event>
 4    1  0.2825993E+006  0.3464064E+02  0.7546771E-02  0.1383107E+00
         21   -1    0    0  504  501  0.00000000000E+00  0.00000000000E+00  0.59954310696E+01  0.59954310696E+01  0.00000000000E+00 0. -1.
         21   -1    0    0  501  502 -0.00000000000E+00 -0.00000000000E+00 -0.20772768939E+03  0.20772768939E+03  0.00000000000E+00 0. -1.
         21    1    1    2  503  502 -0.19982701614E+01 -0.34582959534E+02 -0.12127866596E+03  0.12612885867E+03  0.00000000000E+00 0. -1.
         21    1    1    2  504  503  0.19982701614E+01  0.34582959534E+02 -0.80453592365E+02  0.87594261788E+02  0.00000000000E+00 0. -1.
</event>
<event>
 4    1  0.2825993E+006  0.2163022E+02  0.7546771E-02  0.1510454E+00
         21   -1    0    0  503  501  0.00000000000E+00  0.00000000000E+00  0.37626533389E+02  0.37626533389E+02  0.00000000000E+00 0.  1.
         21   -1    0    0  504  502 -0.00000000000E+00 -0.00000000000E+00 -0.14042890159E+02  0.14042890159E+02  0.00000000000E+00 0.  1.
         21    1    1    2  503  502 -0.40834542506E+00  0.21626367633E+02  0.30485644823E+01  0.21843998453E+02  0.00000000000E+00 0.  1.
         21    1    1    2  504  501  0.40834542506E+00 -0.21626367633E+02  0.20535078747E+02  0.29825425095E+02  0.00000000000E+00 0.  1.
</event>
<event>
 4    1  0.2825993E+006  0.3218992E+02  0.7546771E-02  0.1401474E+00
         21   -1    0    0  502  501  0.00000000000E+00  0.00000000000E+00  0.29757837770E+03  0.29757837770E+03  0.00000000000E+00 0.  1.
         21   -1    0    0  504  502 -0.00000000000E+00 -0.00000000000E+00 -0.91000154503E+01  0.91000154503E+01  0.00000000000E+00 0.  1.
         21    1    1    2  503  501  0.36153478508E+01 -0.31986251942E+02  0.26472073977E+03  0.26667069790E+03  0.00000000000E+00 0.  1.
         21    1    1    2  504  503 -0.36153478508E+01  0.31986251942E+02  0.23757622477E+02  0.40007695249E+02  0.00000000000E+00 0.  1.
</event>
<event>
 4    1  0.2825993E+006  0.2604358E+02  0.7546771E-02  0.1457459E+00
         21   -1    0    0  502  501  0.00000000000E+00  0.00000000000E+00  0.40753014749E+01  0.40753014749E+01  0.00000000000E+00 0. -1.
         21   -1    0    0  503  502 -0.00000000000E+00 -0.00000000000E+00 -0.27363415144E+03  0.27363415144E+03  0.00000000000E+00 0. -1.
         21    1    1    2  503  504 -0.23615718525E+02  0.10980246676E+02 -0.22169019312E+03  0.22321471660E+03  0.00000000000E+00 0. -1.
         21    1    1    2  504  501  0.23615718525E+02 -0.10980246676E+02 -0.47868656841E+02  0.54494736317E+02  0.00000000000E+00 0. -1.
</event>
<event>
 4    1  0.2825993E+006  0.2365331E+02  0.7546771E-02  0.1484454E+00
         21   -1    0    0  503  501  0.00000000000E+00  0.00000000000E+00  0.16604516488E+02  0.16604516488E+02  0.00000000000E+00 0.  1.
         21   -1    0    0  501  502 -0.00000000000E+00 -0.00000000000E+00 -0.66960059980E+02  0.66960059980E+02  0.00000000000E+00 0.  1.
         21    1    1    2  503  504 -0.59306809321E+01  0.22897726808E+02  0.42720393770E+01  0.24035997790E+02  0.00000000000E+00 0.  1.
         21    1    1    2  504  502  0.59306809321E+01 -0.22897726808E+02 -0.54627582869E+02  0.59528578678E+02  0.00000000000E+00 0.  1.
</event>
<event>
 4    1  0.2825993E+006  0.2235072E+02  0.7546771E-02  0.1500816E+00
         21   -1    0    0  503  501  0.00000000000E+00  0.00000000000E+00  0.73507153097E+01  0.73507153097E+01  0.00000000000E+00 0. -1.
         21   -1    0    0  504  502 -0.00000000000E+00 -0.00000000000E+00 -0.67975027262E+02  0.67975027262E+02  0.00000000000E+00 0. -1.
         21    1    1    2  503  502  0.22063189949E+02  0.35735466104E+01 -0.30872210693E+02  0.38113619340E+02  0.00000000000E+00 0. -1.
         21    1    1    2  504  501 -0.22063189949E+02 -0.35735466104E+01 -0.29752101259E+02  0.37212123232E+02  0.00000000000E+00 0. -1.
</event>
<event>
 4    1  0.2825993E+006  0.2275956E+02  0.7546771E-02  0.1495540E+00
         21   -1    0    0  502  501  0.00000000000E+00  0.00000000000E+00  0.47018845089E+03  0.47018845089E+03  0.00000000000E+00 0.  1.
         21   -1    0    0  503  502 -0.00000000000E+00 -0.00000000000E+00 -0.36569542570E+01  0.36569542570E+01  0.00000000000E+00 0.  1.
         21    1    1    2  503  504 -0.20693805458E+02 -0.94743892029E+01  0.35219966188E+02  0.41933800846E+02  0.00000000000E+00 0.  1.
         21    1    1    2  504  501  0.20693805458E+02  0.94743892029E+01  0.43131153045E+03  0.43191160430E+03  0.00000000000E+00 0.  1.
</event>
<event>
 4    1  0.2825993E+006  0.2406807E+02  0.7546771E-02  0.1479505E+00
         21   -1    0    0  504  501  0.00000000000E+00  0.00000000000E+00  0.11448857780E+02  0.11448857780E+02  0.00000000000E+00 0. -1.
         21   -1    0    0  503  502 -0.00000000000E+00 -0.00000000000E+00 -0.83891395675E+02  0.83891395675E+02  0.00000000000E+00 0.  1.
         21    1    1    2  503  501 -0.24038411405E+02  0.11943751413E+01 -0.61897954758E+01  0.24851264010E+02  0.00000000000E+00 0. -1.
         21    1    1    2  504  502  0.24038411405E+02 -0.11943751413E+01 -0.66252742419E+02  0.70488989445E+02  0.00000000000E+00 0.  1.
</event>
<event>
 4    1  0.2825993E+006  0.2089361E+02  0.7546771E-02  0.1520789E+00
         21   -1    0    0  504  501  0.00000000000E+00  0.00000000000E+00  0.14039159237E+03  0.14039159237E+03  0.00000000000E+00 0.  1.
         21   -1    0    0  501  502 -0.00000000000E+00 -0.00000000000E+00 -0.13572483438E+02  0.13572483438E+02  0.00000000000E+00 0. -1.
         21    1    1    2  503  502  0.18462075146E+02  0.97823683995E+01 -0.41813422558E+01  0.21307899316E+02  0.00000000000E+00 0. -1.
         21    1    1    2  504  503 -0.18462075146E+02 -0.97823683995E+01  0.13100045119E+03  0.13265617649E+03  0.00000000000E+00 0.  1.
</event>
<event>
 4    1  0.2825993E+006  0.2149005E+02  0.7546771E-02  0.1512382E+00
         21   -1    0    0  502  501  0.00000000000E+00  0.00000000000E+00  0.68195510409E+02  0.68195510409E+02  0.00000000000E+00 0.  1.
         21   -1    0    0  503  502 -0.00000000000E+00 -0.00000000000E+00 -0.59802892945E+03  0.59802892945E+03  0.00000000000E+00 0. -1.
         21    1    1    2  503  504 -0.13990711272E+01 -0.21444464563E+02 -0.59613749029E+03  0.59652471012E+03  0.00000000000E+00 0. -1.
         21    1    1    2  504  501  0.13990711272E+01  0.21444464563E+02  0.66304071251E+02  0.69699729733E+02  0.00000000000E+00 0.  1.
</event>
<event>
 4    1  0.2825993E+006  0.2778671E+02  0.7546771E-02  0.1439862E+00
         21   -1    0    0  503  501  0.00000000000E+00  0.00000000000E+00  0.99499747275E+02  0.99499747275E+02  0.00000000000E+00 0. -1.
         21   -1    0    0  504  502 -0.00000000000E+00 -0.00000000000E+00 -0.10835378669E+02  0.10835378669E+02  0.00000000000E+00 0. -1.
         21    1    1    2  503  502  0.25658417415E+02  0.10665222665E+02  0.14940607346E+02  0.31548741760E+02  0.00000000000E+00 0. -1.
         21    1    1    2  504  501 -0.25658417415E+02 -0.10665222665E+02  0.73723761259E+02  0.78786384185E+02  0.00000000000E+00 0. -1.
</event>
<event>
 4    1  0.2825993E+006  0.3008289E+02  0.7546771E-02  0.1418878E+00
         21   -1    0    0  502  501  0.00000000000E+00  0.00000000000E+00  0.11008280214E+02  0.11008280214E+02  0.00000000000E+00 0. -1.
         21   -1    0    0  504  502 -0.00000000000E+00 -0.00000000000E+00 -0.15391954376E+03  0.15391954376E+03  0.00000000000E+00 0. -1.
         21    1    1    2  503  501  0.22186407429E+02  0.20316088763E+02 -0.15168588054E+02  0.33690743548E+02  0.00000000000E+00 0. -1.
         21    1    1    2  504  503 -0.22186407429E+02 -0.20316088763E+02 -0.12774267549E+03  0.13123708043E+03  0.00000000000E+00 0. -1.
</event>
<event>
 4    1  0.2825993E+006  0.2695130E+02  0.7546771E-02  0.1448098E+00
         21   -1    0    0  503  501  0.00000000000E+00  0.00000000000E+00  0.38113730545E+03  0.38113730545E+03  0.00000000000E+00 0. -1.
         21   -1    0    0  504  502 -0.00000000000E+00 -0.00000000000E+00 -0.25102611508E+01  0.25102611508E+01  0.00000000000E+00 0. -1.
         21    1    1    2  503  502  0.22724758505E+01  0.26855319269E+02  0.28344316313E+03  0.28472161675E+03  0.00000000000E+00 0. -1.
         21    1    1    2  504  501 -0.22724758505E+01 -0.26855319269E+02  0.95183881175E+02  0.98925949857E+02  0.00000000000E+00 0. -1.
</event>
<event>
 4    1  0.2825993E+006  0.2120753E+02  0.7546771E-02  0.1516322E+00
         21   -1    0    0  503  501  0.00000000000E+00  0.00000000000E+00  0.87105626922E+02  0.87105626922E+02  0.00000000000E+00 0. -1.
         21   -1    0    0  504  502 -0.00000000000E+00 -0.00000000000E+00 -0.91930089685E+01  0.91930089685E+01  0.00000000000E+00 0. -1.
         21    1    1    2  503  502  0.20107858535E+02  0.67404396191E+01  0.70834509431E+02  0.73941106479E+02  0.00000000000E+00 0. -1.
         21    1    1    2  504  501 -0.20107858535E+02 -0.67404396191E+01  0.70781085228E+01  0.22357529411E+02  0.00000000000E+00 0. -1.
</event>
<event>
 4    1  0.2825993E+006  0.2260958E+02  0.7546771E-02  0.1497460E+00
         21   -1    0    0  502  501  0.00000000000E+00  0.00000000000E+00  0.67146976879E+02  0.67146976879E+02  0.00000000000E+00 0. -1.
         21   -1    0    0  504  502 -0.00000000000E+00 -0.00000000000E+00 -0.10932486166E+02  0.10932486166E+02  0.00000000000E+00 0. -1.
         21    1    1    2  503  501  0.21066853924E+01 -0.22511222827E+02  0.49619182995E+02  0.54527576488E+02  0.00000000000E+00 0. -1.
         21    1    1    2  504  503 -0.21066853924E+01  0.22511222827E+02  0.65953077174E+01  0.23551886557E+02  0.00000000000E+00 0. -1.
</event>
<event>
 4    1  0.2825993E+006  0.2344916E+02  0.7546771E-02  0.1486934E+00
         21   -1    0    0  504  501  0.00000000000E+00  0.00000000000E+00  0.21057949281E+02  0.21057949281E+02  0.00000000000E+00 0.  1.
         21   -1    0    0  503  502 -0.00000000000E+00 -0.00000000000E+00 -0.89631501526E+02  0.89631501526E+02  0.00000000000E+00 0. -1.
         21    1    1    2  503  501 -0.21604821160E+02  0.91156397183E+01 -0.80877532842E+02  0.84208304243E+02  0.00000000000E+00 0. -1.
         21    1    1    2  504  502  0.21604821160E+02 -0.91156397183E+01  0.12303980597E+02  0.26481146565E+02  0.00000000000E+00 0.  1.
</event>
<event>
 4    1  0.2825993E+006  0.2057511E+02  0.7546771E-02  0.1525419E+00
         21   -1    0    0  504  501  0.00000000000E+00  0.00000000000E+00  0.66543552545E+01  0.66543552545E+01  0.00000000000E+00 0.  1.
         21   -1    0    0  503  502 -0.00000000000E+00 -0.00000000000E+00 -0.42387885880E+03  0.42387885880E+03  0.00000000000E+00 0. -1.
         21    1    1    2  503  501  0.19844171753E+02  0.54354271964E+01 -0.40706836711E+03  0.40758801567E+03  0.00000000000E+00 0. -1.
         21    1    1    2  504  502 -0.19844171753E+02 -0.54354271964E+01 -0.10156136438E+02  0.22945198381E+02  0.00000000000E+00 0.  1.
</event>
<event>
 4    1  0.2825993E+006  0.2422157E+02  0.7546771E-02  0.1477703E+00
         21   -1    0    0  504  501  0.00000000000E+00  0.00000000000E+00  0.10067526595E+02  0.10067526595E+02  0.00000000000E+00 0.  1.
         21   -1    0    0  503  502 -0.00000000000E+00 -0.00000000000E+00 -0.66128219857E+02  0.66128219857E+02  0.00000000000E+00 0.  1.
         21    1    1    2  503  501  0.16801040889E+02 -0.17447332924E+02 -0.14901301304E+02  0.28438234503E+02  0.00000000000E+00 0.  1.
         21    1    1    2  504  502 -0.16801040889E+02  0.17447332924E+02 -0.41159391959E+02  0.47757511949E+02  0.00000000000E+00 0.  1.
</event>
<event>
 4    1  0.2825993E+006  0.3263571E+02  0.7546771E-02  0.1397993E+00
         21   -1    0    0  504  501  0.00000000000E+00  0.00000000000E+00  0.13130113092E+03  0.13130113092E+03  0.00000000000E+00 0. -1.
         21   -1    0    0  503  502 -0.00000000000E+00 -0.00000000000E+00 -0.25515504762E+02  0.25515504762E+02  0.00000000000E+00 0.  1.
         21    1    1    2  503  501 -0.28992111953E+02 -0.14984886100E+02 -0.11863308106E+02  0.34725026223E+02  0.00000000000E+00 0.  1.
         21    1    1    2  504  502  0.28992111953E+02  0.14984886100E+02  0.11764893426E+03  0.12209160945E+03  0.00000000000E+00 0. -1.
</event>
<event>
 4    1  0.2825993E+006  0.4227636E+02  0.7546771E-02  0.1335639E+00
         21   -1    0    0  503  501  0.00000000000E+00  0.00000000000E+00  0.15426462463E+03  0.15426462463E+03  0.00000000000E+00 0.  1.
         21   -1    0    0  504  502 -0.00000000000E+00 -0.00000000000E+00 -0.18708422037E+02  0.18708422037E+02  0.00000000000E+00 0.  1.
         21    1    1    2  503  502 -0.14667496454E+02  0.39650410126E+02  0.12114200098E+03  0.12830695568E+03  0.00000000000E+00 0.  1.
         21    1    1    2  504  501  0.14667496454E+02 -0.39650410126E+02  0.14414201609E+02  0.44666090980E+02  0.00000000000E+00 0.  1.
</event>
<event>
 4    1  0.2825993E+006  0.2945404E+02  0.7546771E-02  0.1424401E+00
         21   -1    0    0  502  501  0.00000000000E+00  0.00000000000E+00  0.90453052925E+02  0.90453052925E+02  0.00000000000E+00 0.  1.
         21   -1    0    0  503  502 -0.00000000000E+00 -0.00000000000E+00 -0.11643052757E+02  0.11643052757E+02  0.00000000000E+00 0.  1.
         21    1    1    2  503  504 -0.25041954192E+02 -0.15506158200E+02  0.17974418952E+02  0.34505364055E+02  0.00000000000E+00 0.  1.
         21    1    1    2  504  501  0.25041954192E+02  0.15506158200E+02  0.60835581215E+02  0.67590741627E+02  0.00000000000E+00 0.  1.
</event>
<event>
 4    1  0.2825993E+006  0.2052436E+02  0.7546771E-02  0.1526165E+00
         21   -1    0    0  504  501  0.00000000000E+00  0.00000000000E+00  0.60144905509E+01  0.60144905509E+01  0.00000000000E+00 0. -1.
         21   -1    0    0  503  502 -0.00000000000E+00 -0.00000000000E+00 -0.12181514379E+03  0.12181514379E+03  0.00000000000E+00 0. -1.
         21    1    1    2  503  501  0.20291065107E+02  0.30857919216E+01 -0.99569548462E+02  0.10166289596E+03  0.00000000000E+00 0. -1.
         21    1    1    2  504  502 -0.20291065107E+02 -0.30857919216E+01 -0.16231104776E+02  0.26166738375E+02  0.00000000000E+00 0. -1.
</event>
<event>
 4    1  0.2825993E+006  0.3592145E+02  0.7546771E-02  0.1374198E+00
         21   -1    0    0  504  501  0.00000000000E+00  0.00000000000E+00  0.89056778434E+02  0.89056778434E+02  0.00000000000E+00 0.  1.
         21   -1    0    0  501  502 -0.00000000000E+00 -0.00000000000E+00 -0.51521774625E+03  0.51521774625E+03  0.00000000000E+00 0. -1.
         21    1    1    2  503  502  0.22358839352E+02 -0.28114638994E+02 -0.51093906157E+03  0.51220022966E+03  0.00000000000E+00 0. -1.
         21    1    1    2  504  503 -0.22358839352E+02  0.28114638994E+02  0.84778093757E+02  0.92074295023E+02  0.00000000000E+00 0.  1.
</event>
<event>
 4    1  0.2825993E+006  0.2906169E+02  0.7546771E-02  0.1427929E+00
         21   -1    0    0  503  501  0.00000000000E+00  0.00000000000E+00  0.16182957351E+02  0.16182957351E+02  0.00000000000E+00 0.  1.
         21   -1    0    0  504  502 -0.00000000000E+00 -0.00000000000E+00 -0.10534953204E+03  0.10534953204E+03  0.00000000000E+00 0. -1.
         21    1    1    2  503  502  0.94234247946E+01  0.27491467941E+02 -0.87748947151E+02  0.92436245437E+02  0.00000000000E+00 0. -1.
         21    1    1    2  504  501 -0.94234247946E+01 -0.27491467941E+02 -0.14176275389E+01  0.29096243955E+02  0.00000000000E+00 0.  1.
</event>
<event>
 4    1  0.2825993E+006  0.2302090E+02  0.7546771E-02  0.1492236E+00
         21   -1    0    0  504  501  0.00000000000E+00  0.00000000000E+00  0.46944164526E+02  0.46944164526E+02  0.00000000000E+00 0.  1.
         21   -1    0    0  503  502 -0.00000000000E+00 -0.00000000000E+00 -0.29752534460E+02  0.29752534460E+02  0.00000000000E+00 0.  1.
         21    1    1    2  503  501  0.17182183445E+02 -0.15321042162E+02 -0.21613427592E+02  0.31576922161E+02  0.00000000000E+00 0.  1.
         21    1    1    2  504  502 -0.17182183445E+02  0.15321042162E+02  0.38805057658E+02  0.45119776825E+02  0.00000000000E+00 0.  1.
</event>
<event>
 4    1  0.2825993E+006  0.3858379E+02  0.7546771E-02  0.1356991E+00
         21   -1    0    0  503  501  0.00000000000E+00  0.00000000000E+00  0.20380714579E+03  0.20380714579E+03  0.00000000000E+00 0.  1.
         21   -1    0    0  504  502 -0.00000000000E+00 -0.00000000000E+00 -0.11685884347E+04  0.11685884347E+04  0.00000000000E+00 0.  1.
         21    1    1    2  503  502  0.78698307652E+01 -0.37772668702E+02  0.20165917524E+03  0.20531714905E+03  0.00000000000E+00 0.  1.
         21    1    1    2  504  501 -0.78698307652E+01  0.37772668702E+02 -0.11664404641E+04  0.11670784314E+04  0.00000000000E+00 0.  1.
</event>
<event>
 4    1  0.2825993E+006  0.4667175E+02  0.7546771E-02  0.1313285E+00
         21   -1    0    0  503  501  0.00000000000E+00  0.00000000000E+00  0.61748584707E+03  0.61748584707E+03  0.00000000000E+00 0. -1.
         21   -1    0    0  504  502 -0.00000000000E+00 -0.00000000000E+00 -0.80912093302E+01  0.80912093302E+01  0.00000000000E+00 0. -1.
         21    1    1    2  503  502  0.70451745825E+01  0.46136942446E+02  0.69789407073E+02  0.83957211023E+02  0.00000000000E+00 0. -1.
         21    1    1    2  504  501 -0.70451745825E+01 -0.46136942446E+02  0.53960523066E+03  0.54161984537E+03  0.00000000000E+00 0. -1.
</event>
<event>
 4    1  0.2825993E+006  0.2028258E+02  0.7546771E-02  0.1529759E+00
         21   -1    0    0  504  501  0.00000000000E+00  0.00000000000E+00  0.13836851064E+02  0.13836851064E+02  0.00000000000E+00 0.  1.
         21   -1    0    0  503  502 -0.00000000000E+00 -0.00000000000E+00 -0.52838386866E+02  0.52838386866E+02  0.00000000000E+00 0.  1.
         21    1    1    2  503  501  0.62464206260E+01  0.19296765638E+02  0.25455238259E+01  0.20441688440E+02  0.00000000000E+00 0.  1.
         21    1    1    2  504  502 -0.62464206260E+01 -0.19296765638E+02 -0.41547059628E+02  0.46233549490E+02  0.00000000000E+00 0.  1.
</event>
<event>
 4    1  0.2825993E+006  0.3604703E+02  0.7546771E-02  0.1373348E+00
         21   -1    0    0  504  501  0.00000000000E+00  0.00000000000E+00  0.24999737076E+02  0.24999737076E+02  0.00000000000E+00 0.  1.
         21   -1    0    0  503  502 -0.00000000000E+00 -0.00000000000E+00 -0.90452206172E+02  0.90452206172E+02  0.00000000000E+00 0.  1.
         21    1    1    2  503  501  0.79271566329E+00  0.36038314025E+02  0.49231002818E+01  0.36381662858E+02  0.00000000000E+00 0.  1.
         21    1    1    2  504  502 -0.79271566329E+00 -0.36038314025E+02 -0.70375569377E+02  0.79070280391E+02  0.00000000000E+00 0.  1.
</event>
<event>
 4    1  0.2825993E+006  0.2200549E+02  0.7546771E-02  0.1505379E+00
         21   -1    0    0  504  501  0.00000000000E+00  0.00000000000E+00  0.11320551690E+02  0.11320551690E+02  0.00000000000E+00 0.  1.
         21   -1    0    0  501  502 -0.00000000000E+00 -0.00000000000E+00 -0.53852020727E+02  0.53852020727E+02  0.00000000000E+00 0. -1.
         21    1    1    2  503  502 -0.18296090147E+02 -0.12226796587E+02 -0.36044457708E+02  0.42230846557E+02  0.00000000000E+00 0. -1.
         21    1    1    2  504  503  0.18296090147E+02  0.12226796587E+02 -0.64870113288E+01  0.22941725859E+02  0.00000000000E+00 0.  1.
</event>
<event>
 4    1  0.2825993E+006  0.4000489E+02  0.7546771E-02  0.1348457E+00
         21   -1    0    0  504  501  0.00000000000E+00  0.00000000000E+00  0.75489120346E+01  0.75489120346E+01  0.00000000000E+00 0.  1.
         21   -1    0    0  501  502 -0.00000000000E+00 -0.00000000000E+00 -0.28104445106E+03  0.28104445106E+03  0.00000000000E+00 0.  1.
         21    1    1    2  503  502 -0.21392127672E+02  0.33804851046E+02 -0.20826722076E+03  0.21207457727E+03  0.00000000000E+00 0.  1.
         21    1    1    2  504  503  0.21392127672E+02 -0.33804851046E+02 -0.65228318269E+02  0.76518785829E+02  0.00000000000E+00 0.  1.
</event>
<event>
 4    1  0.2825993E+006  0.2056057E+02  0.7546771E-02  0.1525632E+00
         21   -1    0    0  504  501  0.00000000000E+00  0.00000000000E+00  0.83443743110E+01  0.83443743110E+01  0.00000000000E+00 0. -1.
         21   -1    0    0  503  502 -0.00000000000E+00 -0.00000000000E+00 -0.21347478531E+03  0.21347478531E+03  0.00000000000E+00 0. -1.
         21    1    1    2  503  501 -0.68814875541E+01  0.19374783873E+02 -0.19942441282E+03  0.20048150426E+03  0.00000000000E+00 0. -1.
         21    1    1    2  504  502  0.68814875541E+01 -0.19374783873E+02 -0.57059981767E+01  0.21337655360E+02  0.00000000000E+00 0. -1.
</event>
<event>
 4    1  0.2825993E+006  0.2158813E+02  0.7546771E-02  0.1511031E+00
         21   -1    0    0  503  501  0.00000000000E+00  0.00000000000E+00  0.77280301207E+02  0.77280301207E+02  0.00000000000E+00 0.  1.
         21   -1    0    0  504  502 -0.00000000000E+00 -0.00000000000E+00 -0.85767013974E+01  0.85767013974E+01  0.00000000000E+00 0.  1.
         21    1    1    2  503  502  0.15345259775E+02  0.15184537440E+02  0.57741398997E+02  0.61645083608E+02  0.00000000000E+00 0.  1.
         21    1    1    2  504  501 -0.15345259775E+02 -0.15184537440E+02  0.10962200812E+02  0.24211918996E+02  0.00000000000E+00 0.  1.
</event>
<event>
 4    1  0.2825993E+006  0.2671686E+02  0.7546771E-02  0.1450473E+00
         21   -1    0    0  503  501  0.00000000000E+00  0.00000000000E+00  0.36465594398E+02  0.36465594398E+02  0.00000000000E+00 0.  1.
         21   -1    0    0  504  502 -0.00000000000E+00 -0.00000000000E+00 -0.22899244881E+02  0.22899244881E+02  0.00000000000E+00 0.  1.
         21    1    1    2  503  502  0.25617797818E+02 -0.75841364227E+01 -0.45271999815E+01  0.27097716324E+02  0.00000000000E+00 0.  1.
         21    1    1    2  504  501 -0.25617797818E+02  0.75841364227E+01  0.18093549498E+02  0.32267122954E+02  0.00000000000E+00 0.  1.
</event>
<event>
 4    1  0.2825993E+006  0.2333673E+02  0.7546771E-02  0.1488313E+00
         21   -1    0    0  503  501  0.00000000000E+00  0.00000000000E+00  0.13638358173E+03  0.13638358173E+03  0.00000000000E+00 0.  1.
         21   -1    0    0  501  502 -0.00000000000E+00 -0.00000000000E+00 -0.70530798904E+03  0.70530798904E+03  0.00000000000E+00 0. -1.
         21    1    1    2  503  504  0.88724786760E+01 -0.21584303785E+02  0.13519056051E+03  0.13718998031E+03  0.00000000000E+00 0.  1.
         21    1    1    2  504  502 -0.88724786760E+01  0.21584303785E+02 -0.70411496782E+03  0.70450159046E+03  0.00000000000E+00 0. -1.
</event>
<event>
 4    1  0.2825993E+006  0.2107141E+02  0.7546771E-02  0.1518248E+00
         21   -1    0    0  503  501  0.00000000000E+00  0.00000000000E+00  0.99921907463E+01  0.99921907463E+01  0.00000000000E+00 0. -1.
         21   -1    0    0  504  502 -0.00000000000E+00 -0.00000000000E+00 -0.13078835924E+03  0.13078835924E+03  0.00000000000E+00 0. -1.
         21    1    1    2  503  502 -0.20928266504E+02  0.24519283464E+01 -0.32018536516E+01  0.21313285957E+02  0.00000000000E+00 0. -1.
         21    1    1    2  504  501  0.20928266504E+02 -0.24519283464E+01 -0.11759431484E+03  0.11946726403E+03  0.00000000000E+00 0. -1.
</event>
<event>
 4    1  0.2825993E+006  0.2300225E+02  0.7546771E-02  0.1492470E+00
         21   -1    0    0  503  501  0.00000000000E+00  0.00000000000E+00  0.15802437600E+02  0.15802437600E+02  0.00000000000E+00 0. -1.
         21   -1    0    0  504  502 -0.00000000000E+00 -0.00000000000E+00 -0.63790260379E+02  0.63790260379E+02  0.00000000000E+00 0. -1.
         21    1    1    2  503  502 -0.22758804019E+01 -0.22889387429E+02 -0.51425036025E+02  0.56335051422E+02  0.00000000000E+00 0. -1.
         21    1    1    2  504  501  0.22758804019E+01  0.22889387429E+02  0.34372132456E+01  0.23257646557E+02  0.00000000000E+00 0. -1.
</event>
<event>
 4    1  0.2825993E+006  0.2983001E+02  0.7546771E-02  0.1421080E+00
         21   -1    0    0  503  501  0.00000000000E+00  0.00000000000E+00  0.50289410900E+02  0.50289410900E+02  0.00000000000E+00 0.  1.
         21   -1    0    0  501  502 -0.00000000000E+00 -0.00000000000E+00 -0.16730743351E+03  0.16730743351E+03  0.00000000000E+00 0.  1.
         21    1    1    2  503  504  0.24354443012E+02 -0.17224706837E+02  0.44375506343E+02  0.53469757651E+02  0.00000000000E+00 0.  1.
         21    1    1    2  504  502 -0.24354443012E+02  0.17224706837E+02 -0.16139352896E+03  0.16412708676E+03  0.00000000000E+00 0.  1.
</event>
<event>
 4    1  0.2825993E+006  0.2647057E+02  0.7546771E-02  0.1453000E+00
         21   -1    0    0  502  501  0.00000000000E+00  0.00000000000E+00  0.11947630146E+03  0.11947630146E+03  0.00000000000E+00 0. -1.
         21   -1    0    0  503  502 -0.00000000000E+00 -0.00000000000E+00 -0.20345750468E+03  0.20345750468E+03  0.00000000000E+00 0. -1.
         21    1    1    2  503  504 -0.25140767683E+02 -0.82845021914E+01 -0.20111333678E+03  0.20284788736E+03  0.00000000000E+00 0. -1.
         21    1    1    2  504  501  0.25140767683E+02  0.82845021914E+01  0.11713213356E+03  0.12008591878E+03  0.00000000000E+00 0. -1.
</event>
<event>
 4    1  0.2825993E+006  0.2008166E+02  0.7546771E-02  0.1532791E+00
         21   -1    0    0  504  501  0.00000000000E+00  0.00000000000E+00  0.90423703345E+02  0.90423703345E+02  0.00000000000E+00 0.  1.
         21   -1    0    0  503  502 -0.00000000000E+00 -0.00000000000E+00 -0.67913154429E+01  0.67913154429E+01  0.00000000000E+00 0. -1.
         21    1    1    2  503  501 -0.18144451106E+02  0.86053423322E+01  0.70296465992E+02  0.73108591516E+02  0.00000000000E+00 0.  1.
         21    1    1    2  504  502  0.18144451106E+02 -0.86053423322E+01  0.13335921911E+02  0.24106427272E+02  0.00000000000E+00 0. -1.
</event>
<event>
 4    1  0.2825993E+006  0.2387512E+02  0.7546771E-02  0.1481792E+00
         21   -1    0    0  504  501  0.00000000000E+00  0.00000000000E+00  0.16871197727E+02  0.16871197727E+02  0.00000000000E+00 0.  1.
         21   -1    0    0  503  502 -0.00000000000E+00 -0.00000000000E+00 -0.10137649052E+03  0.10137649052E+03  0.00000000000E+00 0. -1.
         21    1    1    2  503  501  0.18498885330E+01  0.23803350014E+02 -0.90529025548E+02  0.93624387988E+02  0.00000000000E+00 0. -1.
         21    1    1    2  504  502 -0.18498885330E+01 -0.23803350014E+02  0.60237327528E+01  0.24623300261E+02  0.00000000000E+00 0.  1.
</event>
<event>
 4    1  0.2825993E+006  0.3413017E+02  0.7546771E-02  0.1386784E+00
         21   -1    0    0  502  501  0.00000000000E+00  0.00000000000E+00  0.79564047591E+03  0.79564047591E+03  0.00000000000E+00 0.  1.
         21   -1    0    0  503  502 -0.00000000000E+00 -0.00000000000E+00 -0.12578806392E+02  0.12578806392E+02  0.00000000000E+00 0. -1.
         21    1    1    2  503  504 -0.29941016408E+02 -0.16383032657E+02  0.11665900721E+02  0.36068843372E+02  0.00000000000E+00 0. -1.
         21    1    1    2  504  501  0.29941016408E+02  0.16383032657E+02  0.77139576880E+03  0.77215043893E+03  0.00000000000E+00 0.  1.
</event>
<event>
 4    1  0.2825993E+006  0.2177166E+02  0.7546771E-02  0.1508527E+00
         21   -1    0    0  503  501  0.00000000000E+00  0.00000000000E+00  0.27601416309E+03  0.27601416309E+03  0.00000000000E+00 0. -1.
         21   -1    0    0  501  502 -0.00000000000E+00 -0.00000000000E+00 -0.73628909112E+01  0.73628909112E+01  0.00000000000E+00 0. -1.
         21    1    1    2  503  504 -0.97548793609E+00 -0.21749797289E+02  0.25839494121E+03  0.25931052987E+03  0.00000000000E+00 0. -1.
         21    1    1    2  504  502  0.97548793609E+00  0.21749797289E+02  0.10256330971E+02  0.24066524132E+02  0.00000000000E+00 0. -1.
</event>
<event>
 4    1  0.2825993E+006  0.2074915E+02  0.7546771E-02  0.1522877E+00
         21   -1    0    0  502  501  0.00000000000E+00  0.00000000000E+00  0.21933774560E+03  0.21933774560E+03  0.00000000000E+00 0.  1.
         21   -1    0    0  503  502 -0.00000000000E+00 -0.00000000000E+00 -0.71395836302E+01  0.71395836302E+01  0.00000000000E+00 0.  1.
         21    1    1    2  503  504  0.75491194933E+01 -0.19327135024E+02  0.96748560869E+01  0.22893889877E+02  0.00000000000E+00 0.  1.
         21    1    1    2  504  501 -0.75491194933E+01  0.19327135024E+02  0.20252330589E+03  0.20358343936E+03  0.00000000000E+00 0.  1.
</event>
<event>
 4    1  0.2825993E+006  0.3319114E+02  0.7546771E-02  0.1393746E+00
         21   -1    0    0  503  501  0.00000000000E+00  0.00000000000E+00  0.28816152615E+03  0.28816152615E+03  0.00000000000E+00 0.  1.
         21   -1    0    0  504  502 -0.00000000000E+00 -0.00000000000E+00 -0.78027314576E+01  0.78027314576E+01  0.00000000000E+00 0.  1.
         21    1    1    2  503  502 -0.28499703600E+02  0.17012315399E+02  0.24586378677E+03  0.24809404190E+03  0.00000000000E+00 0.  1.
         21    1    1    2  504  501  0.28499703600E+02 -0.17012315399E+02  0.34495007923E+02  0.47870215710E+02  0.00000000000E+00 0.  1.
</event>
<event>
 4    1  0.2825993E+006  0.2973146E+02  0.7546771E-02  0.1421945E+00
         21   -1    0    0  503  501  0.00000000000E+00  0.00000000000E+00  0.42613935599E+01  0.42613935599E+01  0.00000000000E+00 0.  1.
         21   -1    0    0  504  502 -0.00000000000E+00 -0.00000000000E+00 -0.40100256233E+03  0.40100256233E+03  0.00000000000E+00 0. -1.
         21    1    1    2  503  502 -0.16533536983E+02  0.24710364751E+02 -0.57587239341E+02  0.64809336566E+02  0.00000000000E+00 0.  1.
         21    1    1    2  504  501  0.16533536983E+02 -0.24710364751E+02 -0.33915392943E+03  0.34045461932E+03  0.00000000000E+00 0. -1.
</event>
<event>
 4    1  0.2825993E+006  0.2015747E+02  0.7546771E-02  0.1531642E+00
         21   -1    0    0  504  501  0.00000000000E+00  0.00000000000E+00  0.41304880053E+02  0.41304880053E+02  0.00000000000E+00 0. -1.
         21   -1    0    0  503  502 -0.00000000000E+00 -0.00000000000E+00 -0.14109954856E+03  0.14109954856E+03  0.00000000000E+00 0. -1.
         21    1    1    2  503  501 -0.10981901970E+02 -0.16903291580E+02  0.38068230042E+02  0.43075672666E+02  0.00000000000E+00 0. -1.
         21    1    1    2  504  502  0.10981901970E+02  0.16903291580E+02 -0.13786289855E+03  0.13932875595E+03  0.00000000000E+00 0. -1.
</event>
<event>
 4    1  0.2825993E+006  0.2402352E+02  0.7546771E-02  0.1480031E+00
         21   -1    0    0  504  501  0.00000000000E+00  0.00000000000E+00  0.13295094023E+02  0.13295094023E+02  0.00000000000E+00 0.  1.
         21   -1    0    0  503  502 -0.00000000000E+00 -0.00000000000E+00 -0.88717281609E+02  0.88717281609E+02  0.00000000000E+00 0. -1.
         21    1    1    2  503  501 -0.94943553433E+01  0.22067780650E+02 -0.74161843947E+02  0.77955813278E+02  0.00000000000E+00 0. -1.
         21    1    1    2  504  502  0.94943553433E+01 -0.22067780650E+02 -0.12603436387E+01  0.24056562354E+02  0.00000000000E+00 0.  1.
</event>
<event>
 4    1  0.2825993E+006  0.2000276E+02  0.7546771E-02  0.1533993E+00
         21   -1    0    0  504  501  0.00000000000E+00  0.00000000000E+00  0.23357513738E+02  0.23357513738E+02  0.00000000000E+00 0.  1.
         21   -1    0    0  503  502 -0.00000000000E+00 -0.00000000000E+00 -0.21789561436E+03  0.21789561436E+03  0.00000000000E+00 0. -1.
         21    1    1    2  503  501 -0.20002529090E+02 -0.95245641889E-01 -0.21305705304E+03  0.21399396742E+03  0.00000000000E+00 0. -1.
         21    1    1    2  504  502  0.20002529090E+02  0.95245641889E-01  0.18518952424E+02  0.27259160673E+02  0.00000000000E+00 0.  1.
</event>
<event>
 4    1  0.2825993E+006  0.2013237E+02  0.7546771E-02  0.1532022E+00
         21   -1    0    0  503  501  0.00000000000E+00  0.00000000000E+00  0.85551789495E+02  0.85551789495E+02  0.00000000000E+00 0. -1.
         21   -1    0    0  504  502 -0.00000000000E+00 -0.00000000000E+00 -0.92984215822E+01  0.92984215822E+01  0.00000000000E+00 0. -1.
         21    1    1    2  503  502  0.56772214395E+01  0.19315313659E+02  0.71340907405E+02  0.74127169475E+02  0.00000000000E+00 0. -1.
         21    1    1    2  504  501 -0.56772214395E+01 -0.19315313659E+02  0.49124605082E+01  0.20723041603E+02  0.00000000000E+00 0. -1.
</event>
<event>
 4    1  0.2825993E+006  0.4866400E+02  0.7546771E-02  0.1304071E+00
         21   -1    0    0  502  501  0.00000000000E+00  0.00000000000E+00  0.19348735640E+03  0.19348735640E+03  0.00000000000E+00 0.  1.
         21   -1    0    0  503  502 -0.00000000000E+00 -0.00000000000E+00 -0.55025730219E+02  0.55025730219E+02  0.00000000000E+00 0.  1.
         21    1    1    2  503  504  0.31462561892E+02 -0.37125360067E+02 -0.40338379130E+02  0.63208939175E+02  0.00000000000E+00 0.  1.
         21    1    1    2  504  501 -0.31462561892E+02  0.37125360067E+02  0.17880000531E+03  0.18530414744E+03  0.00000000000E+00 0.  1.
</event>
<event>
 4    1  0.2825993E+006  0.2039799E+02  0.7546771E-02  0.1528036E+00
         21   -1    0    0  504  501  0.00000000000E+00  0.00000000000E+00  0.36689038861E+03  0.36689038861E+03  0.00000000000E+00 0. -1.
         21   -1    0    0  503  502 -0.00000000000E+00 -0.00000000000E+00 -0.47390011152E+01  0.47390011152E+01  0.00000000000E+00 0.  1.
         21    1    1    2  503  501  0.98156557130E+01  0.17881017430E+02  0.34313925677E+03  0.34374500348E+03  0.00000000000E+00 0. -1.
         21    1    1    2  504  502 -0.98156557130E+01 -0.17881017430E+02  0.19012130718E+02  0.27884386238E+02  0.00000000000E+00 0.  1.
</event>
<event>
 4    1  0.2825993E+006  0.3433872E+02  0.7546771E-02  0.1385273E+00
         21   -1    0    0  502  501  0.00000000000E+00  0.00000000000E+00  0.11022196007E+03  0.11022196007E+03  0.00000000000E+00 0. -1.
         21   -1    0    0  503  502 -0.00000000000E+00 -0.00000000000E+00 -0.21310130626E+02  0.21310130626E+02  0.00000000000E+00 0. -1.
         21    1    1    2  503  504  0.34260549498E+02  0.23156461293E+01 -0.19540540158E+01  0.34394269814E+02  0.00000000000E+00 0. -1.
         21    1    1    2  504  501 -0.34260549498E+02 -0.23156461293E+01  0.90865883457E+02  0.97137820880E+02  0.00000000000E+00 0. -1.
</event>
<event>
 4    1  0.2825993E+006  0.2226738E+02  0.7546771E-02  0.1501908E+00
         21   -1    0    0  503  501  0.00000000000E+00  0.00000000000E+00  0.15034758436E+01  0.15034758436E+01  0.00000000000E+00 0.  1.
         21   -1    0    0  504  502 -0.00000000000E+00 -0.00000000000E+00 -0.80217896982E+03  0.80217896982E+03  0.00000000000E+00 0. -1.
         21    1    1    2  503  502  0.34660143479E+01  0.21995973149E+02 -0.91971198514E+02  0.94628417753E+02  0.00000000000E+00 0.  1.
         21    1    1    2  504  501 -0.34660143479E+01 -0.21995973149E+02 -0.70870429546E+03  0.70905402791E+03  0.00000000000E+00 0. -1.
</event>
<event>
 4    1  0.2825993E+006  0.2034615E+02  0.7546771E-02  0.1528808E+00
         21   -1    0    0  502  501  0.00000000000E+00  0.00000000000E+00  0.38448986029E+02  0.38448986029E+02  0.00000000000E+00 0.  1.
         21   -1    0    0  504  502 -0.00000000000E+00 -0.00000000000E+00 -0.85395450035E+02  0.85395450035E+02  0.00000000000E+00 0. -1.
         21    1    1    2  503  501 -0.17557721979E+02 -0.10280671275E+02  0.34413954407E+02  0.39978570020E+02  0.00000000000E+00 0.  1.
         21    1    1    2  504  503  0.17557721979E+02  0.10280671275E+02 -0.81360418413E+02  0.83865866044E+02  0.00000000000E+00 0. -1.
</event>
<event>
 4    1  0.2825993E+006  0.2196307E+02  0.7546771E-02  0.1505946E+00
         21   -1    0    0  503  501  0.00000000000E+00  0.00000000000E+00  0.11606946071E+01  0.11606946071E+01  0.00000000000E+00 0. -1.
         21   -1    0    0  504  502 -0.00000000000E+00 -0.00000000000E+00 -0.47220903026E+03  0.47220903026E+03  0.00000000000E+00 0. -1.
         21    1    1    2  503  502  0.93430220756E+01 -0.19876726759E+02 -0.15356948158E+03  0.15513207922E+03  0.00000000000E+00 0. -1.
         21    1    1    2  504  501 -0.93430220756E+01  0.19876726759E+02 -0.31747885407E+03  0.31823764565E+03  0.00000000000E+00 0. -1.
</event>
<event>
 4    1  0.2825993E+006  0.2237285E+02  0.7546771E-02  0.1500527E+00
         21   -1    0    0  503  501  0.00000000000E+00  0.00000000000E+00  0.71960963312E+02  0.71960963312E+02  0.00000000000E+00 0. -1.
         21   -1    0    0  504  502 -0.00000000000E+00 -0.00000000000E+00 -0.71108513036E+01  0.71108513036E+01  0.00000000000E+00 0. -1.
         21    1    1    2  503  502 -0.17645000064E+02  0.13754933033E+02  0.26586508864E+02  0.34747469887E+02  0.00000000000E+00 0. -1.
         21    1    1    2  504  501  0.17645000064E+02 -0.13754933033E+02  0.38263603145E+02  0.44324344729E+02  0.00000000000E+00 0. -1.
</event>
<event>
 4    1  0.2825993E+006  0.2439621E+02  0.7546771E-02  0.1475673E+00
         21   -1    0    0  503  501  0.00000000000E+00  0.00000000000E+00  0.29303775776E+03  0.29303775776E+03  0.00000000000E+00 0. -1.
         21   -1    0    0  504  502 -0.00000000000E+00 -0.00000000000E+00 -0.14191871421E+02  0.14191871421E+02  0.00000000000E+00 0.  1.
         21    1    1    2  503  502  0.24356298896E+02  0.13949563252E+01  0.28162133019E+03  0.28267604925E+03  0.00000000000E+00 0. -1.
         21    1    1    2  504  501 -0.24356298896E+02 -0.13949563252E+01 -0.27754438512E+01  0.24553579935E+02  0.00000000000E+00 0.  1.
</event>
<event>
 4    1  0.2825993E+006  0.2171089E+02  0.7546771E-02  0.1509353E+00
         21   -1    0    0  504  501  0.00000000000E+00  0.00000000000E+00  0.96982020118E+02  0.96982020118E+02  0.00000000000E+00 0. -1.
         21   -1    0    0  501  502 -0.00000000000E+00 -0.00000000000E+00 -0.18712098817E+02  0.18712098817E+02  0.00000000000E+00 0. -1.
         21    1    1    2  503  502 -0.67766045352E+01 -0.20626201247E+02 -0.10635652261E+02  0.24176013855E+02  0.00000000000E+00 0. -1.
         21    1    1    2  504  503  0.67766045352E+01  0.20626201247E+02  0.88905573562E+02  0.91518105079E+02  0.00000000000E+00 0. -1.
</event>
<event>
 4    1  0.2825993E+006  0.2461173E+02  0.7546771E-02  0.1473194E+00
         21   -1    0    0  503  501  0.00000000000E+00  0.00000000000E+00  0.92479251406E+03  0.92479251406E+03  0.00000000000E+00 0.  1.
         21   -1    0    0  504  502 -0.00000000000E+00 -0.00000000000E+00 -0.86006402542E+00  0.86006402542E+00  0.00000000000E+00 0. -1.
         21    1    1    2  503  502  0.12130443724E+01  0.24581814497E+02  0.23597078528E+03  0.23725081367E+03  0.00000000000E+00 0. -1.
         21    1    1    2  504  501 -0.12130443724E+01 -0.24581814497E+02  0.68796166475E+03  0.68840176441E+03  0.00000000000E+00 0.  1.
</event>
<event>
 4    1  0.2825993E+006  0.2015865E+02  0.7546771E-02  0.1531624E+00
         21   -1    0    0  504  501  0.00000000000E+00  0.00000000000E+00  0.30408944071E+03  0.30408944071E+03  0.00000000000E+00 0.  1.
         21   -1    0    0  503  502 -0.00000000000E+00 -0.00000000000E+00 -0.47430308450E+02  0.47430308450E+02  0.00000000000E+00 0.  1.
         21    1    1    2  503  501  0.20146254634E+02 -0.70682450010E+00  0.30159572319E+03  0.30226867423E+03  0.00000000000E+00 0.  1.
         21    1    1    2  504  502 -0.20146254634E+02  0.70682450010E+00 -0.44936590931E+02  0.49251074924E+02  0.00000000000E+00 0.  1.
</event>
<event>
 4    1  0.2825993E+006  0.4135510E+02  0.7546771E-02  0.1340723E+00
         21   -1    0    0  504  501  0.00000000000E+00  0.00000000000E+00  0.12261070650E+03  0.12261070650E+03  0.00000000000E+00 0.  1.
         21   -1    0    0  503  502 -0.00000000000E+00 -0.00000000000E+00 -0.14145129184E+02  0.14145129184E+02  0.00000000000E+00 0.  1.
         21    1    1    2  503  501 -0.11846926002E+02 -0.39621900486E+02  0.62293129252E+02  0.74770840612E+02  0.00000000000E+00 0.  1.
         21    1    1    2  504  502  0.11846926002E+02  0.39621900486E+02  0.46172448063E+02  0.61984995071E+02  0.00000000000E+00 0.  1.
</event>
<event>
 4    1  0.2825993E+006  0.3317021E+02  0.7546771E-02  0.1393905E+00
         21   -1    0    0  504  501  0.00000000000E+00  0.00000000000E+00  0.75351686835E+02  0.75351686835E+02  0.00000000000E+00 0.  1.
         21   -1    0    0  503  502 -0.00000000000E+00 -0.00000000000E+00 -0.45623460445E+02  0.45623460445E+02  0.00000000000E+00 0.  1.
         21    1    1    2  503  501 -0.32879985369E+02  0.43782519033E+01 -0.35013457275E+02  0.48230744530E+02  0.00000000000E+00 0.  1.
         21    1    1    2  504  502  0.32879985369E+02 -0.43782519033E+01  0.64741683665E+02  0.72744402750E+02  0.00000000000E+00 0.  1.
</event>
<event>
 4    1  0.2825993E+006  0.2546118E+02  0.7546771E-02  0.1463710E+00
         21   -1    0    0  503  501  0.00000000000E+00  0.00000000000E+00  0.73540552885E+01  0.73540552885E+01  0.00000000000E+00 0. -1.
         21   -1    0    0  501  502 -0.00000000000E+00 -0.00000000000E+00 -0.18817999379E+03  0.18817999379E+03  0.00000000000E+00 0.  1.
         21    1    1    2  503  504 -0.16961878461E+02 -0.18988588338E+02 -0.19133033330E+02  0.31848779763E+02  0.00000000000E+00 0. -1.
         21    1    1    2  504  502  0.16961878461E+02  0.18988588338E+02 -0.16169290517E+03  0.16368526931E+03  0.00000000000E+00 0.  1.
</event>
<event>
 4    1  0.2825993E+006  0.2723994E+02  0.7546771E-02  0.1445213E+00
         21   -1    0    0  503  501  0.00000000000E+00  0.00000000000E+00  0.23112392304E+01  0.23112392304E+01  0.00000000000E+00 0.  1.
         21   -1    0    0  504  502 -0.00000000000E+00 -0.00000000000E+00 -0.32189630340E+03  0.32189630340E+03  0.00000000000E+00 0.  1.
         21    1    1    2  503  502  0.26862305633E+02 -0.45200632730E+01 -0.16812331979E+03  0.17031578052E+03  0.00000000000E+00 0.  1.
         21    1    1    2  504  501 -0.26862305633E+02  0.45200632730E+01 -0.15146174438E+03  0.15389176211E+03  0.00000000000E+00 0.  1.
</event>
<event>
 4    1  0.2825993E+006  0.2728952E+02  0.7546771E-02  0.1444721E+00
         21   -1    0    0  504  501  0.00000000000E+00  0.00000000000E+00  0.40272024665E+03  0.40272024665E+03  0.00000000000E+00 0. -1.
         21   -1    0    0  503  502 -0.00000000000E+00 -0.00000000000E+00 -0.68552862492E+01  0.68552862492E+01  0.00000000000E+00 0.  1.
         21    1    1    2  503  501 -0.25915545576E+02  0.85499945693E+01  0.22931873437E+02  0.35645318472E+02  0.00000000000E+00 0.  1.
         21    1    1    2  504  502  0.25915545576E+02 -0.85499945693E+01  0.37293308696E+03  0.37393021443E+03  0.00000000000E+00 0. -1.
</event>
<event>
 4    1  0.2825993E+006  0.2671144E+02  0.7546771E-02  0.1450529E+00
         21   -1    0    0  503  501  0.00000000000E+00  0.00000000000E+00  0.28268441425E+02  0.28268441425E+02  0.00000000000E+00 0.  1.
         21   -1    0    0  501  502 -0.00000000000E+00 -0.00000000000E+00 -0.28847549757E+02  0.28847549757E+02  0.00000000000E+00 0.  1.
         21    1    1    2  503  504  0.12208264117E+02  0.23758349064E+02  0.98092027819E+01  0.28455602651E+02  0.00000000000E+00 0.  1.
         21    1    1    2  504  502 -0.12208264117E+02 -0.23758349064E+02 -0.10388311114E+02  0.28660388532E+02  0.00000000000E+00 0.  1.
</event>
<event>
 4    1  0.2825993E+006  0.2519153E+02  0.7546771E-02  0.1466672E+00
         21   -1    0    0  504  501  0.00000000000E+00  0.00000000000E+00  0.15580746162E+02  0.15580746162E+02  0.00000000000E+00 0. -1.
         21   -1    0    0  501  502 -0.00000000000E+00 -0.00000000000E+00 -0.25147235073E+03  0.25147235073E+03  0.00000000000E+00 0.  1.
         21    1    1    2  503  502 -0.25145914791E+02 -0.15153220962E+01 -0.24018142461E+03  0.24149892331E+03  0.00000000000E+00 0.  1.
         21    1    1    2  504  503  0.25145914791E+02  0.15153220962E+01  0.42898200385E+01  0.25554173586E+02  0.00000000000E+00 0. -1.
</event>
<event>
 4    1  0.2825993E+006  0.2229050E+02  0.7546771E-02  0.1501605E+00
         21   -1    0    0  504  501  0.00000000000E+00  0.00000000000E+00  0.66519013110E+01  0.66519013110E+01  0.00000000000E+00 0. -1.
         21   -1    0    0  503  502 -0.00000000000E+00 -0.00000000000E+00 -0.21134009890E+03  0.21134009890E+03  0.00000000000E+00 0. -1.
         21    1    1    2  503  501  0.14681580443E+02  0.16772530715E+02 -0.18998684208E+03  0.19129000694E+03  0.00000000000E+00 0. -1.
         21    1    1    2  504  502 -0.14681580443E+02 -0.16772530715E+02 -0.14701355508E+02  0.26701993272E+02  0.00000000000E+00 0. -1.
</event>
<event>
 4    1  0.2825993E+006  0.2163719E+02  0.7546771E-02  0.1510359E+00
         21   -1    0    0  502  501  0.00000000000E+00  0.00000000000E+00  0.13241174121E+03  0.13241174121E+03  0.00000000000E+00 0. -1.
         21   -1    0    0  504  502 -0.00000000000E+00 -0.00000000000E+00 -0.15076538240E+02  0.15076538240E+02  0.00000000000E+00 0. -1.
         21    1    1    2  503  501  0.11282956531E+02 -0.18462476047E+02  0.12318775362E+03  0.12507354146E+03  0.00000000000E+00 0. -1.
         21    1    1    2  504  503 -0.11282956531E+02  0.18462476047E+02 -0.58525506589E+01  0.22414737988E+02  0.00000000000E+00 0. -1.
</event>
<event>
 4    1  0.2825993E+006  0.2188532E+02  0.7546771E-02  0.1506990E+00
         21   -1    0    0  503  501  0.00000000000E+00  0.00000000000E+00  0.42071461710E+02  0.42071461710E+02  0.00000000000E+00 0. -1.
         21   -1    0    0  501  502 -0.00000000000E+00 -0.00000000000E+00 -0.19900723699E+03  0.19900723699E+03  0.00000000000E+00 0. -1.
         21    1    1    2  503  504  0.21519893371E+02  0.39826636810E+01  0.38572838505E+02  0.44348971702E+02  0.00000000000E+00 0. -1.
         21    1    1    2  504  502 -0.21519893371E+02 -0.39826636810E+01 -0.19550861379E+03  0.19672972700E+03  0.00000000000E+00 0. -1.
</event>
<event>
 4    1  0.2825993E+006  0.2375784E+02  0.7546771E-02  0.1483195E+00
         21   -1    0    0  503  501  0.00000000000E+00  0.00000000000E+00  0.42778729247E+01  0.42778729247E+01  0.00000000000E+00 0.  1.
         21   -1    0    0  504  502 -0.00000000000E+00 -0.00000000000E+00 -0.13559043620E+03  0.13559043620E+03  0.00000000000E+00 0.  1.
         21    1    1    2  503  502 -0.18761075436E+02  0.14575906810E+02 -0.54186005033E+02  0.59165514891E+02  0.00000000000E+00 0.  1.
         21    1    1    2  504  501  0.18761075436E+02 -0.14575906810E+02 -0.77126558239E+02  0.80702794231E+02  0.00000000000E+00 0.  1.
</event>
<event>
 4    1  0.2825993E+006  0.2003012E+02  0.7546771E-02  0.1533576E+00
         21   -1    0    0  504  501  0.00000000000E+00  0.00000000000E+00  0.34202371880E+02  0.34202371880E+02  0.00000000000E+00 0.  1.
         21   -1    0    0  501  502 -0.00000000000E+00 -0.00000000000E+00 -0.26207773752E+03  0.26207773752E+03  0.00000000000E+00 0.  1.
         21    1    1    2  503  502  0.16604485730E+02 -0.11202529813E+02 -0.25872448341E+03  0.25949867810E+03  0.00000000000E+00 0.  1.
         21    1    1    2  504  503 -0.16604485730E+02  0.11202529813E+02  0.30849117775E+02  0.36781431294E+02  0.00000000000E+00 0.  1.
</event>
<event>
 4    1  0.2825993E+006  0.2104215E+02  0.7546771E-02  0.1518664E+00
         21   -1    0    0  503  501  0.00000000000E+00  0.00000000000E+00  0.15154689564E+02  0.15154689564E+02  0.00000000000E+00 0.  1.
         21   -1    0    0  501  502 -0.00000000000E+00 -0.00000000000E+00 -0.10240726126E+03  0.10240726126E+03  0.00000000000E+00 0. -1.
         21    1    1    2  503  504 -0.84461565954E+01  0.19272631189E+02  0.60670999792E+01  0.21899351049E+02  0.00000000000E+00 0.  1.
         21    1    1    2  504  502  0.84461565954E+01 -0.19272631189E+02 -0.93319671675E+02  0.95662599775E+02  0.00000000000E+00 0. -1.
</event>
<event>
 4    1  0.2825993E+006  0.3833448E+02  0.7546771E-02  0.1358532E+00
         21   -1    0    0  504  501  0.00000000000E+00  0.00000000000E+00  0.21747310888E+02  0.21747310888E+02  0.00000000000E+00 0.  1.
         21   -1    0    0  503  502 -0.00000000000E+00 -0.00000000000E+00 -0.15288526604E+03  0.15288526604E+03  0.00000000000E+00 0.  1.
         21    1    1    2  503  501  0.15007259793E+02  0.35274845931E+02 -0.34338908093E+00  0.38336021155E+02  0.00000000000E+00 0.  1.
         21    1    1    2  504  502 -0.15007259793E+02 -0.35274845931E+02 -0.13079456607E+03  0.13629655577E+03  0.00000000000E+00 0.  1.
</event>
<event>
 4    1  0.2825993E+006  0.3624666E+02  0.7546771E-02  0.1372004E+00
         21   -1    0    0  503  501  0.00000000000E+00  0.00000000000E+00  0.51871502417E+01  0.51871502417E+01  0.00000000000E+00 0.  1.
         21   -1    0    0  504  502 -0.00000000000E+00 -0.00000000000E+00 -0.27358128187E+03  0.27358128187E+03  0.00000000000E+00 0. -1.
         21    1    1    2  503  502 -0.36171534113E+02  0.23324316481E+01 -0.17216295402E+03  0.17593721282E+03  0.00000000000E+00 0. -1.
         21    1    1    2  504  501  0.36171534113E+02 -0.23324316481E+01 -0.96231177611E+02  0.10283121930E+03  0.00000000000E+00 0.  1.
</event>
<event>
 4    1  0.2825993E+006  0.3144581E+02  0.7546771E-02  0.1407435E+00
         21   -1    0    0  503  501  0.00000000000E+00  0.00000000000E+00  0.63445301751E+03  0.63445301751E+03  0.00000000000E+00 0. -1.
         21   -1    0    0  504  502 -0.00000000000E+00 -0.00000000000E+00 -0.21829379520E+01  0.21829379520E+01  0.00000000000E+00 0.  1.
         21    1    1    2  503  502 -0.23712889169E+02  0.20652787047E+02  0.14589521472E+03  0.14924561101E+03  0.00000000000E+00 0.  1.
         21    1    1    2  504  501  0.23712889169E+02 -0.20652787047E+02  0.48637486484E+03  0.48739034446E+03  0.00000000000E+00 0. -1.
</event>
<event>
 4    1  0.2825993E+006  0.2132349E+02  0.7546771E-02  0.1514696E+00
         21   -1    0    0  503  501  0.00000000000E+00  0.00000000000E+00  0.21065760746E+01  0.21065760746E+01  0.00000000000E+00 0. -1.
         21   -1    0    0  501  502 -0.00000000000E+00 -0.00000000000E+00 -0.38814599619E+03  0.38814599619E+03  0.00000000000E+00 0. -1.
         21    1    1    2  503  504  0.23152535655E+01  0.21197429374E+02 -0.63013644817E+02  0.66523761502E+02  0.00000000000E+00 0. -1.
         21    1    1    2  504  502 -0.23152535655E+01 -0.21197429374E+02 -0.32302577530E+03  0.32372881077E+03  0.00000000000E+00 0. -1.
</event>
<event>
 4    1  0.2825993E+006  0.2857686E+02  0.7546771E-02  0.1432380E+00
         21   -1    0    0  504  501  0.00000000000E+00  0.00000000000E+00  0.13292111818E+04  0.13292111818E+04  0.00000000000E+00 0.  1.
         21   -1    0    0  501  502 -0.00000000000E+00 -0.00000000000E+00 -0.85474015507E+00  0.85474015507E+00  0.00000000000E+00 0. -1.
         21    1    1    2  503  502 -0.26895890086E+02 -0.96565126768E+01  0.31151528479E+03  0.31282328845E+03  0.00000000000E+00 0. -1.
         21    1    1    2  504  503  0.26895890086E+02  0.96565126768E+01  0.10168411569E+04  0.10172426335E+04  0.00000000000E+00 0.  1.
</event>
<event>
 4    1  0.2825993E+006  0.2047236E+02  0.7546771E-02  0.1526933E+00
         21   -1    0    0  502  501  0.00000000000E+00  0.00000000000E+00  0.54792582565E+02  0.54792582565E+02  0.00000000000E+00 0. -1.
         21   -1    0    0  503  502 -0.00000000000E+00 -0.00000000000E+00 -0.79896514661E+02  0.79896514661E+02  0.00000000000E+00 0. -1.
         21    1    1    2  503  504  0.18416611976E+02  0.89412574668E+01 -0.76591694159E+02  0.79280548030E+02  0.00000000000E+00 0. -1.
         21    1    1    2  504  501 -0.18416611976E+02 -0.89412574668E+01  0.51487762064E+02  0.55408549197E+02  0.00000000000E+00 0. -1.
</event>
<event>
 4    1  0.2825993E+006  0.2076790E+02  0.7546771E-02  0.1522605E+00
         21   -1    0    0  502  501  0.00000000000E+00  0.00000000000E+00  0.40220520484E+03  0.40220520484E+03  0.00000000000E+00 0. -1.
         21   -1    0    0  504  502 -0.00000000000E+00 -0.00000000000E+00 -0.16978598439E+01  0.16978598439E+01  0.00000000000E+00 0. -1.
         21    1    1    2  503  501 -0.19134829700E+02  0.80724236042E+01  0.32283165346E+03  0.32349896786E+03  0.00000000000E+00 0. -1.
         21    1    1    2  504  503  0.19134829700E+02 -0.80724236042E+01  0.77675691529E+02  0.80404096817E+02  0.00000000000E+00 0. -1.
</event>
<event>
 4    1  0.2825993E+006  0.2746161E+02  0.7546771E-02  0.1443025E+00
         21   -1    0    0  504  501  0.00000000000E+00  0.00000000000E+00  0.47684613320E+02  0.47684613320E+02  0.00000000000E+00 0. -1.
         21   -1    0    0  503  502 -0.00000000000E+00 -0.00000000000E+00 -0.59281361614E+02  0.59281361614E+02  0.00000000000E+00 0.  1.
         21    1    1    2  503  501 -0.55294485790E+01 -0.26899168266E+02  0.39998136608E+02  0.48517945001E+02  0.00000000000E+00 0. -1.
         21    1    1    2  504  502  0.55294485790E+01  0.26899168266E+02 -0.51594884902E+02  0.58448029933E+02  0.00000000000E+00 0.  1.
</event>
<event>
 4    1  0.2825993E+006  0.2127773E+02  0.7546771E-02  0.1515336E+00
         21   -1    0    0  504  501  0.00000000000E+00  0.00000000000E+00  0.33803520373E+03  0.33803520373E+03  0.00000000000E+00 0.  1.
         21   -1    0    0  503  502 -0.00000000000E+00 -0.00000000000E+00 -0.17391650334E+01  0.17391650334E+01  0.00000000000E+00 0.  1.
         21    1    1    2  503  501 -0.15181196896E+01  0.21223503291E+02  0.24960510952E+03  0.25051038397E+03  0.00000000000E+00 0.  1.
         21    1    1    2  504  502  0.15181196896E+01 -0.21223503291E+02  0.86690929178E+02  0.89263984792E+02  0.00000000000E+00 0.  1.
</event>
<event>
 4    1  0.2825993E+006  0.3397884E+02  0.7546771E-02  0.1387888E+00
         21   -1    0    0  503  501  0.00000000000E+00  0.00000000000E+00  0.19484752835E+03  0.19484752835E+03  0.00000000000E+00 0.  1.
         21   -1    0    0  504  502 -0.00000000000E+00 -0.00000000000E+00 -0.12966235823E+02  0.12966235823E+02  0.00000000000E+00 0. -1.
         21    1    1    2  503  502 -0.33644763634E+02  0.47530745614E+01  0.14372608367E+02  0.36893545628E+02  0.00000000000E+00 0. -1.
         21    1    1    2  504  501  0.33644763634E+02 -0.47530745614E+01  0.16750868416E+03  0.17092021854E+03  0.00000000000E+00 0.  1.
</event>
<event>
 4    1  0.2825993E+006  0.2458743E+02  0.7546771E-02  0.1473472E+00
         21   -1    0    0  504  501  0.00000000000E+00  0.00000000000E+00  0.25088715794E+02  0.25088715794E+02  0.00000000000E+00 0.  1.
         21   -1    0    0  503  502 -0.00000000000E+00 -0.00000000000E+00 -0.36076154786E+02  0.36076154786E+02  0.00000000000E+00 0. -1.
         21    1    1    2  503  501  0.24436335317E+02  0.27216495568E+01 -0.23117137847E+02  0.33748243247E+02  0.00000000000E+00 0. -1.
         21    1    1    2  504  502 -0.24436335317E+02 -0.27216495568E+01  0.12129698855E+02  0.27416627333E+02  0.00000000000E+00 0.  1.
</event>
<event>
 4    1  0.2825993E+006  0.2027618E+02  0.7546771E-02  0.1529855E+00
         21   -1    0    0  504  501  0.00000000000E+00  0.00000000000E+00  0.17631876746E+01  0.17631876746E+01  0.00000000000E+00 0.  1.
         21   -1    0    0  503  502 -0.00000000000E+00 -0.00000000000E+00 -0.28857566473E+03  0.28857566473E+03  0.00000000000E+00 0.  1.
         21    1    1    2  503  501 -0.13989565142E+02  0.14677045933E+02 -0.79797049528E+02  0.82332816809E+02  0.00000000000E+00 0.  1.
         21    1    1    2  504  502  0.13989565142E+02 -0.14677045933E+02 -0.20701542752E+03  0.20800603559E+03  0.00000000000E+00 0.  1.
</event>
<event>
 4    1  0.2825993E+006  0.2719511E+02  0.7546771E-02  0.1445658E+00
         21   -1    0    0  504  501  0.00000000000E+00  0.00000000000E+00  0.23140660654E+03  0.23140660654E+03  0.00000000000E+00 0.  1.
         21   -1    0    0  503  502 -0.00000000000E+00 -0.00000000000E+00 -0.33464332695E+01  0.33464332695E+01  0.00000000000E+00 0.  1.
         21    1    1    2  503  501  0.16742110443E+02 -0.21430721184E+02  0.13891700287E+03  0.14155390407E+03  0.00000000000E+00 0.  1.
         21    1    1    2  504  502 -0.16742110443E+02  0.21430721184E+02  0.89143170400E+02  0.93199135734E+02  0.00000000000E+00 0.  1.
</event>
<event>
 4    1  0.2825993E+006  0.2691744E+02  0.7546771E-02  0.1448439E+00
         21   -1    0    0  502  501  0.00000000000E+00  0.00000000000E+00  0.45819056161E+02  0.45819056161E+02  0.00000000000E+00 0.  1.
         21   -1    0    0  503  502 -0.00000000000E+00 -0.00000000000E+00 -0.14453436252E+04  0.14453436252E+04  0.00000000000E+00 0.  1.
         21    1    1    2  503  504  0.19378240806E+02 -0.18682408902E+02 -0.14412537683E+04  0.14415051070E+04  0.00000000000E+00 0.  1.
         21    1    1    2  504  501 -0.19378240806E+02  0.18682408902E+02  0.41729199315E+02  0.49657574393E+02  0.00000000000E+00 0.  1.
</event>
<event>
 4    1  0.2825993E+006  0.2586240E+02  0.7546771E-02  0.1459383E+00
         21   -1    0    0  502  501  0.00000000000E+00  0.00000000000E+00  0.72909112699E+01  0.72909112699E+01  0.00000000000E+00 0.  1.
         21   -1    0    0  504  502 -0.00000000000E+00 -0.00000000000E+00 -0.99922230553E+03  0.99922230553E+03  0.00000000000E+00 0. -1.
         21    1    1    2  503  501 -0.20794424419E+01  0.25778668414E+02 -0.16367377531E+02  0.30606451498E+02  0.00000000000E+00 0.  1.
         21    1    1    2  504  503  0.20794424419E+01 -0.25778668414E+02 -0.97556401673E+03  0.97590676530E+03  0.00000000000E+00 0. -1.
</event>
<event>
 4    1  0.2825993E+006  0.2210493E+02  0.7546771E-02  0.1504054E+00
         21   -1    0    0  503  501  0.00000000000E+00  0.00000000000E+00  0.46187154178E+01  0.46187154178E+01  0.00000000000E+00 0.  1.
         21   -1    0    0  504  502 -0.00000000000E+00 -0.00000000000E+00 -0.73612109544E+03  0.73612109544E+03  0.00000000000E+00 0.  1.
         21    1    1    2  503  502  0.16606481774E+02  0.14589465331E+02 -0.70847509162E+03  0.70881985242E+03  0.00000000000E+00 0.  1.
         21    1    1    2  504  501 -0.16606481774E+02 -0.14589465331E+02 -0.23027288397E+02  0.31919958435E+02  0.00000000000E+00 0.  1.
</event>
<event>
 4    1  0.2825993E+006  0.2083213E+02  0.7546771E-02  0.1521675E+00
         21   -1    0    0  504  501  0.00000000000E+00  0.00000000000E+00  0.54701210906E+02  0.54701210906E+02  0.00000000000E+00 0.  1.
         21   -1    0    0  503  502 -0.00000000000E+00 -0.00000000000E+00 -0.91572942130E+01  0.91572942130E+01  0.00000000000E+00 0.  1.
         21    1    1    2  503  501  0.68026906639E+01 -0.19690121968E+02  0.34443862093E+02  0.40253659949E+02  0.00000000000E+00 0.  1.
         21    1    1    2  504  502 -0.68026906639E+01  0.19690121968E+02  0.11100054600E+02  0.23604845170E+02  0.00000000000E+00 0.  1.
</event>
<event>
 4    1  0.2825993E+006  0.2348163E+02  0.7546771E-02  0.1486537E+00
         21   -1    0    0  502  501  0.00000000000E+00  0.00000000000E+00  0.12622382962E+02  0.12622382962E+02  0.00000000000E+00 0. -1.
         21   -1    0    0  504  502 -0.00000000000E+00 -0.00000000000E+00 -0.78205426030E+02  0.78205426030E+02  0.00000000000E+00 0. -1.
         21    1    1    2  503  501 -0.21766120608E+01 -0.23380532661E+02 -0.26184611142E+01  0.23627172624E+02  0.00000000000E+00 0. -1.
         21    1    1    2  504  503  0.21766120608E+01  0.23380532661E+02 -0.62964581954E+02  0.67200636368E+02  0.00000000000E+00 0. -1.
</event>
<event>
 4    1  0.2825993E+006  0.2051219E+02  0.7546771E-02  0.1526345E+00
         21   -1    0    0  504  501  0.00000000000E+00  0.00000000000E+00  0.14868968594E+03  0.14868968594E+03  0.00000000000E+00 0.  1.
         21   -1    0    0  501  502 -0.00000000000E+00 -0.00000000000E+00 -0.67534443163E+02  0.67534443163E+02  0.00000000000E+00 0. -1.
         21    1    1    2  503  502 -0.19721838504E+02  0.56390691022E+01 -0.65245238586E+02  0.68393648627E+02  0.00000000000E+00 0. -1.
         21    1    1    2  504  503  0.19721838504E+02 -0.56390691022E+01  0.14640048136E+03  0.14783048047E+03  0.00000000000E+00 0.  1.
</event>
<event>
 4    1  0.2825993E+006  0.2536110E+02  0.7546771E-02  0.1464804E+00
         21   -1    0    0  503  501  0.00000000000E+00  0.00000000000E+00  0.24138759932E+02  0.24138759932E+02  0.00000000000E+00 0. -1.
         21   -1    0    0  501  502 -0.00000000000E+00 -0.00000000000E+00 -0.47202811601E+02  0.47202811601E+02  0.00000000000E+00 0.  1.
         21    1    1    2  503  504  0.25243369131E+01  0.25235153390E+02  0.12008366080E+02  0.28060400913E+02  0.00000000000E+00 0. -1.
         21    1    1    2  504  502 -0.25243369131E+01 -0.25235153390E+02 -0.35072417750E+02  0.43281170620E+02  0.00000000000E+00 0.  1.
</event>
<event>
 4    1  0.2825993E+006  0.2111155E+02  0.7546771E-02  0.1517678E+00
         21   -1    0    0  503  501  0.00000000000E+00  0.00000000000E+00  0.42540788321E+02  0.42540788321E+02  0.00000000000E+00 0. -1.
         21   -1    0    0  504  502 -0.00000000000E+00 -0.00000000000E+00 -0.18677432956E+02  0.18677432956E+02  0.00000000000E+00 0. -1.
         21    1    1    2  503  502  0.14410275977E+02  0.15428596041E+02  0.32213729348E+02  0.38515217617E+02  0.00000000000E+00 0. -1.
         21    1    1    2  504  501 -0.14410275977E+02 -0.15428596041E+02 -0.83503739840E+01  0.22703003660E+02  0.00000000000E+00 0. -1.
</event>
<event>
 4    1  0.2825993E+006  0.2358941E+02  0.7546771E-02  0.1485227E+00
         21   -1    0    0  504  501  0.00000000000E+00  0.00000000000E+00  0.58148128857E+02  0.58148128857E+02  0.00000000000E+00 0. -1.
         21   -1    0    0  503  502 -0.00000000000E+00 -0.00000000000E+00 -0.99803603040E+01  0.99803603040E+01  0.00000000000E+00 0. -1.
         21    1    1    2  503  501 -0.23105338559E+02  0.47543075900E+01  0.30993714250E+02  0.38949588362E+02  0.00000000000E+00 0. -1.
         21    1    1    2  504  502  0.23105338559E+02 -0.47543075900E+01  0.17174054303E+02  0.29178900798E+02  0.00000000000E+00 0. -1.
</event>
<event>
 4    1  0.2825993E+006  0.2284947E+02  0.7546771E-02  0.1494397E+00
         21   -1    0    0  504  501  0.00000000000E+00  0.00000000000E+00  0.19767551916E+03  0.19767551916E+03  0.00000000000E+00 0. -1.
         21   -1    0    0  503  502 -0.00000000000E+00 -0.00000000000E+00 -0.12179724990E+02  0.12179724990E+02  0.00000000000E+00 0.  1.
         21    1    1    2  503  501 -0.17635256379E+02 -0.14529141968E+02 -0.10853040994E+00  0.22849726754E+02  0.00000000000E+00 0.  1.
         21    1    1    2  504  502  0.17635256379E+02  0.14529141968E+02  0.18560432458E+03  0.18700551739E+03  0.00000000000E+00 0. -1.
</event>
<event>
 4    1  0.2825993E+006  0.2018827E+02  0.7546771E-02  0.1531177E+00
         21   -1    0    0  503  501  0.00000000000E+00  0.00000000000E+00  0.95256715375E+01  0.95256715375E+01  0.00000000000E+00 0.  1.
         21   -1    0    0  504  502 -0.00000000000E+00 -0.00000000000E+00 -0.25397200496E+03  0.25397200496E+03  0.00000000000E+00 0.  1.
         21    1    1    2  503  502  0.19398506627E+02 -0.55914222803E+01 -0.20835161282E+01  0.20295494621E+02  0.00000000000E+00 0.  1.
         21    1    1    2  504  501 -0.19398506627E+02  0.55914222803E+01 -0.24236281729E+03  0.24320218188E+03  0.00000000000E+00 0.  1.
</event>
<event>
 4    1  0.2825993E+006  0.2278329E+02  0.7546771E-02  0.1495237E+00
         21   -1    0    0  504  501  0.00000000000E+00  0.00000000000E+00  0.20318443646E+03  0.20318443646E+03  0.00000000000E+00 0. -1.
         21   -1    0    0  501  502 -0.00000000000E+00 -0.00000000000E+00 -0.15020193889E+02  0.15020193889E+02  0.00000000000E+00 0.  1.
         21    1    1    2  503  502 -0.27303272788E+01 -0.22619095621E+02 -0.53097103551E+01  0.23393828199E+02  0.00000000000E+00 0.  1.
         21    1    1    2  504  503  0.27303272788E+01  0.22619095621E+02  0.19347395293E+03  0.19481080215E+03  0.00000000000E+00 0. -1.
</event>
<event>
 4    1  0.2825993E+006  0.3011755E+02  0.7546771E-02  0.1418578E+00
         21   -1    0    0  504  501  0.00000000000E+00  0.00000000000E+00  0.19350226003E+02  0.19350226003E+02  0.00000000000E+00 0. -1.
         21   -1    0    0  501  502 -0.00000000000E+00 -0.00000000000E+00 -0.11589941503E+03  0.11589941503E+03  0.00000000000E+00 0. -1.
         21    1    1    2  503  502  0.29788941918E+02  0.44368399432E+01 -0.10046165610E+03  0.10487903011E+03  0.00000000000E+00 0. -1.
         21    1    1    2  504  503 -0.29788941918E+02 -0.44368399432E+01  0.39124670771E+01  0.30370610925E+02  0.00000000000E+00 0. -1.
</event>
<event>
 4    1  0.2825993E+006  0.2455533E+02  0.7546771E-02  0.1473840E+00
         21   -1    0    0  503  501  0.00000000000E+00  0.00000000000E+00  0.69464986368E+03  0.69464986368E+03  0.00000000000E+00 0.  1.
         21   -1    0    0  504  502 -0.00000000000E+00 -0.00000000000E+00 -0.98893583027E+00  0.98893583027E+00  0.00000000000E+00 0. -1.
         21    1    1    2  503  502 -0.82446161197E+01  0.23129865779E+02  0.46845628196E+03  0.46909940577E+03  0.00000000000E+00 0.  1.
         21    1    1    2  504  501  0.82446161197E+01 -0.23129865779E+02  0.22520464589E+03  0.22653939374E+03  0.00000000000E+00 0. -1.
</event>
<event>
 4    1  0.2825993E+006  0.2311491E+02  0.7546771E-02  0.1491060E+00
         21   -1    0    0  503  501  0.00000000000E+00  0.00000000000E+00  0.46899296777E+01  0.46899296777E+01  0.00000000000E+00 0. -1.
         21   -1    0    0  504  502 -0.00000000000E+00 -0.00000000000E+00 -0.13507057865E+03  0.13507057865E+03  0.00000000000E+00 0. -1.
         21    1    1    2  503  502 -0.93968789698E+01 -0.21118655078E+02 -0.37540858035E+02  0.44086448583E+02  0.00000000000E+00 0. -1.
         21    1    1    2  504  501  0.93968789698E+01  0.21118655078E+02 -0.92839790934E+02  0.95674059741E+02  0.00000000000E+00 0. -1.
</event>
<event>
 4    1  0.2825993E+006  0.3890728E+02  0.7546771E-02  0.1355011E+00
         21   -1    0    0  502  501  0.00000000000E+00  0.00000000000E+00  0.87411598511E+02  0.87411598511E+02  0.00000000000E+00 0.  1.
         21   -1    0    0  504  502 -0.00000000000E+00 -0.00000000000E+00 -0.21602834332E+02  0.21602834332E+02  0.00000000000E+00 0.  1.
         21    1    1    2  503  501 -0.19345584926E+02 -0.33756846524E+02  0.57180314909E+02  0.69161873575E+02  0.00000000000E+00 0.  1.
         21    1    1    2  504  503  0.19345584926E+02  0.33756846524E+02  0.86284492703E+01  0.39852559267E+02  0.00000000000E+00 0.  1.
</event>
<event>
 4    1  0.2825993E+006  0.2436163E+02  0.7546771E-02  0.1476073E+00
         21   -1    0    0  503  501  0.00000000000E+00  0.00000000000E+00  0.16343970559E+03  0.16343970559E+03  0.00000000000E+00 0. -1.
         21   -1    0    0  504  502 -0.00000000000E+00 -0.00000000000E+00 -0.10121784423E+02  0.10121784423E+02  0.00000000000E+00 0. -1.
         21    1    1    2  503  502  0.14755094480E+02  0.19384942470E+02  0.71668673593E+01  0.25393951945E+02  0.00000000000E+00 0. -1.
         21    1    1    2  504  501 -0.14755094480E+02 -0.19384942470E+02  0.14615105381E+03  0.14816753807E+03  0.00000000000E+00 0. -1.
</event>
<event>
 4    1  0.2825993E+006  0.2235598E+02  0.7546771E-02  0.1500747E+00
         21   -1    0    0  504  501  0.00000000000E+00  0.00000000000E+00  0.46162477343E+02  0.46162477343E+02  0.00000000000E+00 0. -1.
         21   -1    0    0  503  502 -0.00000000000E+00 -0.00000000000E+00 -0.11088941287E+02  0.11088941287E+02  0.00000000000E+00 0. -1.
         21    1    1    2  503  501 -0.64275164144E+01  0.21412069480E+02  0.21938451569E+02  0.31322281908E+02  0.00000000000E+00 0. -1.
         21    1    1    2  504  502  0.64275164144E+01 -0.21412069480E+02  0.13135084486E+02  0.25929136722E+02  0.00000000000E+00 0. -1.
</event>
<event>
 4    1  0.2825993E+006  0.2412634E+02  0.7546771E-02  0.1478819E+00
         21   -1    0    0  504  501  0.00000000000E+00  0.00000000000E+00  0.18076673912E+02  0.18076673912E+02  0.00000000000E+00 0. -1.
         21   -1    0    0  503  502 -0.00000000000E+00 -0.00000000000E+00 -0.10368967225E+03  0.10368967225E+03  0.00000000000E+00 0.  1.
         21    1    1    2  503  501 -0.18318262647E+02 -0.15701007208E+02 -0.93359769175E+02  0.96426795415E+02  0.00000000000E+00 0.  1.
         21    1    1    2  504  502  0.18318262647E+02  0.15701007208E+02  0.77467708351E+01  0.25339550748E+02  0.00000000000E+00 0. -1.
</event>
<event>
 4    1  0.2825993E+006  0.2148448E+02  0.7546771E-02  0.1512459E+00
         21   -1    0    0  503  501  0.00000000000E+00  0.00000000000E+00  0.62554297089E+02  0.62554297089E+02  0.00000000000E+00 0.  1.
         21   -1    0    0  501  502 -0.00000000000E+00 -0.00000000000E+00 -0.47307516227E+02  0.47307516227E+02  0.00000000000E+00 0.  1.
         21    1    1    2  503  504  0.18305671518E+02  0.11246558663E+02  0.58088794503E+02  0.61934568201E+02  0.00000000000E+00 0.  1.
         21    1    1    2  504  502 -0.18305671518E+02 -0.11246558663E+02 -0.42842013641E+02  0.47927245115E+02  0.00000000000E+00 0.  1.
</event>
<event>
 4    1  0.2825993E+006  0.3857143E+02  0.7546771E-02  0.1357067E+00
         21   -1    0    0  504  501  0.00000000000E+00  0.00000000000E+00  0.33969812971E+02  0.33969812971E+02  0.00000000000E+00 0. -1.
         21   -1    0    0  503  502 -0.00000000000E+00 -0.00000000000E+00 -0.49759412511E+02  0.49759412511E+02  0.00000000000E+00 0.  1.
         21    1    1    2  503  501  0.97745745850E+01 -0.37312365975E+02 -0.22387286458E+02  0.44597595876E+02  0.00000000000E+00 0.  1.
         21    1    1    2  504  502 -0.97745745850E+01  0.37312365975E+02  0.65976869187E+01  0.39131629606E+02  0.00000000000E+00 0. -1.
</event>
<event>
 4    1  0.2825993E+006  0.2256040E+02  0.7546771E-02  0.1498093E+00
         21   -1    0    0  503  501  0.00000000000E+00  0.00000000000E+00  0.18290008844E+01  0.18290008844E+01  0.00000000000E+00 0. -1.
         21   -1    0    0  504  502 -0.00000000000E+00 -0.00000000000E+00 -0.49619880514E+03  0.49619880514E+03  0.00000000000E+00 0. -1.
         21    1    1    2  503  502  0.16222782565E+02  0.15677786946E+02 -0.41220793234E+03  0.41282484320E+03  0.00000000000E+00 0. -1.
         21    1    1    2  504  501 -0.16222782565E+02 -0.15677786946E+02 -0.82161871915E+02  0.85202962826E+02  0.00000000000E+00 0. -1.
</event>
<event>
 4    1  0.2825993E+006  0.2070369E+02  0.7546771E-02  0.1523538E+00
         21   -1    0    0  504  501  0.00000000000E+00  0.00000000000E+00  0.15987117172E+03  0.15987117172E+03  0.00000000000E+00 0. -1.
         21   -1    0    0  503  502 -0.00000000000E+00 -0.00000000000E+00 -0.20640894234E+02  0.20640894234E+02  0.00000000000E+00 0.  1.
         21    1    1    2  503  501  0.16030707302E+02 -0.13101880849E+02  0.15380537688E+03  0.15519257977E+03  0.00000000000E+00 0. -1.
         21    1    1    2  504  502 -0.16030707302E+02  0.13101880849E+02 -0.14575099392E+02  0.25319486185E+02  0.00000000000E+00 0.  1.
</event>
<event>
 4    1  0.2825993E+006  0.3342228E+02  0.7546771E-02  0.1392008E+00
         21   -1    0    0  504  501  0.00000000000E+00  0.00000000000E+00  0.21842356676E+04  0.21842356676E+04  0.00000000000E+00 0.  1.
         21   -1    0    0  503  502 -0.00000000000E+00 -0.00000000000E+00 -0.78388293825E+01  0.78388293825E+01  0.00000000000E+00 0. -1.
         21    1    1    2  503  501  0.33224368013E+02 -0.36318438030E+01  0.28517508731E+02  0.43935147928E+02  0.00000000000E+00 0. -1.
         21    1    1    2  504  502 -0.33224368013E+02  0.36318438030E+01  0.21478793294E+04  0.21481393490E+04  0.00000000000E+00 0.  1.
</event>
<event>
 4    1  0.2825993E+006  0.2214183E+02  0.7546771E-02  0.1503565E+00
         21   -1    0    0  503  501  0.00000000000E+00  0.00000000000E+00  0.27825741595E+03  0.27825741595E+03  0.00000000000E+00 0. -1.
         21   -1    0    0  504  502 -0.00000000000E+00 -0.00000000000E+00 -0.21757758788E+01  0.21757758788E+01  0.00000000000E+00 0. -1.
         21    1    1    2  503  502 -0.41907219376E+01 -0.21741634731E+02  0.19919541785E+03  0.20042224259E+03  0.00000000000E+00 0. -1.
         21    1    1    2  504  501  0.41907219376E+01  0.21741634731E+02  0.76886222220E+02  0.80010949241E+02  0.00000000000E+00 0. -1.
</event>
<event>
 4    1  0.2825993E+006  0.2854839E+02  0.7546771E-02  0.1432645E+00
         21   -1    0    0  504  501  0.00000000000E+00  0.00000000000E+00  0.78499367018E+02  0.78499367018E+02  0.00000000000E+00 0. -1.
         21   -1    0    0  503  502 -0.00000000000E+00 -0.00000000000E+00 -0.13663346172E+02  0.13663346172E+02  0.00000000000E+00 0. -1.
         21    1    1    2  503  501 -0.27500858266E+02 -0.76624717751E+01  0.54999222077E+02  0.61967129256E+02  0.00000000000E+00 0. -1.
         21    1    1    2  504  502  0.27500858266E+02  0.76624717751E+01  0.98367987690E+01  0.30195583934E+02  0.00000000000E+00 0. -1.
</event>
<event>
 4    1  0.2825993E+006  0.2062941E+02  0.7546771E-02  0.1524622E+00
         21   -1    0    0  503  501  0.00000000000E+00  0.00000000000E+00  0.51083888789E+02  0.51083888789E+02  0.00000000000E+00 0. -1.
         21   -1    0    0  501  502 -0.00000000000E+00 -0.00000000000E+00 -0.89601167042E+01  0.89601167042E+01  0.00000000000E+00 0. -1.
         21    1    1    2  503  504  0.53570603866E+01  0.19921711354E+02  0.29017928039E+02  0.35603550763E+02  0.00000000000E+00 0. -1.
         21    1    1    2  504  502 -0.53570603866E+01 -0.19921711354E+02  0.13105844046E+02  0.24440454730E+02  0.00000000000E+00 0. -1.
</event>
<event>
 4    1  0.2825993E+006  0.2307074E+02  0.7546771E-02  0.1491612E+00
         21   -1    0    0  504  501  0.00000000000E+00  0.00000000000E+00  0.50724269028E+02  0.50724269028E+02  0.00000000000E+00 0. -1.
         21   -1    0    0  503  502 -0.00000000000E+00 -0.00000000000E+00 -0.10919112241E+02  0.10919112241E+02  0.00000000000E+00 0.  1.
         21    1    1    2  503  501  0.15959600933E+02 -0.16659842303E+02  0.25989949954E+02  0.34752506473E+02  0.00000000000E+00 0. -1.
         21    1    1    2  504  502 -0.15959600933E+02  0.16659842303E+02  0.13815206832E+02  0.26890874797E+02  0.00000000000E+00 0.  1.
</event>
<event>
 4    1  0.2825993E+006  0.2273137E+02  0.7546771E-02  0.1495899E+00
         21   -1    0    0  503  501  0.00000000000E+00  0.00000000000E+00  0.12152692022E+03  0.12152692022E+03  0.00000000000E+00 0.  1.
         21   -1    0    0  504  502 -0.00000000000E+00 -0.00000000000E+00 -0.46989609317E+01  0.46989609317E+01  0.00000000000E+00 0.  1.
         21    1    1    2  503  502 -0.20211455729E+02  0.10402508149E+02  0.77881992063E+02  0.81131497005E+02  0.00000000000E+00 0.  1.
         21    1    1    2  504  501  0.20211455729E+02 -0.10402508149E+02  0.38945967221E+02  0.45094384143E+02  0.00000000000E+00 0.  1.
</event>
<event>
 4    1  0.2825993E+006  0.2849865E+02  0.7546771E-02  0.1433108E+00
         21   -1    0    0  503  501  0.00000000000E+00  0.00000000000E+00  0.24097522904E+02  0.24097522904E+02  0.00000000000E+00 0. -1.
         21   -1    0    0  504  502 -0.00000000000E+00 -0.00000000000E+00 -0.51262834632E+02  0.51262834632E+02  0.00000000000E+00 0.  1.
         21    1    1    2  503  502  0.99256714945E+01 -0.26714310361E+02  0.84701780306E+01  0.29730745846E+02  0.00000000000E+00 0. -1.
         21    1    1    2  504  501 -0.99256714945E+01  0.26714310361E+02 -0.35635489759E+02  0.45629611691E+02  0.00000000000E+00 0.  1.
</event>
<event>
 4    1  0.2825993E+006  0.2514241E+02  0.7546771E-02  0.1467217E+00
         21   -1    0    0  504  501  0.00000000000E+00  0.00000000000E+00  0.50479762115E+01  0.50479762115E+01  0.00000000000E+00 0. -1.
         21   -1    0    0  503  502 -0.00000000000E+00 -0.00000000000E+00 -0.12549285612E+03  0.12549285612E+03  0.00000000000E+00 0.  1.
         21    1    1    2  503  501  0.33938156930E+01 -0.24912297498E+02 -0.57215584025E+02  0.62496108734E+02  0.00000000000E+00 0.  1.
         21    1    1    2  504  502 -0.33938156930E+01  0.24912297498E+02 -0.63229295888E+02  0.68044723602E+02  0.00000000000E+00 0. -1.
</event>
<event>
 4    1  0.2825993E+006  0.2006011E+02  0.7546771E-02  0.1533119E+00
         21   -1    0    0  504  501  0.00000000000E+00  0.00000000000E+00  0.50198626908E+02  0.50198626908E+02  0.00000000000E+00 0. -1.
         21   -1    0    0  503  502 -0.00000000000E+00 -0.00000000000E+00 -0.13934822513E+02  0.13934822513E+02  0.00000000000E+00 0. -1.
         21    1    1    2  503  501  0.19968371194E+02  0.19162430907E+01  0.39030161264E+02  0.43883497172E+02  0.00000000000E+00 0. -1.
         21    1    1    2  504  502 -0.19968371194E+02 -0.19162430907E+01 -0.27663568697E+01  0.20249952248E+02  0.00000000000E+00 0. -1.
</event>
<event>
 4    1  0.2825993E+006  0.2622452E+02  0.7546771E-02  0.1455557E+00
         21   -1    0    0  502  501  0.00000000000E+00  0.00000000000E+00  0.34353505560E+02  0.34353505560E+02  0.00000000000E+00 0.  1.
         21   -1    0    0  504  502 -0.00000000000E+00 -0.00000000000E+00 -0.31133182467E+02  0.31133182467E+02  0.00000000000E+00 0.  1.
         21    1    1    2  503  501  0.24372910314E+02 -0.96791805569E+01  0.21173755099E+02  0.33705388270E+02  0.00000000000E+00 0.  1.
         21    1    1    2  504  503 -0.24372910314E+02  0.96791805569E+01 -0.17953432006E+02  0.31781299757E+02  0.00000000000E+00 0.  1.
</event>
<event>
 4    1  0.2825993E+006  0.2025098E+02  0.7546771E-02  0.1530233E+00
         21   -1    0    0  504  501  0.00000000000E+00  0.00000000000E+00  0.78030765447E+00  0.78030765447E+00  0.00000000000E+00 0.  1.
         21   -1    0    0  503  502 -0.00000000000E+00 -0.00000000000E+00 -0.53031492977E+03  0.53031492977E+03  0.00000000000E+00 0.  1.
         21    1    1    2  503  501 -0.16404615904E+02 -0.11873948785E+02 -0.28989989971E+03  0.29060635563E+03  0.00000000000E+00 0.  1.
         21    1    1    2  504  502  0.16404615904E+02  0.11873948785E+02 -0.23963472241E+03  0.24048888179E+03  0.00000000000E+00 0.  1.
</event>
<event>
 4    1  0.2825993E+006  0.2022612E+02  0.7546771E-02  0.1530607E+00
         21   -1    0    0  504  501  0.00000000000E+00  0.00000000000E+00  0.14393764676E+03  0.14393764676E+03  0.00000000000E+00 0. -1.
         21   -1    0    0  503  502 -0.00000000000E+00 -0.00000000000E+00 -0.99662150334E+01  0.99662150334E+01  0.00000000000E+00 0.  1.
         21    1    1    2  503  501  0.19048878506E+02  0.67997197769E+01  0.13204624257E+03  0.13358632467E+03  0.00000000000E+00 0. -1.
         21    1    1    2  504  502 -0.19048878506E+02 -0.67997197769E+01  0.19251891522E+01  0.20317537121E+02  0.00000000000E+00 0.  1.
</event>
<event>
 4    1  0.2825993E+006  0.9170686E+02  0.7546771E-02  0.1179010E+00
         21   -1    0    0  504  501  0.00000000000E+00  0.00000000000E+00  0.15124526082E+02  0.15124526082E+02  0.00000000000E+00 0. -1.
         21   -1    0    0  503  502 -0.00000000000E+00 -0.00000000000E+00 -0.72450268330E+03  0.72450268330E+03  0.00000000000E+00 0. -1.
         21    1    1    2  503  501  0.79413142945E+02  0.45866109909E+02 -0.53300440625E+03  0.54083624545E+03  0.00000000000E+00 0. -1.
         21    1    1    2  504  502 -0.79413142945E+02 -0.45866109909E+02 -0.17637375097E+03  0.19879096393E+03  0.00000000000E+00 0. -1.
</event>
<event>
 4    1  0.2825993E+006  0.2481438E+02  0.7546771E-02  0.1470891E+00
         21   -1    0    0  503  501  0.00000000000E+00  0.00000000000E+00  0.19852579082E+03  0.19852579082E+03  0.00000000000E+00 0.  1.
         21   -1    0    0  501  502 -0.00000000000E+00 -0.00000000000E+00 -0.40039327157E+02  0.40039327157E+02  0.00000000000E+00 0. -1.
         21    1    1    2  503  504 -0.15221305050E+02 -0.19597584038E+02  0.19381258836E+03  0.19539465918E+03  0.00000000000E+00 0.  1.
         21    1    1    2  504  502  0.15221305050E+02  0.19597584038E+02 -0.35326124694E+02  0.43170458805E+02  0.00000000000E+00 0. -1.
</event>
<event>
 4    1  0.2825993E+006  0.2514728E+02  0.7546771E-02  0.1467162E+00
         21   -1    0    0  504  501  0.00000000000E+00  0.00000000000E+00  0.16729832931E+02  0.16729832931E+02  0.00000000000E+00 0. -1.
         21   -1    0    0  503  502 -0.00000000000E+00 -0.00000000000E+00 -0.59989078379E+02  0.59989078379E+02  0.00000000000E+00 0.  1.
         21    1    1    2  503  501 -0.47083076147E+01 -0.24702586334E+02  0.16999614494E+01  0.25204678160E+02  0.00000000000E+00 0. -1.
         21    1    1    2  504  502  0.47083076147E+01  0.24702586334E+02 -0.44959206898E+02  0.51514233150E+02  0.00000000000E+00 0.  1.
</event>
<event>
 4    1  0.2825993E+006  0.6416244E+02  0.7546771E-02  0.1246310E+00
         21   -1    0    0  504  501  0.00000000000E+00  0.00000000000E+00  0.36759861007E+02  0.36759861007E+02  0.00000000000E+00 0. -1.
         21   -1    0    0  503  502 -0.00000000000E+00 -0.00000000000E+00 -0.26295453274E+03  0.26295453274E+03  0.00000000000E+00 0. -1.
         21    1    1    2  503  501 -0.59449772981E+01 -0.63886428840E+02 -0.22664325762E+03  0.23555038691E+03  0.00000000000E+00 0. -1.
         21    1    1    2  504  502  0.59449772981E+01  0.63886428840E+02  0.44858588781E+00  0.64164006844E+02  0.00000000000E+00 0. -1.
</event>
<event>
 4    1  0.2825993E+006  0.2191958E+02  0.7546771E-02  0.1506530E+00
         21   -1    0    0  503  501  0.00000000000E+00  0.00000000000E+00  0.15403579496E+02  0.15403579496E+02  0.00000000000E+00 0. -1.
         21   -1    0    0  504  502 -0.00000000000E+00 -0.00000000000E+00 -0.31210248880E+02  0.31210248880E+02  0.00000000000E+00 0. -1.
         21    1    1    2  503  502 -0.21053007417E+02  0.61023790455E+01 -0.84672139977E+01  0.23498124695E+02  0.00000000000E+00 0. -1.
         21    1    1    2  504  501  0.21053007417E+02 -0.61023790455E+01 -0.73394553864E+01  0.23115703681E+02  0.00000000000E+00 0. -1.
</event>
<event>
 4    1  0.2825993E+006  0.2417985E+02  0.7546771E-02  0.1478191E+00
         21   -1    0    0  502  501  0.00000000000E+00  0.00000000000E+00  0.79909791078E+02  0.79909791078E+02  0.00000000000E+00 0. -1.
         21   -1    0    0  503  502 -0.00000000000E+00 -0.00000000000E+00 -0.24038193635E+02  0.24038193635E+02  0.00000000000E+00 0.  1.
         21    1    1    2  503  504  0.22432158808E+02 -0.90257027096E+01 -0.15412740853E+02  0.28674337635E+02  0.00000000000E+00 0.  1.
         21    1    1    2  504  501 -0.22432158808E+02  0.90257027096E+01  0.71284338296E+02  0.75273647078E+02  0.00000000000E+00 0. -1.
</event>
<event>
 4    1  0.2825993E+006  0.2865739E+02  0.7546771E-02  0.1431634E+00
         21   -1    0    0  504  501  0.00000000000E+00  0.00000000000E+00  0.21241137179E+03  0.21241137179E+03  0.00000000000E+00 0.  1.
         21   -1    0    0  503  502 -0.00000000000E+00 -0.00000000000E+00 -0.92786444856E+02  0.92786444856E+02  0.00000000000E+00 0.  1.
         21    1    1    2  503  501  0.13416753395E+02  0.25322647390E+02  0.20919823829E+03  0.21115195630E+03  0.00000000000E+00 0.  1.
         21    1    1    2  504  502 -0.13416753395E+02 -0.25322647390E+02 -0.89573311356E+02  0.94045860354E+02  0.00000000000E+00 0.  1.
</event>
<event>
 4    1  0.2825993E+006  0.2185307E+02  0.7546771E-02  0.1507425E+00
         21   -1    0    0  504  501  0.00000000000E+00  0.00000000000E+00  0.53691283526E+02  0.53691283526E+02  0.00000000000E+00 0. -1.
         21   -1    0    0  503  502 -0.00000000000E+00 -0.00000000000E+00 -0.15192701397E+03  0.15192701397E+03  0.00000000000E+00 0.  1.
         21    1    1    2  503  501 -0.16817208978E+02  0.13954861431E+02 -0.14887217334E+03  0.15046754025E+03  0.00000000000E+00 0.  1.
         21    1    1    2  504  502  0.16817208978E+02 -0.13954861431E+02  0.50636442895E+02  0.55150757243E+02  0.00000000000E+00 0. -1.
</event>
<event>
 4    1  0.2825993E+006  0.2234716E+02  0.7546771E-02  0.1500863E+00
         21   -1    0    0  504  501  0.00000000000E+00  0.00000000000E+00  0.72971153475E+03  0.72971153475E+03  0.00000000000E+00 0. -1.
         21   -1    0    0  503  502 -0.00000000000E+00 -0.00000000000E+00 -0.58778706507E+02  0.58778706507E+02  0.00000000000E+00 0. -1.
         21    1    1    2  503  501 -0.31280187117E+00  0.22344972273E+02 -0.56476843163E+02  0.60737380949E+02  0.00000000000E+00 0. -1.
         21    1    1    2  504  502  0.31280187117E+00 -0.22344972273E+02  0.72740967141E+03  0.72775286031E+03  0.00000000000E+00 0. -1.
</event>
<event>
 4    1  0.2825993E+006  0.2848424E+02  0.7546771E-02  0.1433242E+00
         21   -1    0    0  504  501  0.00000000000E+00  0.00000000000E+00  0.12164976134E+03  0.12164976134E+03  0.00000000000E+00 0.  1.
         21   -1    0    0  501  502 -0.00000000000E+00 -0.00000000000E+00 -0.37822883796E+03  0.37822883796E+03  0.00000000000E+00 0.  1.
         21    1    1    2  503  502  0.27993101849E+02  0.52667085582E+01 -0.37601535956E+03  0.37709269762E+03  0.00000000000E+00 0.  1.
         21    1    1    2  504  503 -0.27993101849E+02 -0.52667085582E+01  0.11943628294E+03  0.12278590169E+03  0.00000000000E+00 0.  1.
</event>
<event>
 4    1  0.2825993E+006  0.2219248E+02  0.7546771E-02  0.1502895E+00
         21   -1    0    0  503  501  0.00000000000E+00  0.00000000000E+00  0.10134482882E+03  0.10134482882E+03  0.00000000000E+00 0.  1.
         21   -1    0    0  504  502 -0.00000000000E+00 -0.00000000000E+00 -0.10615169097E+02  0.10615169097E+02  0.00000000000E+00 0.  1.
         21    1    1    2  503  502 -0.18835035493E+02  0.11736600655E+02  0.41446902251E+01  0.22576200168E+02  0.00000000000E+00 0.  1.
         21    1    1    2  504  501  0.18835035493E+02 -0.11736600655E+02  0.86584969502E+02  0.89383797752E+02  0.00000000000E+00 0.  1.
</event>
<event>
 4    1  0.2825993E+006  0.2300510E+02  0.7546771E-02  0.1492434E+00
         21   -1    0    0  503  501  0.00000000000E+00  0.00000000000E+00  0.10861868986E+01  0.10861868986E+01  0.00000000000E+00 0. -1.
         21   -1    0    0  504  502 -0.00000000000E+00 -0.00000000000E+00 -0.52973846729E+03  0.52973846729E+03  0.00000000000E+00 0. -1.
         21    1    1    2  503  502 -0.27746703312E+01 -0.22837162990E+02 -0.33950085219E+03  0.34027939028E+03  0.00000000000E+00 0. -1.
         21    1    1    2  504  501  0.27746703312E+01  0.22837162990E+02 -0.18915142820E+03  0.19054526391E+03  0.00000000000E+00 0. -1.
</event>
<event>
 4    1  0.2825993E+006  0.2740283E+02  0.7546771E-02  0.1443603E+00
         21   -1    0    0  503  501  0.00000000000E+00  0.00000000000E+00  0.24191942718E+01  0.24191942718E+01  0.00000000000E+00 0. -1.
         21   -1    0    0  504  502 -0.00000000000E+00 -0.00000000000E+00 -0.31042354885E+03  0.31042354885E+03  0.00000000000E+00 0. -1.
         21    1    1    2  503  502  0.24851975310E+02 -0.11545318410E+02 -0.15539821276E+03  0.15779581612E+03  0.00000000000E+00 0. -1.
         21    1    1    2  504  501 -0.24851975310E+02  0.11545318410E+02 -0.15260614182E+03  0.15504692701E+03  0.00000000000E+00 0. -1.
</event>
<event>
 4    1  0.2825993E+006  0.2255167E+02  0.7546771E-02  0.1498206E+00
         21   -1    0    0  504  501  0.00000000000E+00  0.00000000000E+00  0.10905310249E+02  0.10905310249E+02  0.00000000000E+00 0.  1.
         21   -1    0    0  501  502 -0.00000000000E+00 -0.00000000000E+00 -0.53466136625E+02  0.53466136625E+02  0.00000000000E+00 0.  1.
         21    1    1    2  503  502  0.22216160606E+02 -0.38755542197E+01 -0.32784320648E+02  0.39791825704E+02  0.00000000000E+00 0.  1.
         21    1    1    2  504  503 -0.22216160606E+02  0.38755542197E+01 -0.97765057287E+01  0.24579621169E+02  0.00000000000E+00 0.  1.
</event>
<event>
 4    1  0.2825993E+006  0.3553108E+02  0.7546771E-02  0.1376868E+00
         21   -1    0    0  504  501  0.00000000000E+00  0.00000000000E+00  0.44723456179E+02  0.44723456179E+02  0.00000000000E+00 0.  1.
         21   -1    0    0  501  502 -0.00000000000E+00 -0.00000000000E+00 -0.35077526440E+02  0.35077526440E+02  0.00000000000E+00 0.  1.
         21    1    1    2  503  502  0.27702143862E+02  0.22249696742E+02 -0.12808612175E+02  0.37769277535E+02  0.00000000000E+00 0.  1.
         21    1    1    2  504  503 -0.27702143862E+02 -0.22249696742E+02  0.22454541914E+02  0.42031705084E+02  0.00000000000E+00 0.  1.
</event>
<event>
 4    1  0.2825993E+006  0.3407169E+02  0.7546771E-02  0.1387210E+00
         21   -1    0    0  503  501  0.00000000000E+00  0.00000000000E+00  0.39025471978E+03  0.39025471978E+03  0.00000000000E+00 0.  1.
         21   -1    0    0  501  502 -0.00000000000E+00 -0.00000000000E+00 -0.57971445786E+01  0.57971445786E+01  0.00000000000E+00 0. -1.
         21    1    1    2  503  504 -0.19730325115E+02  0.27777584034E+02  0.33040390533E+03  0.33215601840E+03  0.00000000000E+00 0.  1.
         21    1    1    2  504  502  0.19730325115E+02 -0.27777584034E+02  0.54053669878E+02  0.63895845962E+02  0.00000000000E+00 0. -1.
</event>
<event>
 4    1  0.2825993E+006  0.5543511E+02  0.7546771E-02  0.1276184E+00
         21   -1    0    0  503  501  0.00000000000E+00  0.00000000000E+00  0.73551875884E+02  0.73551875884E+02  0.00000000000E+00 0. -1.
         21   -1    0    0  504  502 -0.00000000000E+00 -0.00000000000E+00 -0.95085325496E+02  0.95085325496E+02  0.00000000000E+00 0.  1.
         21    1    1    2  503  502  0.36832428569E+02  0.41429739424E+02 -0.73898640208E+02  0.92379976876E+02  0.00000000000E+00 0.  1.
         21    1    1    2  504  501 -0.36832428569E+02 -0.41429739424E+02  0.52365190596E+02  0.76257224505E+02  0.00000000000E+00 0. -1.
</event>
<event>
 4    1  0.2825993E+006  0.7280789E+02  0.7546771E-02  0.1221607E+00
         21   -1    0    0  502  501  0.00000000000E+00  0.00000000000E+00  0.94339909117E+01  0.94339909117E+01  0.00000000000E+00 0. -1.
         21   -1    0    0  503  502 -0.00000000000E+00 -0.00000000000E+00 -0.98053859674E+03  0.98053859674E+03  0.00000000000E+00 0.  1.
         21    1    1    2  503  504 -0.56838025690E+02 -0.45501960387E+02 -0.80898119008E+03  0.81225091903E+03  0.00000000000E+00 0.  1.
         21    1    1    2  504  501  0.56838025690E+02  0.45501960387E+02 -0.16212341575E+03  0.17772166862E+03  0.00000000000E+00 0. -1.
</event>
<event>
 4    1  0.2825993E+006  0.3218281E+02  0.7546771E-02  0.1401530E+00
         21   -1    0    0  503  501  0.00000000000E+00  0.00000000000E+00  0.20172782668E+02  0.20172782668E+02  0.00000000000E+00 0. -1.
         21   -1    0    0  504  502 -0.00000000000E+00 -0.00000000000E+00 -0.54046231170E+02  0.54046231170E+02  0.00000000000E+00 0. -1.
         21    1    1    2  503  502 -0.16036249792E+02  0.27902907432E+02 -0.86375547982E+01  0.33321778215E+02  0.00000000000E+00 0. -1.
         21    1    1    2  504  501  0.16036249792E+02 -0.27902907432E+02 -0.25235893704E+02  0.40897235622E+02  0.00000000000E+00 0. -1.
</event>
<event>
 4    1  0.2825993E+006  0.4406827E+02  0.7546771E-02  0.1326165E+00
         21   -1    0    0  503  501  0.00000000000E+00  0.00000000000E+00  0.22708247091E+03  0.22708247091E+03  0.00000000000E+00 0. -1.
         21   -1    0    0  501  502 -0.00000000000E+00 -0.00000000000E+00 -0.20955451490E+02  0.20955451490E+02  0.00000000000E+00 0. -1.
         21    1    1    2  503  504  0.33493635686E+02 -0.28638939104E+02  0.19847718166E+03  0.20331060992E+03  0.00000000000E+00 0. -1.
         21    1    1    2  504  502 -0.33493635686E+02  0.28638939104E+02  0.76498377614E+01  0.44727312487E+02  0.00000000000E+00 0. -1.
</event>
<event>
 4    1  0.2825993E+006  0.2858408E+02  0.7546771E-02  0.1432313E+00
         21   -1    0    0  504  501  0.00000000000E+00  0.00000000000E+00  0.33535649891E+02  0.33535649891E+02  0.00000000000E+00 0.  1.
         21   -1    0    0  501  502 -0.00000000000E+00 -0.00000000000E+00 -0.10339536237E+03  0.10339536237E+03  0.00000000000E+00 0.  1.
         21    1    1    2  503  502 -0.28111765900E+02 -0.51747783920E+01 -0.94787839597E+02  0.99003960773E+02  0.00000000000E+00 0.  1.
         21    1    1    2  504  503  0.28111765900E+02  0.51747783920E+01  0.24928127114E+02  0.37927051491E+02  0.00000000000E+00 0.  1.
</event>
<event>
 4    1  0.2825993E+006  0.2720414E+02  0.7546771E-02  0.1445568E+00
         21   -1    0    0  503  501  0.00000000000E+00  0.00000000000E+00  0.10900649890E+02  0.10900649890E+02  0.00000000000E+00 0. -1.
         21   -1    0    0  504  502 -0.00000000000E+00 -0.00000000000E+00 -0.15052190305E+03  0.15052190305E+03  0.00000000000E+00 0. -1.
         21    1    1    2  503  502  0.79257675338E+01 -0.26023978551E+02 -0.10010322790E+02  0.28987442332E+02  0.00000000000E+00 0. -1.
         21    1    1    2  504  501 -0.79257675338E+01  0.26023978551E+02 -0.12961093037E+03  0.13243511060E+03  0.00000000000E+00 0. -1.
</event>
<event>
 4    1  0.2825993E+006  0.3722565E+02  0.7546771E-02  0.1365558E+00
         21   -1    0    0  504  501  0.00000000000E+00  0.00000000000E+00  0.48569045826E+02  0.48569045826E+02  0.00000000000E+00 0.  1.
         21   -1    0    0  503  502 -0.00000000000E+00 -0.00000000000E+00 -0.72119460844E+02  0.72119460844E+02  0.00000000000E+00 0.  1.
         21    1    1    2  503  501  0.25351004525E+02 -0.27259415440E+02 -0.58688164897E+02  0.69498560126E+02  0.00000000000E+00 0.  1.
         21    1    1    2  504  502 -0.25351004525E+02  0.27259415440E+02  0.35137749879E+02  0.51189946543E+02  0.00000000000E+00 0.  1.
</event>
<event>
 4    1  0.2825993E+006  0.2093500E+02  0.7546771E-02  0.1520195E+00
         21   -1    0    0  503  501  0.00000000000E+00  0.00000000000E+00  0.30283467177E+02  0.30283467177E+02  0.00000000000E+00 0. -1.
         21   -1    0    0  504  502 -0.00000000000E+00 -0.00000000000E+00 -0.17246188506E+02  0.17246188506E+02  0.00000000000E+00 0. -1.
         21    1    1    2  503  502 -0.70662580991E+01 -0.19706402077E+02  0.16049348220E+02  0.26379080057E+02  0.00000000000E+00 0. -1.
         21    1    1    2  504  501  0.70662580991E+01  0.19706402077E+02 -0.30120695497E+01  0.21150575626E+02  0.00000000000E+00 0. -1.
</event>
<event>
 4    1  0.2825993E+006  0.3105845E+02  0.7546771E-02  0.1410616E+00
         21   -1    0    0  503  501  0.00000000000E+00  0.00000000000E+00  0.13938606034E+03  0.13938606034E+03  0.00000000000E+00 0. -1.
         21   -1    0    0  501  502 -0.00000000000E+00 -0.00000000000E+00 -0.32051983213E+02  0.32051983213E+02  0.00000000000E+00 0.  1.
         21    1    1    2  503  504  0.27309532636E+02  0.14792452759E+02  0.12956995116E+03  0.13324038230E+03  0.00000000000E+00 0. -1.
         21    1    1    2  504  502 -0.27309532636E+02 -0.14792452759E+02 -0.22235874033E+02  0.38197661256E+02  0.00000000000E+00 0.  1.
</event>
<event>
 4    1  0.2825993E+006  0.2427675E+02  0.7546771E-02  0.1477059E+00
         21   -1    0    0  502  501  0.00000000000E+00  0.00000000000E+00  0.50105653729E+03  0.50105653729E+03  0.00000000000E+00 0. -1.
         21   -1    0    0  504  502 -0.00000000000E+00 -0.00000000000E+00 -0.22481959302E+01  0.22481959302E+01  0.00000000000E+00 0. -1.
         21    1    1    2  503  501  0.20277340749E+02  0.13348791410E+02  0.42317352961E+03  0.42386931588E+03  0.00000000000E+00 0. -1.
         21    1    1    2  504  503 -0.20277340749E+02 -0.13348791410E+02  0.75634811748E+02  0.79435417341E+02  0.00000000000E+00 0. -1.
</event>
<event>
 4    1  0.2825993E+006  0.2079989E+02  0.7546771E-02  0.1522141E+00
         21   -1    0    0  503  501  0.00000000000E+00  0.00000000000E+00  0.86110446951E+01  0.86110446951E+01  0.00000000000E+00 0. -1.
         21   -1    0    0  504  502 -0.00000000000E+00 -0.00000000000E+00 -0.16503719666E+03  0.16503719666E+03  0.00000000000E+00 0. -1.
         21    1    1    2  503  502  0.78041599171E+01 -0.19280310068E+02 -0.15062523845E+03  0.15205458799E+03  0.00000000000E+00 0. -1.
         21    1    1    2  504  501 -0.78041599171E+01  0.19280310068E+02 -0.58009135127E+01  0.21593653371E+02  0.00000000000E+00 0. -1.
</event>
<event>
 4    1  0.2825993E+006  0.2118366E+02  0.7546771E-02  0.1516659E+00
         21   -1    0    0  503  501  0.00000000000E+00  0.00000000000E+00  0.36367837422E+02  0.36367837422E+02  0.00000000000E+00 0.  1.
         21   -1    0    0  501  502 -0.00000000000E+00 -0.00000000000E+00 -0.12865174924E+02  0.12865174924E+02  0.00000000000E+00 0.  1.
         21    1    1    2  503  504  0.20709888715E+02  0.44551107971E+01  0.16729041959E+02  0.26992746205E+02  0.00000000000E+00 0.  1.
         21    1    1    2  504  502 -0.20709888715E+02 -0.44551107971E+01  0.67736205389E+01  0.22240266141E+02  0.00000000000E+00 0.  1.
</event>
<event>
 4    1  0.2825993E+006  0.2125316E+02  0.7546771E-02  0.1515681E+00
         21   -1    0    0  502  501  0.00000000000E+00  0.00000000000E+00  0.79262714923E+03  0.79262714923E+03  0.00000000000E+00 0.  1.
         21   -1    0    0  504  502 -0.00000000000E+00 -0.00000000000E+00 -0.12225945677E+01  0.12225945677E+01  0.00000000000E+00 0.  1.
         21    1    1    2  503  501  0.22080943451E+01 -0.21138143412E+02  0.68572436474E+03  0.68605364308E+03  0.00000000000E+00 0.  1.
         21    1    1    2  504  503 -0.22080943451E+01  0.21138143412E+02  0.10568018992E+03  0.10779610071E+03  0.00000000000E+00 0.  1.
</event>
<event>
 4    1  0.2825993E+006  0.2451085E+02  0.7546771E-02  0.1474351E+00
         21   -1    0    0  503  501  0.00000000000E+00  0.00000000000E+00  0.13704647991E+02  0.13704647991E+02  0.00000000000E+00 0.  1.
         21   -1    0    0  504  502 -0.00000000000E+00 -0.00000000000E+00 -0.16357566141E+03  0.16357566141E+03  0.00000000000E+00 0. -1.
         21    1    1    2  503  502 -0.21949277391E+02 -0.10909208880E+02 -0.15077351375E+03  0.15275285288E+03  0.00000000000E+00 0. -1.
         21    1    1    2  504  501  0.21949277391E+02  0.10909208880E+02  0.90250032769E+00  0.24527456518E+02  0.00000000000E+00 0.  1.
</event>
<event>
 4    1  0.2825993E+006  0.2039977E+02  0.7546771E-02  0.1528010E+00
         21   -1    0    0  503  501  0.00000000000E+00  0.00000000000E+00  0.57498345568E+01  0.57498345568E+01  0.00000000000E+00 0. -1.
         21   -1    0    0  501  502 -0.00000000000E+00 -0.00000000000E+00 -0.14960143785E+03  0.14960143785E+03  0.00000000000E+00 0.  1.
         21    1    1    2  503  504 -0.10066638934E+02  0.17742981600E+02 -0.16117753119E+02  0.25998703450E+02  0.00000000000E+00 0. -1.
         21    1    1    2  504  502  0.10066638934E+02 -0.17742981600E+02 -0.12773385018E+03  0.12935256896E+03  0.00000000000E+00 0.  1.
</event>
<event>
 4    1  0.2825993E+006  0.2006265E+02  0.7546771E-02  0.1533080E+00
         21   -1    0    0  503  501  0.00000000000E+00  0.00000000000E+00  0.11554312785E+02  0.11554312785E+02  0.00000000000E+00 0. -1.
         21   -1    0    0  504  502 -0.00000000000E+00 -0.00000000000E+00 -0.85256213202E+02  0.85256213202E+02  0.00000000000E+00 0. -1.
         21    1    1    2  503  502 -0.65390129025E+01  0.18967112428E+02  0.37368163993E+00  0.20066132701E+02  0.00000000000E+00 0. -1.
         21    1    1    2  504  501  0.65390129025E+01 -0.18967112428E+02 -0.74075582057E+02  0.76744393285E+02  0.00000000000E+00 0. -1.
</event>
<event>
 4    1  0.2825993E+006  0.2375488E+02  0.7546771E-02  0.1483231E+00
         21   -1    0    0  503  501  0.00000000000E+00  0.00000000000E+00  0.77941687554E+01  0.77941687554E+01  0.00000000000E+00 0. -1.
         21   -1    0    0  504  502 -0.00000000000E+00 -0.00000000000E+00 -0.75491279793E+02  0.75491279793E+02  0.00000000000E+00 0. -1.
         21    1    1    2  503  502  0.18490443192E+02  0.14913005759E+02 -0.25421182281E+02  0.34792682259E+02  0.00000000000E+00 0. -1.
         21    1    1    2  504  501 -0.18490443192E+02 -0.14913005759E+02 -0.42275928756E+02  0.48492766289E+02  0.00000000000E+00 0. -1.
</event>
<event>
 4    1  0.2825993E+006  0.2434712E+02  0.7546771E-02  0.1476241E+00
         21   -1    0    0  504  501  0.00000000000E+00  0.00000000000E+00  0.45939520903E+01  0.45939520903E+01  0.00000000000E+00 0. -1.
         21   -1    0    0  503  502 -0.00000000000E+00 -0.00000000000E+00 -0.78413415206E+03  0.78413415206E+03  0.00000000000E+00 0. -1.
         21    1    1    2  503  501  0.60979690877E+01 -0.23571104835E+02 -0.29311377945E+02  0.38104318485E+02  0.00000000000E+00 0. -1.
         21    1    1    2  504  502 -0.60979690877E+01  0.23571104835E+02 -0.75022882202E+03  0.75062378566E+03  0.00000000000E+00 0. -1.
</event>
<event>
 4    1  0.2825993E+006  0.2160757E+02  0.7546771E-02  0.1510764E+00
         21   -1    0    0  503  501  0.00000000000E+00  0.00000000000E+00  0.66539193353E+02  0.66539193353E+02  0.00000000000E+00 0.  1.
         21   -1    0    0  504  502 -0.00000000000E+00 -0.00000000000E+00 -0.17325767094E+03  0.17325767094E+03  0.00000000000E+00 0.  1.
         21    1    1    2  503  502  0.16125366742E+02  0.14382617369E+02  0.64086231281E+02  0.67630852240E+02  0.00000000000E+00 0.  1.
         21    1    1    2  504  501 -0.16125366742E+02 -0.14382617369E+02 -0.17080470887E+03  0.17216601206E+03  0.00000000000E+00 0.  1.
</event>
<event>
 4    1  0.2825993E+006  0.2406525E+02  0.7546771E-02  0.1479538E+00
         21   -1    0    0  504  501  0.00000000000E+00  0.00000000000E+00  0.39413834310E+01  0.39413834310E+01  0.00000000000E+00 0. -1.
         21   -1    0    0  503  502 -0.00000000000E+00 -0.00000000000E+00 -0.23383813024E+03  0.23383813024E+03  0.00000000000E+00 0. -1.
         21    1    1    2  503  501  0.52949099249E+01 -0.23475519247E+02 -0.18742514520E+03  0.18896380904E+03  0.00000000000E+00 0. -1.
         21    1    1    2  504  502 -0.52949099249E+01  0.23475519247E+02 -0.42471601611E+02  0.48815704629E+02  0.00000000000E+00 0. -1.
</event>
<event>
 4    1  0.2825993E+006  0.2075638E+02  0.7546771E-02  0.1522772E+00
         21   -1    0    0  502  501  0.00000000000E+00  0.00000000000E+00  0.63594221325E+03  0.63594221325E+03  0.00000000000E+00 0.  1.
         21   -1    0    0  504  502 -0.00000000000E+00 -0.00000000000E+00 -0.11712115826E+01  0.11712115826E+01  0.00000000000E+00 0. -1.
         21    1    1    2  503  501 -0.20924427609E+01 -0.20650643611E+02  0.52421951370E+03  0.52463027547E+03  0.00000000000E+00 0.  1.
         21    1    1    2  504  503  0.20924427609E+01  0.20650643611E+02  0.11055148797E+03  0.11248314936E+03  0.00000000000E+00 0. -1.
</event>
<event>
 4    1  0.2825993E+006  0.2638972E+02  0.7546771E-02  0.1453837E+00
         21   -1    0    0  503  501  0.00000000000E+00  0.00000000000E+00  0.14597479145E+02  0.14597479145E+02  0.00000000000E+00 0.  1.
         21   -1    0    0  504  502 -0.00000000000E+00 -0.00000000000E+00 -0.12977625963E+03  0.12977625963E+03  0.00000000000E+00 0.  1.
         21    1    1    2  503  502 -0.41346938815E+01 -0.26063801503E+02 -0.18461397736E+00  0.26390368027E+02  0.00000000000E+00 0.  1.
         21    1    1    2  504  501  0.41346938815E+01  0.26063801503E+02 -0.11499416651E+03  0.11798337075E+03  0.00000000000E+00 0.  1.
</event>
<event>
 4    1  0.2825993E+006  0.2742725E+02  0.7546771E-02  0.1443363E+00
         21   -1    0    0  504  501  0.00000000000E+00  0.00000000000E+00  0.88650009234E+02  0.88650009234E+02  0.00000000000E+00 0. -1.
         21   -1    0    0  503  502 -0.00000000000E+00 -0.00000000000E+00 -0.85245624780E+01  0.85245624780E+01  0.00000000000E+00 0. -1.
         21    1    1    2  503  501  0.25337487137E+02  0.10500758113E+02  0.36780607266E+02  0.45881011826E+02  0.00000000000E+00 0. -1.
         21    1    1    2  504  502 -0.25337487137E+02 -0.10500758113E+02  0.43344839490E+02  0.51293559886E+02  0.00000000000E+00 0. -1.
</event>
<event>
 4    1  0.2825993E+006  0.2618478E+02  0.7546771E-02  0.1455974E+00
         21   -1    0    0  503  501  0.00000000000E+00  0.00000000000E+00  0.21185613593E+03  0.21185613593E+03  0.00000000000E+00 0.  1.
         21   -1    0    0  504  502 -0.00000000000E+00 -0.00000000000E+00 -0.34046925797E+03  0.34046925797E+03  0.00000000000E+00 0. -1.
         21    1    1    2  503  502  0.20045872172E+02 -0.16846527507E+02 -0.33915358019E+03  0.34016289250E+03  0.00000000000E+00 0. -1.
         21    1    1    2  504  501 -0.20045872172E+02  0.16846527507E+02  0.21054045815E+03  0.21216250139E+03  0.00000000000E+00 0.  1.
</event>
<event>
 4    1  0.2825993E+006  0.2288279E+02  0.7546771E-02  0.1493975E+00
         21   -1    0    0  502  501  0.00000000000E+00  0.00000000000E+00  0.19820299335E+01  0.19820299335E+01  0.00000000000E+00 0. -1.
         21   -1    0    0  503  502 -0.00000000000E+00 -0.00000000000E+00 -0.33352857495E+03  0.33352857495E+03  0.00000000000E+00 0. -1.
         21    1    1    2  503  504 -0.20910190489E+02 -0.92944106049E+01 -0.24226483747E+03  0.24334311909E+03  0.00000000000E+00 0. -1.
         21    1    1    2  504  501  0.20910190489E+02  0.92944106049E+01 -0.89281707542E+02  0.92167485787E+02  0.00000000000E+00 0. -1.
</event>
<event>
 4    1  0.2825993E+006  0.2399884E+02  0.7546771E-02  0.1480323E+00
         21   -1    0    0  504  501  0.00000000000E+00  0.00000000000E+00  0.19515615135E+02  0.19515615135E+02  0.00000000000E+00 0. -1.
         21   -1    0    0  501  502 -0.00000000000E+00 -0.00000000000E+00 -0.30223860424E+03  0.30223860424E+03  0.00000000000E+00 0.  1.
         21    1    1    2  503  502 -0.16369886782E+02  0.17549102928E+02 -0.29418250460E+03  0.29515977066E+03  0.00000000000E+00 0.  1.
         21    1    1    2  504  503  0.16369886782E+02 -0.17549102928E+02  0.11459515494E+02  0.26594448710E+02  0.00000000000E+00 0. -1.
</event>
<event>
 4    1  0.2825993E+006  0.2019040E+02  0.7546771E-02  0.1531145E+00
         21   -1    0    0  502  501  0.00000000000E+00  0.00000000000E+00  0.78994651122E+02  0.78994651122E+02  0.00000000000E+00 0.  1.
         21   -1    0    0  504  502 -0.00000000000E+00 -0.00000000000E+00 -0.13481184601E+02  0.13481184601E+02  0.00000000000E+00 0.  1.
         21    1    1    2  503  501 -0.82243632822E+01 -0.18439421141E+02  0.69082400825E+02  0.71972428798E+02  0.00000000000E+00 0.  1.
         21    1    1    2  504  503  0.82243632822E+01  0.18439421141E+02 -0.35689343039E+01  0.20503406924E+02  0.00000000000E+00 0.  1.
</event>
<event>
 4    1  0.2825993E+006  0.2850074E+02  0.7546771E-02  0.1433089E+00
         21   -1    0    0  504  501  0.00000000000E+00  0.00000000000E+00  0.34429130898E+03  0.34429130898E+03  0.00000000000E+00 0.  1.
         21   -1    0    0  501  502 -0.00000000000E+00 -0.00000000000E+00 -0.66322975592E+02  0.66322975592E+02  0.00000000000E+00 0. -1.
         21    1    1    2  503  502 -0.26477524556E+02 -0.10546710417E+02 -0.62638198125E+02  0.68817412561E+02  0.00000000000E+00 0. -1.
         21    1    1    2  504  503  0.26477524556E+02  0.10546710417E+02  0.34060653151E+03  0.34179687201E+03  0.00000000000E+00 0.  1.
</event>
<event>
 4    1  0.2825993E+006  0.2359856E+02  0.7546771E-02  0.1485116E+00
         21   -1    0    0  503  501  0.00000000000E+00  0.00000000000E+00  0.23434522181E+02  0.23434522181E+02  0.00000000000E+00 0. -1.
         21   -1    0    0  501  502 -0.00000000000E+00 -0.00000000000E+00 -0.30034356984E+02  0.30034356984E+02  0.00000000000E+00 0.  1.
         21    1    1    2  503  504 -0.19600050926E+02  0.13142678985E+02  0.89157410858E+01  0.25226621778E+02  0.00000000000E+00 0. -1.
         21    1    1    2  504  502  0.19600050926E+02 -0.13142678985E+02 -0.15515575889E+02  0.28242257388E+02  0.00000000000E+00 0.  1.
</event>
<event>
 4    1  0.2825993E+006  0.2866304E+02  0.7546771E-02  0.1431582E+00
         21   -1    0    0  503  501  0.00000000000E+00  0.00000000000E+00  0.12104692714E+03  0.12104692714E+03  0.00000000000E+00 0.  1.
         21   -1    0    0  504  502 -0.00000000000E+00 -0.00000000000E+00 -0.21037027731E+02  0.21037027731E+02  0.00000000000E+00 0. -1.
         21    1    1    2  503  502 -0.85515507804E+01  0.27357645822E+02  0.10847421625E+03  0.11219726109E+03  0.00000000000E+00 0.  1.
         21    1    1    2  504  501  0.85515507804E+01 -0.27357645822E+02 -0.84643168374E+01  0.29886693782E+02  0.00000000000E+00 0. -1.
</event>
<event>
 4    1  0.2825993E+006  0.2543624E+02  0.7546771E-02  0.1463982E+00
         21   -1    0    0  504  501  0.00000000000E+00  0.00000000000E+00  0.15005095509E+03  0.15005095509E+03  0.00000000000E+00 0.  1.
         21   -1    0    0  503  502 -0.00000000000E+00 -0.00000000000E+00 -0.15316871783E+03  0.15316871783E+03  0.00000000000E+00 0.  1.
         21    1    1    2  503  501 -0.12647049204E+02 -0.22069310493E+02 -0.15101948415E+03  0.15314661900E+03  0.00000000000E+00 0.  1.
         21    1    1    2  504  502  0.12647049204E+02  0.22069310493E+02  0.14790172141E+03  0.15007305393E+03  0.00000000000E+00 0.  1.
</event>
<event>
 4    1  0.2825993E+006  0.2144745E+02  0.7546771E-02  0.1512971E+00
         21   -1    0    0  504  501  0.00000000000E+00  0.00000000000E+00  0.21802531951E+03  0.21802531951E+03  0.00000000000E+00 0. -1.
         21   -1    0    0  503  502 -0.00000000000E+00 -0.00000000000E+00 -0.29155958842E+01  0.29155958842E+01  0.00000000000E+00 0.  1.
         21    1    1    2  503  501 -0.20820025036E+02 -0.51497096525E+01  0.49479604972E+02  0.53927954348E+02  0.00000000000E+00 0.  1.
         21    1    1    2  504  502  0.20820025036E+02  0.51497096525E+01  0.16563011866E+03  0.16701296105E+03  0.00000000000E+00 0. -1.
</event>
<event>
 4    1  0.2825993E+006  0.2292211E+02  0.7546771E-02  0.1493479E+00
         21   -1    0    0  504  501  0.00000000000E+00  0.00000000000E+00  0.17060409826E+02  0.17060409826E+02  0.00000000000E+00 0. -1.
         21   -1    0    0  503  502 -0.00000000000E+00 -0.00000000000E+00 -0.80146366297E+02  0.80146366297E+02  0.00000000000E+00 0. -1.
         21    1    1    2  503  501 -0.19905355567E+02 -0.11366606162E+02 -0.69681331795E+02  0.73354692533E+02  0.00000000000E+00 0. -1.
         21    1    1    2  504  502  0.19905355567E+02  0.11366606162E+02  0.65953753234E+01  0.23852083589E+02  0.00000000000E+00 0. -1.
</event>
<event>
 4    1  0.2825993E+006  0.3068916E+02  0.7546771E-02  0.1413700E+00
         21   -1    0    0  502  501  0.00000000000E+00  0.00000000000E+00  0.25437075265E+02  0.25437075265E+02  0.00000000000E+00 0. -1.
         21   -1    0    0  504  502 -0.00000000000E+00 -0.00000000000E+00 -0.16533447397E+03  0.16533447397E+03  0.00000000000E+00 0.  1.
         21    1    1    2  503  501  0.29246238218E+02  0.92995799801E+01  0.14080483078E+02  0.33765139441E+02  0.00000000000E+00 0. -1.
         21    1    1    2  504  503 -0.29246238218E+02 -0.92995799801E+01 -0.15397788179E+03  0.15700640980E+03  0.00000000000E+00 0.  1.
</event>
<event>
 4    1  0.2825993E+006  0.3241079E+02  0.7546771E-02  0.1399741E+00
         21   -1    0    0  503  501  0.00000000000E+00  0.00000000000E+00  0.26115794213E+01  0.26115794213E+01  0.00000000000E+00 0.  1.
         21   -1    0    0  504  502 -0.00000000000E+00 -0.00000000000E+00 -0.17380626910E+04  0.17380626910E+04  0.00000000000E+00 0. -1.
         21    1    1    2  503  502 -0.78262591989E+01  0.31451690221E+02 -0.10471489180E+03  0.10961600119E+03  0.00000000000E+00 0.  1.
         21    1    1    2  504  501  0.78262591989E+01 -0.31451690221E+02 -0.16307362198E+04  0.16310582693E+04  0.00000000000E+00 0. -1.
</event>
<event>
 4    1  0.2825993E+006  0.2195175E+02  0.7546771E-02  0.1506098E+00
         21   -1    0    0  504  501  0.00000000000E+00  0.00000000000E+00  0.44527936307E+02  0.44527936307E+02  0.00000000000E+00 0.  1.
         21   -1    0    0  503  502 -0.00000000000E+00 -0.00000000000E+00 -0.19331559245E+02  0.19331559245E+02  0.00000000000E+00 0.  1.
         21    1    1    2  503  501 -0.19979394554E+01 -0.21860637314E+02 -0.85862414441E+01  0.23571227545E+02  0.00000000000E+00 0.  1.
         21    1    1    2  504  502  0.19979394554E+01  0.21860637314E+02  0.33782618507E+02  0.40288268007E+02  0.00000000000E+00 0.  1.
</event>
<event>
 4    1  0.2825993E+006  0.2462884E+02  0.7546771E-02  0.1472999E+00
         21   -1    0    0  502  501  0.00000000000E+00  0.00000000000E+00  0.58284349999E+02  0.58284349999E+02  0.00000000000E+00 0.  1.
         21   -1    0    0  504  502 -0.00000000000E+00 -0.00000000000E+00 -0.50221448660E+02  0.50221448660E+02  0.00000000000E+00 0.  1.
         21    1    1    2  503  501  0.52641909428E+01  0.24059679972E+02  0.52337032115E+02  0.57842413826E+02  0.00000000000E+00 0.  1.
         21    1    1    2  504  503 -0.52641909428E+01 -0.24059679972E+02 -0.44274130776E+02  0.50663384832E+02  0.00000000000E+00 0.  1.
</event>
<event>
 4    1  0.2825993E+006  0.2592036E+02  0.7546771E-02  0.1458765E+00
         21   -1    0    0  503  501  0.00000000000E+00  0.00000000000E+00  0.75386342229E+02  0.75386342229E+02  0.00000000000E+00 0.  1.
         21   -1    0    0  504  502 -0.00000000000E+00 -0.00000000000E+00 -0.19744323812E+02  0.19744323812E+02  0.00000000000E+00 0.  1.
         21    1    1    2  503  502  0.10986861722E+02  0.23476672117E+02 -0.74099386456E+01  0.26958717605E+02  0.00000000000E+00 0.  1.
         21    1    1    2  504  501 -0.10986861722E+02 -0.23476672117E+02  0.63051957062E+02  0.68171948436E+02  0.00000000000E+00 0.  1.
</event>
<event>
 4    1  0.2825993E+006  0.4538780E+02  0.7546771E-02  0.1319512E+00
         21   -1    0    0  502  501  0.00000000000E+00  0.00000000000E+00  0.61438701222E+02  0.61438701222E+02  0.00000000000E+00 0. -1.
         21   -1    0    0  504  502 -0.00000000000E+00 -0.00000000000E+00 -0.16499580428E+03  0.16499580428E+03  0.00000000000E+00 0.  1.
         21    1    1    2  503  501  0.32597017652E+02 -0.31583018859E+02  0.49282128043E+02  0.66998364043E+02  0.00000000000E+00 0. -1.
         21    1    1    2  504  503 -0.32597017652E+02  0.31583018859E+02 -0.15283923110E+03  0.15943614146E+03  0.00000000000E+00 0.  1.
</event>
<event>
 4    1  0.2825993E+006  0.3324315E+02  0.7546771E-02  0.1393354E+00
         21   -1    0    0  504  501  0.00000000000E+00  0.00000000000E+00  0.27136849549E+03  0.27136849549E+03  0.00000000000E+00 0.  1.
         21   -1    0    0  503  502 -0.00000000000E+00 -0.00000000000E+00 -0.68585941909E+01  0.68585941909E+01  0.00000000000E+00 0.  1.
         21    1    1    2  503  501  0.15392979237E+02 -0.29464610901E+02  0.22092185842E+03  0.22340898513E+03  0.00000000000E+00 0.  1.
         21    1    1    2  504  502 -0.15392979237E+02  0.29464610901E+02  0.43588042873E+02  0.54818104554E+02  0.00000000000E+00 0.  1.
</event>
<event>
 4    1  0.2825993E+006  0.2352752E+02  0.7546771E-02  0.1485978E+00
         21   -1    0    0  503  501  0.00000000000E+00  0.00000000000E+00  0.97834254388E+02  0.97834254388E+02  0.00000000000E+00 0. -1.
         21   -1    0    0  504  502 -0.00000000000E+00 -0.00000000000E+00 -0.14434686134E+03  0.14434686134E+03  0.00000000000E+00 0.  1.
         21    1    1    2  503  502  0.60045958803E+01  0.22748390270E+02  0.95437330668E+02  0.98294600648E+02  0.00000000000E+00 0. -1.
         21    1    1    2  504  501 -0.60045958803E+01 -0.22748390270E+02 -0.14194993762E+03  0.14388651508E+03  0.00000000000E+00 0.  1.
</event>
<event>
 4    1  0.2825993E+006  0.3045319E+02  0.7546771E-02  0.1415698E+00
         21   -1    0    0  504  501  0.00000000000E+00  0.00000000000E+00  0.73295199849E+01  0.73295199849E+01  0.00000000000E+00 0.  1.
         21   -1    0    0  503  502 -0.00000000000E+00 -0.00000000000E+00 -0.17341352033E+03  0.17341352033E+03  0.00000000000E+00 0.  1.
         21    1    1    2  503  501 -0.29635660143E+02  0.70088709177E+01 -0.13003195007E+03  0.13355038249E+03  0.00000000000E+00 0.  1.
         21    1    1    2  504  502  0.29635660143E+02 -0.70088709177E+01 -0.36052050271E+02  0.47192657823E+02  0.00000000000E+00 0.  1.
</event>
<event>
 4    1  0.2825993E+006  0.2843845E+02  0.7546771E-02  0.1433670E+00
         21   -1    0    0  503  501  0.00000000000E+00  0.00000000000E+00  0.49768568868E+02  0.49768568868E+02  0.00000000000E+00 0. -1.
         21   -1    0    0  504  502 -0.00000000000E+00 -0.00000000000E+00 -0.18733569622E+03  0.18733569622E+03  0.00000000000E+00 0.  1.
         21    1    1    2  503  502 -0.20547633636E+02  0.19660629900E+02  0.44510143898E+02  0.52819490020E+02  0.00000000000E+00 0. -1.
         21    1    1    2  504  501  0.20547633636E+02 -0.19660629900E+02 -0.18207727125E+03  0.18428477507E+03  0.00000000000E+00 0.  1.
</event>
<event>
 4    1  0.2825993E+006  0.2600143E+02  0.7546771E-02  0.1457905E+00
         21   -1    0    0  504  501  0.00000000000E+00  0.00000000000E+00  0.12729542328E+01  0.12729542328E+01  0.00000000000E+00 0.  1.
         21   -1    0    0  501  502 -0.00000000000E+00 -0.00000000000E+00 -0.54050810950E+03  0.54050810950E+03  0.00000000000E+00 0. -1.
         21    1    1    2  503  502  0.20719160883E+01  0.25918748943E+02 -0.30534418045E+03  0.30644925015E+03  0.00000000000E+00 0. -1.
         21    1    1    2  504  503 -0.20719160883E+01 -0.25918748943E+02 -0.23389097482E+03  0.23533181358E+03  0.00000000000E+00 0.  1.
</event>
<event>
 4    1  0.2825993E+006  0.2263513E+02  0.7546771E-02  0.1497131E+00
         21   -1    0    0  504  501  0.00000000000E+00  0.00000000000E+00  0.42159869647E+01  0.42159869647E+01  0.00000000000E+00 0.  1.
         21   -1    0    0  503  502 -0.00000000000E+00 -0.00000000000E+00 -0.55634152228E+03  0.55634152228E+03  0.00000000000E+00 0.  1.
         21    1    1    2  503  501 -0.17766898321E+02 -0.14024494373E+02 -0.52384622400E+03  0.52433502221E+03  0.00000000000E+00 0.  1.
         21    1    1    2  504  502  0.17766898321E+02  0.14024494373E+02 -0.28279311313E+02  0.36222487031E+02  0.00000000000E+00 0.  1.
</event>
<event>
 4    1  0.2825993E+006  0.2187723E+02  0.7546771E-02  0.1507099E+00
         21   -1    0    0  503  501  0.00000000000E+00  0.00000000000E+00  0.49426936112E+02  0.49426936112E+02  0.00000000000E+00 0.  1.
         21   -1    0    0  504  502 -0.00000000000E+00 -0.00000000000E+00 -0.11104712745E+03  0.11104712745E+03  0.00000000000E+00 0. -1.
         21    1    1    2  503  502  0.19855170458E+02  0.91861549903E+01  0.45848843267E+02  0.50800882535E+02  0.00000000000E+00 0.  1.
         21    1    1    2  504  501 -0.19855170458E+02 -0.91861549903E+01 -0.10746903461E+03  0.10967318103E+03  0.00000000000E+00 0. -1.
</event>
<event>
 4    1  0.2825993E+006  0.2087184E+02  0.7546771E-02  0.1521103E+00
         21   -1    0    0  503  501  0.00000000000E+00  0.00000000000E+00  0.37244089264E+01  0.37244089264E+01  0.00000000000E+00 0.  1.
         21   -1    0    0  501  502 -0.00000000000E+00 -0.00000000000E+00 -0.12080077988E+03  0.12080077988E+03  0.00000000000E+00 0.  1.
         21    1    1    2  503  504 -0.79839261978E+01  0.19284461891E+02 -0.47446522422E+02  0.51834409787E+02  0.00000000000E+00 0.  1.
         21    1    1    2  504  502  0.79839261978E+01 -0.19284461891E+02 -0.69629848530E+02  0.72690779018E+02  0.00000000000E+00 0.  1.
</event>
<event>
 4    1  0.2825993E+006  0.2430997E+02  0.7546771E-02  0.1476673E+00
         21   -1    0    0  502  501  0.00000000000E+00  0.00000000000E+00  0.78537491113E+01  0.78537491113E+01  0.00000000000E+00 0. -1.
         21   -1    0    0  504  502 -0.00000000000E+00 -0.00000000000E+00 -0.32618872507E+03  0.32618872507E+03  0.00000000000E+00 0. -1.
         21    1    1    2  503  501  0.40571105115E+01 -0.23969032896E+02 -0.12672332272E+02  0.27414643694E+02  0.00000000000E+00 0. -1.
         21    1    1    2  504  503 -0.40571105115E+01  0.23969032896E+02 -0.30566264368E+03  0.30662783048E+03  0.00000000000E+00 0. -1.
</event>
<event>
 4    1  0.2825993E+006  0.2066228E+02  0.7546771E-02  0.1524142E+00
         21   -1    0    0  504  501  0.00000000000E+00  0.00000000000E+00  0.48353099917E+01  0.48353099917E+01  0.00000000000E+00 0.  1.
         21   -1    0    0  503  502 -0.00000000000E+00 -0.00000000000E+00 -0.92727049950E+02  0.92727049950E+02  0.00000000000E+00 0.  1.
         21    1    1    2  503  501 -0.78860289686E+01 -0.19098179848E+02 -0.54611575599E+02  0.58389674737E+02  0.00000000000E+00 0.  1.
         21    1    1    2  504  502  0.78860289686E+01  0.19098179848E+02 -0.33280164359E+02  0.39172685205E+02  0.00000000000E+00 0.  1.
</event>
<event>
 4    1  0.2825993E+006  0.2358703E+02  0.7546771E-02  0.1485255E+00
         21   -1    0    0  502  501  0.00000000000E+00  0.00000000000E+00  0.66620559161E+03  0.66620559161E+03  0.00000000000E+00 0.  1.
         21   -1    0    0  503  502 -0.00000000000E+00 -0.00000000000E+00 -0.45580244326E+02  0.45580244326E+02  0.00000000000E+00 0.  1.
         21    1    1    2  503  504  0.23191515328E+02  0.43013675522E+01 -0.42304921469E+02  0.48436087028E+02  0.00000000000E+00 0.  1.
         21    1    1    2  504  501 -0.23191515328E+02 -0.43013675522E+01  0.66293026876E+03  0.66334974891E+03  0.00000000000E+00 0.  1.
</event>
<event>
 4    1  0.2825993E+006  0.2238826E+02  0.7546771E-02  0.1500326E+00
         21   -1    0    0  504  501  0.00000000000E+00  0.00000000000E+00  0.38766543031E+01  0.38766543031E+01  0.00000000000E+00 0.  1.
         21   -1    0    0  503  502 -0.00000000000E+00 -0.00000000000E+00 -0.17104516172E+03  0.17104516172E+03  0.00000000000E+00 0. -1.
         21    1    1    2  503  501  0.15882698288E+02  0.15778908177E+02 -0.12679432097E+03  0.12875571396E+03  0.00000000000E+00 0. -1.
         21    1    1    2  504  502 -0.15882698288E+02 -0.15778908177E+02 -0.40374186455E+02  0.46166102067E+02  0.00000000000E+00 0.  1.
</event>
<event>
 4    1  0.2825993E+006  0.2071350E+02  0.7546771E-02  0.1523395E+00
         21   -1    0    0  504  501  0.00000000000E+00  0.00000000000E+00  0.11320090303E+02  0.11320090303E+02  0.00000000000E+00 0. -1.
         21   -1    0    0  503  502 -0.00000000000E+00 -0.00000000000E+00 -0.99238354130E+02  0.99238354130E+02  0.00000000000E+00 0.  1.
         21    1    1    2  503  501 -0.12905265526E+02 -0.16201949631E+02 -0.49983521412E+00  0.20719529082E+02  0.00000000000E+00 0. -1.
         21    1    1    2  504  502  0.12905265526E+02  0.16201949631E+02 -0.87418428614E+02  0.89838915351E+02  0.00000000000E+00 0.  1.
</event>
<event>
 4    1  0.2825993E+006  0.2825465E+02  0.7546771E-02  0.1435396E+00
         21   -1    0    0  503  501  0.00000000000E+00  0.00000000000E+00  0.37693592423E+01  0.37693592423E+01  0.00000000000E+00 0.  1.
         21   -1    0    0  504  502 -0.00000000000E+00 -0.00000000000E+00 -0.60131366620E+03  0.60131366620E+03  0.00000000000E+00 0.  1.
         21    1    1    2  503  502  0.26261601637E+02  0.10423702924E+02 -0.54227244295E+03  0.54300803649E+03  0.00000000000E+00 0.  1.
         21    1    1    2  504  501 -0.26261601637E+02 -0.10423702924E+02 -0.55271864000E+02  0.62074988951E+02  0.00000000000E+00 0.  1.
</event>
<event>
 4    1  0.2825993E+006  0.2606130E+02  0.7546771E-02  0.1457272E+00
         21   -1    0    0  504  501  0.00000000000E+00  0.00000000000E+00  0.22766983558E+03  0.22766983558E+03  0.00000000000E+00 0. -1.
         21   -1    0    0  503  502 -0.00000000000E+00 -0.00000000000E+00 -0.20174717722E+02  0.20174717722E+02  0.00000000000E+00 0.  1.
         21    1    1    2  503  501  0.14269189163E+02 -0.21807828548E+02  0.21814133592E+03  0.21969258882E+03  0.00000000000E+00 0. -1.
         21    1    1    2  504  502 -0.14269189163E+02  0.21807828548E+02 -0.10646218060E+02  0.28151964484E+02  0.00000000000E+00 0.  1.
</event>
<event>
 4    1  0.2825993E+006  0.3347676E+02  0.7546771E-02  0.1391600E+00
         21   -1    0    0  503  501  0.00000000000E+00  0.00000000000E+00  0.17155303989E+03  0.17155303989E+03  0.00000000000E+00 0. -1.
         21   -1    0    0  504  502 -0.00000000000E+00 -0.00000000000E+00 -0.25025042396E+02  0.25025042396E+02  0.00000000000E+00 0.  1.
         21    1    1    2  503  502  0.12808940060E+02 -0.30929346258E+02 -0.11227772159E+02  0.35309436034E+02  0.00000000000E+00 0.  1.
         21    1    1    2  504  501 -0.12808940060E+02  0.30929346258E+02  0.15775576965E+03  0.16126864625E+03  0.00000000000E+00 0. -1.
</event>
<event>
 4    1  0.2825993E+006  0.3748824E+02  0.7546771E-02  0.1363868E+00
         21   -1    0    0  503  501  0.00000000000E+00  0.00000000000E+00  0.96353088550E+02  0.96353088550E+02  0.00000000000E+00 0.  1.
         21   -1    0    0  501  502 -0.00000000000E+00 -0.00000000000E+00 -0.42952489636E+02  0.42952489636E+02  0.00000000000E+00 0. -1.
         21    1    1    2  503  504 -0.21869399185E+02 -0.30448277471E+02  0.83304694259E+02  0.91351192150E+02  0.00000000000E+00 0.  1.
         21    1    1    2  504  502  0.21869399185E+02  0.30448277471E+02 -0.29904095345E+02  0.47954386036E+02  0.00000000000E+00 0. -1.
</event>
<event>
 4    1  0.2825993E+006  0.4409833E+02  0.7546771E-02  0.1326010E+00
         21   -1    0    0  503  501  0.00000000000E+00  0.00000000000E+00  0.92589002417E+02  0.92589002417E+02  0.00000000000E+00 0. -1.
         21   -1    0    0  501  502 -0.00000000000E+00 -0.00000000000E+00 -0.43124520258E+02  0.43124520258E+02  0.00000000000E+00 0. -1.
         21    1    1    2  503  504  0.10140716451E+02  0.42916532746E+02  0.73332296878E+02  0.85570372668E+02  0.00000000000E+00 0. -1.
         21    1    1    2  504  502 -0.10140716451E+02 -0.42916532746E+02 -0.23867814719E+02  0.50143150006E+02  0.00000000000E+00 0. -1.
</event>
<event>
 4    1  0.2825993E+006  0.2073305E+02  0.7546771E-02  0.1523111E+00
         21   -1    0    0  504  501  0.00000000000E+00  0.00000000000E+00  0.62143286680E+03  0.62143286680E+03  0.00000000000E+00 0. -1.
         21   -1    0    0  503  502 -0.00000000000E+00 -0.00000000000E+00 -0.69240715015E+00  0.69240715015E+00  0.00000000000E+00 0. -1.
         21    1    1    2  503  501 -0.63506676015E+01  0.19736470261E+02  0.30059044335E+03  0.30130461973E+03  0.00000000000E+00 0. -1.
         21    1    1    2  504  502  0.63506676015E+01 -0.19736470261E+02  0.32015001630E+03  0.32082065422E+03  0.00000000000E+00 0. -1.
</event>
<event>
 4    1  0.2825993E+006  0.2450452E+02  0.7546771E-02  0.1474423E+00
         21   -1    0    0  504  501  0.00000000000E+00  0.00000000000E+00  0.22233107865E+03  0.22233107865E+03  0.00000000000E+00 0. -1.
         21   -1    0    0  503  502 -0.00000000000E+00 -0.00000000000E+00 -0.18962917640E+02  0.18962917640E+02  0.00000000000E+00 0.  1.
         21    1    1    2  503  501  0.75041958511E-01 -0.24504408411E+02 -0.10041468456E+02  0.26482121358E+02  0.00000000000E+00 0.  1.
         21    1    1    2  504  502 -0.75041958511E-01  0.24504408411E+02  0.21340962946E+03  0.21481187493E+03  0.00000000000E+00 0. -1.
</event>
<event>
 4    1  0.2825993E+006  0.3079882E+02  0.7546771E-02  0.1412779E+00
         21   -1    0    0  504  501  0.00000000000E+00  0.00000000000E+00  0.16076646877E+02  0.16076646877E+02  0.00000000000E+00 0.  1.
         21   -1    0    0  503  502 -0.00000000000E+00 -0.00000000000E+00 -0.13915268555E+03  0.13915268555E+03  0.00000000000E+00 0.  1.
         21    1    1    2  503  501 -0.29299370558E+02  0.94928397777E+01 -0.12044265323E+03  0.12431813962E+03  0.00000000000E+00 0.  1.
         21    1    1    2  504  502  0.29299370558E+02 -0.94928397777E+01 -0.26333854502E+01  0.30911192812E+02  0.00000000000E+00 0.  1.
</event>
<event>
 4    1  0.2825993E+006  0.2437822E+02  0.7546771E-02  0.1475881E+00
         21   -1    0    0  504  501  0.00000000000E+00  0.00000000000E+00  0.16608412615E+04  0.16608412615E+04  0.00000000000E+00 0. -1.
         21   -1    0    0  503  502 -0.00000000000E+00 -0.00000000000E+00 -0.74234372558E+00  0.74234372558E+00  0.00000000000E+00 0. -1.
         21    1    1    2  503  501 -0.22023110092E+02  0.10453725547E+02  0.14279734369E+04  0.14281815130E+04  0.00000000000E+00 0. -1.
         21    1    1    2  504  502  0.22023110092E+02 -0.10453725547E+02  0.23212548092E+03  0.23340209221E+03  0.00000000000E+00 0. -1.
</event>
<event>
 4    1  0.2825993E+006  0.2465340E+02  0.7546771E-02  0.1472718E+00
         21   -1    0    0  503  501  0.00000000000E+00  0.00000000000E+00  0.36723274640E+03  0.36723274640E+03  0.00000000000E+00 0. -1.
         21   -1    0    0  501  502 -0.00000000000E+00 -0.00000000000E+00 -0.27488826100E+01  0.27488826100E+01  0.00000000000E+00 0. -1.
         21    1    1    2  503  504  0.23869073348E+02 -0.61690626297E+01  0.29893544722E+03  0.29995031523E+03  0.00000000000E+00 0. -1.
         21    1    1    2  504  502 -0.23869073348E+02  0.61690626297E+01  0.65548416566E+02  0.70031313786E+02  0.00000000000E+00 0. -1.
</event>
<event>
 4    1  0.2825993E+006  0.2942473E+02  0.7546771E-02  0.1424662E+00
         21   -1    0    0  504  501  0.00000000000E+00  0.00000000000E+00  0.60869636362E+03  0.60869636362E+03  0.00000000000E+00 0. -1.
         21   -1    0    0  503  502 -0.00000000000E+00 -0.00000000000E+00 -0.21944782068E+02  0.21944782068E+02  0.00000000000E+00 0. -1.
         21    1    1    2  503  501  0.12952625451E+02 -0.26420521195E+02 -0.11554433165E+02  0.31612013097E+02  0.00000000000E+00 0. -1.
         21    1    1    2  504  502 -0.12952625451E+02  0.26420521195E+02  0.59830601472E+03  0.59902913259E+03  0.00000000000E+00 0. -1.
</event>
<event>
 4    1  0.2825993E+006  0.2835071E+02  0.7546771E-02  0.1434492E+00
         21   -1    0    0  504  501  0.00000000000E+00  0.00000000000E+00  0.38229528170E+03  0.38229528170E+03  0.00000000000E+00 0.  1.
         21   -1    0    0  503  502 -0.00000000000E+00 -0.00000000000E+00 -0.21110895020E+01  0.21110895020E+01  0.00000000000E+00 0.  1.
         21    1    1    2  503  501  0.39922895379E+01 -0.28068214447E+02  0.17780821774E+03  0.18005422887E+03  0.00000000000E+00 0.  1.
         21    1    1    2  504  502 -0.39922895379E+01  0.28068214447E+02  0.20237597446E+03  0.20435214233E+03  0.00000000000E+00 0.  1.
</event>
<event>
 4    1  0.2825993E+006  0.2465466E+02  0.7546771E-02  0.1472704E+00
         21   -1    0    0  502  501  0.00000000000E+00  0.00000000000E+00  0.67137205130E+01  0.67137205130E+01  0.00000000000E+00 0. -1.
         21   -1    0    0  504  502 -0.00000000000E+00 -0.00000000000E+00 -0.10781377922E+03  0.10781377922E+03  0.00000000000E+00 0. -1.
         21    1    1    2  503  501 -0.24145543323E+02 -0.49844648531E+01 -0.27628082399E+02  0.37029219398E+02  0.00000000000E+00 0. -1.
         21    1    1    2  504  503  0.24145543323E+02  0.49844648531E+01 -0.73471976311E+02  0.77498280337E+02  0.00000000000E+00 0. -1.
</event>
<event>
 4    1  0.2825993E+006  0.2256724E+02  0.7546771E-02  0.1498005E+00
         21   -1    0    0  503  501  0.00000000000E+00  0.00000000000E+00  0.65268451847E+02  0.65268451847E+02  0.00000000000E+00 0. -1.
         21   -1    0    0  504  502 -0.00000000000E+00 -0.00000000000E+00 -0.12805659825E+02  0.12805659825E+02  0.00000000000E+00 0. -1.
         21    1    1    2  503  502 -0.16426445359E+02  0.15474247610E+02  0.50630997629E+02  0.55432647124E+02  0.00000000000E+00 0. -1.
         21    1    1    2  504  501  0.16426445359E+02 -0.15474247610E+02  0.18317943927E+01  0.22641464549E+02  0.00000000000E+00 0. -1.
</event>
<event>
 4    1  0.2825993E+006  0.2586139E+02  0.7546771E-02  0.1459393E+00
         21   -1    0    0  504  501  0.00000000000E+00  0.00000000000E+00  0.14618817882E+03  0.14618817882E+03  0.00000000000E+00 0.  1.
         21   -1    0    0  503  502 -0.00000000000E+00 -0.00000000000E+00 -0.24502629375E+02  0.24502629375E+02  0.00000000000E+00 0. -1.
         21    1    1    2  503  501  0.16391190737E+02  0.20003509333E+02  0.13780924454E+03  0.14021483302E+03  0.00000000000E+00 0.  1.
         21    1    1    2  504  502 -0.16391190737E+02 -0.20003509333E+02 -0.16123695092E+02  0.30475975174E+02  0.00000000000E+00 0. -1.
</event>
<event>
 4    1  0.2825993E+006  0.2063958E+02  0.7546771E-02  0.1524473E+00
         21   -1    0    0  504  501  0.00000000000E+00  0.00000000000E+00  0.40313378809E+00  0.40313378809E+00  0.00000000000E+00 0.  1.
         21   -1    0    0  503  502 -0.00000000000E+00 -0.00000000000E+00 -0.10574835082E+04  0.10574835082E+04  0.00000000000E+00 0.  1.
         21    1    1    2  503  501  0.19709289439E+02  0.61266863790E+01 -0.51416303401E+03  0.51457712533E+03  0.00000000000E+00 0.  1.
         21    1    1    2  504  502 -0.19709289439E+02 -0.61266863790E+01 -0.54291734040E+03  0.54330951665E+03  0.00000000000E+00 0.  1.
</event>
<event>
 4    1  0.2825993E+006  0.2627673E+02  0.7546771E-02  0.1455012E+00
         21   -1    0    0  503  501  0.00000000000E+00  0.00000000000E+00  0.13791139974E+02  0.13791139974E+02  0.00000000000E+00 0. -1.
         21   -1    0    0  501  502 -0.00000000000E+00 -0.00000000000E+00 -0.90118738637E+02  0.90118738637E+02  0.00000000000E+00 0. -1.
         21    1    1    2  503  504 -0.12129875007E+02 -0.23309493885E+02 -0.35271614968E+01  0.26512397875E+02  0.00000000000E+00 0. -1.
         21    1    1    2  504  502  0.12129875007E+02  0.23309493885E+02 -0.72800437166E+02  0.77397480737E+02  0.00000000000E+00 0. -1.
</event>
<event>
 4    1  0.2825993E+006  0.3110977E+02  0.7546771E-02  0.1410191E+00
         21   -1    0    0  503  501  0.00000000000E+00  0.00000000000E+00  0.21889513297E+03  0.21889513297E+03  0.00000000000E+00 0.  1.
         21   -1    0    0  504  502 -0.00000000000E+00 -0.00000000000E+00 -0.25072756613E+03  0.25072756613E+03  0.00000000000E+00 0. -1.
         21    1    1    2  503  502  0.24786219440E+02 -0.18800568237E+02 -0.24864800349E+03  0.25058660714E+03  0.00000000000E+00 0. -1.
         21    1    1    2  504  501 -0.24786219440E+02  0.18800568237E+02  0.21681557034E+03  0.21903609196E+03  0.00000000000E+00 0.  1.
</event>
<event>
 4    1  0.2825993E+006  0.2028442E+02  0.7546771E-02  0.1529731E+00
         21   -1    0    0  503  501  0.00000000000E+00  0.00000000000E+00  0.16843500889E+02  0.16843500889E+02  0.00000000000E+00 0.  1.
         21   -1    0    0  504  502 -0.00000000000E+00 -0.00000000000E+00 -0.35822810172E+02  0.35822810172E+02  0.00000000000E+00 0.  1.
         21    1    1    2  503  502 -0.15997986452E+02 -0.12470845676E+02 -0.24341195305E+02  0.31685191356E+02  0.00000000000E+00 0.  1.
         21    1    1    2  504  501  0.15997986452E+02  0.12470845676E+02  0.53618860219E+01  0.20981119706E+02  0.00000000000E+00 0.  1.
</event>
<event>
 4    1  0.2825993E+006  0.2060994E+02  0.7546771E-02  0.1524907E+00
         21   -1    0    0  502  501  0.00000000000E+00  0.00000000000E+00  0.12515009566E+02  0.12515009566E+02  0.00000000000E+00 0. -1.
         21   -1    0    0  504  502 -0.00000000000E+00 -0.00000000000E+00 -0.45168714156E+03  0.45168714156E+03  0.00000000000E+00 0. -1.
         21    1    1    2  503  501 -0.55244844174E-01  0.20609869293E+02  0.36244252553E+01  0.20926208990E+02  0.00000000000E+00 0. -1.
         21    1    1    2  504  503  0.55244844174E-01 -0.20609869293E+02 -0.44279655725E+03  0.44327594214E+03  0.00000000000E+00 0. -1.
</event>
<event>
 4    1  0.2825993E+006  0.2918714E+02  0.7546771E-02  0.1426794E+00
         21   -1    0    0  504  501  0.00000000000E+00  0.00000000000E+00  0.46031977376E+03  0.46031977376E+03  0.00000000000E+00 0.  1.
         21   -1    0    0  503  502 -0.00000000000E+00 -0.00000000000E+00 -0.11377116198E+03  0.11377116198E+03  0.00000000000E+00 0. -1.
         21    1    1    2  503  501  0.11689672642E+02 -0.26743985514E+02 -0.11142699274E+03  0.11518621410E+03  0.00000000000E+00 0. -1.
         21    1    1    2  504  502 -0.11689672642E+02  0.26743985514E+02  0.45797560452E+03  0.45890472164E+03  0.00000000000E+00 0.  1.
</event>
<event>
 4    1  0.2825993E+006  0.2114792E+02  0.7546771E-02  0.1517163E+00
         21   -1    0    0  504  501  0.00000000000E+00  0.00000000000E+00  0.11286464935E+03  0.11286464935E+03  0.00000000000E+00 0.  1.
         21   -1    0    0  503  502 -0.00000000000E+00 -0.00000000000E+00 -0.26643392267E+03  0.26643392267E+03  0.00000000000E+00 0.  1.
         21    1    1    2  503  501  0.13103095571E+02  0.16599502848E+02  0.11144907390E+03  0.11343778331E+03  0.00000000000E+00 0.  1.
         21    1    1    2  504  502 -0.13103095571E+02 -0.16599502848E+02 -0.26501834722E+03  0.26586078871E+03  0.00000000000E+00 0.  1.
</event>
<event>
 4    1  0.2825993E+006  0.2574237E+02  0.7546771E-02  0.1460667E+00
         21   -1    0    0  502  501  0.00000000000E+00  0.00000000000E+00  0.16013809274E+02  0.16013809274E+02  0.00000000000E+00 0. -1.
         21   -1    0    0  503  502 -0.00000000000E+00 -0.00000000000E+00 -0.64672945200E+02  0.64672945200E+02  0.00000000000E+00 0. -1.
         21    1    1    2  503  504  0.70082977031E+01 -0.24770007379E+02 -0.48540561499E+02  0.54944113542E+02  0.00000000000E+00 0. -1.
         21    1    1    2  504  501 -0.70082977031E+01  0.24770007379E+02 -0.11857442649E+00  0.25742640932E+02  0.00000000000E+00 0. -1.
</event>
<event>
 4    1  0.2825993E+006  0.2183046E+02  0.7546771E-02  0.1507731E+00
         21   -1    0    0  503  501  0.00000000000E+00  0.00000000000E+00  0.12716762536E+01  0.12716762536E+01  0.00000000000E+00 0.  1.
         21   -1    0    0  504  502 -0.00000000000E+00 -0.00000000000E+00 -0.43862007402E+03  0.43862007402E+03  0.00000000000E+00 0.  1.
         21    1    1    2  503  502  0.28954326025E+01  0.21637590760E+02 -0.13474783876E+03  0.13650475784E+03  0.00000000000E+00 0.  1.
         21    1    1    2  504  501 -0.28954326025E+01 -0.21637590760E+02 -0.30260055900E+03  0.30338699243E+03  0.00000000000E+00 0.  1.
</event>
<event>
 4    1  0.2825993E+006  0.2383516E+02  0.7546771E-02  0.1482269E+00
         21   -1    0    0  503  501  0.00000000000E+00  0.00000000000E+00  0.10144665119E+03  0.10144665119E+03  0.00000000000E+00 0.  1.
         21   -1    0    0  504  502 -0.00000000000E+00 -0.00000000000E+00 -0.11350453147E+02  0.11350453147E+02  0.00000000000E+00 0. -1.
         21    1    1    2  503  502 -0.18964472679E+02  0.14438275765E+02  0.49053362812E+01  0.24334694473E+02  0.00000000000E+00 0. -1.
         21    1    1    2  504  501  0.18964472679E+02 -0.14438275765E+02  0.85190861758E+02  0.88462409859E+02  0.00000000000E+00 0.  1.
</event>
<event>
 4    1  0.2825993E+006  0.2288494E+02  0.7546771E-02  0.1493948E+00
         21   -1    0    0  504  501  0.00000000000E+00  0.00000000000E+00  0.38309490206E+02  0.38309490206E+02  0.00000000000E+00 0.  1.
         21   -1    0    0  503  502 -0.00000000000E+00 -0.00000000000E+00 -0.67568000915E+02  0.67568000915E+02  0.00000000000E+00 0. -1.
         21    1    1    2  503  501  0.89299292947E+01 -0.21070758775E+02 -0.61910217727E+02  0.66004511752E+02  0.00000000000E+00 0. -1.
         21    1    1    2  504  502 -0.89299292947E+01  0.21070758775E+02  0.32651707018E+02  0.39872979369E+02  0.00000000000E+00 0.  1.
</event>
<event>
 4    1  0.2825993E+006  0.2627831E+02  0.7546771E-02  0.1454995E+00
         21   -1    0    0  503  501  0.00000000000E+00  0.00000000000E+00  0.81453708571E+02  0.81453708571E+02  0.00000000000E+00 0.  1.
         21   -1    0    0  504  502 -0.00000000000E+00 -0.00000000000E+00 -0.97075604860E+01  0.97075604860E+01  0.00000000000E+00 0.  1.
         21    1    1    2  503  502 -0.18841247177E+02  0.18318220481E+02  0.52096113680E+02  0.58348563455E+02  0.00000000000E+00 0.  1.
         21    1    1    2  504  501  0.18841247177E+02 -0.18318220481E+02  0.19650034406E+02  0.32812705602E+02  0.00000000000E+00 0.  1.
</event>
<event>
 4    1  0.2825993E+006  0.2081317E+02  0.7546771E-02  0.1521949E+00
         21   -1    0    0  504  501  0.00000000000E+00  0.00000000000E+00  0.25316752979E+03  0.25316752979E+03  0.00000000000E+00 0.  1.
         21   -1    0    0  501  502 -0.00000000000E+00 -0.00000000000E+00 -0.54223845255E+01  0.54223845255E+01  0.00000000000E+00 0.  1.
         21    1    1    2  503  502 -0.17761724364E+02  0.10849381311E+02  0.16905482584E+02  0.26813863366E+02  0.00000000000E+00 0.  1.
         21    1    1    2  504  503  0.17761724364E+02 -0.10849381311E+02  0.23083966268E+03  0.23177605095E+03  0.00000000000E+00 0.  1.
</event>
<event>
 4    1  0.2825993E+006  0.3767639E+02  0.7546771E-02  0.1362668E+00
         21   -1    0    0  504  501  0.00000000000E+00  0.00000000000E+00  0.14431547382E+02  0.14431547382E+02  0.00000000000E+00 0.  1.
         21   -1    0    0  503  502 -0.00000000000E+00 -0.00000000000E+00 -0.10704711767E+03  0.10704711767E+03  0.00000000000E+00 0.  1.
         21    1    1    2  503  501  0.35834734021E+02 -0.11635392649E+02 -0.29006449591E+02  0.47548760681E+02  0.00000000000E+00 0.  1.
         21    1    1    2  504  502 -0.35834734021E+02  0.11635392649E+02 -0.63609120694E+02  0.73929904368E+02  0.00000000000E+00 0.  1.
</event>
<event>
 4    1  0.2825993E+006  0.2099474E+02  0.7546771E-02  0.1519340E+00
         21   -1    0    0  503  501  0.00000000000E+00  0.00000000000E+00  0.24452979790E+03  0.24452979790E+03  0.00000000000E+00 0. -1.
         21   -1    0    0  504  502 -0.00000000000E+00 -0.00000000000E+00 -0.30943341880E+01  0.30943341880E+01  0.00000000000E+00 0.  1.
         21    1    1    2  503  502  0.19798070766E+02  0.69867984420E+01  0.20071462626E+03  0.20180966318E+03  0.00000000000E+00 0. -1.
         21    1    1    2  504  501 -0.19798070766E+02 -0.69867984420E+01  0.40720837458E+02  0.45814468913E+02  0.00000000000E+00 0.  1.
</event>
<event>
 4    1  0.2825993E+006  0.2470112E+02  0.7546771E-02  0.1472175E+00
         21   -1    0    0  502  501  0.00000000000E+00  0.00000000000E+00  0.70752695677E+00  0.70752695677E+00  0.00000000000E+00 0.  1.
         21   -1    0    0  504  502 -0.00000000000E+00 -0.00000000000E+00 -0.13287150613E+04  0.13287150613E+04  0.00000000000E+00 0.  1.
         21    1    1    2  503  501 -0.21206205043E+02  0.12666574322E+02 -0.27020534786E+03  0.27133203874E+03  0.00000000000E+00 0.  1.
         21    1    1    2  504  503  0.21206205043E+02 -0.12666574322E+02 -0.10578021865E+04  0.10580905495E+04  0.00000000000E+00 0.  1.
</event>
<event>
 4    1  0.2825993E+006  0.3577872E+02  0.7546771E-02  0.1375170E+00
         21   -1    0    0  504  501  0.00000000000E+00  0.00000000000E+00  0.38819525690E+02  0.38819525690E+02  0.00000000000E+00 0. -1.
         21   -1    0    0  503  502 -0.00000000000E+00 -0.00000000000E+00 -0.45182370866E+02  0.45182370866E+02  0.00000000000E+00 0. -1.
         21    1    1    2  503  501 -0.28416667544E+02  0.21739596593E+02  0.18649187019E+02  0.40347357172E+02  0.00000000000E+00 0. -1.
         21    1    1    2  504  502  0.28416667544E+02 -0.21739596593E+02 -0.25012032195E+02  0.43654539384E+02  0.00000000000E+00 0. -1.
</event>
<event>
 4    1  0.2825993E+006  0.3175777E+02  0.7546771E-02  0.1404912E+00
         21   -1    0    0  504  501  0.00000000000E+00  0.00000000000E+00  0.41653938599E+03  0.41653938599E+03  0.00000000000E+00 0. -1.
         21   -1    0    0  503  502 -0.00000000000E+00 -0.00000000000E+00 -0.30722990569E+01  0.30722990569E+01  0.00000000000E+00 0. -1.
         21    1    1    2  503  501 -0.12780270437E+02  0.29072679488E+02  0.30331298069E+03  0.30497101545E+03  0.00000000000E+00 0. -1.
         21    1    1    2  504  502  0.12780270437E+02 -0.29072679488E+02  0.11015410624E+03  0.11464066960E+03  0.00000000000E+00 0. -1.
</event>
<event>
 4    1  0.2825993E+006  0.2972576E+02  0.7546771E-02  0.1421995E+00
         21   -1    0    0  503  501  0.00000000000E+00  0.00000000000E+00  0.52805374515E+02  0.52805374515E+02  0.00000000000E+00 0. -1.
         21   -1    0    0  504  502 -0.00000000000E+00 -0.00000000000E+00 -0.41214875235E+02  0.41214875235E+02  0.00000000000E+00 0.  1.
         21    1    1    2  503  502  0.29712113539E+02 -0.90077149932E+00 -0.30435883865E+02  0.42543672936E+02  0.00000000000E+00 0.  1.
         21    1    1    2  504  501 -0.29712113539E+02  0.90077149932E+00  0.42026383145E+02  0.51476576814E+02  0.00000000000E+00 0. -1.
</event>
<event>
 4    1  0.2825993E+006  0.2151983E+02  0.7546771E-02  0.1511971E+00
         21   -1    0    0  503  501  0.00000000000E+00  0.00000000000E+00  0.20575738593E+03  0.20575738593E+03  0.00000000000E+00 0.  1.
         21   -1    0    0  501  502 -0.00000000000E+00 -0.00000000000E+00 -0.66243557124E+02  0.66243557124E+02  0.00000000000E+00 0.  1.
         21    1    1    2  503  504 -0.52139312508E+01 -0.20878651129E+02  0.20342701026E+03  0.20456209731E+03  0.00000000000E+00 0.  1.
         21    1    1    2  504  502  0.52139312508E+01  0.20878651129E+02 -0.63913181453E+02  0.67438845746E+02  0.00000000000E+00 0.  1.
</event>
<event>
 4    1  0.2825993E+006  0.2016865E+02  0.7546771E-02  0.1531473E+00
         21   -1    0    0  502  501  0.00000000000E+00  0.00000000000E+00  0.74650470299E+01  0.74650470299E+01  0.00000000000E+00 0. -1.
         21   -1    0    0  504  502 -0.00000000000E+00 -0.00000000000E+00 -0.10691236553E+03  0.10691236553E+03  0.00000000000E+00 0. -1.
         21    1    1    2  503  501 -0.22044362751E+01  0.20047812505E+02 -0.96782774536E+01  0.22370591857E+02  0.00000000000E+00 0. -1.
         21    1    1    2  504  503  0.22044362751E+01 -0.20047812505E+02 -0.89769041043E+02  0.92006820700E+02  0.00000000000E+00 0. -1.
</event>
<event>
 4    1  0.2825993E+006  0.2523295E+02  0.7546771E-02  0.1466214E+00
         21   -1    0    0  503  501  0.00000000000E+00  0.00000000000E+00  0.37390585031E+03  0.37390585031E+03  0.00000000000E+00 0.  1.
         21   -1    0    0  504  502 -0.00000000000E+00 -0.00000000000E+00 -0.28881326815E+01  0.28881326815E+01  0.00000000000E+00 0. -1.
         21    1    1    2  503  502 -0.25087225574E+02 -0.27079080256E+01  0.30620080349E+03  0.30723872431E+03  0.00000000000E+00 0.  1.
         21    1    1    2  504  501  0.25087225574E+02  0.27079080256E+01  0.64816914136E+02  0.69555258687E+02  0.00000000000E+00 0. -1.
</event>
<event>
 4    1  0.2825993E+006  0.5729074E+02  0.7546771E-02  0.1269326E+00
         21   -1    0    0  503  501  0.00000000000E+00  0.00000000000E+00  0.69372363937E+02  0.69372363937E+02  0.00000000000E+00 0.  1.
         21   -1    0    0  501  502 -0.00000000000E+00 -0.00000000000E+00 -0.39457889067E+03  0.39457889067E+03  0.00000000000E+00 0. -1.
         21    1    1    2  503  504 -0.55019463173E+02 -0.15971477246E+02  0.55020524407E+02  0.79432282602E+02  0.00000000000E+00 0.  1.
         21    1    1    2  504  502  0.55019463173E+02  0.15971477246E+02 -0.38022705114E+03  0.38451897200E+03  0.00000000000E+00 0. -1.
</event>
<event>
 4    1  0.2825993E+006  0.2252560E+02  0.7546771E-02  0.1498543E+00
         21   -1    0    0  503  501  0.00000000000E+00  0.00000000000E+00  0.82016796289E+01  0.82016796289E+01  0.00000000000E+00 0. -1.
         21   -1    0    0  504  502 -0.00000000000E+00 -0.00000000000E+00 -0.27755054158E+03  0.27755054158E+03  0.00000000000E+00 0. -1.
         21    1    1    2  503  502 -0.13350506497E+02 -0.18142952751E+02 -0.87243710404E+01  0.24156104990E+02  0.00000000000E+00 0. -1.
         21    1    1    2  504  501  0.13350506497E+02  0.18142952751E+02 -0.26062449091E+03  0.26159611622E+03  0.00000000000E+00 0. -1.
</event>
<event>
 4    1  0.2825993E+006  0.2701311E+02  0.7546771E-02  0.1447476E+00
         21   -1    0    0  504  501  0.00000000000E+00  0.00000000000E+00  0.24278224118E+02  0.24278224118E+02  0.00000000000E+00 0.  1.
         21   -1    0    0  503  502 -0.00000000000E+00 -0.00000000000E+00 -0.34862226659E+02  0.34862226659E+02  0.00000000000E+00 0.  1.
         21    1    1    2  503  501 -0.18866772065E+02  0.19332699705E+02  0.56873166433E+01  0.27605324425E+02  0.00000000000E+00 0.  1.
         21    1    1    2  504  502  0.18866772065E+02 -0.19332699705E+02 -0.16271319185E+02  0.31535126352E+02  0.00000000000E+00 0.  1.
</event>
<event>
 4    1  0.2825993E+006  0.2009966E+02  0.7546771E-02  0.1532518E+00
         21   -1    0    0  503  501  0.00000000000E+00  0.00000000000E+00  0.88863879270E+02  0.88863879270E+02  0.00000000000E+00 0.  1.
         21   -1    0    0  504  502 -0.00000000000E+00 -0.00000000000E+00 -0.48436368590E+01  0.48436368590E+01  0.00000000000E+00 0.  1.
         21    1    1    2  503  502  0.15286257363E+02 -0.13050924890E+02  0.30400217397E+02  0.36444060181E+02  0.00000000000E+00 0.  1.
         21    1    1    2  504  501 -0.15286257363E+02  0.13050924890E+02  0.53620025014E+02  0.57263455948E+02  0.00000000000E+00 0.  1.
</event>
<event>
 4    1  0.2825993E+006  0.4134287E+02  0.7546771E-02  0.1340791E+00
         21   -1    0    0  503  501  0.00000000000E+00  0.00000000000E+00  0.23861378246E+02  0.23861378246E+02  0.00000000000E+00 0.  1.
         21   -1    0    0  501  502 -0.00000000000E+00 -0.00000000000E+00 -0.74061062531E+02  0.74061062531E+02  0.00000000000E+00 0.  1.
         21    1    1    2  503  504 -0.49273319480E+01  0.41048198865E+02 -0.16232460403E+02  0.44415380230E+02  0.00000000000E+00 0.  1.
         21    1    1    2  504  502  0.49273319480E+01 -0.41048198865E+02 -0.33967223882E+02  0.53507060548E+02  0.00000000000E+00 0.  1.
</event>
<event>
 4    1  0.2825993E+006  0.2841586E+02  0.7546771E-02  0.1433881E+00
         21   -1    0    0  503  501  0.00000000000E+00  0.00000000000E+00  0.17900581460E+02  0.17900581460E+02  0.00000000000E+00 0.  1.
         21   -1    0    0  504  502 -0.00000000000E+00 -0.00000000000E+00 -0.46023711286E+02  0.46023711286E+02  0.00000000000E+00 0.  1.
         21    1    1    2  503  502  0.62473499860E-01  0.28415795623E+02 -0.18569721852E+02  0.33945484435E+02  0.00000000000E+00 0.  1.
         21    1    1    2  504  501 -0.62473499860E-01 -0.28415795623E+02 -0.95534079734E+01  0.29978808311E+02  0.00000000000E+00 0.  1.
</event>
<event>
 4    1  0.2825993E+006  0.2395204E+02  0.7546771E-02  0.1480877E+00
         21   -1    0    0  503  501  0.00000000000E+00  0.00000000000E+00  0.17258828237E+03  0.17258828237E+03  0.00000000000E+00 0.  1.
         21   -1    0    0  501  502 -0.00000000000E+00 -0.00000000000E+00 -0.10932039460E+03  0.10932039460E+03  0.00000000000E+00 0.  1.
         21    1    1    2  503  504 -0.23232851111E+02  0.58253551868E+01  0.17042874568E+03  0.17210362427E+03  0.00000000000E+00 0.  1.
         21    1    1    2  504  502  0.23232851111E+02 -0.58253551868E+01 -0.10716085790E+03  0.10980505271E+03  0.00000000000E+00 0.  1.
</event>
<event>
 4    1  0.2825993E+006  0.3355512E+02  0.7546771E-02  0.1391016E+00
         21   -1    0    0  503  501  0.00000000000E+00  0.00000000000E+00  0.21179679510E+03  0.21179679510E+03  0.00000000000E+00 0. -1.
         21   -1    0    0  504  502 -0.00000000000E+00 -0.00000000000E+00 -0.98680920131E+01  0.98680920131E+01  0.00000000000E+00 0. -1.
         21    1    1    2  503  502  0.20652216277E+02 -0.26446773341E+02  0.25689804652E+02  0.42260051117E+02  0.00000000000E+00 0. -1.
         21    1    1    2  504  501 -0.20652216277E+02  0.26446773341E+02  0.17623889843E+03  0.17940483600E+03  0.00000000000E+00 0. -1.
</event>
<event>
 4    1  0.2825993E+006  0.3357889E+02  0.7546771E-02  0.1390839E+00
         21   -1    0    0  503  501  0.00000000000E+00  0.00000000000E+00  0.12747558123E+02  0.12747558123E+02  0.00000000000E+00 0.  1.
         21   -1    0    0  504  502 -0.00000000000E+00 -0.00000000000E+00 -0.40021016405E+03  0.40021016405E+03  0.00000000000E+00 0.  1.
         21    1    1    2  503  502  0.33343217018E+02  0.39714011062E+01 -0.11492555297E+02  0.35491139389E+02  0.00000000000E+00 0.  1.
         21    1    1    2  504  501 -0.33343217018E+02 -0.39714011062E+01 -0.37597005063E+03  0.37746658278E+03  0.00000000000E+00 0.  1.
</event>
<event>
 4    1  0.2825993E+006  0.3099989E+02  0.7546771E-02  0.1411102E+00
         21   -1    0    0  503  501  0.00000000000E+00  0.00000000000E+00  0.13209250504E+04  0.13209250504E+04  0.00000000000E+00 0.  1.
         21   -1    0    0  504  502 -0.00000000000E+00 -0.00000000000E+00 -0.13655585495E+02  0.13655585495E+02  0.00000000000E+00 0.  1.
         21    1    1    2  503  502 -0.30736644538E+02  0.40313600577E+01  0.13029064891E+04  0.13032752252E+04  0.00000000000E+00 0.  1.
         21    1    1    2  504  501  0.30736644538E+02 -0.40313600577E+01  0.43629757689E+01  0.31305410697E+02  0.00000000000E+00 0.  1.
</event>
<event>
 4    1  0.2825993E+006  0.2324671E+02  0.7546771E-02  0.1489423E+00
         21   -1    0    0  502  501  0.00000000000E+00  0.00000000000E+00  0.32969181142E+02  0.32969181142E+02  0.00000000000E+00 0.  1.
         21   -1    0    0  504  502 -0.00000000000E+00 -0.00000000000E+00 -0.12619715834E+04  0.12619715834E+04  0.00000000000E+00 0.  1.
         21    1    1    2  503  501 -0.47132514676E+01 -0.22763891529E+02  0.28750542804E+02  0.36973006484E+02  0.00000000000E+00 0.  1.
         21    1    1    2  504  503  0.47132514676E+01  0.22763891529E+02 -0.12577529451E+04  0.12579677581E+04  0.00000000000E+00 0.  1.
</event>
<event>
 4    1  0.2825993E+006  0.2028522E+02  0.7546771E-02  0.1529719E+00
         21   -1    0    0  503  501  0.00000000000E+00  0.00000000000E+00  0.95731868541E+02  0.95731868541E+02  0.00000000000E+00 0. -1.
         21   -1    0    0  501  502 -0.00000000000E+00 -0.00000000000E+00 -0.25499132976E+03  0.25499132976E+03  0.00000000000E+00 0.  1.
         21    1    1    2  503  504  0.17817465212E+02 -0.96968170816E+01  0.94247560373E+02  0.96405876193E+02  0.00000000000E+00 0. -1.
         21    1    1    2  504  502 -0.17817465212E+02  0.96968170816E+01 -0.25350702159E+03  0.25431732211E+03  0.00000000000E+00 0.  1.
</event>
<event>
 4    1  0.2825993E+006  0.2230466E+02  0.7546771E-02  0.1501419E+00
         21   -1    0    0  503  501  0.00000000000E+00  0.00000000000E+00  0.14693053315E+02  0.14693053315E+02  0.00000000000E+00 0.  1.
         21   -1    0    0  504  502 -0.00000000000E+00 -0.00000000000E+00 -0.48054318286E+02  0.48054318286E+02  0.00000000000E+00 0.  1.
         21    1    1    2  503  502 -0.20699776507E+02 -0.83076467028E+01 -0.33732267127E+02  0.40439628914E+02  0.00000000000E+00 0.  1.
         21    1    1    2  504  501  0.20699776507E+02  0.83076467028E+01  0.37100215650E+00  0.22307742687E+02  0.00000000000E+00 0.  1.
</event>
<event>
 4    1  0.2825993E+006  0.2090780E+02  0.7546771E-02  0.1520585E+00
         21   -1    0    0  503  501  0.00000000000E+00  0.00000000000E+00  0.11197739224E+02  0.11197739224E+02  0.00000000000E+00 0. -1.
         21   -1    0    0  504  502 -0.00000000000E+00 -0.00000000000E+00 -0.45721595937E+02  0.45721595937E+02  0.00000000000E+00 0. -1.
         21    1    1    2  503  502 -0.88081455114E+01 -0.18961871069E+02 -0.63806936667E+01  0.21859762887E+02  0.00000000000E+00 0. -1.
         21    1    1    2  504  501  0.88081455114E+01  0.18961871069E+02 -0.28143163047E+02  0.35059572274E+02  0.00000000000E+00 0. -1.
</event>
<event>
 4    1  0.2825993E+006  0.2245082E+02  0.7546771E-02  0.1499512E+00
         21   -1    0    0  503  501  0.00000000000E+00  0.00000000000E+00  0.11158806504E+01  0.11158806504E+01  0.00000000000E+00 0. -1.
         21   -1    0    0  501  502 -0.00000000000E+00 -0.00000000000E+00 -0.91361596968E+03  0.91361596968E+03  0.00000000000E+00 0. -1.
         21    1    1    2  503  504 -0.21653470674E+02 -0.59301197404E+01 -0.13103905498E+03  0.13294838488E+03  0.00000000000E+00 0. -1.
         21    1    1    2  504  502  0.21653470674E+02  0.59301197404E+01 -0.78146103404E+03  0.78178346544E+03  0.00000000000E+00 0. -1.
</event>
<event>
 4    1  0.2825993E+006  0.2769713E+02  0.7546771E-02  0.1440728E+00
         21   -1    0    0  503  501  0.00000000000E+00  0.00000000000E+00  0.40129186759E+01  0.40129186759E+01  0.00000000000E+00 0. -1.
         21   -1    0    0  501  502 -0.00000000000E+00 -0.00000000000E+00 -0.21337420709E+03  0.21337420709E+03  0.00000000000E+00 0. -1.
         21    1    1    2  503  504 -0.10393015285E+00  0.27696934247E+02 -0.69613850795E+02  0.74921420106E+02  0.00000000000E+00 0. -1.
         21    1    1    2  504  502  0.10393015285E+00 -0.27696934247E+02 -0.13974743762E+03  0.14246570566E+03  0.00000000000E+00 0. -1.
</event>
<event>
 4    1  0.2825993E+006  0.2158086E+02  0.7546771E-02  0.1511131E+00
         21   -1    0    0  503  501  0.00000000000E+00  0.00000000000E+00  0.12008971754E+02  0.12008971754E+02  0.00000000000E+00 0. -1.
         21   -1    0    0  501  502 -0.00000000000E+00 -0.00000000000E+00 -0.10770155101E+03  0.10770155101E+03  0.00000000000E+00 0.  1.
         21    1    1    2  503  504  0.17595823469E+02  0.12494815612E+02  0.34597107575E-01  0.21580885471E+02  0.00000000000E+00 0. -1.
         21    1    1    2  504  502 -0.17595823469E+02 -0.12494815612E+02 -0.95727176368E+02  0.98129637298E+02  0.00000000000E+00 0.  1.
</event>
<event>
 4    1  0.2825993E+006  0.2889203E+02  0.7546771E-02  0.1429475E+00
         21   -1    0    0  502  501  0.00000000000E+00  0.00000000000E+00  0.13943876189E+02  0.13943876189E+02  0.00000000000E+00 0.  1.
         21   -1    0    0  504  502 -0.00000000000E+00 -0.00000000000E+00 -0.15012942145E+03  0.15012942145E+03  0.00000000000E+00 0.  1.
         21    1    1    2  503  501 -0.28891097543E+02 -0.23161268171E+00 -0.44815889042E+01  0.29237540950E+02  0.00000000000E+00 0.  1.
         21    1    1    2  504  503  0.28891097543E+02  0.23161268171E+00 -0.13170395636E+03  0.13483575669E+03  0.00000000000E+00 0.  1.
</event>
<event>
 4    1  0.2825993E+006  0.2117225E+02  0.7546771E-02  0.1516820E+00
         21   -1    0    0  502  501  0.00000000000E+00  0.00000000000E+00  0.59143112270E+01  0.59143112270E+01  0.00000000000E+00 0.  1.
         21   -1    0    0  503  502 -0.00000000000E+00 -0.00000000000E+00 -0.23362747395E+03  0.23362747395E+03  0.00000000000E+00 0.  1.
         21    1    1    2  503  504 -0.10167836558E+02 -0.18570921085E+02 -0.21230077794E+03  0.21335389456E+03  0.00000000000E+00 0.  1.
         21    1    1    2  504  501  0.10167836558E+02  0.18570921085E+02 -0.15412384781E+02  0.26187890614E+02  0.00000000000E+00 0.  1.
</event>
<event>
 4    1  0.2825993E+006  0.3113350E+02  0.7546771E-02  0.1409995E+00
         21   -1    0    0  502  501  0.00000000000E+00  0.00000000000E+00  0.15311244806E+04  0.15311244806E+04  0.00000000000E+00 0.  1.
         21   -1    0    0  503  502 -0.00000000000E+00 -0.00000000000E+00 -0.30898920747E+01  0.30898920747E+01  0.00000000000E+00 0. -1.
         21    1    1    2  503  504  0.74982909860E+01 -0.30217054665E+02  0.79992145185E+02  0.85837276586E+02  0.00000000000E+00 0. -1.
         21    1    1    2  504  501 -0.74982909860E+01  0.30217054665E+02  0.14480424434E+04  0.14483770961E+04  0.00000000000E+00 0.  1.
</event>
<event>
 4    1  0.2825993E+006  0.2172605E+02  0.7546771E-02  0.1509146E+00
         21   -1    0    0  504  501  0.00000000000E+00  0.00000000000E+00  0.23841803267E+03  0.23841803267E+03  0.00000000000E+00 0. -1.
         21   -1    0    0  503  502 -0.00000000000E+00 -0.00000000000E+00 -0.19121343804E+03  0.19121343804E+03  0.00000000000E+00 0.  1.
         21    1    1    2  503  501 -0.92100319017E+01 -0.19677315937E+02  0.23730304807E+03  0.23829552676E+03  0.00000000000E+00 0. -1.
         21    1    1    2  504  502  0.92100319017E+01  0.19677315937E+02 -0.19009845343E+03  0.19133594395E+03  0.00000000000E+00 0.  1.
</event>
<event>
 4    1  0.2825993E+006  0.3465656E+02  0.7546771E-02  0.1382994E+00
         21   -1    0    0  503  501  0.00000000000E+00  0.00000000000E+00  0.12416037031E+01  0.12416037031E+01  0.00000000000E+00 0.  1.
         21   -1    0    0  504  502 -0.00000000000E+00 -0.00000000000E+00 -0.97712352069E+03  0.97712352069E+03  0.00000000000E+00 0.  1.
         21    1    1    2  503  502 -0.17374275041E+02 -0.29986858948E+02 -0.43904077558E+03  0.44040649378E+03  0.00000000000E+00 0.  1.
         21    1    1    2  504  501  0.17374275041E+02  0.29986858948E+02 -0.53684114140E+03  0.53795863061E+03  0.00000000000E+00 0.  1.
</event>
<event>
 4    1  0.2825993E+006  0.2043968E+02  0.7546771E-02  0.1527417E+00
         21   -1    0    0  504  501  0.00000000000E+00  0.00000000000E+00  0.11697756059E+04  0.11697756059E+04  0.00000000000E+00 0.  1.
         21   -1    0    0  501  502 -0.00000000000E+00 -0.00000000000E+00 -0.12745754209E+02  0.12745754209E+02  0.00000000000E+00 0.  1.
         21    1    1    2  503  502 -0.19701627887E+02  0.54430224180E+01 -0.44031046568E+01  0.20908562003E+02  0.00000000000E+00 0.  1.
         21    1    1    2  504  503  0.19701627887E+02 -0.54430224180E+01  0.11614329564E+04  0.11616127981E+04  0.00000000000E+00 0.  1.
</event>
<event>
 4    1  0.2825993E+006  0.2381137E+02  0.7546771E-02  0.1482553E+00
         21   -1    0    0  503  501  0.00000000000E+00  0.00000000000E+00  0.24097174422E+02  0.24097174422E+02  0.00000000000E+00 0. -1.
         21   -1    0    0  504  502 -0.00000000000E+00 -0.00000000000E+00 -0.25753554368E+02  0.25753554368E+02  0.00000000000E+00 0. -1.
         21    1    1    2  503  502 -0.76014141901E+01 -0.22565460281E+02 -0.81538738413E+01  0.25168773391E+02  0.00000000000E+00 0. -1.
         21    1    1    2  504  501  0.76014141901E+01  0.22565460281E+02  0.64974938953E+01  0.24681955399E+02  0.00000000000E+00 0. -1.
</event>
<event>
 4    1  0.2825993E+006  0.2614560E+02  0.7546771E-02  0.1456385E+00
         21   -1    0    0  503  501  0.00000000000E+00  0.00000000000E+00  0.27594065772E+01  0.27594065772E+01  0.00000000000E+00 0. -1.
         21   -1    0    0  504  502 -0.00000000000E+00 -0.00000000000E+00 -0.56976136623E+03  0.56976136623E+03  0.00000000000E+00 0. -1.
         21    1    1    2  503  502  0.21131555993E+02  0.15396427944E+02 -0.68290877606E+02  0.73124801650E+02  0.00000000000E+00 0. -1.
         21    1    1    2  504  501 -0.21131555993E+02 -0.15396427944E+02 -0.49871108205E+03  0.49939597116E+03  0.00000000000E+00 0. -1.
</event>
<event>
 4    1  0.2825993E+006  0.2040553E+02  0.7546771E-02  0.1527924E+00
         21   -1    0    0  503  501  0.00000000000E+00  0.00000000000E+00  0.21569763978E+03  0.21569763978E+03  0.00000000000E+00 0. -1.
         21   -1    0    0  504  502 -0.00000000000E+00 -0.00000000000E+00 -0.86896511289E+01  0.86896511289E+01  0.00000000000E+00 0.  1.
         21    1    1    2  503  502 -0.45128850765E+01  0.19900242683E+02  0.20245402280E+03  0.20347977084E+03  0.00000000000E+00 0. -1.
         21    1    1    2  504  501  0.45128850765E+01 -0.19900242683E+02  0.45539658452E+01  0.20907520070E+02  0.00000000000E+00 0.  1.
</event>
<event>
 4    1  0.2825993E+006  0.2675254E+02  0.7546771E-02  0.1450110E+00
         21   -1    0    0  503  501  0.00000000000E+00  0.00000000000E+00  0.60264751495E+01  0.60264751495E+01  0.00000000000E+00 0.  1.
         21   -1    0    0  504  502 -0.00000000000E+00 -0.00000000000E+00 -0.26429558710E+03  0.26429558710E+03  0.00000000000E+00 0.  1.
         21    1    1    2  503  502 -0.25581339585E+02 -0.78290100545E+01 -0.28836482506E+02  0.39334985149E+02  0.00000000000E+00 0.  1.
         21    1    1    2  504  501  0.25581339585E+02  0.78290100545E+01 -0.22943262944E+03  0.23098707710E+03  0.00000000000E+00 0.  1.
</event>
<event>
 4    1  0.2825993E+006  0.2909606E+02  0.7546771E-02  0.1427618E+00
         21   -1    0    0  502  501  0.00000000000E+00  0.00000000000E+00  0.51195477545E+02  0.51195477545E+02  0.00000000000E+00 0. -1.
         21   -1    0    0  503  502 -0.00000000000E+00 -0.00000000000E+00 -0.12223466222E+03  0.12223466222E+03  0.00000000000E+00 0. -1.
         21    1    1    2  503  504 -0.10978902179E+02  0.26945206237E+02 -0.11615608938E+03  0.11974480170E+03  0.00000000000E+00 0. -1.
         21    1    1    2  504  501  0.10978902179E+02 -0.26945206237E+02  0.45116904713E+02  0.53685338064E+02  0.00000000000E+00 0. -1.
</event>
<event>
 4    1  0.2825993E+006  0.2064684E+02  0.7546771E-02  0.1524367E+00
         21   -1    0    0  504  501  0.00000000000E+00  0.00000000000E+00  0.17864559448E+02  0.17864559448E+02  0.00000000000E+00 0.  1.
         21   -1    0    0  503  502 -0.00000000000E+00 -0.00000000000E+00 -0.56672547886E+02  0.56672547886E+02  0.00000000000E+00 0. -1.
         21    1    1    2  503  501 -0.20124743164E+02  0.46137389460E+01  0.89529897253E+01  0.22504397337E+02  0.00000000000E+00 0.  1.
         21    1    1    2  504  502  0.20124743164E+02 -0.46137389460E+01 -0.47760978164E+02  0.52032709997E+02  0.00000000000E+00 0. -1.
</event>
<event>
 4    1  0.2825993E+006  0.2300023E+02  0.7546771E-02  0.1492495E+00
         21   -1    0    0  504  501  0.00000000000E+00  0.00000000000E+00  0.22737302388E+03  0.22737302388E+03  0.00000000000E+00 0. -1.
         21   -1    0    0  503  502 -0.00000000000E+00 -0.00000000000E+00 -0.27492332857E+01  0.27492332857E+01  0.00000000000E+00 0. -1.
         21    1    1    2  503  501  0.22966510346E+02  0.12450275376E+01  0.15742412117E+03  0.15909545756E+03  0.00000000000E+00 0. -1.
         21    1    1    2  504  502 -0.22966510346E+02 -0.12450275376E+01  0.67199669424E+02  0.71026799602E+02  0.00000000000E+00 0. -1.
</event>
<event>
 4    1  0.2825993E+006  0.2053715E+02  0.7546771E-02  0.1525977E+00
         21   -1    0    0  504  501  0.00000000000E+00  0.00000000000E+00  0.10074482306E+03  0.10074482306E+03  0.00000000000E+00 0. -1.
         21   -1    0    0  503  502 -0.00000000000E+00 -0.00000000000E+00 -0.48903476950E+01  0.48903476950E+01  0.00000000000E+00 0. -1.
         21    1    1    2  503  501 -0.17563104524E+02  0.10644809027E+02  0.27890434751E+02  0.34635977687E+02  0.00000000000E+00 0. -1.
         21    1    1    2  504  502  0.17563104524E+02 -0.10644809027E+02  0.67964040614E+02  0.70999193068E+02  0.00000000000E+00 0. -1.
</event>
<event>
 4    1  0.2825993E+006  0.2766181E+02  0.7546771E-02  0.1441071E+00
         21   -1    0    0  503  501  0.00000000000E+00  0.00000000000E+00  0.25391816896E+01  0.25391816896E+01  0.00000000000E+00 0.  1.
         21   -1    0    0  504  502 -0.00000000000E+00 -0.00000000000E+00 -0.31919379246E+03  0.31919379246E+03  0.00000000000E+00 0.  1.
         21    1    1    2  503  502  0.20972120044E+02 -0.18037355034E+02 -0.12028974607E+03  0.12342932798E+03  0.00000000000E+00 0.  1.
         21    1    1    2  504  501 -0.20972120044E+02  0.18037355034E+02 -0.19636486469E+03  0.19830364616E+03  0.00000000000E+00 0.  1.
</event>
<event>
 4    1  0.2825993E+006  0.3162136E+02  0.7546771E-02  0.1406011E+00
         21   -1    0    0  503  501  0.00000000000E+00  0.00000000000E+00  0.16380444964E+02  0.16380444964E+02  0.00000000000E+00 0.  1.
         21   -1    0    0  504  502 -0.00000000000E+00 -0.00000000000E+00 -0.16573825827E+03  0.16573825827E+03  0.00000000000E+00 0.  1.
         21    1    1    2  503  502 -0.10974551655E+02 -0.29655848736E+02 -0.14705195177E+03  0.15041338593E+03  0.00000000000E+00 0.  1.
         21    1    1    2  504  501  0.10974551655E+02  0.29655848736E+02 -0.23058615441E+01  0.31705317310E+02  0.00000000000E+00 0.  1.
</event>
<event>
 4    1  0.2825993E+006  0.2211351E+02  0.7546771E-02  0.1503940E+00
         21   -1    0    0  504  501  0.00000000000E+00  0.00000000000E+00  0.25027313565E+02  0.25027313565E+02  0.00000000000E+00 0.  1.
         21   -1    0    0  503  502 -0.00000000000E+00 -0.00000000000E+00 -0.22471396885E+02  0.22471396885E+02  0.00000000000E+00 0. -1.
         21    1    1    2  503  501 -0.19538787644E+02  0.10355831598E+02 -0.73013394076E+01  0.23287701214E+02  0.00000000000E+00 0. -1.
         21    1    1    2  504  502  0.19538787644E+02 -0.10355831598E+02  0.98572560880E+01  0.24211009237E+02  0.00000000000E+00 0.  1.
</event>
<event>
 4    1  0.2825993E+006  0.2814010E+02  0.7546771E-02  0.1436480E+00
         21   -1    0    0  504  501  0.00000000000E+00  0.00000000000E+00  0.10971341686E+02  0.10971341686E+02  0.00000000000E+00 0.  1.
         21   -1    0    0  503  502 -0.00000000000E+00 -0.00000000000E+00 -0.73376423834E+02  0.73376423834E+02  0.00000000000E+00 0. -1.
         21    1    1    2  503  501  0.27202469285E+02 -0.72035485681E+01 -0.25807839654E+02  0.38182588110E+02  0.00000000000E+00 0.  1.
         21    1    1    2  504  502 -0.27202469285E+02  0.72035485681E+01 -0.36597242493E+02  0.46165177410E+02  0.00000000000E+00 0. -1.
</event>
<event>
 4    1  0.2825993E+006  0.2074570E+02  0.7546771E-02  0.1522927E+00
         21   -1    0    0  502  501  0.00000000000E+00  0.00000000000E+00  0.10334186326E+03  0.10334186326E+03  0.00000000000E+00 0. -1.
         21   -1    0    0  504  502 -0.00000000000E+00 -0.00000000000E+00 -0.53164124928E+01  0.53164124928E+01  0.00000000000E+00 0. -1.
         21    1    1    2  503  501  0.17308277864E+02  0.11437114477E+02  0.74300023453E+02  0.77141931240E+02  0.00000000000E+00 0. -1.
         21    1    1    2  504  503 -0.17308277864E+02 -0.11437114477E+02  0.23725427310E+02  0.31516344509E+02  0.00000000000E+00 0. -1.
</event>
<event>
 4    1  0.2825993E+006  0.3099949E+02  0.7546771E-02  0.1411105E+00
         21   -1    0    0  503  501  0.00000000000E+00  0.00000000000E+00  0.36772397419E+02  0.36772397419E+02  0.00000000000E+00 0. -1.
         21   -1    0    0  504  502 -0.00000000000E+00 -0.00000000000E+00 -0.72268179951E+02  0.72268179951E+02  0.00000000000E+00 0.  1.
         21    1    1    2  503  502  0.18284676843E+02 -0.25032760172E+02  0.25813453964E+02  0.40339842521E+02  0.00000000000E+00 0. -1.
         21    1    1    2  504  501 -0.18284676843E+02  0.25032760172E+02 -0.61309236496E+02  0.68700734849E+02  0.00000000000E+00 0.  1.
</event>
<event>
 4    1  0.2825993E+006  0.2218456E+02  0.7546771E-02  0.1503000E+00
         21   -1    0    0  503  501  0.00000000000E+00  0.00000000000E+00  0.60049464654E+02  0.60049464654E+02  0.00000000000E+00 0.  1.
         21   -1    0    0  504  502 -0.00000000000E+00 -0.00000000000E+00 -0.72924434703E+02  0.72924434703E+02  0.00000000000E+00 0.  1.
         21    1    1    2  503  502 -0.29048095678E+01 -0.21993563908E+02 -0.69076947149E+02  0.72551908310E+02  0.00000000000E+00 0.  1.
         21    1    1    2  504  501  0.29048095678E+01  0.21993563908E+02  0.56201977100E+02  0.60421991046E+02  0.00000000000E+00 0.  1.
</event>
<event>
 4    1  0.2825993E+006  0.2318859E+02  0.7546771E-02  0.1490144E+00
         21   -1    0    0  503  501  0.00000000000E+00  0.00000000000E+00  0.79823443006E+02  0.79823443006E+02  0.00000000000E+00 0.  1.
         21   -1    0    0  504  502 -0.00000000000E+00 -0.00000000000E+00 -0.13104684756E+02  0.13104684756E+02  0.00000000000E+00 0. -1.
         21    1    1    2  503  502 -0.67801641180E+01 -0.22175208369E+02  0.96867940547E+00  0.23208809350E+02  0.00000000000E+00 0. -1.
         21    1    1    2  504  501  0.67801641180E+01  0.22175208369E+02  0.65750078844E+02  0.69719318411E+02  0.00000000000E+00 0.  1.
</event>
<event>
 4    1  0.2825993E+006  0.2163041E+02  0.7546771E-02  0.1510452E+00
         21   -1    0    0  504  501  0.00000000000E+00  0.00000000000E+00  0.14619792317E+02  0.14619792317E+02  0.00000000000E+00 0.  1.
         21   -1    0    0  503  502 -0.00000000000E+00 -0.00000000000E+00 -0.36572884383E+02  0.36572884383E+02  0.00000000000E+00 0. -1.
         21    1    1    2  503  501  0.43449708605E+01  0.21189519223E+02 -0.20024693545E+02  0.29476479576E+02  0.00000000000E+00 0. -1.
         21    1    1    2  504  502 -0.43449708605E+01 -0.21189519223E+02 -0.19283985219E+01  0.21716197124E+02  0.00000000000E+00 0.  1.
</event>
<event>
 4    1  0.2825993E+006  0.2092967E+02  0.7546771E-02  0.1520271E+00
         21   -1    0    0  503  501  0.00000000000E+00  0.00000000000E+00  0.85476974275E+02  0.85476974275E+02  0.00000000000E+00 0.  1.
         21   -1    0    0  504  502 -0.00000000000E+00 -0.00000000000E+00 -0.51377947502E+01  0.51377947502E+01  0.00000000000E+00 0.  1.
         21    1    1    2  503  502  0.77614284834E+01  0.19437373933E+02  0.37889859442E+02  0.43286172458E+02  0.00000000000E+00 0.  1.
         21    1    1    2  504  501 -0.77614284834E+01 -0.19437373933E+02  0.42449320083E+02  0.47328596568E+02  0.00000000000E+00 0.  1.
</event>
<event>
 4    1  0.2825993E+006  0.2232175E+02  0.7546771E-02  0.1501195E+00
         21   -1    0    0  503  501  0.00000000000E+00  0.00000000000E+00  0.28607351223E+02  0.28607351223E+02  0.00000000000E+00 0. -1.
         21   -1    0    0  504  502 -0.00000000000E+00 -0.00000000000E+00 -0.20605149586E+02  0.20605149586E+02  0.00000000000E+00 0. -1.
         21    1    1    2  503  502  0.21870079342E+02 -0.44676562449E+01  0.13679697813E+02  0.26180039248E+02  0.00000000000E+00 0. -1.
         21    1    1    2  504  501 -0.21870079342E+02  0.44676562449E+01 -0.56774961763E+01  0.23032461561E+02  0.00000000000E+00 0. -1.
</event>
<event>
 4    1  0.2825993E+006  0.2836316E+02  0.7546771E-02  0.1434375E+00
         21   -1    0    0  504  501  0.00000000000E+00  0.00000000000E+00  0.49619076609E+03  0.49619076609E+03  0.00000000000E+00 0. -1.
         21   -1    0    0  503  502 -0.00000000000E+00 -0.00000000000E+00 -0.20358950359E+02  0.20358950359E+02  0.00000000000E+00 0. -1.
         21    1    1    2  503  501  0.12336088893E+02 -0.25539963568E+02 -0.98617414167E+01  0.30028699139E+02  0.00000000000E+00 0. -1.
         21    1    1    2  504  502 -0.12336088893E+02  0.25539963568E+02  0.48569355715E+03  0.48652101731E+03  0.00000000000E+00 0. -1.
</event>
<event>
 4    1  0.2825993E+006  0.2215904E+02  0.7546771E-02  0.1503337E+00
         21   -1    0    0  504  501  0.00000000000E+00  0.00000000000E+00  0.28943881111E+01  0.28943881111E+01  0.00000000000E+00 0.  1.
         21   -1    0    0  503  502 -0.00000000000E+00 -0.00000000000E+00 -0.23926039117E+03  0.23926039117E+03  0.00000000000E+00 0. -1.
         21    1    1    2  503  501 -0.21590803055E+02  0.49860286460E+01 -0.18349231521E+03  0.18482546631E+03  0.00000000000E+00 0. -1.
         21    1    1    2  504  502  0.21590803055E+02 -0.49860286460E+01 -0.52873687853E+02  0.57329312968E+02  0.00000000000E+00 0.  1.
</event>
<event>
 4    1  0.2825993E+006  0.2327754E+02  0.7546771E-02  0.1489042E+00
         21   -1    0    0  503  501  0.00000000000E+00  0.00000000000E+00  0.58071583291E+01  0.58071583291E+01  0.00000000000E+00 0. -1.
         21   -1    0    0  504  502 -0.00000000000E+00 -0.00000000000E+00 -0.96426522070E+02  0.96426522070E+02  0.00000000000E+00 0. -1.
         21    1    1    2  503  502 -0.10425225318E+02 -0.20812465598E+02 -0.54504929177E+02  0.59267456094E+02  0.00000000000E+00 0. -1.
         21    1    1    2  504  501  0.10425225318E+02  0.20812465598E+02 -0.36114434564E+02  0.42966224306E+02  0.00000000000E+00 0. -1.
</event>
<event>
 4    1  0.2825993E+006  0.3852884E+02  0.7546771E-02  0.1357329E+00
         21   -1    0    0  503  501  0.00000000000E+00  0.00000000000E+00  0.29814113378E+03  0.29814113378E+03  0.00000000000E+00 0.  1.
         21   -1    0    0  504  502 -0.00000000000E+00 -0.00000000000E+00 -0.10176758322E+02  0.10176758322E+02  0.00000000000E+00 0. -1.
         21    1    1    2  503  502 -0.33932094447E+02 -0.18250604344E+02  0.33810938079E+02  0.51260619644E+02  0.00000000000E+00 0. -1.
         21    1    1    2  504  501  0.33932094447E+02  0.18250604344E+02  0.25415343738E+03  0.25705727246E+03  0.00000000000E+00 0.  1.
</event>
<event>
 4    1  0.2825993E+006  0.2926297E+02  0.7546771E-02  0.1426111E+00
         21   -1    0    0  503  501  0.00000000000E+00  0.00000000000E+00  0.26616461695E+02  0.26616461695E+02  0.00000000000E+00 0.  1.
         21   -1    0    0  504  502 -0.00000000000E+00 -0.00000000000E+00 -0.42404833292E+02  0.42404833292E+02  0.00000000000E+00 0. -1.
         21    1    1    2  503  502 -0.22790440296E+02 -0.18355307148E+02  0.90581712557E+01  0.30632857129E+02  0.00000000000E+00 0.  1.
         21    1    1    2  504  501  0.22790440296E+02  0.18355307148E+02 -0.24846542853E+02  0.38388437858E+02  0.00000000000E+00 0. -1.
</event>
<event>
 4    1  0.2825993E+006  0.2759742E+02  0.7546771E-02  0.1441697E+00
         21   -1    0    0  504  501  0.00000000000E+00  0.00000000000E+00  0.96608603140E+02  0.96608603140E+02  0.00000000000E+00 0.  1.
         21   -1    0    0  503  502 -0.00000000000E+00 -0.00000000000E+00 -0.86912821106E+01  0.86912821106E+01  0.00000000000E+00 0.  1.
         21    1    1    2  503  501  0.78526270648E+01  0.26456643533E+02  0.27908016015E+02  0.39248886567E+02  0.00000000000E+00 0.  1.
         21    1    1    2  504  502 -0.78526270648E+01 -0.26456643533E+02  0.60009305014E+02  0.66050998684E+02  0.00000000000E+00 0.  1.
</event>
<event>
 4    1  0.2825993E+006  0.2134054E+02  0.7546771E-02  0.1514458E+00
         21   -1    0    0  503  501  0.00000000000E+00  0.00000000000E+00  0.60393734569E+03  0.60393734569E+03  0.00000000000E+00 0.  1.
         21   -1    0    0  501  502 -0.00000000000E+00 -0.00000000000E+00 -0.43795221018E+02  0.43795221018E+02  0.00000000000E+00 0.  1.
         21    1    1    2  503  504  0.94979220059E+01 -0.19110415135E+02  0.60113701423E+03  0.60151569253E+03  0.00000000000E+00 0.  1.
         21    1    1    2  504  502 -0.94979220059E+01  0.19110415135E+02 -0.40994889554E+02  0.46216874176E+02  0.00000000000E+00 0.  1.
</event>
<event>
 4    1  0.2825993E+006  0.3020289E+02  0.7546771E-02  0.1417841E+00
         21   -1    0    0  503  501  0.00000000000E+00  0.00000000000E+00  0.15822003901E+04  0.15822003901E+04  0.00000000000E+00 0.  1.
         21   -1    0    0  504  502 -0.00000000000E+00 -0.00000000000E+00 -0.52183572686E+01  0.52183572686E+01  0.00000000000E+00 0. -1.
         21    1    1    2  503  502 -0.26645117523E+02 -0.14221538599E+02  0.39910962465E+02  0.50050967751E+02  0.00000000000E+00 0. -1.
         21    1    1    2  504  501  0.26645117523E+02  0.14221538599E+02  0.15370710703E+04  0.15373677796E+04  0.00000000000E+00 0.  1.
</event>
<event>
 4    1  0.2825993E+006  0.2304623E+02  0.7546771E-02  0.1491918E+00
         21   -1    0    0  504  501  0.00000000000E+00  0.00000000000E+00  0.33105104187E+02  0.33105104187E+02  0.00000000000E+00 0.  1.
         21   -1    0    0  501  502 -0.00000000000E+00 -0.00000000000E+00 -0.55497151844E+02  0.55497151844E+02  0.00000000000E+00 0.  1.
         21    1    1    2  503  502  0.22344361162E+02 -0.56443257806E+01 -0.48548711121E+02  0.53741103829E+02  0.00000000000E+00 0.  1.
         21    1    1    2  504  503 -0.22344361162E+02  0.56443257806E+01  0.26156663464E+02  0.34861152202E+02  0.00000000000E+00 0.  1.
</event>
<event>
 4    1  0.2825993E+006  0.2098147E+02  0.7546771E-02  0.1519530E+00
         21   -1    0    0  503  501  0.00000000000E+00  0.00000000000E+00  0.65374181615E+01  0.65374181615E+01  0.00000000000E+00 0. -1.
         21   -1    0    0  504  502 -0.00000000000E+00 -0.00000000000E+00 -0.80325959114E+02  0.80325959114E+02  0.00000000000E+00 0. -1.
         21    1    1    2  503  502  0.19375171550E+02  0.80513759102E+01 -0.54357949990E+02  0.58266702787E+02  0.00000000000E+00 0. -1.
         21    1    1    2  504  501 -0.19375171550E+02 -0.80513759102E+01 -0.19430590963E+02  0.28596674488E+02  0.00000000000E+00 0. -1.
</event>
<event>
 4    1  0.2825993E+006  0.2734914E+02  0.7546771E-02  0.1444132E+00
         21   -1    0    0  502  501  0.00000000000E+00  0.00000000000E+00  0.60541997649E+02  0.60541997649E+02  0.00000000000E+00 0.  1.
         21   -1    0    0  504  502 -0.00000000000E+00 -0.00000000000E+00 -0.12698273226E+02  0.12698273226E+02  0.00000000000E+00 0.  1.
         21    1    1    2  503  501 -0.22685661688E+02  0.15275339228E+02  0.29945910073E+02  0.40555305014E+02  0.00000000000E+00 0.  1.
         21    1    1    2  504  503  0.22685661688E+02 -0.15275339228E+02  0.17897814351E+02  0.32684965860E+02  0.00000000000E+00 0.  1.
</event>
<event>
 4    1  0.2825993E+006  0.7711450E+02  0.7546771E-02  0.1210710E+00
         21   -1    0    0  503  501  0.00000000000E+00  0.00000000000E+00  0.54600050300E+01  0.54600050300E+01  0.00000000000E+00 0.  1.
         21   -1    0    0  504  502 -0.00000000000E+00 -0.00000000000E+00 -0.35545348495E+04  0.35545348495E+04  0.00000000000E+00 0.  1.
         21    1    1    2  503  502 -0.80800417499E+01  0.76690023126E+02 -0.29211407125E+03  0.30212129575E+03  0.00000000000E+00 0.  1.
         21    1    1    2  504  501  0.80800417499E+01 -0.76690023126E+02 -0.32569607732E+04  0.32578735587E+04  0.00000000000E+00 0.  1.
</event>
<event>
 4    1  0.2825993E+006  0.2119472E+02  0.7546771E-02  0.1516503E+00
         21   -1    0    0  502  501  0.00000000000E+00  0.00000000000E+00  0.61895858814E+03  0.61895858814E+03  0.00000000000E+00 0. -1.
         21   -1    0    0  504  502 -0.00000000000E+00 -0.00000000000E+00 -0.22807031913E+02  0.22807031913E+02  0.00000000000E+00 0. -1.
         21    1    1    2  503  501  0.82706473680E+01 -0.19514416937E+02  0.61381177541E+03  0.61417758972E+03  0.00000000000E+00 0. -1.
         21    1    1    2  504  503 -0.82706473680E+01  0.19514416937E+02 -0.17660219184E+02  0.27588030337E+02  0.00000000000E+00 0. -1.
</event>
<event>
 4    1  0.2825993E+006  0.2630420E+02  0.7546771E-02  0.1454726E+00
         21   -1    0    0  504  501  0.00000000000E+00  0.00000000000E+00  0.11021429591E+03  0.11021429591E+03  0.00000000000E+00 0. -1.
         21   -1    0    0  503  502 -0.00000000000E+00 -0.00000000000E+00 -0.15273533642E+02  0.15273533642E+02  0.00000000000E+00 0. -1.
         21    1    1    2  503  501 -0.25766427399E+02  0.52917193191E+01  0.95622836998E+02  0.99174785252E+02  0.00000000000E+00 0. -1.
         21    1    1    2  504  502  0.25766427399E+02 -0.52917193191E+01 -0.68207473166E+00  0.26313044297E+02  0.00000000000E+00 0. -1.
</event>
<event>
 4    1  0.2825993E+006  0.3214099E+02  0.7546771E-02  0.1401860E+00
         21   -1    0    0  502  501  0.00000000000E+00  0.00000000000E+00  0.37006234662E+03  0.37006234662E+03  0.00000000000E+00 0. -1.
         21   -1    0    0  503  502 -0.00000000000E+00 -0.00000000000E+00 -0.14774060076E+03  0.14774060076E+03  0.00000000000E+00 0. -1.
         21    1    1    2  503  504  0.79225175026E+01 -0.31149265585E+02 -0.14528298291E+03  0.14879579347E+03  0.00000000000E+00 0. -1.
         21    1    1    2  504  501 -0.79225175026E+01  0.31149265585E+02  0.36760472877E+03  0.36900715392E+03  0.00000000000E+00 0. -1.
</event>
<event>
 4    1  0.2825993E+006  0.2250252E+02  0.7546771E-02  0.1498841E+00
         21   -1    0    0  503  501  0.00000000000E+00  0.00000000000E+00  0.11945176860E+03  0.11945176860E+03  0.00000000000E+00 0.  1.
         21   -1    0    0  501  502 -0.00000000000E+00 -0.00000000000E+00 -0.49429880981E+01  0.49429880981E+01  0.00000000000E+00 0. -1.
         21    1    1    2  503  504  0.76428263547E+01  0.21164845391E+02  0.80725886388E+02  0.83803533388E+02  0.00000000000E+00 0.  1.
         21    1    1    2  504  502 -0.76428263547E+01 -0.21164845391E+02  0.33782894110E+02  0.40591223307E+02  0.00000000000E+00 0. -1.
</event>
<event>
 4    1  0.2825993E+006  0.2313925E+02  0.7546771E-02  0.1490757E+00
         21   -1    0    0  504  501  0.00000000000E+00  0.00000000000E+00  0.34331220041E+03  0.34331220041E+03  0.00000000000E+00 0.  1.
         21   -1    0    0  501  502 -0.00000000000E+00 -0.00000000000E+00 -0.13197798851E+03  0.13197798851E+03  0.00000000000E+00 0. -1.
         21    1    1    2  503  502  0.12500140199E+02  0.19472324672E+02 -0.13056968764E+03  0.13260417891E+03  0.00000000000E+00 0. -1.
         21    1    1    2  504  503 -0.12500140199E+02 -0.19472324672E+02  0.34190389954E+03  0.34268601001E+03  0.00000000000E+00 0.  1.
</event>
<event>
 4    1  0.2825993E+006  0.2043235E+02  0.7546771E-02  0.1527526E+00
         21   -1    0    0  502  501  0.00000000000E+00  0.00000000000E+00  0.12448738654E+03  0.12448738654E+03  0.00000000000E+00 0. -1.
         21   -1    0    0  504  502 -0.00000000000E+00 -0.00000000000E+00 -0.73819290131E+02  0.73819290131E+02  0.00000000000E+00 0.  1.
         21    1    1    2  503  501 -0.20057092353E+02  0.38979619578E+01  0.12220894645E+03  0.12390523659E+03  0.00000000000E+00 0. -1.
         21    1    1    2  504  503  0.20057092353E+02 -0.38979619578E+01 -0.71540850044E+02  0.74401440081E+02  0.00000000000E+00 0.  1.
</event>
<event>
 4    1  0.2825993E+006  0.3103706E+02  0.7546771E-02  0.1410793E+00
         21   -1    0    0  503  501  0.00000000000E+00  0.00000000000E+00  0.63454835284E+01  0.63454835284E+01  0.00000000000E+00 0. -1.
         21   -1    0    0  501  502 -0.00000000000E+00 -0.00000000000E+00 -0.45226321911E+03  0.45226321911E+03  0.00000000000E+00 0.  1.
         21    1    1    2  503  504  0.70072738190E+01 -0.30235697109E+02 -0.36060258343E+02  0.47577741621E+02  0.00000000000E+00 0. -1.
         21    1    1    2  504  502 -0.70072738190E+01  0.30235697109E+02 -0.40985747724E+03  0.41103096102E+03  0.00000000000E+00 0.  1.
</event>
<event>
 4    1  0.2825993E+006  0.2507560E+02  0.7546771E-02  0.1467959E+00
         21   -1    0    0  504  501  0.00000000000E+00  0.00000000000E+00  0.13201924290E+03  0.13201924290E+03  0.00000000000E+00 0. -1.
         21   -1    0    0  503  502 -0.00000000000E+00 -0.00000000000E+00 -0.99788373850E+01  0.99788373850E+01  0.00000000000E+00 0. -1.
         21    1    1    2  503  501  0.69540822276E+01  0.24092037502E+02  0.96889926571E+01  0.26882375441E+02  0.00000000000E+00 0. -1.
         21    1    1    2  504  502 -0.69540822276E+01 -0.24092037502E+02  0.11235141286E+03  0.11511570485E+03  0.00000000000E+00 0. -1.
</event>
<event>
 4    1  0.2825993E+006  0.2488020E+02  0.7546771E-02  0.1470148E+00
         21   -1    0    0  503  501  0.00000000000E+00  0.00000000000E+00  0.12082490814E+02  0.12082490814E+02  0.00000000000E+00 0. -1.
         21   -1    0    0  504  502 -0.00000000000E+00 -0.00000000000E+00 -0.74423464763E+02  0.74423464763E+02  0.00000000000E+00 0. -1.
         21    1    1    2  503  502  0.23916653315E+02  0.68569784364E+01 -0.55314757338E+02  0.60652673794E+02  0.00000000000E+00 0. -1.
         21    1    1    2  504  501 -0.23916653315E+02 -0.68569784364E+01 -0.70262166122E+01  0.25853281783E+02  0.00000000000E+00 0. -1.
</event>
<event>
 4    1  0.2825993E+006  0.2143912E+02  0.7546771E-02  0.1513087E+00
         21   -1    0    0  503  501  0.00000000000E+00  0.00000000000E+00  0.16731118231E+03  0.16731118231E+03  0.00000000000E+00 0. -1.
         21   -1    0    0  501  502 -0.00000000000E+00 -0.00000000000E+00 -0.11499727868E+02  0.11499727868E+02  0.00000000000E+00 0. -1.
         21    1    1    2  503  504  0.20610420350E+02  0.59030852249E+01  0.15590439785E+03  0.15737158928E+03  0.00000000000E+00 0. -1.
         21    1    1    2  504  502 -0.20610420350E+02 -0.59030852249E+01 -0.92943410008E-01  0.21439320900E+02  0.00000000000E+00 0. -1.
</event>
<event>
 4    1  0.2825993E+006  0.2575826E+02  0.7546771E-02  0.1460497E+00
         21   -1    0    0  504  501  0.00000000000E+00  0.00000000000E+00  0.42419713916E+03  0.42419713916E+03  0.00000000000E+00 0. -1.
         21   -1    0    0  501  502 -0.00000000000E+00 -0.00000000000E+00 -0.21170432341E+01  0.21170432341E+01  0.00000000000E+00 0. -1.
         21    1    1    2  503  502 -0.46376132050E+01  0.25337333024E+02  0.10210337038E+03  0.10530235583E+03  0.00000000000E+00 0. -1.
         21    1    1    2  504  503  0.46376132050E+01 -0.25337333024E+02  0.31997672555E+03  0.32101182656E+03  0.00000000000E+00 0. -1.
</event>
<event>
 4    1  0.2825993E+006  0.4553992E+02  0.7546771E-02  0.1318761E+00
         21   -1    0    0  503  501  0.00000000000E+00  0.00000000000E+00  0.60800115140E+01  0.60800115140E+01  0.00000000000E+00 0.  1.
         21   -1    0    0  501  502 -0.00000000000E+00 -0.00000000000E+00 -0.60645827047E+03  0.60645827047E+03  0.00000000000E+00 0.  1.
         21    1    1    2  503  504  0.66862508447E+01  0.45046401788E+02 -0.97598140624E+02  0.10769995969E+03  0.00000000000E+00 0.  1.
         21    1    1    2  504  502 -0.66862508447E+01 -0.45046401788E+02 -0.50278011833E+03  0.50483832229E+03  0.00000000000E+00 0.  1.
</event>
<event>
 4    1  0.2825993E+006  0.2048629E+02  0.7546771E-02  0.1526727E+00
         21   -1    0    0  504  501  0.00000000000E+00  0.00000000000E+00  0.30385010401E+03  0.30385010401E+03  0.00000000000E+00 0. -1.
         21   -1    0    0  503  502 -0.00000000000E+00 -0.00000000000E+00 -0.31875044690E+01  0.31875044690E+01  0.00000000000E+00 0.  1.
         21    1    1    2  503  501  0.18399536049E+02 -0.90080642171E+01  0.34765974072E+02  0.40352956533E+02  0.00000000000E+00 0.  1.
         21    1    1    2  504  502 -0.18399536049E+02  0.90080642171E+01  0.26589662547E+03  0.26668465195E+03  0.00000000000E+00 0. -1.
</event>
<event>
 4    1  0.2825993E+006  0.2006590E+02  0.7546771E-02  0.1533031E+00
         21   -1    0    0  503  501  0.00000000000E+00  0.00000000000E+00  0.14563365930E+04  0.14563365930E+04  0.00000000000E+00 0. -1.
         21   -1    0    0  501  502 -0.00000000000E+00 -0.00000000000E+00 -0.12870471911E+01  0.12870471911E+01  0.00000000000E+00 0. -1.
         21    1    1    2  503  504  0.18633510234E+02  0.74453042075E+01  0.13733305159E+04  0.13734771007E+04  0.00000000000E+00 0. -1.
         21    1    1    2  504  502 -0.18633510234E+02 -0.74453042075E+01  0.81719029931E+02  0.84146539508E+02  0.00000000000E+00 0. -1.
</event>
<event>
 4    1  0.2825993E+006  0.3589645E+02  0.7546771E-02  0.1374368E+00
         21   -1    0    0  503  501  0.00000000000E+00  0.00000000000E+00  0.21460757742E+03  0.21460757742E+03  0.00000000000E+00 0.  1.
         21   -1    0    0  501  502 -0.00000000000E+00 -0.00000000000E+00 -0.42731620112E+02  0.42731620112E+02  0.00000000000E+00 0. -1.
         21    1    1    2  503  504 -0.41237580920E+01 -0.35658800601E+02  0.20522583688E+03  0.20834154546E+03  0.00000000000E+00 0.  1.
         21    1    1    2  504  502  0.41237580920E+01  0.35658800601E+02 -0.33349879572E+02  0.48997652072E+02  0.00000000000E+00 0. -1.
</event>
<event>
 4    1  0.2825993E+006  0.3167666E+02  0.7546771E-02  0.1405565E+00
         21   -1    0    0  502  501  0.00000000000E+00  0.00000000000E+00  0.19294870535E+03  0.19294870535E+03  0.00000000000E+00 0.  1.
         21   -1    0    0  503  502 -0.00000000000E+00 -0.00000000000E+00 -0.37701099438E+02  0.37701099438E+02  0.00000000000E+00 0. -1.
         21    1    1    2  503  504  0.12857339904E+02 -0.28949952269E+02 -0.29452267601E+02  0.43253288807E+02  0.00000000000E+00 0. -1.
         21    1    1    2  504  501 -0.12857339904E+02  0.28949952269E+02  0.18469987351E+03  0.18739651598E+03  0.00000000000E+00 0.  1.
</event>
<event>
 4    1  0.2825993E+006  0.2611401E+02  0.7546771E-02  0.1456717E+00
         21   -1    0    0  503  501  0.00000000000E+00  0.00000000000E+00  0.38979129956E+03  0.38979129956E+03  0.00000000000E+00 0. -1.
         21   -1    0    0  504  502 -0.00000000000E+00 -0.00000000000E+00 -0.17584415623E+01  0.17584415623E+01  0.00000000000E+00 0. -1.
         21    1    1    2  503  502 -0.11362495422E+02  0.23512446654E+02  0.18005911785E+03  0.18194292338E+03  0.00000000000E+00 0. -1.
         21    1    1    2  504  501  0.11362495422E+02 -0.23512446654E+02  0.20797374015E+03  0.20960681774E+03  0.00000000000E+00 0. -1.
</event>
<event>
 4    1  0.2825993E+006  0.2002041E+02  0.7546771E-02  0.1533724E+00
         21   -1    0    0  502  501  0.00000000000E+00  0.00000000000E+00  0.82754781551E+02  0.82754781551E+02  0.00000000000E+00 0. -1.
         21   -1    0    0  504  502 -0.00000000000E+00 -0.00000000000E+00 -0.11067392620E+02  0.11067392620E+02  0.00000000000E+00 0.  1.
         21    1    1    2  503  501 -0.96242912591E+00 -0.19997265968E+02  0.71022926807E+02  0.73790738228E+02  0.00000000000E+00 0. -1.
         21    1    1    2  504  503  0.96242912591E+00  0.19997265968E+02  0.66446212390E+00  0.20031435942E+02  0.00000000000E+00 0.  1.
</event>
<event>
 4    1  0.2825993E+006  0.2587780E+02  0.7546771E-02  0.1459219E+00
         21   -1    0    0  503  501  0.00000000000E+00  0.00000000000E+00  0.40877991343E+02  0.40877991343E+02  0.00000000000E+00 0. -1.
         21   -1    0    0  501  502 -0.00000000000E+00 -0.00000000000E+00 -0.27839332181E+02  0.27839332181E+02  0.00000000000E+00 0.  1.
         21    1    1    2  503  504  0.23738369378E+02  0.10302917667E+02  0.28561276835E+02  0.38540975956E+02  0.00000000000E+00 0. -1.
         21    1    1    2  504  502 -0.23738369378E+02 -0.10302917667E+02 -0.15522617673E+02  0.30176347569E+02  0.00000000000E+00 0.  1.
</event>
<event>
 4    1  0.2825993E+006  0.2004484E+02  0.7546771E-02  0.1533351E+00
         21   -1    0    0  504  501  0.00000000000E+00  0.00000000000E+00  0.12117197742E+02  0.12117197742E+02  0.00000000000E+00 0.  1.
         21   -1    0    0  501  502 -0.00000000000E+00 -0.00000000000E+00 -0.86255937069E+02  0.86255937069E+02  0.00000000000E+00 0.  1.
         21    1    1    2  503  502 -0.10555038834E+02  0.17040744156E+02 -0.75660384157E+02  0.78270617328E+02  0.00000000000E+00 0.  1.
         21    1    1    2  504  503  0.10555038834E+02 -0.17040744156E+02  0.15216448296E+01  0.20102517483E+02  0.00000000000E+00 0.  1.
</event>
<event>
 4    1  0.2825993E+006  0.2453454E+02  0.7546771E-02  0.1474078E+00
         21   -1    0    0  502  501  0.00000000000E+00  0.00000000000E+00  0.53634122388E+01  0.53634122388E+01  0.00000000000E+00 0. -1.
         21   -1    0    0  503  502 -0.00000000000E+00 -0.00000000000E+00 -0.43768359252E+03  0.43768359252E+03  0.00000000000E+00 0. -1.
         21    1    1    2  503  504 -0.13224961497E+02  0.20665042909E+02 -0.40718202265E+03  0.40792051085E+03  0.00000000000E+00 0. -1.
         21    1    1    2  504  501  0.13224961497E+02 -0.20665042909E+02 -0.25138157630E+02  0.35126493905E+02  0.00000000000E+00 0. -1.
</event>
<event>
 4    1  0.2825993E+006  0.2593772E+02  0.7546771E-02  0.1458581E+00
         21   -1    0    0  504  501  0.00000000000E+00  0.00000000000E+00  0.20927431128E+02  0.20927431128E+02  0.00000000000E+00 0. -1.
         21   -1    0    0  503  502 -0.00000000000E+00 -0.00000000000E+00 -0.17684946418E+03  0.17684946418E+03  0.00000000000E+00 0. -1.
         21    1    1    2  503  501 -0.14709709618E+02  0.21363280291E+02  0.11489086991E+02  0.28368370093E+02  0.00000000000E+00 0. -1.
         21    1    1    2  504  502  0.14709709618E+02 -0.21363280291E+02 -0.16741112004E+03  0.16940852521E+03  0.00000000000E+00 0. -1.
</event>
<event>
 4    1  0.2825993E+006  0.3764466E+02  0.7546771E-02  0.1362870E+00
         21   -1    0    0  502  501  0.00000000000E+00  0.00000000000E+00  0.20046960222E+04  0.20046960222E+04  0.00000000000E+00 0. -1.
         21   -1    0    0  503  502 -0.00000000000E+00 -0.00000000000E+00 -0.71885009485E+00  0.71885009485E+00  0.00000000000E+00 0. -1.
         21    1    1    2  503  504 -0.34393700541E+02 -0.15303382905E+02  0.87270726373E+03  0.87351879679E+03  0.00000000000E+00 0. -1.
         21    1    1    2  504  501  0.34393700541E+02  0.15303382905E+02  0.11312699084E+04  0.11318960755E+04  0.00000000000E+00 0. -1.
</event>
<event>
 4    1  0.2825993E+006  0.4718110E+02  0.7546771E-02  0.1310880E+00
         21   -1    0    0  503  501  0.00000000000E+00  0.00000000000E+00  0.13454324805E+02  0.13454324805E+02  0.00000000000E+00 0. -1.
         21   -1    0    0  504  502 -0.00000000000E+00 -0.00000000000E+00 -0.37022883804E+03  0.37022883804E+03  0.00000000000E+00 0. -1.
         21    1    1    2  503  502 -0.44100209432E+02  0.16769836034E+02 -0.35712487259E+02  0.59172946680E+02  0.00000000000E+00 0. -1.
         21    1    1    2  504  501  0.44100209432E+02 -0.16769836034E+02 -0.32106202597E+03  0.32451021616E+03  0.00000000000E+00 0. -1.
</event>
<event>
 4    1  0.2825993E+006  0.2145618E+02  0.7546771E-02  0.1512850E+00
         21   -1    0    0  503  501  0.00000000000E+00  0.00000000000E+00  0.13930349672E+03  0.13930349672E+03  0.00000000000E+00 0.  1.
         21   -1    0    0  504  502 -0.00000000000E+00 -0.00000000000E+00 -0.31499898080E+02  0.31499898080E+02  0.00000000000E+00 0. -1.
         21    1    1    2  503  502 -0.68721386661E+01 -0.20325882412E+02 -0.26895876145E+02  0.34405754450E+02  0.00000000000E+00 0. -1.
         21    1    1    2  504  501  0.68721386661E+01  0.20325882412E+02  0.13469947478E+03  0.13639764035E+03  0.00000000000E+00 0.  1.
</event>
<event>
 4    1  0.2825993E+006  0.2475978E+02  0.7546771E-02  0.1471509E+00
         21   -1    0    0  504  501  0.00000000000E+00  0.00000000000E+00  0.16316297245E+02  0.16316297245E+02  0.00000000000E+00 0.  1.
         21   -1    0    0  501  502 -0.00000000000E+00 -0.00000000000E+00 -0.29975258469E+03  0.29975258469E+03  0.00000000000E+00 0. -1.
         21    1    1    2  503  502  0.16537565413E+01 -0.24704492678E+02 -0.28951662936E+03  0.29057344260E+03  0.00000000000E+00 0. -1.
         21    1    1    2  504  503 -0.16537565413E+01  0.24704492678E+02  0.60803419124E+01  0.25495439336E+02  0.00000000000E+00 0.  1.
</event>
<event>
 4    1  0.2825993E+006  0.3350652E+02  0.7546771E-02  0.1391378E+00
         21   -1    0    0  503  501  0.00000000000E+00  0.00000000000E+00  0.33467120668E+02  0.33467120668E+02  0.00000000000E+00 0.  1.
         21   -1    0    0  504  502 -0.00000000000E+00 -0.00000000000E+00 -0.87121608242E+02  0.87121608242E+02  0.00000000000E+00 0.  1.
         21    1    1    2  503  502 -0.12099873782E+02  0.31245482748E+02 -0.74109418460E+02  0.81331992734E+02  0.00000000000E+00 0.  1.
         21    1    1    2  504  501  0.12099873782E+02 -0.31245482748E+02  0.20454930886E+02  0.39256736176E+02  0.00000000000E+00 0.  1.
</event>
<event>
 4    1  0.2825993E+006  0.2249730E+02  0.7546771E-02  0.1498909E+00
         21   -1    0    0  502  501  0.00000000000E+00  0.00000000000E+00  0.54253594936E+03  0.54253594936E+03  0.00000000000E+00 0. -1.
         21   -1    0    0  503  502 -0.00000000000E+00 -0.00000000000E+00 -0.32801513694E+01  0.32801513694E+01  0.00000000000E+00 0. -1.
         21    1    1    2  503  504  0.22358816376E+02  0.24923573482E+01  0.38767329530E+02  0.44822252886E+02  0.00000000000E+00 0. -1.
         21    1    1    2  504  501 -0.22358816376E+02 -0.24923573482E+01  0.50048846846E+03  0.50099384784E+03  0.00000000000E+00 0. -1.
</event>
<event>
 4    1  0.2825993E+006  0.2465151E+02  0.7546771E-02  0.1472740E+00
         21   -1    0    0  503  501  0.00000000000E+00  0.00000000000E+00  0.45930691590E+01  0.45930691590E+01  0.00000000000E+00 0.  1.
         21   -1    0    0  504  502 -0.00000000000E+00 -0.00000000000E+00 -0.26609232859E+03  0.26609232859E+03  0.00000000000E+00 0. -1.
         21    1    1    2  503  502  0.17103766104E+01 -0.24592101775E+02 -0.22671671727E+03  0.22805299110E+03  0.00000000000E+00 0. -1.
         21    1    1    2  504  501 -0.17103766104E+01  0.24592101775E+02 -0.34782542158E+02  0.42632406650E+02  0.00000000000E+00 0.  1.
</event>
<event>
 4    1  0.2825993E+006  0.2830767E+02  0.7546771E-02  0.1434897E+00
         21   -1    0    0  503  501  0.00000000000E+00  0.00000000000E+00  0.29962790725E+03  0.29962790725E+03  0.00000000000E+00 0. -1.
         21   -1    0    0  504  502 -0.00000000000E+00 -0.00000000000E+00 -0.28703755475E+02  0.28703755475E+02  0.00000000000E+00 0. -1.
         21    1    1    2  503  502 -0.22427796519E+02  0.17271892449E+02 -0.20868933517E+02  0.35168689364E+02  0.00000000000E+00 0. -1.
         21    1    1    2  504  501  0.22427796519E+02 -0.17271892449E+02  0.29179308529E+03  0.29316297336E+03  0.00000000000E+00 0. -1.
</event>
<event>
 4    1  0.2825993E+006  0.2291640E+02  0.7546771E-02  0.1493551E+00
         21   -1    0    0  503  501  0.00000000000E+00  0.00000000000E+00  0.26671834242E+03  0.26671834242E+03  0.00000000000E+00 0.  1.
         21   -1    0    0  504  502 -0.00000000000E+00 -0.00000000000E+00 -0.55595983204E+01  0.55595983204E+01  0.00000000000E+00 0. -1.
         21    1    1    2  503  502  0.22537258209E+02 -0.41513037364E+01  0.21172205045E+02  0.31199737127E+02  0.00000000000E+00 0. -1.
         21    1    1    2  504  501 -0.22537258209E+02  0.41513037364E+01  0.23998653906E+03  0.24107820362E+03  0.00000000000E+00 0.  1.
</event>
<event>
 4    1  0.2825993E+006  0.2056718E+02  0.7546771E-02  0.1525535E+00
         21   -1    0    0  502  501  0.00000000000E+00  0.00000000000E+00  0.81613120288E+01  0.81613120288E+01  0.00000000000E+00 0.  1.
         21   -1    0    0  504  502 -0.00000000000E+00 -0.00000000000E+00 -0.58263473663E+02  0.58263473663E+02  0.00000000000E+00 0.  1.
         21    1    1    2  503  501  0.13706386682E+02 -0.15334404568E+02 -0.14015610660E+02  0.24888678983E+02  0.00000000000E+00 0.  1.
         21    1    1    2  504  503 -0.13706386682E+02  0.15334404568E+02 -0.36086550974E+02  0.41536106709E+02  0.00000000000E+00 0.  1.
</event>
<event>
 4    1  0.2825993E+006  0.2265127E+02  0.7546771E-02  0.1496924E+00
         21   -1    0    0  503  501  0.00000000000E+00  0.00000000000E+00  0.75240500015E+02  0.75240500015E+02  0.00000000000E+00 0.  1.
         21   -1    0    0  504  502 -0.00000000000E+00 -0.00000000000E+00 -0.68287389869E+01  0.68287389869E+01  0.00000000000E+00 0.  1.
         21    1    1    2  503  502  0.22628991576E+02  0.10043113747E+01  0.32672088192E+02  0.39756071837E+02  0.00000000000E+00 0.  1.
         21    1    1    2  504  501 -0.22628991576E+02 -0.10043113747E+01  0.35739672836E+02  0.42313167164E+02  0.00000000000E+00 0.  1.
</event>
<event>
 4    1  0.2825993E+006  0.2057138E+02  0.7546771E-02  0.1525473E+00
         21   -1    0    0  504  501  0.00000000000E+00  0.00000000000E+00  0.67233705445E+02  0.67233705445E+02  0.00000000000E+00 0.  1.
         21   -1    0    0  503  502 -0.00000000000E+00 -0.00000000000E+00 -0.63856331921E+01  0.63856331921E+01  0.00000000000E+00 0.  1.
         21    1    1    2  503  501  0.63279632484E+01  0.19573926351E+02  0.26019138795E+02  0.33168920623E+02  0.00000000000E+00 0.  1.
         21    1    1    2  504  502 -0.63279632484E+01 -0.19573926351E+02  0.34828933457E+02  0.40450418013E+02  0.00000000000E+00 0.  1.
</event>
<event>
 4    1  0.2825993E+006  0.2430935E+02  0.7546771E-02  0.1476680E+00
         21   -1    0    0  503  501  0.00000000000E+00  0.00000000000E+00  0.90329394318E+02  0.90329394318E+02  0.00000000000E+00 0. -1.
         21   -1    0    0  504  502 -0.00000000000E+00 -0.00000000000E+00 -0.82464089284E+01  0.82464089284E+01  0.00000000000E+00 0. -1.
         21    1    1    2  503  502  0.16173564144E+02  0.18148289827E+02  0.18634627072E+02  0.30629951467E+02  0.00000000000E+00 0. -1.
         21    1    1    2  504  501 -0.16173564144E+02 -0.18148289827E+02  0.63448358318E+02  0.67945851780E+02  0.00000000000E+00 0. -1.
</event>
<event>
 4    1  0.2825993E+006  0.2549482E+02  0.7546771E-02  0.1463343E+00
         21   -1    0    0  503  501  0.00000000000E+00  0.00000000000E+00  0.69798806422E+02  0.69798806422E+02  0.00000000000E+00 0. -1.
         21   -1    0    0  504  502 -0.00000000000E+00 -0.00000000000E+00 -0.59606282583E+02  0.59606282583E+02  0.00000000000E+00 0. -1.
         21    1    1    2  503  502 -0.25317547527E+02 -0.30012741209E+01 -0.54337531696E+02  0.60021272978E+02  0.00000000000E+00 0. -1.
         21    1    1    2  504  501  0.25317547527E+02  0.30012741209E+01  0.64530055534E+02  0.69383816027E+02  0.00000000000E+00 0. -1.
</event>
<event>
 4    1  0.2825993E+006  0.2043863E+02  0.7546771E-02  0.1527433E+00
         21   -1    0    0  503  501  0.00000000000E+00  0.00000000000E+00  0.31265332458E+01  0.31265332458E+01  0.00000000000E+00 0.  1.
         21   -1    0    0  504  502 -0.00000000000E+00 -0.00000000000E+00 -0.19389791639E+03  0.19389791639E+03  0.00000000000E+00 0. -1.
         21    1    1    2  503  502 -0.68153946849E+01  0.19268839842E+02 -0.40454787041E+02  0.45324690712E+02  0.00000000000E+00 0.  1.
         21    1    1    2  504  501  0.68153946849E+01 -0.19268839842E+02 -0.15031659610E+03  0.15169975892E+03  0.00000000000E+00 0. -1.
</event>
<event>
 4    1  0.2825993E+006  0.2137509E+02  0.7546771E-02  0.1513976E+00
         21   -1    0    0  504  501  0.00000000000E+00  0.00000000000E+00  0.14343633491E+03  0.14343633491E+03  0.00000000000E+00 0.  1.
         21   -1    0    0  503  502 -0.00000000000E+00 -0.00000000000E+00 -0.63640944434E+01  0.63640944434E+01  0.00000000000E+00 0. -1.
         21    1    1    2  503  501 -0.62379454913E+01  0.20444619117E+02  0.12147110673E+03  0.12333744032E+03  0.00000000000E+00 0.  1.
         21    1    1    2  504  502  0.62379454913E+01 -0.20444619117E+02  0.15601133743E+02  0.26462989038E+02  0.00000000000E+00 0. -1.
</event>
<event>
 4    1  0.2825993E+006  0.2352132E+02  0.7546771E-02  0.1486054E+00
         21   -1    0    0  503  501  0.00000000000E+00  0.00000000000E+00  0.83453391422E+01  0.83453391422E+01  0.00000000000E+00 0. -1.
         21   -1    0    0  501  502 -0.00000000000E+00 -0.00000000000E+00 -0.66372359522E+02  0.66372359522E+02  0.00000000000E+00 0. -1.
         21    1    1    2  503  504  0.14935824372E+02 -0.18170683396E+02 -0.30290592751E+02  0.38350653110E+02  0.00000000000E+00 0. -1.
         21    1    1    2  504  502 -0.14935824372E+02  0.18170683396E+02 -0.27736427628E+02  0.36367045554E+02  0.00000000000E+00 0. -1.
</event>
<event>
 4    1  0.2825993E+006  0.3470751E+02  0.7546771E-02  0.1382631E+00
         21   -1    0    0  504  501  0.00000000000E+00  0.00000000000E+00  0.31737205972E+03  0.31737205972E+03  0.00000000000E+00 0.  1.
         21   -1    0    0  503  502 -0.00000000000E+00 -0.00000000000E+00 -0.54635289063E+02  0.54635289063E+02  0.00000000000E+00 0. -1.
         21    1    1    2  503  501  0.33770995327E+02 -0.80081737419E+01  0.31079482112E+03  0.31272676861E+03  0.00000000000E+00 0.  1.
         21    1    1    2  504  502 -0.33770995327E+02  0.80081737419E+01 -0.48058050458E+02  0.59280580175E+02  0.00000000000E+00 0. -1.
</event>
<event>
 4    1  0.2825993E+006  0.2264341E+02  0.7546771E-02  0.1497025E+00
         21   -1    0    0  503  501  0.00000000000E+00  0.00000000000E+00  0.34168461307E+03  0.34168461307E+03  0.00000000000E+00 0. -1.
         21   -1    0    0  504  502 -0.00000000000E+00 -0.00000000000E+00 -0.99193794677E+01  0.99193794677E+01  0.00000000000E+00 0. -1.
         21    1    1    2  503  502  0.21169823316E+02 -0.80350954180E+01  0.39230144447E+01  0.22980735844E+02  0.00000000000E+00 0. -1.
         21    1    1    2  504  501 -0.21169823316E+02  0.80350954180E+01  0.32784221916E+03  0.32862325670E+03  0.00000000000E+00 0. -1.
</event>
<event>
 4    1  0.2825993E+006  0.2012938E+02  0.7546771E-02  0.1532067E+00
         21   -1    0    0  502  501  0.00000000000E+00  0.00000000000E+00  0.14343220198E+02  0.14343220198E+02  0.00000000000E+00 0. -1.
         21   -1    0    0  503  502 -0.00000000000E+00 -0.00000000000E+00 -0.40435688179E+03  0.40435688179E+03  0.00000000000E+00 0. -1.
         21    1    1    2  503  504  0.19151710461E+02 -0.61970986544E+01 -0.39691154051E+03  0.39742164389E+03  0.00000000000E+00 0. -1.
         21    1    1    2  504  501 -0.19151710461E+02  0.61970986544E+01  0.68978789186E+01  0.21278458094E+02  0.00000000000E+00 0. -1.
</event>
<event>
 4    1  0.2825993E+006  0.2160598E+02  0.7546771E-02  0.1510786E+00
         21   -1    0    0  502  501  0.00000000000E+00  0.00000000000E+00  0.13085253360E+03  0.13085253360E+03  0.00000000000E+00 0.  1.
         21   -1    0    0  504  502 -0.00000000000E+00 -0.00000000000E+00 -0.18627144908E+02  0.18627144908E+02  0.00000000000E+00 0. -1.
         21    1    1    2  503  501 -0.88605431143E+01 -0.19705555895E+02  0.12331531149E+03  0.12519378661E+03  0.00000000000E+00 0.  1.
         21    1    1    2  504  503  0.88605431143E+01  0.19705555895E+02 -0.11089922802E+02  0.24285891896E+02  0.00000000000E+00 0. -1.
</event>
<event>
 4    1  0.2825993E+006  0.3581699E+02  0.7546771E-02  0.1374909E+00
         21   -1    0    0  502  501  0.00000000000E+00  0.00000000000E+00  0.10910551032E+03  0.10910551032E+03  0.00000000000E+00 0. -1.
         21   -1    0    0  503  502 -0.00000000000E+00 -0.00000000000E+00 -0.39061835492E+02  0.39061835492E+02  0.00000000000E+00 0. -1.
         21    1    1    2  503  504  0.21823115730E+01  0.35750446865E+02 -0.26916340298E+02  0.44803418507E+02  0.00000000000E+00 0. -1.
         21    1    1    2  504  501 -0.21823115730E+01 -0.35750446865E+02  0.96960015121E+02  0.10336392730E+03  0.00000000000E+00 0. -1.
</event>
<event>
 4    1  0.2825993E+006  0.2025324E+02  0.7546771E-02  0.1530199E+00
         21   -1    0    0  504  501  0.00000000000E+00  0.00000000000E+00  0.14798390790E+03  0.14798390790E+03  0.00000000000E+00 0.  1.
         21   -1    0    0  503  502 -0.00000000000E+00 -0.00000000000E+00 -0.84902625961E+01  0.84902625961E+01  0.00000000000E+00 0. -1.
         21    1    1    2  503  501  0.19557573722E+02  0.52625903308E+01  0.13395476138E+03  0.13547719972E+03  0.00000000000E+00 0.  1.
         21    1    1    2  504  502 -0.19557573722E+02 -0.52625903308E+01  0.55388839284E+01  0.20996970783E+02  0.00000000000E+00 0. -1.
</event>
<event>
 4    1  0.2825993E+006  0.1329192E+03  0.7546771E-02  0.1116536E+00
         21   -1    0    0  504  501  0.00000000000E+00  0.00000000000E+00  0.20455377863E+03  0.20455377863E+03  0.00000000000E+00 0. -1.
         21   -1    0    0  503  502 -0.00000000000E+00 -0.00000000000E+00 -0.91853184380E+02  0.91853184380E+02  0.00000000000E+00 0. -1.
         21    1    1    2  503  501  0.13136602006E+03 -0.20260547541E+02  0.92556821642E+02  0.16197001650E+03  0.00000000000E+00 0. -1.
         21    1    1    2  504  502 -0.13136602006E+03  0.20260547541E+02  0.20143772612E+02  0.13443694651E+03  0.00000000000E+00 0. -1.
</event>
<event>
 4    1  0.2825993E+006  0.2240864E+02  0.7546771E-02  0.1500060E+00
         21   -1    0    0  504  501  0.00000000000E+00  0.00000000000E+00  0.21215897671E+02  0.21215897671E+02  0.00000000000E+00 0. -1.
         21   -1    0    0  503  502 -0.00000000000E+00 -0.00000000000E+00 -0.38278194702E+03  0.38278194702E+03  0.00000000000E+00 0.  1.
         21    1    1    2  503  501 -0.22392312579E+02  0.85525984539E+00  0.14871186993E+02  0.26894224930E+02  0.00000000000E+00 0. -1.
         21    1    1    2  504  502  0.22392312579E+02 -0.85525984539E+00 -0.37643723634E+03  0.37710361976E+03  0.00000000000E+00 0.  1.
</event>
<event>
 4    1  0.2825993E+006  0.3300605E+02  0.7546771E-02  0.1395150E+00
         21   -1    0    0  503  501  0.00000000000E+00  0.00000000000E+00  0.11350530671E+03  0.11350530671E+03  0.00000000000E+00 0. -1.
         21   -1    0    0  504  502 -0.00000000000E+00 -0.00000000000E+00 -0.44396427857E+02  0.44396427857E+02  0.00000000000E+00 0. -1.
         21    1    1    2  503  502 -0.14956273487E+02  0.29422940689E+02  0.10445232576E+03  0.10954308701E+03  0.00000000000E+00 0. -1.
         21    1    1    2  504  501  0.14956273487E+02 -0.29422940689E+02 -0.35343446899E+02  0.48358647563E+02  0.00000000000E+00 0. -1.
</event>
<event>
 4    1  0.2825993E+006  0.2357677E+02  0.7546771E-02  0.1485380E+00
         21   -1    0    0  504  501  0.00000000000E+00  0.00000000000E+00  0.75718891472E+02  0.75718891472E+02  0.00000000000E+00 0. -1.
         21   -1    0    0  501  502 -0.00000000000E+00 -0.00000000000E+00 -0.28817867360E+02  0.28817867360E+02  0.00000000000E+00 0.  1.
         21    1    1    2  503  502  0.23392657934E+02  0.29406779188E+01 -0.21671870979E+02  0.32023960148E+02  0.00000000000E+00 0.  1.
         21    1    1    2  504  503 -0.23392657934E+02 -0.29406779188E+01  0.68572895091E+02  0.72512798684E+02  0.00000000000E+00 0. -1.
</event>
<event>
 4    1  0.2825993E+006  0.2085944E+02  0.7546771E-02  0.1521281E+00
         21   -1    0    0  503  501  0.00000000000E+00  0.00000000000E+00  0.81577243774E+02  0.81577243774E+02  0.00000000000E+00 0. -1.
         21   -1    0    0  504  502 -0.00000000000E+00 -0.00000000000E+00 -0.26917621758E+02  0.26917621758E+02  0.00000000000E+00 0.  1.
         21    1    1    2  503  502 -0.19415874477E+02  0.76249527779E+01 -0.21246563266E+02  0.29774696257E+02  0.00000000000E+00 0.  1.
         21    1    1    2  504  501  0.19415874477E+02 -0.76249527779E+01  0.75906185282E+02  0.78720169275E+02  0.00000000000E+00 0. -1.
</event>
<event>
 4    1  0.2825993E+006  0.2199215E+02  0.7546771E-02  0.1505557E+00
         21   -1    0    0  504  501  0.00000000000E+00  0.00000000000E+00  0.43586556512E+02  0.43586556512E+02  0.00000000000E+00 0.  1.
         21   -1    0    0  501  502 -0.00000000000E+00 -0.00000000000E+00 -0.31503610586E+02  0.31503610586E+02  0.00000000000E+00 0.  1.
         21    1    1    2  503  502 -0.16578607371E+02 -0.14450068666E+02 -0.24176444283E+02  0.32682643177E+02  0.00000000000E+00 0.  1.
         21    1    1    2  504  503  0.16578607371E+02  0.14450068666E+02  0.36259390209E+02  0.42407523921E+02  0.00000000000E+00 0.  1.
</event>
<event>
 4    1  0.2825993E+006  0.2271221E+02  0.7546771E-02  0.1496144E+00
         21   -1    0    0  504  501  0.00000000000E+00  0.00000000000E+00  0.56188400850E+02  0.56188400850E+02  0.00000000000E+00 0.  1.
         21   -1    0    0  503  502 -0.00000000000E+00 -0.00000000000E+00 -0.47129736981E+02  0.47129736981E+02  0.00000000000E+00 0. -1.
         21    1    1    2  503  501 -0.19410455373E+02  0.11793161596E+02 -0.41826021370E+02  0.47594752882E+02  0.00000000000E+00 0. -1.
         21    1    1    2  504  502  0.19410455373E+02 -0.11793161596E+02  0.50884685240E+02  0.55723384949E+02  0.00000000000E+00 0.  1.
</event>
<event>
 4    1  0.2825993E+006  0.2063189E+02  0.7546771E-02  0.1524586E+00
         21   -1    0    0  503  501  0.00000000000E+00  0.00000000000E+00  0.15335796283E+02  0.15335796283E+02  0.00000000000E+00 0.  1.
         21   -1    0    0  504  502 -0.00000000000E+00 -0.00000000000E+00 -0.61684044108E+02  0.61684044108E+02  0.00000000000E+00 0. -1.
         21    1    1    2  503  502  0.22233238090E+01 -0.20511743082E+02 -0.51734215552E+02  0.55696533391E+02  0.00000000000E+00 0. -1.
         21    1    1    2  504  501 -0.22233238090E+01  0.20511743082E+02  0.53859677274E+01  0.21323306999E+02  0.00000000000E+00 0.  1.
</event>
<event>
 4    1  0.2825993E+006  0.7396727E+02  0.7546771E-02  0.1218591E+00
         21   -1    0    0  502  501  0.00000000000E+00  0.00000000000E+00  0.62314920647E+02  0.62314920647E+02  0.00000000000E+00 0. -1.
         21   -1    0    0  503  502 -0.00000000000E+00 -0.00000000000E+00 -0.10044079233E+03  0.10044079233E+03  0.00000000000E+00 0.  1.
         21    1    1    2  503  504 -0.24236342166E+02 -0.69883883245E+02 -0.47934070923E+02  0.88140981241E+02  0.00000000000E+00 0.  1.
         21    1    1    2  504  501  0.24236342166E+02  0.69883883245E+02  0.98081992448E+01  0.74614731732E+02  0.00000000000E+00 0. -1.
</event>
<event>
 4    1  0.2825993E+006  0.2249542E+02  0.7546771E-02  0.1498933E+00
         21   -1    0    0  503  501  0.00000000000E+00  0.00000000000E+00  0.31428658953E+03  0.31428658953E+03  0.00000000000E+00 0.  1.
         21   -1    0    0  504  502 -0.00000000000E+00 -0.00000000000E+00 -0.12273963741E+02  0.12273963741E+02  0.00000000000E+00 0. -1.
         21    1    1    2  503  502  0.15157021254E+02  0.16622534145E+02  0.30320043650E+03  0.30403379521E+03  0.00000000000E+00 0.  1.
         21    1    1    2  504  501 -0.15157021254E+02 -0.16622534145E+02 -0.11878107083E+01  0.22526758066E+02  0.00000000000E+00 0. -1.
</event>
<event>
 4    1  0.2825993E+006  0.2650618E+02  0.7546771E-02  0.1452633E+00
         21   -1    0    0  504  501  0.00000000000E+00  0.00000000000E+00  0.38749404787E+02  0.38749404787E+02  0.00000000000E+00 0. -1.
         21   -1    0    0  503  502 -0.00000000000E+00 -0.00000000000E+00 -0.21021592639E+02  0.21021592639E+02  0.00000000000E+00 0. -1.
         21    1    1    2  503  501  0.10906560618E+02 -0.24158324113E+02 -0.22175654299E+01  0.26598783523E+02  0.00000000000E+00 0. -1.
         21    1    1    2  504  502 -0.10906560618E+02  0.24158324113E+02  0.19945377577E+02  0.33172213902E+02  0.00000000000E+00 0. -1.
</event>
<event>
 4    1  0.2825993E+006  0.2065066E+02  0.7546771E-02  0.1524311E+00
         21   -1    0    0  504  501  0.00000000000E+00  0.00000000000E+00  0.83008137773E+01  0.83008137773E+01  0.00000000000E+00 0. -1.
         21   -1    0    0  503  502 -0.00000000000E+00 -0.00000000000E+00 -0.70486473561E+02  0.70486473561E+02  0.00000000000E+00 0. -1.
         21    1    1    2  503  501  0.15929527211E+02  0.13141534953E+02 -0.51605705562E+02  0.55584158036E+02  0.00000000000E+00 0. -1.
         21    1    1    2  504  502 -0.15929527211E+02 -0.13141534953E+02 -0.10579954222E+02  0.23203129302E+02  0.00000000000E+00 0. -1.
</event>
<event>
 4    1  0.2825993E+006  0.2826923E+02  0.7546771E-02  0.1435259E+00
         21   -1    0    0  502  501  0.00000000000E+00  0.00000000000E+00  0.86426602367E+02  0.86426602367E+02  0.00000000000E+00 0.  1.
         21   -1    0    0  504  502 -0.00000000000E+00 -0.00000000000E+00 -0.47306558343E+02  0.47306558343E+02  0.00000000000E+00 0. -1.
         21    1    1    2  503  501  0.13963951971E+02 -0.24579611994E+02  0.79536752197E+02  0.84411161765E+02  0.00000000000E+00 0.  1.
         21    1    1    2  504  503 -0.13963951971E+02  0.24579611994E+02 -0.40416708173E+02  0.49321998945E+02  0.00000000000E+00 0. -1.
</event>
<event>
 4    1  0.2825993E+006  0.2784763E+02  0.7546771E-02  0.1439274E+00
         21   -1    0    0  504  501  0.00000000000E+00  0.00000000000E+00  0.67996572095E+03  0.67996572095E+03  0.00000000000E+00 0. -1.
         21   -1    0    0  501  502 -0.00000000000E+00 -0.00000000000E+00 -0.54340394877E+01  0.54340394877E+01  0.00000000000E+00 0.  1.
         21    1    1    2  503  502  0.23388965359E+02  0.15114458846E+02  0.32643986532E+02  0.42908279195E+02  0.00000000000E+00 0.  1.
         21    1    1    2  504  503 -0.23388965359E+02 -0.15114458846E+02  0.64188769493E+03  0.64249148124E+03  0.00000000000E+00 0. -1.
</event>
<event>
 4    1  0.2825993E+006  0.3770816E+02  0.7546771E-02  0.1362466E+00
         21   -1    0    0  504  501  0.00000000000E+00  0.00000000000E+00  0.28271132403E+02  0.28271132403E+02  0.00000000000E+00 0. -1.
         21   -1    0    0  503  502 -0.00000000000E+00 -0.00000000000E+00 -0.55624415317E+02  0.55624415317E+02  0.00000000000E+00 0. -1.
         21    1    1    2  503  501  0.16962918520E+02  0.33677364561E+02 -0.26660481809E+02  0.46181021846E+02  0.00000000000E+00 0. -1.
         21    1    1    2  504  502 -0.16962918520E+02 -0.33677364561E+02 -0.69280110514E+00  0.37714525873E+02  0.00000000000E+00 0. -1.
</event>
<event>
 4    1  0.2825993E+006  0.2467546E+02  0.7546771E-02  0.1472467E+00
         21   -1    0    0  502  501  0.00000000000E+00  0.00000000000E+00  0.56395369829E+02  0.56395369829E+02  0.00000000000E+00 0.  1.
         21   -1    0    0  504  502 -0.00000000000E+00 -0.00000000000E+00 -0.13479195102E+03  0.13479195102E+03  0.00000000000E+00 0. -1.
         21    1    1    2  503  501 -0.74308117050E+01  0.23530011692E+02  0.52487030040E+02  0.57997989062E+02  0.00000000000E+00 0.  1.
         21    1    1    2  504  503  0.74308117050E+01 -0.23530011692E+02 -0.13088361123E+03  0.13318933178E+03  0.00000000000E+00 0. -1.
</event>
<event>
 4    1  0.2825993E+006  0.2393646E+02  0.7546771E-02  0.1481062E+00
         21   -1    0    0  502  501  0.00000000000E+00  0.00000000000E+00  0.51620096467E+03  0.51620096467E+03  0.00000000000E+00 0.  1.
         21   -1    0    0  504  502 -0.00000000000E+00 -0.00000000000E+00 -0.29496197776E+03  0.29496197776E+03  0.00000000000E+00 0.  1.
         21    1    1    2  503  501 -0.55943169765E+01  0.23273537574E+02  0.51543714277E+03  0.51599263762E+03  0.00000000000E+00 0.  1.
         21    1    1    2  504  503  0.55943169765E+01 -0.23273537574E+02 -0.29419815585E+03  0.29517030481E+03  0.00000000000E+00 0.  1.
</event>
<event>
 4    1  0.2825993E+006  0.3304286E+02  0.7546771E-02  0.1394870E+00
         21   -1    0    0  503  501  0.00000000000E+00  0.00000000000E+00  0.12354871382E+02  0.12354871382E+02  0.00000000000E+00 0. -1.
         21   -1    0    0  504  502 -0.00000000000E+00 -0.00000000000E+00 -0.11213181305E+03  0.11213181305E+03  0.00000000000E+00 0. -1.
         21    1    1    2  503  502 -0.23014210810E+02 -0.23710266232E+02 -0.21237086852E+02  0.39279059077E+02  0.00000000000E+00 0. -1.
         21    1    1    2  504  501  0.23014210810E+02  0.23710266232E+02 -0.78539854819E+02  0.85207625357E+02  0.00000000000E+00 0. -1.
</event>
<event>
 4    1  0.2825993E+006  0.2883575E+02  0.7546771E-02  0.1429991E+00
         21   -1    0    0  503  501  0.00000000000E+00  0.00000000000E+00  0.76965420946E+01  0.76965420946E+01  0.00000000000E+00 0. -1.
         21   -1    0    0  501  502 -0.00000000000E+00 -0.00000000000E+00 -0.21234140319E+03  0.21234140319E+03  0.00000000000E+00 0. -1.
         21    1    1    2  503  504 -0.22164605149E+02 -0.18445338041E+02 -0.25213519882E+02  0.38304331370E+02  0.00000000000E+00 0. -1.
         21    1    1    2  504  502  0.22164605149E+02  0.18445338041E+02 -0.17943134121E+03  0.18173361391E+03  0.00000000000E+00 0. -1.
</event>
<event>
 4    1  0.2825993E+006  0.2050290E+02  0.7546771E-02  0.1526482E+00
         21   -1    0    0  504  501  0.00000000000E+00  0.00000000000E+00  0.11560211957E+03  0.11560211957E+03  0.00000000000E+00 0.  1.
         21   -1    0    0  503  502 -0.00000000000E+00 -0.00000000000E+00 -0.13308280926E+02  0.13308280926E+02  0.00000000000E+00 0. -1.
         21    1    1    2  503  501 -0.20020175677E+02 -0.44228174619E+01  0.10609515764E+03  0.10805809189E+03  0.00000000000E+00 0.  1.
         21    1    1    2  504  502  0.20020175677E+02  0.44228174619E+01 -0.38013189881E+01  0.20852308613E+02  0.00000000000E+00 0. -1.
</event>
<event>
 4    1  0.2825993E+006  0.3912641E+02  0.7546771E-02  0.1353682E+00
         21   -1    0    0  503  501  0.00000000000E+00  0.00000000000E+00  0.57793828583E+02  0.57793828583E+02  0.00000000000E+00 0. -1.
         21   -1    0    0  501  502 -0.00000000000E+00 -0.00000000000E+00 -0.20398107418E+03  0.20398107418E+03  0.00000000000E+00 0.  1.
         21    1    1    2  503  504  0.11399158113E+02  0.37429063656E+02  0.49000030229E+02  0.62704693399E+02  0.00000000000E+00 0. -1.
         21    1    1    2  504  502 -0.11399158113E+02 -0.37429063656E+02 -0.19518727582E+03  0.19907020936E+03  0.00000000000E+00 0.  1.
</event>
<event>
 4    1  0.2825993E+006  0.2193993E+02  0.7546771E-02  0.1506256E+00
         21   -1    0    0  504  501  0.00000000000E+00  0.00000000000E+00  0.46071323739E+00  0.46071323739E+00  0.00000000000E+00 0. -1.
         21   -1    0    0  503  502 -0.00000000000E+00 -0.00000000000E+00 -0.10585647343E+04  0.10585647343E+04  0.00000000000E+00 0. -1.
         21    1    1    2  503  501  0.17134326639E+02 -0.13703111274E+02 -0.46870519970E+03  0.46921841890E+03  0.00000000000E+00 0. -1.
         21    1    1    2  504  502 -0.17134326639E+02  0.13703111274E+02 -0.58939882139E+03  0.58980702867E+03  0.00000000000E+00 0. -1.
</event>
<event>
 4    1  0.2825993E+006  0.2321562E+02  0.7546771E-02  0.1489808E+00
         21   -1    0    0  502  501  0.00000000000E+00  0.00000000000E+00  0.24812850274E+03  0.24812850274E+03  0.00000000000E+00 0. -1.
         21   -1    0    0  504  502 -0.00000000000E+00 -0.00000000000E+00 -0.56260194750E+01  0.56260194750E+01  0.00000000000E+00 0. -1.
         21    1    1    2  503  501  0.10590546986E+02  0.20659271021E+02  0.22066304562E+03  0.22188092497E+03  0.00000000000E+00 0. -1.
         21    1    1    2  504  503 -0.10590546986E+02 -0.20659271021E+02  0.21839437651E+02  0.31873597248E+02  0.00000000000E+00 0. -1.
</event>
<event>
 4    1  0.2825993E+006  0.3257445E+02  0.7546771E-02  0.1398467E+00
         21   -1    0    0  503  501  0.00000000000E+00  0.00000000000E+00  0.12699475773E+02  0.12699475773E+02  0.00000000000E+00 0.  1.
         21   -1    0    0  501  502 -0.00000000000E+00 -0.00000000000E+00 -0.48957068784E+03  0.48957068784E+03  0.00000000000E+00 0. -1.
         21    1    1    2  503  504 -0.31620275686E+02 -0.78264117473E+01 -0.97327882101E+01  0.33997378158E+02  0.00000000000E+00 0.  1.
         21    1    1    2  504  502  0.31620275686E+02  0.78264117473E+01 -0.46713842386E+03  0.46827278546E+03  0.00000000000E+00 0. -1.
</event>
<event>
 4    1  0.2825993E+006  0.2036701E+02  0.7546771E-02  0.1528497E+00
         21   -1    0    0  503  501  0.00000000000E+00  0.00000000000E+00  0.25101468465E+03  0.25101468465E+03  0.00000000000E+00 0.  1.
         21   -1    0    0  504  502 -0.00000000000E+00 -0.00000000000E+00 -0.22370850229E+02  0.22370850229E+02  0.00000000000E+00 0. -1.
         21    1    1    2  503  502  0.15155034087E+02  0.13606614931E+02 -0.17225196144E+02  0.26674377411E+02  0.00000000000E+00 0. -1.
         21    1    1    2  504  501 -0.15155034087E+02 -0.13606614931E+02  0.24586903056E+03  0.24671115747E+03  0.00000000000E+00 0.  1.
</event>
<event>
 4    1  0.2825993E+006  0.2818763E+02  0.7546771E-02  0.1436030E+00
         21   -1    0    0  503  501  0.00000000000E+00  0.00000000000E+00  0.67535292825E+02  0.67535292825E+02  0.00000000000E+00 0.  1.
         21   -1    0    0  504  502 -0.00000000000E+00 -0.00000000000E+00 -0.45469881501E+02  0.45469881501E+02  0.00000000000E+00 0. -1.
         21    1    1    2  503  502 -0.95372047623E+01  0.26525157270E+02 -0.37614043593E+02  0.47003813870E+02  0.00000000000E+00 0. -1.
         21    1    1    2  504  501  0.95372047623E+01 -0.26525157270E+02  0.59679454917E+02  0.66001360456E+02  0.00000000000E+00 0.  1.
</event>
<event>
 4    1  0.2825993E+006  0.3978461E+02  0.7546771E-02  0.1349753E+00
         21   -1    0    0  503  501  0.00000000000E+00  0.00000000000E+00  0.16360061359E+01  0.16360061359E+01  0.00000000000E+00 0. -1.
         21   -1    0    0  504  502 -0.00000000000E+00 -0.00000000000E+00 -0.11894652289E+04  0.11894652289E+04  0.00000000000E+00 0. -1.
         21    1    1    2  503  502  0.38541459305E+02  0.98676860608E+01 -0.85118962454E+03  0.85211888386E+03  0.00000000000E+00 0. -1.
         21    1    1    2  504  501 -0.38541459305E+02 -0.98676860608E+01 -0.33663959827E+03  0.33898235121E+03  0.00000000000E+00 0. -1.
</event>
<event>
 4    1  0.2825993E+006  0.3070297E+02  0.7546771E-02  0.1413584E+00
         21   -1    0    0  503  501  0.00000000000E+00  0.00000000000E+00  0.57155692325E+03  0.57155692325E+03  0.00000000000E+00 0.  1.
         21   -1    0    0  501  502 -0.00000000000E+00 -0.00000000000E+00 -0.23431064512E+02  0.23431064512E+02  0.00000000000E+00 0.  1.
         21    1    1    2  503  504  0.25004324892E+02 -0.17817294462E+02  0.56089563002E+03  0.56173532916E+03  0.00000000000E+00 0.  1.
         21    1    1    2  504  502 -0.25004324892E+02  0.17817294462E+02 -0.12769771288E+02  0.33252658600E+02  0.00000000000E+00 0.  1.
</event>
<event>
 4    1  0.2825993E+006  0.2010393E+02  0.7546771E-02  0.1532453E+00
         21   -1    0    0  503  501  0.00000000000E+00  0.00000000000E+00  0.12008421814E+03  0.12008421814E+03  0.00000000000E+00 0. -1.
         21   -1    0    0  504  502 -0.00000000000E+00 -0.00000000000E+00 -0.75585720326E+01  0.75585720326E+01  0.00000000000E+00 0. -1.
         21    1    1    2  503  502 -0.10559540077E+02 -0.17107429551E+02  0.10379656118E+03  0.10572556051E+03  0.00000000000E+00 0. -1.
         21    1    1    2  504  501  0.10559540077E+02  0.17107429551E+02  0.87290849307E+01  0.21917229665E+02  0.00000000000E+00 0. -1.
</event>
<event>
 4    1  0.2825993E+006  0.2034673E+02  0.7546771E-02  0.1528800E+00
         21   -1    0    0  503  501  0.00000000000E+00  0.00000000000E+00  0.22455864171E+03  0.22455864171E+03  0.00000000000E+00 0.  1.
         21   -1    0    0  504  502 -0.00000000000E+00 -0.00000000000E+00 -0.35418589552E+01  0.35418589552E+01  0.00000000000E+00 0.  1.
         21    1    1    2  503  502 -0.20220010531E+02 -0.22672881231E+01  0.18948281986E+03  0.19057210825E+03  0.00000000000E+00 0.  1.
         21    1    1    2  504  501  0.20220010531E+02  0.22672881231E+01  0.31533962896E+02  0.37528392415E+02  0.00000000000E+00 0.  1.
</event>
<event>
 4    1  0.2825993E+006  0.2569037E+02  0.7546771E-02  0.1461226E+00
         21   -1    0    0  504  501  0.00000000000E+00  0.00000000000E+00  0.15920284045E+02  0.15920284045E+02  0.00000000000E+00 0.  1.
         21   -1    0    0  503  502 -0.00000000000E+00 -0.00000000000E+00 -0.11701876072E+03  0.11701876072E+03  0.00000000000E+00 0.  1.
         21    1    1    2  503  501  0.16344512542E+00  0.25689848984E+02 -0.10396236985E+03  0.10708953918E+03  0.00000000000E+00 0.  1.
         21    1    1    2  504  502 -0.16344512542E+00 -0.25689848984E+02  0.28638931781E+01  0.25849505590E+02  0.00000000000E+00 0.  1.
</event>
<event>
 4    1  0.2825993E+006  0.2152042E+02  0.7546771E-02  0.1511963E+00
         21   -1    0    0  504  501  0.00000000000E+00  0.00000000000E+00  0.78374411069E+01  0.78374411069E+01  0.00000000000E+00 0.  1.
         21   -1    0    0  503  502 -0.00000000000E+00 -0.00000000000E+00 -0.20246299386E+03  0.20246299386E+03  0.00000000000E+00 0.  1.
         21    1    1    2  503  501 -0.14789908607E+02  0.15632890667E+02 -0.88280592231E+01  0.23260767331E+02  0.00000000000E+00 0.  1.
         21    1    1    2  504  502  0.14789908607E+02 -0.15632890667E+02 -0.18579749353E+03  0.18703966763E+03  0.00000000000E+00 0.  1.
</event>
<event>
 4    1  0.2825993E+006  0.3865700E+02  0.7546771E-02  0.1356541E+00
         21   -1    0    0  503  501  0.00000000000E+00  0.00000000000E+00  0.16586162661E+04  0.16586162661E+04  0.00000000000E+00 0.  1.
         21   -1    0    0  501  502 -0.00000000000E+00 -0.00000000000E+00 -0.50512090340E+02  0.50512090340E+02  0.00000000000E+00 0.  1.
         21    1    1    2  503  504  0.37549986248E+02  0.91848748007E+01  0.16509606644E+04  0.16514131763E+04  0.00000000000E+00 0.  1.
         21    1    1    2  504  502 -0.37549986248E+02 -0.91848748007E+01 -0.42856488690E+02  0.57715180110E+02  0.00000000000E+00 0.  1.
</event>
<event>
 4    1  0.2825993E+006  0.2994844E+02  0.7546771E-02  0.1420045E+00
         21   -1    0    0  504  501  0.00000000000E+00  0.00000000000E+00  0.64011375003E+02  0.64011375003E+02  0.00000000000E+00 0. -1.
         21   -1    0    0  503  502 -0.00000000000E+00 -0.00000000000E+00 -0.27051366856E+02  0.27051366856E+02  0.00000000000E+00 0. -1.
         21    1    1    2  503  501  0.26182059419E+02  0.14539895052E+02 -0.13131794911E+02  0.32700960554E+02  0.00000000000E+00 0. -1.
         21    1    1    2  504  502 -0.26182059419E+02 -0.14539895052E+02  0.50091803059E+02  0.58361781306E+02  0.00000000000E+00 0. -1.
</event>
<event>
 4    1  0.2825993E+006  0.2007503E+02  0.7546771E-02  0.1532892E+00
         21   -1    0    0  502  501  0.00000000000E+00  0.00000000000E+00  0.12952225463E+02  0.12952225463E+02  0.00000000000E+00 0.  1.
         21   -1    0    0  503  502 -0.00000000000E+00 -0.00000000000E+00 -0.17478431374E+03  0.17478431374E+03  0.00000000000E+00 0. -1.
         21    1    1    2  503  504  0.13397349109E+02  0.14950516392E+02 -0.16602000624E+03  0.16722933168E+03  0.00000000000E+00 0. -1.
         21    1    1    2  504  501 -0.13397349109E+02 -0.14950516392E+02  0.41879179592E+01  0.20507207523E+02  0.00000000000E+00 0.  1.
</event>
<event>
 4    1  0.2825993E+006  0.2999179E+02  0.7546771E-02  0.1419668E+00
         21   -1    0    0  504  501  0.00000000000E+00  0.00000000000E+00  0.65754555227E+02  0.65754555227E+02  0.00000000000E+00 0.  1.
         21   -1    0    0  501  502 -0.00000000000E+00 -0.00000000000E+00 -0.38128673444E+02  0.38128673444E+02  0.00000000000E+00 0. -1.
         21    1    1    2  503  502  0.23011157524E+02  0.19235228481E+02 -0.27779964862E+02  0.40880726914E+02  0.00000000000E+00 0. -1.
         21    1    1    2  504  503 -0.23011157524E+02 -0.19235228481E+02  0.55405846644E+02  0.63002501757E+02  0.00000000000E+00 0.  1.
</event>
<event>
 4    1  0.2825993E+006  0.2646714E+02  0.7546771E-02  0.1453035E+00
         21   -1    0    0  503  501  0.00000000000E+00  0.00000000000E+00  0.40553430228E+03  0.40553430228E+03  0.00000000000E+00 0. -1.
         21   -1    0    0  504  502 -0.00000000000E+00 -0.00000000000E+00 -0.18161597187E+01  0.18161597187E+01  0.00000000000E+00 0. -1.
         21    1    1    2  503  502  0.25528251165E+02 -0.69869865937E+01  0.15682598896E+03  0.15904370595E+03  0.00000000000E+00 0. -1.
         21    1    1    2  504  501 -0.25528251165E+02  0.69869865937E+01  0.24689215360E+03  0.24830675605E+03  0.00000000000E+00 0. -1.
</event>
<event>
 4    1  0.2825993E+006  0.2054240E+02  0.7546771E-02  0.1525900E+00
         21   -1    0    0  504  501  0.00000000000E+00  0.00000000000E+00  0.40328154118E+02  0.40328154118E+02  0.00000000000E+00 0. -1.
         21   -1    0    0  503  502 -0.00000000000E+00 -0.00000000000E+00 -0.10463935167E+02  0.10463935167E+02  0.00000000000E+00 0. -1.
         21    1    1    2  503  501  0.20204314530E+02 -0.37115774517E+01  0.14972308088E+02  0.25419680216E+02  0.00000000000E+00 0. -1.
         21    1    1    2  504  502 -0.20204314530E+02  0.37115774517E+01  0.14891910863E+02  0.25372409069E+02  0.00000000000E+00 0. -1.
</event>
<event>
 4    1  0.2825993E+006  0.2437467E+02  0.7546771E-02  0.1475922E+00
         21   -1    0    0  502  501  0.00000000000E+00  0.00000000000E+00  0.63634662075E+01  0.63634662075E+01  0.00000000000E+00 0.  1.
         21   -1    0    0  504  502 -0.00000000000E+00 -0.00000000000E+00 -0.25848089791E+03  0.25848089791E+03  0.00000000000E+00 0.  1.
         21    1    1    2  503  501 -0.16934090118E+02  0.17531719633E+02 -0.20220856972E+02  0.31670296148E+02  0.00000000000E+00 0.  1.
         21    1    1    2  504  503  0.16934090118E+02 -0.17531719633E+02 -0.23189657473E+03  0.23317406797E+03  0.00000000000E+00 0.  1.
</event>
<event>
 4    1  0.2825993E+006  0.2473074E+02  0.7546771E-02  0.1471838E+00
         21   -1    0    0  502  501  0.00000000000E+00  0.00000000000E+00  0.50131658093E+02  0.50131658093E+02  0.00000000000E+00 0. -1.
         21   -1    0    0  503  502 -0.00000000000E+00 -0.00000000000E+00 -0.17471326566E+02  0.17471326566E+02  0.00000000000E+00 0. -1.
         21    1    1    2  503  504 -0.19531041464E+02  0.15170628665E+02 -0.22363393712E+01  0.24831648527E+02  0.00000000000E+00 0. -1.
         21    1    1    2  504  501  0.19531041464E+02 -0.15170628665E+02  0.34896670898E+02  0.42771336133E+02  0.00000000000E+00 0. -1.
</event>
<event>
 4    1  0.2825993E+006  0.2278214E+02  0.7546771E-02  0.1495252E+00
         21   -1    0    0  503  501  0.00000000000E+00  0.00000000000E+00  0.81128727290E+02  0.81128727290E+02  0.00000000000E+00 0. -1.
         21   -1    0    0  504  502 -0.00000000000E+00 -0.00000000000E+00 -0.66863869279E+01  0.66863869279E+01  0.00000000000E+00 0.  1.
         21    1    1    2  503  502 -0.80922179347E+01 -0.21296524237E+02  0.28095557385E+02  0.36171622585E+02  0.00000000000E+00 0.  1.
         21    1    1    2  504  501  0.80922179347E+01  0.21296524237E+02  0.46346782978E+02  0.51643491633E+02  0.00000000000E+00 0. -1.
</event>
<event>
 4    1  0.2825993E+006  0.2543829E+02  0.7546771E-02  0.1463960E+00
         21   -1    0    0  504  501  0.00000000000E+00  0.00000000000E+00  0.93762371403E+02  0.93762371403E+02  0.00000000000E+00 0.  1.
         21   -1    0    0  503  502 -0.00000000000E+00 -0.00000000000E+00 -0.70726109577E+01  0.70726109577E+01  0.00000000000E+00 0.  1.
         21    1    1    2  503  501  0.12219112312E+02 -0.22311425527E+02  0.51185620038E+02  0.57158324970E+02  0.00000000000E+00 0.  1.
         21    1    1    2  504  502 -0.12219112312E+02  0.22311425527E+02  0.35504140408E+02  0.43676657391E+02  0.00000000000E+00 0.  1.
</event>
<event>
 4    1  0.2825993E+006  0.2104033E+02  0.7546771E-02  0.1518690E+00
         21   -1    0    0  504  501  0.00000000000E+00  0.00000000000E+00  0.12066895128E+03  0.12066895128E+03  0.00000000000E+00 0. -1.
         21   -1    0    0  503  502 -0.00000000000E+00 -0.00000000000E+00 -0.39694100500E+01  0.39694100500E+01  0.00000000000E+00 0. -1.
         21    1    1    2  503  501  0.12442245572E+02  0.16967206851E+02  0.41196447336E+02  0.46258435515E+02  0.00000000000E+00 0. -1.
         21    1    1    2  504  502 -0.12442245572E+02 -0.16967206851E+02  0.75503093895E+02  0.78379925816E+02  0.00000000000E+00 0. -1.
</event>
<event>
 4    1  0.2825993E+006  0.2173574E+02  0.7546771E-02  0.1509014E+00
         21   -1    0    0  504  501  0.00000000000E+00  0.00000000000E+00  0.42841975356E+03  0.42841975356E+03  0.00000000000E+00 0. -1.
         21   -1    0    0  503  502 -0.00000000000E+00 -0.00000000000E+00 -0.12528044571E+03  0.12528044571E+03  0.00000000000E+00 0. -1.
         21    1    1    2  503  501  0.12847585737E+02 -0.17532310840E+02  0.42719860183E+03  0.42775119846E+03  0.00000000000E+00 0. -1.
         21    1    1    2  504  502 -0.12847585737E+02  0.17532310840E+02 -0.12405929398E+03  0.12594900081E+03  0.00000000000E+00 0. -1.
</event>
<event>
 4    1  0.2825993E+006  0.2011560E+02  0.7546771E-02  0.1532276E+00
         21   -1    0    0  502  501  0.00000000000E+00  0.00000000000E+00  0.45278492707E+01  0.45278492707E+01  0.00000000000E+00 0.  1.
         21   -1    0    0  503  502 -0.00000000000E+00 -0.00000000000E+00 -0.89373642956E+02  0.89373642956E+02  0.00000000000E+00 0.  1.
         21    1    1    2  503  504  0.10087878628E+02 -0.17403216060E+02 -0.42847904338E+02  0.47334766616E+02  0.00000000000E+00 0.  1.
         21    1    1    2  504  501 -0.10087878628E+02  0.17403216060E+02 -0.41997889347E+02  0.46566725610E+02  0.00000000000E+00 0.  1.
</event>
<event>
 4    1  0.2825993E+006  0.3805747E+02  0.7546771E-02  0.1360261E+00
         21   -1    0    0  503  501  0.00000000000E+00  0.00000000000E+00  0.45438599856E+03  0.45438599856E+03  0.00000000000E+00 0. -1.
         21   -1    0    0  504  502 -0.00000000000E+00 -0.00000000000E+00 -0.38359414868E+01  0.38359414868E+01  0.00000000000E+00 0. -1.
         21    1    1    2  503  502 -0.37399163194E+02 -0.70479622921E+01  0.13107877244E+03  0.13649181574E+03  0.00000000000E+00 0. -1.
         21    1    1    2  504  501  0.37399163194E+02  0.70479622921E+01  0.31947128464E+03  0.32173012431E+03  0.00000000000E+00 0. -1.
</event>
<event>
 4    1  0.2825993E+006  0.2063942E+02  0.7546771E-02  0.1524476E+00
         21   -1    0    0  504  501  0.00000000000E+00  0.00000000000E+00  0.64013394558E+01  0.64013394558E+01  0.00000000000E+00 0.  1.
         21   -1    0    0  503  502 -0.00000000000E+00 -0.00000000000E+00 -0.67402592681E+02  0.67402592681E+02  0.00000000000E+00 0.  1.
         21    1    1    2  503  501  0.91316302476E+01  0.18509433978E+02 -0.26341443838E+02  0.33464271703E+02  0.00000000000E+00 0.  1.
         21    1    1    2  504  502 -0.91316302476E+01 -0.18509433978E+02 -0.34659809388E+02  0.40339660434E+02  0.00000000000E+00 0.  1.
</event>
<event>
 4    1  0.2825993E+006  0.2509683E+02  0.7546771E-02  0.1467723E+00
         21   -1    0    0  504  501  0.00000000000E+00  0.00000000000E+00  0.12102677272E+03  0.12102677272E+03  0.00000000000E+00 0. -1.
         21   -1    0    0  503  502 -0.00000000000E+00 -0.00000000000E+00 -0.12678885563E+02  0.12678885563E+02  0.00000000000E+00 0. -1.
         21    1    1    2  503  501 -0.22114793084E+02  0.11865362439E+02  0.28435132348E+01  0.25257404191E+02  0.00000000000E+00 0. -1.
         21    1    1    2  504  502  0.22114793084E+02 -0.11865362439E+02  0.10550437393E+03  0.10844825410E+03  0.00000000000E+00 0. -1.
</event>
<event>
 4    1  0.2825993E+006  0.4078192E+02  0.7546771E-02  0.1343964E+00
         21   -1    0    0  503  501  0.00000000000E+00  0.00000000000E+00  0.17698168125E+03  0.17698168125E+03  0.00000000000E+00 0. -1.
         21   -1    0    0  504  502 -0.00000000000E+00 -0.00000000000E+00 -0.21778600117E+02  0.21778600117E+02  0.00000000000E+00 0.  1.
         21    1    1    2  503  502  0.37076931379E+02  0.16984280776E+02  0.15253336336E+03  0.15789107503E+03  0.00000000000E+00 0. -1.
         21    1    1    2  504  501 -0.37076931379E+02 -0.16984280776E+02  0.26697177705E+01  0.40869206341E+02  0.00000000000E+00 0.  1.
</event>
<event>
 4    1  0.2825993E+006  0.2450404E+02  0.7546771E-02  0.1474429E+00
         21   -1    0    0  502  501  0.00000000000E+00  0.00000000000E+00  0.19659240774E+02  0.19659240774E+02  0.00000000000E+00 0.  1.
         21   -1    0    0  503  502 -0.00000000000E+00 -0.00000000000E+00 -0.10426606253E+03  0.10426606253E+03  0.00000000000E+00 0.  1.
         21    1    1    2  503  504  0.70446120819E+01 -0.23469585349E+02 -0.94406181826E+02  0.97534481916E+02  0.00000000000E+00 0.  1.
         21    1    1    2  504  501 -0.70446120819E+01  0.23469585349E+02  0.97993600688E+01  0.26390821389E+02  0.00000000000E+00 0.  1.
</event>
<event>
 4    1  0.2825993E+006  0.2271162E+02  0.7546771E-02  0.1496151E+00
         21   -1    0    0  503  501  0.00000000000E+00  0.00000000000E+00  0.13134312295E+03  0.13134312295E+03  0.00000000000E+00 0.  1.
         21   -1    0    0  504  502 -0.00000000000E+00 -0.00000000000E+00 -0.53268797962E+01  0.53268797962E+01  0.00000000000E+00 0.  1.
         21    1    1    2  503  502 -0.13610619141E+02 -0.18181554596E+02  0.98035903598E+02  0.10063228247E+03  0.00000000000E+00 0.  1.
         21    1    1    2  504  501  0.13610619141E+02  0.18181554596E+02  0.27980339552E+02  0.36037720272E+02  0.00000000000E+00 0.  1.
</event>
<event>
 4    1  0.2825993E+006  0.3054077E+02  0.7546771E-02  0.1414954E+00
         21   -1    0    0  504  501  0.00000000000E+00  0.00000000000E+00  0.12043743265E+03  0.12043743265E+03  0.00000000000E+00 0.  1.
         21   -1    0    0  503  502 -0.00000000000E+00 -0.00000000000E+00 -0.14744738439E+02  0.14744738439E+02  0.00000000000E+00 0.  1.
         21    1    1    2  503  501  0.11313800388E+02 -0.28367881056E+02  0.99418300429E+02  0.10400354424E+03  0.00000000000E+00 0.  1.
         21    1    1    2  504  502 -0.11313800388E+02  0.28367881056E+02  0.62743937858E+01  0.31178626849E+02  0.00000000000E+00 0.  1.
</event>
<event>
 4    1  0.2825993E+006  0.2012702E+02  0.7546771E-02  0.1532103E+00
         21   -1    0    0  504  501  0.00000000000E+00  0.00000000000E+00  0.59701232160E+01  0.59701232160E+01  0.00000000000E+00 0. -1.
         21   -1    0    0  501  502 -0.00000000000E+00 -0.00000000000E+00 -0.78908259907E+02  0.78908259907E+02  0.00000000000E+00 0. -1.
         21    1    1    2  503  502  0.19170050338E+02  0.61323814442E+01 -0.52353441281E+02  0.56089034098E+02  0.00000000000E+00 0. -1.
         21    1    1    2  504  503 -0.19170050338E+02 -0.61323814442E+01 -0.20584695410E+02  0.28789349025E+02  0.00000000000E+00 0. -1.
</event>
<event>
 4    1  0.2825993E+006  0.2667467E+02  0.7546771E-02  0.1450904E+00
         21   -1    0    0  504  501  0.00000000000E+00  0.00000000000E+00  0.42127449219E+02  0.42127449219E+02  0.00000000000E+00 0. -1.
         21   -1    0    0  503  502 -0.00000000000E+00 -0.00000000000E+00 -0.14549162963E+03  0.14549162963E+03  0.00000000000E+00 0.  1.
         21    1    1    2  503  501 -0.19755781128E+02 -0.17923366099E+02 -0.13987852345E+03  0.14239922493E+03  0.00000000000E+00 0.  1.
         21    1    1    2  504  502  0.19755781128E+02  0.17923366099E+02  0.36514343039E+02  0.45219853912E+02  0.00000000000E+00 0. -1.
</event>
<event>
 4    1  0.2825993E+006  0.2251288E+02  0.7546771E-02  0.1498707E+00
         21   -1    0    0  504  501  0.00000000000E+00  0.00000000000E+00  0.77714845914E+01  0.77714845914E+01  0.00000000000E+00 0.  1.
         21   -1    0    0  501  502 -0.00000000000E+00 -0.00000000000E+00 -0.72986552539E+02  0.72986552539E+02  0.00000000000E+00 0.  1.
         21    1    1    2  503  502 -0.21894884042E+02 -0.52386812442E+01 -0.45782326396E+02  0.51018145190E+02  0.00000000000E+00 0.  1.
         21    1    1    2  504  503  0.21894884042E+02  0.52386812442E+01 -0.19432741551E+02  0.29739891940E+02  0.00000000000E+00 0.  1.
</event>
<event>
 4    1  0.2825993E+006  0.2497660E+02  0.7546771E-02  0.1469065E+00
         21   -1    0    0  502  501  0.00000000000E+00  0.00000000000E+00  0.36964034874E+02  0.36964034874E+02  0.00000000000E+00 0. -1.
         21   -1    0    0  504  502 -0.00000000000E+00 -0.00000000000E+00 -0.41924153258E+02  0.41924153258E+02  0.00000000000E+00 0. -1.
         21    1    1    2  503  501  0.17823416672E+02 -0.17497318984E+02  0.28008138924E+02  0.37527139506E+02  0.00000000000E+00 0. -1.
         21    1    1    2  504  503 -0.17823416672E+02  0.17497318984E+02 -0.32968257308E+02  0.41361048626E+02  0.00000000000E+00 0. -1.
</event>
<event>
 4    1  0.2825993E+006  0.2661371E+02  0.7546771E-02  0.1451527E+00
         21   -1    0    0  502  501  0.00000000000E+00  0.00000000000E+00  0.40518430582E+02  0.40518430582E+02  0.00000000000E+00 0. -1.
         21   -1    0    0  503  502 -0.00000000000E+00 -0.00000000000E+00 -0.30702810778E+03  0.30702810778E+03  0.00000000000E+00 0.  1.
         21    1    1    2  503  504  0.24137146231E+02  0.11211063601E+02 -0.30200871515E+03  0.30317907876E+03  0.00000000000E+00 0.  1.
         21    1    1    2  504  501 -0.24137146231E+02 -0.11211063601E+02  0.35499037954E+02  0.44367459594E+02  0.00000000000E+00 0. -1.
</event>
<event>
 4    1  0.2825993E+006  0.2109196E+02  0.7546771E-02  0.1517956E+00
         21   -1    0    0  503  501  0.00000000000E+00  0.00000000000E+00  0.55779206234E+02  0.55779206234E+02  0.00000000000E+00 0. -1.
         21   -1    0    0  504  502 -0.00000000000E+00 -0.00000000000E+00 -0.79774915438E+01  0.79774915438E+01  0.00000000000E+00 0. -1.
         21    1    1    2  503  502  0.33512897776E+01 -0.20824015073E+02  0.24396110017E+02  0.32249665594E+02  0.00000000000E+00 0. -1.
         21    1    1    2  504  501 -0.33512897776E+01  0.20824015073E+02  0.23405604673E+02  0.31507032184E+02  0.00000000000E+00 0. -1.
</event>
<event>
 4    1  0.2825993E+006  0.2334743E+02  0.7546771E-02  0.1488181E+00
         21   -1    0    0  503  501  0.00000000000E+00  0.00000000000E+00  0.60586392389E+02  0.60586392389E+02  0.00000000000E+00 0.  1.
         21   -1    0    0  501  502 -0.00000000000E+00 -0.00000000000E+00 -0.70638085672E+02  0.70638085672E+02  0.00000000000E+00 0. -1.
         21    1    1    2  503  504 -0.60963553113E+01 -0.22537454470E+02  0.56265639515E+02  0.60917358710E+02  0.00000000000E+00 0.  1.
         21    1    1    2  504  502  0.60963553113E+01  0.22537454470E+02 -0.66317332798E+02  0.70307119352E+02  0.00000000000E+00 0. -1.
</event>
<event>
 4    1  0.2825993E+006  0.2649270E+02  0.7546771E-02  0.1452772E+00
         21   -1    0    0  504  501  0.00000000000E+00  0.00000000000E+00  0.99437238867E+02  0.99437238867E+02  0.00000000000E+00 0.  1.
         21   -1    0    0  501  502 -0.00000000000E+00 -0.00000000000E+00 -0.11634510316E+02  0.11634510316E+02  0.00000000000E+00 0. -1.
         21    1    1    2  503  502  0.11057503518E+02 -0.24074769175E+02  0.90716310652E+01  0.28002810307E+02  0.00000000000E+00 0. -1.
         21    1    1    2  504  503 -0.11057503518E+02  0.24074769175E+02  0.78731097486E+02  0.83068938877E+02  0.00000000000E+00 0.  1.
</event>
<event>
 4    1  0.2825993E+006  0.2298349E+02  0.7546771E-02  0.1492706E+00
         21   -1    0    0  503  501  0.00000000000E+00  0.00000000000E+00  0.64121064271E+02  0.64121064271E+02  0.00000000000E+00 0.  1.
         21   -1    0    0  501  502 -0.00000000000E+00 -0.00000000000E+00 -0.82914628466E+01  0.82914628466E+01  0.00000000000E+00 0.  1.
         21    1    1    2  503  504 -0.22668731481E+02  0.37907137166E+01  0.25012382123E+02  0.33968517143E+02  0.00000000000E+00 0.  1.
         21    1    1    2  504  502  0.22668731481E+02 -0.37907137166E+01  0.30817219301E+02  0.38444009974E+02  0.00000000000E+00 0.  1.
</event>
<event>
 4    1  0.2825993E+006  0.2786944E+02  0.7546771E-02  0.1439065E+00
         21   -1    0    0  503  501  0.00000000000E+00  0.00000000000E+00  0.37628114960E+02  0.37628114960E+02  0.00000000000E+00 0. -1.
         21   -1    0    0  504  502 -0.00000000000E+00 -0.00000000000E+00 -0.28437004622E+02  0.28437004622E+02  0.00000000000E+00 0. -1.
         21    1    1    2  503  502  0.34819712943E+00  0.27867269503E+02  0.21890475306E+02  0.35438663349E+02  0.00000000000E+00 0. -1.
         21    1    1    2  504  501 -0.34819712943E+00 -0.27867269503E+02 -0.12699364969E+02  0.30626456233E+02  0.00000000000E+00 0. -1.
</event>
<event>
 4    1  0.2825993E+006  0.2740216E+02  0.7546771E-02  0.1443610E+00
         21   -1    0    0  504  501  0.00000000000E+00  0.00000000000E+00  0.19559807699E+02  0.19559807699E+02  0.00000000000E+00 0. -1.
         21   -1    0    0  503  502 -0.00000000000E+00 -0.00000000000E+00 -0.57990522442E+02  0.57990522442E+02  0.00000000000E+00 0. -1.
         21    1    1    2  503  501  0.12340849316E+02 -0.24465933328E+02 -0.41758878323E+02  0.49946795435E+02  0.00000000000E+00 0. -1.
         21    1    1    2  504  502 -0.12340849316E+02  0.24465933328E+02  0.33281635791E+01  0.27603534706E+02  0.00000000000E+00 0. -1.
</event>
<event>
 4    1  0.2825993E+006  0.2355545E+02  0.7546771E-02  0.1485639E+00
         21   -1    0    0  504  501  0.00000000000E+00  0.00000000000E+00  0.37611074835E+03  0.37611074835E+03  0.00000000000E+00 0. -1.
         21   -1    0    0  501  502 -0.00000000000E+00 -0.00000000000E+00 -0.26815310400E+01  0.26815310400E+01  0.00000000000E+00 0. -1.
         21    1    1    2  503  502 -0.22802620607E+02 -0.59075918003E+01  0.59685539895E+02  0.64165589065E+02  0.00000000000E+00 0. -1.
         21    1    1    2  504  503  0.22802620607E+02  0.59075918003E+01  0.31374367741E+03  0.31462669032E+03  0.00000000000E+00 0. -1.
</event>
<event>
 4    1  0.2825993E+006  0.2369799E+02  0.7546771E-02  0.1483915E+00
         21   -1    0    0  504  501  0.00000000000E+00  0.00000000000E+00  0.75596654947E+03  0.75596654947E+03  0.00000000000E+00 0.  1.
         21   -1    0    0  503  502 -0.00000000000E+00 -0.00000000000E+00 -0.80036457735E+01  0.80036457735E+01  0.00000000000E+00 0.  1.
         21    1    1    2  503  501  0.23484648429E+02 -0.31726947781E+01  0.73780735324E+03  0.73818783869E+03  0.00000000000E+00 0.  1.
         21    1    1    2  504  502 -0.23484648429E+02  0.31726947781E+01  0.10155550454E+02  0.25782356545E+02  0.00000000000E+00 0.  1.
</event>
<event>
 4    1  0.2825993E+006  0.4988641E+02  0.7546771E-02  0.1298666E+00
         21   -1    0    0  504  501  0.00000000000E+00  0.00000000000E+00  0.27759816111E+02  0.27759816111E+02  0.00000000000E+00 0.  1.
         21   -1    0    0  503  502 -0.00000000000E+00 -0.00000000000E+00 -0.12319753740E+03  0.12319753740E+03  0.00000000000E+00 0.  1.
         21    1    1    2  503  501 -0.17550594475E+02  0.46697220603E+02 -0.87106213170E+02  0.10038000872E+03  0.00000000000E+00 0.  1.
         21    1    1    2  504  502  0.17550594475E+02 -0.46697220603E+02 -0.83315081222E+01  0.50577344791E+02  0.00000000000E+00 0.  1.
</event>
<event>
 4    1  0.2825993E+006  0.4008693E+02  0.7546771E-02  0.1347977E+00
         21   -1    0    0  504  501  0.00000000000E+00  0.00000000000E+00  0.18137420619E+03  0.18137420619E+03  0.00000000000E+00 0. -1.
         21   -1    0    0  503  502 -0.00000000000E+00 -0.00000000000E+00 -0.99353740594E+01  0.99353740594E+01  0.00000000000E+00 0.  1.
         21    1    1    2  503  501 -0.35574299318E+02  0.18477849300E+02  0.54248474907E+02  0.67452640545E+02  0.00000000000E+00 0.  1.
         21    1    1    2  504  502  0.35574299318E+02 -0.18477849300E+02  0.11719035722E+03  0.12385693970E+03  0.00000000000E+00 0. -1.
</event>
<event>
 4    1  0.2825993E+006  0.2515570E+02  0.7546771E-02  0.1467069E+00
         21   -1    0    0  504  501  0.00000000000E+00  0.00000000000E+00  0.13021122868E+02  0.13021122868E+02  0.00000000000E+00 0. -1.
         21   -1    0    0  503  502 -0.00000000000E+00 -0.00000000000E+00 -0.98687313411E+03  0.98687313411E+03  0.00000000000E+00 0. -1.
         21    1    1    2  503  501 -0.11651697219E+02 -0.22294556342E+02  0.55574595114E+00  0.25161839045E+02  0.00000000000E+00 0. -1.
         21    1    1    2  504  502  0.11651697219E+02  0.22294556342E+02 -0.97440775719E+03  0.97473241793E+03  0.00000000000E+00 0. -1.
</event>
<event>
 4    1  0.2825993E+006  0.2294617E+02  0.7546771E-02  0.1493175E+00
         21   -1    0    0  502  501  0.00000000000E+00  0.00000000000E+00  0.47796563295E+01  0.47796563295E+01  0.00000000000E+00 0.  1.
         21   -1    0    0  503  502 -0.00000000000E+00 -0.00000000000E+00 -0.17106158262E+03  0.17106158262E+03  0.00000000000E+00 0.  1.
         21    1    1    2  503  504  0.21433813247E+02 -0.81925859782E+01 -0.13560103483E+03  0.13752878776E+03  0.00000000000E+00 0.  1.
         21    1    1    2  504  501 -0.21433813247E+02  0.81925859782E+01 -0.30680891453E+02  0.38312451183E+02  0.00000000000E+00 0.  1.
</event>
<event>
 4    1  0.2825993E+006  0.2977694E+02  0.7546771E-02  0.1421545E+00
         21   -1    0    0  503  501  0.00000000000E+00  0.00000000000E+00  0.15143953679E+03  0.15143953679E+03  0.00000000000E+00 0. -1.
         21   -1    0    0  504  502 -0.00000000000E+00 -0.00000000000E+00 -0.64739254061E+03  0.64739254061E+03  0.00000000000E+00 0. -1.
         21    1    1    2  503  502  0.24087327693E+02 -0.17506192525E+02 -0.64558230989E+03  0.64626866316E+03  0.00000000000E+00 0. -1.
         21    1    1    2  504  501 -0.24087327693E+02  0.17506192525E+02  0.14962930607E+03  0.15256341425E+03  0.00000000000E+00 0. -1.
</event>
<event>
 4    1  0.2825993E+006  0.2092295E+02  0.7546771E-02  0.1520368E+00
         21   -1    0    0  504  501  0.00000000000E+00  0.00000000000E+00  0.12073637813E+04  0.12073637813E+04  0.00000000000E+00 0.  1.
         21   -1    0    0  501  502 -0.00000000000E+00 -0.00000000000E+00 -0.15713206164E+01  0.15713206164E+01  0.00000000000E+00 0.  1.
         21    1    1    2  503  502  0.19637577949E+02 -0.72204682396E+01  0.72736667475E+02  0.75686144205E+02  0.00000000000E+00 0.  1.
         21    1    1    2  504  503 -0.19637577949E+02  0.72204682396E+01  0.11330557932E+04  0.11332489577E+04  0.00000000000E+00 0.  1.
</event>
<event>
 4    1  0.2825993E+006  0.2801070E+02  0.7546771E-02  0.1437711E+00
         21   -1    0    0  503  501  0.00000000000E+00  0.00000000000E+00  0.28997741984E+02  0.28997741984E+02  0.00000000000E+00 0. -1.
         21   -1    0    0  501  502 -0.00000000000E+00 -0.00000000000E+00 -0.10493978796E+03  0.10493978796E+03  0.00000000000E+00 0. -1.
         21    1    1    2  503  504 -0.15697972807E+02 -0.23198560671E+02  0.19721855336E+02  0.34257132766E+02  0.00000000000E+00 0. -1.
         21    1    1    2  504  502  0.15697972807E+02  0.23198560671E+02 -0.95663901307E+02  0.99680397174E+02  0.00000000000E+00 0. -1.
</event>
<event>
 4    1  0.2825993E+006  0.2104306E+02  0.7546771E-02  0.1518651E+00
         21   -1    0    0  504  501  0.00000000000E+00  0.00000000000E+00  0.68597446922E+03  0.68597446922E+03  0.00000000000E+00 0. -1.
         21   -1    0    0  503  502 -0.00000000000E+00 -0.00000000000E+00 -0.13277385356E+01  0.13277385356E+01  0.00000000000E+00 0. -1.
         21    1    1    2  503  501  0.20324127315E+01 -0.20944683544E+02  0.58865665886E+03  0.58903265825E+03  0.00000000000E+00 0. -1.
         21    1    1    2  504  502 -0.20324127315E+01  0.20944683544E+02  0.95990071826E+02  0.98269549502E+02  0.00000000000E+00 0. -1.
</event>
<event>
 4    1  0.2825993E+006  0.2086451E+02  0.7546771E-02  0.1521208E+00
         21   -1    0    0  502  501  0.00000000000E+00  0.00000000000E+00  0.20627601171E+03  0.20627601171E+03  0.00000000000E+00 0.  1.
         21   -1    0    0  504  502 -0.00000000000E+00 -0.00000000000E+00 -0.32990456130E+01  0.32990456130E+01  0.00000000000E+00 0. -1.
         21    1    1    2  503  501 -0.20556662920E+02 -0.35709301543E+01  0.16438678827E+03  0.16570559463E+03  0.00000000000E+00 0.  1.
         21    1    1    2  504  503  0.20556662920E+02  0.35709301543E+01  0.38590177823E+02  0.43869462693E+02  0.00000000000E+00 0. -1.
</event>
<event>
 4    1  0.2825993E+006  0.3328378E+02  0.7546771E-02  0.1393047E+00
         21   -1    0    0  502  501  0.00000000000E+00  0.00000000000E+00  0.26083302085E+02  0.26083302085E+02  0.00000000000E+00 0. -1.
         21   -1    0    0  504  502 -0.00000000000E+00 -0.00000000000E+00 -0.60632765779E+02  0.60632765779E+02  0.00000000000E+00 0. -1.
         21    1    1    2  503  501  0.33032610070E+02 -0.40812648178E+01  0.64544601145E+01  0.33903836153E+02  0.00000000000E+00 0. -1.
         21    1    1    2  504  503 -0.33032610070E+02  0.40812648178E+01 -0.41003923808E+02  0.52812231710E+02  0.00000000000E+00 0. -1.
</event>
<event>
 4    1  0.2825993E+006  0.2011501E+02  0.7546771E-02  0.1532285E+00
         21   -1    0    0  504  501  0.00000000000E+00  0.00000000000E+00  0.36007349092E+02  0.36007349092E+02  0.00000000000E+00 0.  1.
         21   -1    0    0  503  502 -0.00000000000E+00 -0.00000000000E+00 -0.11296452960E+02  0.11296452960E+02  0.00000000000E+00 0.  1.
         21    1    1    2  503  501  0.16280102385E+02  0.11814052351E+02  0.14071714423E+02  0.24548456436E+02  0.00000000000E+00 0.  1.
         21    1    1    2  504  502 -0.16280102385E+02 -0.11814052351E+02  0.10639181710E+02  0.22755345615E+02  0.00000000000E+00 0.  1.
</event>
<event>
 4    1  0.2825993E+006  0.2194641E+02  0.7546771E-02  0.1506170E+00
         21   -1    0    0  503  501  0.00000000000E+00  0.00000000000E+00  0.39082975127E+01  0.39082975127E+01  0.00000000000E+00 0. -1.
         21   -1    0    0  504  502 -0.00000000000E+00 -0.00000000000E+00 -0.12324545128E+03  0.12324545128E+03  0.00000000000E+00 0.  1.
         21    1    1    2  503  502  0.14059643693E+02  0.16851447818E+02 -0.59126506910E+02  0.63068127399E+02  0.00000000000E+00 0. -1.
         21    1    1    2  504  501 -0.14059643693E+02 -0.16851447818E+02 -0.60210646857E+02  0.64085621392E+02  0.00000000000E+00 0.  1.
</event>
<event>
 4    1  0.2825993E+006  0.3681492E+02  0.7546771E-02  0.1368234E+00
         21   -1    0    0  502  501  0.00000000000E+00  0.00000000000E+00  0.17089293014E+03  0.17089293014E+03  0.00000000000E+00 0. -1.
         21   -1    0    0  503  502 -0.00000000000E+00 -0.00000000000E+00 -0.91525390650E+01  0.91525390650E+01  0.00000000000E+00 0. -1.
         21    1    1    2  503  504 -0.36773118706E+02  0.17538860765E+01  0.47981315890E+02  0.60477640912E+02  0.00000000000E+00 0. -1.
         21    1    1    2  504  501  0.36773118706E+02 -0.17538860765E+01  0.11375907518E+03  0.11956782829E+03  0.00000000000E+00 0. -1.
</event>
<event>
 4    1  0.2825993E+006  0.2686711E+02  0.7546771E-02  0.1448948E+00
         21   -1    0    0  504  501  0.00000000000E+00  0.00000000000E+00  0.25905341858E+03  0.25905341858E+03  0.00000000000E+00 0.  1.
         21   -1    0    0  503  502 -0.00000000000E+00 -0.00000000000E+00 -0.27518049687E+02  0.27518049687E+02  0.00000000000E+00 0. -1.
         21    1    1    2  503  501  0.67846769471E+01 -0.25996337658E+02  0.25160533573E+03  0.25303574132E+03  0.00000000000E+00 0.  1.
         21    1    1    2  504  502 -0.67846769471E+01  0.25996337658E+02 -0.20069966844E+02  0.33535726949E+02  0.00000000000E+00 0. -1.
</event>
<event>
 4    1  0.2825993E+006  0.2025529E+02  0.7546771E-02  0.1530168E+00
         21   -1    0    0  503  501  0.00000000000E+00  0.00000000000E+00  0.18071396993E+02  0.18071396993E+02  0.00000000000E+00 0.  1.
         21   -1    0    0  504  502 -0.00000000000E+00 -0.00000000000E+00 -0.22918126748E+02  0.22918126748E+02  0.00000000000E+00 0.  1.
         21    1    1    2  503  502  0.18980555043E+02  0.70721495143E+01 -0.43819543062E+00  0.20260029214E+02  0.00000000000E+00 0.  1.
         21    1    1    2  504  501 -0.18980555043E+02 -0.70721495143E+01 -0.44085343242E+01  0.20729494528E+02  0.00000000000E+00 0.  1.
</event>
<event>
 4    1  0.2825993E+006  0.2590025E+02  0.7546771E-02  0.1458979E+00
         21   -1    0    0  504  501  0.00000000000E+00  0.00000000000E+00  0.69136678274E+01  0.69136678274E+01  0.00000000000E+00 0.  1.
         21   -1    0    0  503  502 -0.00000000000E+00 -0.00000000000E+00 -0.15721916490E+03  0.15721916490E+03  0.00000000000E+00 0.  1.
         21    1    1    2  503  501  0.25510487750E+02 -0.44763929331E+01 -0.24374564956E+02  0.35566030081E+02  0.00000000000E+00 0.  1.
         21    1    1    2  504  502 -0.25510487750E+02  0.44763929331E+01 -0.12593093212E+03  0.12856680265E+03  0.00000000000E+00 0.  1.
</event>
<event>
 4    1  0.2825993E+006  0.2068342E+02  0.7546771E-02  0.1523833E+00
         21   -1    0    0  504  501  0.00000000000E+00  0.00000000000E+00  0.64769156045E+02  0.64769156045E+02  0.00000000000E+00 0. -1.
         21   -1    0    0  501  502 -0.00000000000E+00 -0.00000000000E+00 -0.70641674527E+01  0.70641674527E+01  0.00000000000E+00 0. -1.
         21    1    1    2  503  502  0.19753224096E+02 -0.61330185035E+01  0.19696079784E+02  0.28561150835E+02  0.00000000000E+00 0. -1.
         21    1    1    2  504  503 -0.19753224096E+02  0.61330185035E+01  0.38008908809E+02  0.43272172663E+02  0.00000000000E+00 0. -1.
</event>
<event>
 4    1  0.2825993E+006  0.2674938E+02  0.7546771E-02  0.1450142E+00
         21   -1    0    0  502  501  0.00000000000E+00  0.00000000000E+00  0.23614878633E+03  0.23614878633E+03  0.00000000000E+00 0.  1.
         21   -1    0    0  504  502 -0.00000000000E+00 -0.00000000000E+00 -0.61046687255E+02  0.61046687255E+02  0.00000000000E+00 0.  1.
         21    1    1    2  503  501  0.25331350743E+02  0.85937245852E+01  0.23241410120E+03  0.23394837864E+03  0.00000000000E+00 0.  1.
         21    1    1    2  504  503 -0.25331350743E+02 -0.85937245852E+01 -0.57312002118E+02  0.63247094949E+02  0.00000000000E+00 0.  1.
</event>
<event>
 4    1  0.2825993E+006  0.2011498E+02  0.7546771E-02  0.1532285E+00
         21   -1    0    0  502  501  0.00000000000E+00  0.00000000000E+00  0.29388930448E+03  0.29388930448E+03  0.00000000000E+00 0. -1.
         21   -1    0    0  503  502 -0.00000000000E+00 -0.00000000000E+00 -0.27170876577E+01  0.27170876577E+01  0.00000000000E+00 0.  1.
         21    1    1    2  503  504 -0.56158272050E+01 -0.19315143296E+02  0.41424974606E+02  0.46050415816E+02  0.00000000000E+00 0.  1.
         21    1    1    2  504  501  0.56158272050E+01  0.19315143296E+02  0.24974724222E+03  0.25055597632E+03  0.00000000000E+00 0. -1.
</event>
<event>
 4    1  0.2825993E+006  0.2476396E+02  0.7546771E-02  0.1471461E+00
         21   -1    0    0  502  501  0.00000000000E+00  0.00000000000E+00  0.14627305163E+02  0.14627305163E+02  0.00000000000E+00 0. -1.
         21   -1    0    0  504  502 -0.00000000000E+00 -0.00000000000E+00 -0.23611158742E+03  0.23611158742E+03  0.00000000000E+00 0. -1.
         21    1    1    2  503  501  0.63183839693E-01 -0.24763878604E+02  0.29531225949E+01  0.24939418774E+02  0.00000000000E+00 0. -1.
         21    1    1    2  504  503 -0.63183839693E-01  0.24763878604E+02 -0.22443740486E+03  0.22579947381E+03  0.00000000000E+00 0. -1.
</event>
<event>
 4    1  0.2825993E+006  0.3348043E+02  0.7546771E-02  0.1391573E+00
         21   -1    0    0  503  501  0.00000000000E+00  0.00000000000E+00  0.69001037820E+01  0.69001037820E+01  0.00000000000E+00 0. -1.
         21   -1    0    0  504  502 -0.00000000000E+00 -0.00000000000E+00 -0.43938282144E+03  0.43938282144E+03  0.00000000000E+00 0.  1.
         21    1    1    2  503  502  0.15187216509E+00 -0.33480088382E+02 -0.39090214298E+02  0.51468283797E+02  0.00000000000E+00 0. -1.
         21    1    1    2  504  501 -0.15187216509E+00  0.33480088382E+02 -0.39339250336E+03  0.39481464142E+03  0.00000000000E+00 0.  1.
</event>
<event>
 4    1  0.2825993E+006  0.2308819E+02  0.7546771E-02  0.1491394E+00
         21   -1    0    0  503  501  0.00000000000E+00  0.00000000000E+00  0.10869611699E+03  0.10869611699E+03  0.00000000000E+00 0.  1.
         21   -1    0    0  504  502 -0.00000000000E+00 -0.00000000000E+00 -0.39859160831E+02  0.39859160831E+02  0.00000000000E+00 0.  1.
         21    1    1    2  503  502 -0.23052403869E+02 -0.12850052238E+01 -0.35139763131E+02  0.42046016642E+02  0.00000000000E+00 0.  1.
         21    1    1    2  504  501  0.23052403869E+02  0.12850052238E+01  0.10397671929E+03  0.10650926118E+03  0.00000000000E+00 0.  1.
</event>
<event>
 4    1  0.2825993E+006  0.2762743E+02  0.7546771E-02  0.1441405E+00
         21   -1    0    0  504  501  0.00000000000E+00  0.00000000000E+00  0.69315245684E+01  0.69315245684E+01  0.00000000000E+00 0.  1.
         21   -1    0    0  501  502 -0.00000000000E+00 -0.00000000000E+00 -0.16973755649E+03  0.16973755649E+03  0.00000000000E+00 0.  1.
         21    1    1    2  503  502 -0.26663629231E+02  0.72336452512E+01 -0.13375602718E+03  0.13657946241E+03  0.00000000000E+00 0.  1.
         21    1    1    2  504  503  0.26663629231E+02 -0.72336452512E+01 -0.29050004747E+02  0.40089618646E+02  0.00000000000E+00 0.  1.
</event>
<event>
 4    1  0.2825993E+006  0.2988240E+02  0.7546771E-02  0.1420621E+00
         21   -1    0    0  503  501  0.00000000000E+00  0.00000000000E+00  0.15577714864E+02  0.15577714864E+02  0.00000000000E+00 0.  1.
         21   -1    0    0  504  502 -0.00000000000E+00 -0.00000000000E+00 -0.57446784882E+02  0.57446784882E+02  0.00000000000E+00 0.  1.
         21    1    1    2  503  502 -0.13263174221E+02 -0.26777719918E+02 -0.19238214168E+02  0.35539653330E+02  0.00000000000E+00 0.  1.
         21    1    1    2  504  501  0.13263174221E+02  0.26777719918E+02 -0.22630855850E+02  0.37484846417E+02  0.00000000000E+00 0.  1.
</event>
<event>
 4    1  0.2825993E+006  0.2198934E+02  0.7546771E-02  0.1505594E+00
         21   -1    0    0  503  501  0.00000000000E+00  0.00000000000E+00  0.31445699939E+03  0.31445699939E+03  0.00000000000E+00 0. -1.
         21   -1    0    0  504  502 -0.00000000000E+00 -0.00000000000E+00 -0.22800507554E+02  0.22800507554E+02  0.00000000000E+00 0.  1.
         21    1    1    2  503  502 -0.16498028503E+02 -0.14537748717E+02  0.30867157912E+03  0.30945383313E+03  0.00000000000E+00 0. -1.
         21    1    1    2  504  501  0.16498028503E+02  0.14537748717E+02 -0.17015087284E+02  0.27803673814E+02  0.00000000000E+00 0.  1.
</event>
<event>
 4    1  0.2825993E+006  0.2143359E+02  0.7546771E-02  0.1513164E+00
         21   -1    0    0  503  501  0.00000000000E+00  0.00000000000E+00  0.79172628463E+02  0.79172628463E+02  0.00000000000E+00 0. -1.
         21   -1    0    0  501  502 -0.00000000000E+00 -0.00000000000E+00 -0.19520657975E+02  0.19520657975E+02  0.00000000000E+00 0. -1.
         21    1    1    2  503  504 -0.64457173386E+01  0.20441413341E+02  0.71193401289E+02  0.74349842222E+02  0.00000000000E+00 0. -1.
         21    1    1    2  504  502  0.64457173386E+01 -0.20441413341E+02 -0.11541430800E+02  0.24343444216E+02  0.00000000000E+00 0. -1.
</event>
<event>
 4    1  0.2825993E+006  0.4066514E+02  0.7546771E-02  0.1344632E+00
         21   -1    0    0  504  501  0.00000000000E+00  0.00000000000E+00  0.52838305691E+03  0.52838305691E+03  0.00000000000E+00 0.  1.
         21   -1    0    0  501  502 -0.00000000000E+00 -0.00000000000E+00 -0.10793320464E+03  0.10793320464E+03  0.00000000000E+00 0.  1.
         21    1    1    2  503  502  0.40489078755E+02  0.37799213995E+01 -0.10328659112E+03  0.11100348287E+03  0.00000000000E+00 0.  1.
         21    1    1    2  504  503 -0.40489078755E+02 -0.37799213995E+01  0.52373644339E+03  0.52531277867E+03  0.00000000000E+00 0.  1.
</event>
<event>
 4    1  0.2825993E+006  0.3128941E+02  0.7546771E-02  0.1408713E+00
         21   -1    0    0  504  501  0.00000000000E+00  0.00000000000E+00  0.15115228546E+03  0.15115228546E+03  0.00000000000E+00 0.  1.
         21   -1    0    0  503  502 -0.00000000000E+00 -0.00000000000E+00 -0.20933244501E+02  0.20933244501E+02  0.00000000000E+00 0. -1.
         21    1    1    2  503  501 -0.29288817119E+02 -0.11008750818E+02 -0.63931778332E+01  0.31935875212E+02  0.00000000000E+00 0. -1.
         21    1    1    2  504  502  0.29288817119E+02  0.11008750818E+02  0.13661221880E+03  0.14014965475E+03  0.00000000000E+00 0.  1.
</event>
<event>
 4    1  0.2825993E+006  0.2573854E+02  0.7546771E-02  0.1460708E+00
         21   -1    0    0  504  501  0.00000000000E+00  0.00000000000E+00  0.24334964233E+02  0.24334964233E+02  0.00000000000E+00 0.  1.
         21   -1    0    0  503  502 -0.00000000000E+00 -0.00000000000E+00 -0.53657591100E+02  0.53657591100E+02  0.00000000000E+00 0.  1.
         21    1    1    2  503  501 -0.16548312087E+02 -0.19713588767E+02 -0.42032483678E+02  0.49286934365E+02  0.00000000000E+00 0.  1.
         21    1    1    2  504  502  0.16548312087E+02  0.19713588767E+02  0.12709856811E+02  0.28705620968E+02  0.00000000000E+00 0.  1.
</event>
<event>
 4    1  0.2825993E+006  0.2771750E+02  0.7546771E-02  0.1440531E+00
         21   -1    0    0  503  501  0.00000000000E+00  0.00000000000E+00  0.12408881496E+03  0.12408881496E+03  0.00000000000E+00 0. -1.
         21   -1    0    0  504  502 -0.00000000000E+00 -0.00000000000E+00 -0.86973868998E+01  0.86973868998E+01  0.00000000000E+00 0. -1.
         21    1    1    2  503  502 -0.16292216760E+02 -0.22423726456E+02  0.22055978456E+02  0.35422112032E+02  0.00000000000E+00 0. -1.
         21    1    1    2  504  501  0.16292216760E+02  0.22423726456E+02  0.93335449603E+02  0.97364089827E+02  0.00000000000E+00 0. -1.
</event>
<event>
 4    1  0.2825993E+006  0.2500369E+02  0.7546771E-02  0.1468762E+00
         21   -1    0    0  504  501  0.00000000000E+00  0.00000000000E+00  0.17954954654E+01  0.17954954654E+01  0.00000000000E+00 0.  1.
         21   -1    0    0  503  502 -0.00000000000E+00 -0.00000000000E+00 -0.36540536968E+03  0.36540536968E+03  0.00000000000E+00 0. -1.
         21    1    1    2  503  501 -0.21734605775E+02  0.12360885155E+02 -0.22164931924E+03  0.22305516198E+03  0.00000000000E+00 0. -1.
         21    1    1    2  504  502  0.21734605775E+02 -0.12360885155E+02 -0.14196055498E+03  0.14414570317E+03  0.00000000000E+00 0.  1.
</event>
<event>
 4    1  0.2825993E+006  0.2263099E+02  0.7546771E-02  0.1497185E+00
         21   -1    0    0  503  501  0.00000000000E+00  0.00000000000E+00  0.41194917017E+01  0.41194917017E+01  0.00000000000E+00 0.  1.
         21   -1    0    0  504  502 -0.00000000000E+00 -0.00000000000E+00 -0.29825621864E+03  0.29825621864E+03  0.00000000000E+00 0.  1.
         21    1    1    2  503  502  0.22548317556E+02  0.19326028559E+01 -0.26252241362E+03  0.26349607061E+03  0.00000000000E+00 0.  1.
         21    1    1    2  504  501 -0.22548317556E+02 -0.19326028559E+01 -0.31614313318E+02  0.38879639723E+02  0.00000000000E+00 0.  1.
</event>
<event>
 4    1  0.2825993E+006  0.2559218E+02  0.7546771E-02  0.1462286E+00
         21   -1    0    0  503  501  0.00000000000E+00  0.00000000000E+00  0.11250475420E+02  0.11250475420E+02  0.00000000000E+00 0. -1.
         21   -1    0    0  501  502 -0.00000000000E+00 -0.00000000000E+00 -0.94771427361E+03  0.94771427361E+03  0.00000000000E+00 0.  1.
         21    1    1    2  503  504  0.24502272392E+02 -0.73890682953E+01 -0.37097273197E+01  0.25859655053E+02  0.00000000000E+00 0. -1.
         21    1    1    2  504  502 -0.24502272392E+02  0.73890682953E+01 -0.93275407087E+03  0.93310509397E+03  0.00000000000E+00 0.  1.
</event>
<event>
 4    1  0.2825993E+006  0.2289057E+02  0.7546771E-02  0.1493877E+00
         21   -1    0    0  504  501  0.00000000000E+00  0.00000000000E+00  0.23104816330E+01  0.23104816330E+01  0.00000000000E+00 0. -1.
         21   -1    0    0  501  502 -0.00000000000E+00 -0.00000000000E+00 -0.37177338540E+03  0.37177338540E+03  0.00000000000E+00 0.  1.
         21    1    1    2  503  502  0.19700884059E+02 -0.11655612623E+02 -0.30153857274E+03  0.30240616559E+03  0.00000000000E+00 0.  1.
         21    1    1    2  504  503 -0.19700884059E+02  0.11655612623E+02 -0.67924331028E+02  0.71677701441E+02  0.00000000000E+00 0. -1.
</event>
<event>
 4    1  0.2825993E+006  0.2547887E+02  0.7546771E-02  0.1463517E+00
         21   -1    0    0  503  501  0.00000000000E+00  0.00000000000E+00  0.43791040159E+02  0.43791040159E+02  0.00000000000E+00 0. -1.
         21   -1    0    0  504  502 -0.00000000000E+00 -0.00000000000E+00 -0.23168646385E+02  0.23168646385E+02  0.00000000000E+00 0. -1.
         21    1    1    2  503  502 -0.10219927076E+02 -0.23339364061E+02  0.30403442138E+02  0.39667897828E+02  0.00000000000E+00 0. -1.
         21    1    1    2  504  501  0.10219927076E+02  0.23339364061E+02 -0.97810483644E+01  0.27291788716E+02  0.00000000000E+00 0. -1.
</event>
<event>
 4    1  0.2825993E+006  0.2217959E+02  0.7546771E-02  0.1503065E+00
         21   -1    0    0  503  501  0.00000000000E+00  0.00000000000E+00  0.17648533540E+02  0.17648533540E+02  0.00000000000E+00 0. -1.
         21   -1    0    0  504  502 -0.00000000000E+00 -0.00000000000E+00 -0.39950703636E+02  0.39950703636E+02  0.00000000000E+00 0. -1.
         21    1    1    2  503  502  0.78970183121E+01  0.20726107042E+02  0.46832398563E+01  0.22668637959E+02  0.00000000000E+00 0. -1.
         21    1    1    2  504  501 -0.78970183121E+01 -0.20726107042E+02 -0.26985409953E+02  0.34930599217E+02  0.00000000000E+00 0. -1.
</event>
<event>
 4    1  0.2825993E+006  0.2373951E+02  0.7546771E-02  0.1483415E+00
         21   -1    0    0  504  501  0.00000000000E+00  0.00000000000E+00  0.10213378929E+02  0.10213378929E+02  0.00000000000E+00 0.  1.
         21   -1    0    0  501  502 -0.00000000000E+00 -0.00000000000E+00 -0.64792970105E+02  0.64792970105E+02  0.00000000000E+00 0.  1.
         21    1    1    2  503  502  0.13039227238E+02  0.19837919282E+02 -0.41736023747E+02  0.48015207660E+02  0.00000000000E+00 0.  1.
         21    1    1    2  504  503 -0.13039227238E+02 -0.19837919282E+02 -0.12843567429E+02  0.26991141375E+02  0.00000000000E+00 0.  1.
</event>
<event>
 4    1  0.2825993E+006  0.2582892E+02  0.7546771E-02  0.1459740E+00
         21   -1    0    0  503  501  0.00000000000E+00  0.00000000000E+00  0.35916335803E+03  0.35916335803E+03  0.00000000000E+00 0. -1.
         21   -1    0    0  504  502 -0.00000000000E+00 -0.00000000000E+00 -0.18902002060E+01  0.18902002060E+01  0.00000000000E+00 0. -1.
         21    1    1    2  503  502  0.25433704410E+02 -0.45010655346E+01  0.15487891750E+03  0.15701787158E+03  0.00000000000E+00 0. -1.
         21    1    1    2  504  501 -0.25433704410E+02  0.45010655346E+01  0.20239424032E+03  0.20403568665E+03  0.00000000000E+00 0. -1.
</event>
<event>
 4    1  0.2825993E+006  0.3342962E+02  0.7546771E-02  0.1391953E+00
         21   -1    0    0  502  501  0.00000000000E+00  0.00000000000E+00  0.27087643012E+01  0.27087643012E+01  0.00000000000E+00 0. -1.
         21   -1    0    0  503  502 -0.00000000000E+00 -0.00000000000E+00 -0.13235527174E+04  0.13235527174E+04  0.00000000000E+00 0. -1.
         21    1    1    2  503  504  0.27209410550E+02 -0.19421309759E+02 -0.12105768698E+04  0.12110383549E+04  0.00000000000E+00 0. -1.
         21    1    1    2  504  501 -0.27209410550E+02  0.19421309759E+02 -0.11026708330E+03  0.11522312682E+03  0.00000000000E+00 0. -1.
</event>
<event>
 4    1  0.2825993E+006  0.2786368E+02  0.7546771E-02  0.1439120E+00
         21   -1    0    0  502  501  0.00000000000E+00  0.00000000000E+00  0.32258681078E+02  0.32258681078E+02  0.00000000000E+00 0.  1.
         21   -1    0    0  503  502 -0.00000000000E+00 -0.00000000000E+00 -0.36131532828E+02  0.36131532828E+02  0.00000000000E+00 0.  1.
         21    1    1    2  503  504 -0.27081641098E+02  0.65550935724E+01 -0.21695552182E+02  0.35314041411E+02  0.00000000000E+00 0.  1.
         21    1    1    2  504  501  0.27081641098E+02 -0.65550935724E+01  0.17822700432E+02  0.33076172496E+02  0.00000000000E+00 0.  1.
</event>
<event>
 4    1  0.2825993E+006  0.3299532E+02  0.7546771E-02  0.1395232E+00
         21   -1    0    0  503  501  0.00000000000E+00  0.00000000000E+00  0.43337750359E+02  0.43337750359E+02  0.00000000000E+00 0.  1.
         21   -1    0    0  504  502 -0.00000000000E+00 -0.00000000000E+00 -0.12235011298E+03  0.12235011298E+03  0.00000000000E+00 0. -1.
         21    1    1    2  503  502  0.32909934598E+02 -0.23721409492E+01  0.34344840780E+02  0.47626242095E+02  0.00000000000E+00 0.  1.
         21    1    1    2  504  501 -0.32909934598E+02  0.23721409492E+01 -0.11335720340E+03  0.11806162124E+03  0.00000000000E+00 0. -1.
</event>
<event>
 4    1  0.2825993E+006  0.3183179E+02  0.7546771E-02  0.1404319E+00
         21   -1    0    0  504  501  0.00000000000E+00  0.00000000000E+00  0.69502471750E+03  0.69502471750E+03  0.00000000000E+00 0. -1.
         21   -1    0    0  501  502 -0.00000000000E+00 -0.00000000000E+00 -0.85329400636E+01  0.85329400636E+01  0.00000000000E+00 0. -1.
         21    1    1    2  503  502  0.31724464677E+02  0.26117748703E+01  0.22924897770E+02  0.39227719343E+02  0.00000000000E+00 0. -1.
         21    1    1    2  504  503 -0.31724464677E+02 -0.26117748703E+01  0.66356687966E+03  0.66432993822E+03  0.00000000000E+00 0. -1.
</event>
<event>
 4    1  0.2825993E+006  0.2836949E+02  0.7546771E-02  0.1434316E+00
         21   -1    0    0  504  501  0.00000000000E+00  0.00000000000E+00  0.47095791425E+03  0.47095791425E+03  0.00000000000E+00 0.  1.
         21   -1    0    0  503  502 -0.00000000000E+00 -0.00000000000E+00 -0.10059416275E+02  0.10059416275E+02  0.00000000000E+00 0.  1.
         21    1    1    2  503  501  0.27471084575E+02  0.70828804105E+01  0.11319886091E+02  0.30544516755E+02  0.00000000000E+00 0.  1.
         21    1    1    2  504  502 -0.27471084575E+02 -0.70828804105E+01  0.44957861188E+03  0.45047281377E+03  0.00000000000E+00 0.  1.
</event>
<event>
 4    1  0.2825993E+006  0.3307220E+02  0.7546771E-02  0.1394647E+00
         21   -1    0    0  504  501  0.00000000000E+00  0.00000000000E+00  0.15430690552E+02  0.15430690552E+02  0.00000000000E+00 0.  1.
         21   -1    0    0  503  502 -0.00000000000E+00 -0.00000000000E+00 -0.17199582473E+03  0.17199582473E+03  0.00000000000E+00 0.  1.
         21    1    1    2  503  501 -0.33069861797E+02  0.39307809201E+00 -0.64294400602E+01  0.33691363421E+02  0.00000000000E+00 0.  1.
         21    1    1    2  504  502  0.33069861797E+02 -0.39307809201E+00 -0.15013569412E+03  0.15373515187E+03  0.00000000000E+00 0.  1.
</event>
<event>
 4    1  0.2825993E+006  0.2516158E+02  0.7546771E-02  0.1467004E+00
         21   -1    0    0  503  501  0.00000000000E+00  0.00000000000E+00  0.41446431011E+03  0.41446431011E+03  0.00000000000E+00 0.  1.
         21   -1    0    0  504  502 -0.00000000000E+00 -0.00000000000E+00 -0.16470501673E+01  0.16470501673E+01  0.00000000000E+00 0.  1.
         21    1    1    2  503  502 -0.89373822745E+00 -0.25145703653E+02  0.15036151276E+03  0.15245225383E+03  0.00000000000E+00 0.  1.
         21    1    1    2  504  501  0.89373822745E+00  0.25145703653E+02  0.26245574718E+03  0.26365910644E+03  0.00000000000E+00 0.  1.
</event>
<event>
 4    1  0.2825993E+006  0.2080154E+02  0.7546771E-02  0.1522117E+00
         21   -1    0    0  504  501  0.00000000000E+00  0.00000000000E+00  0.11618223467E+02  0.11618223467E+02  0.00000000000E+00 0.  1.
         21   -1    0    0  503  502 -0.00000000000E+00 -0.00000000000E+00 -0.68531889923E+02  0.68531889923E+02  0.00000000000E+00 0. -1.
         21    1    1    2  503  501  0.14203000359E+02  0.15197982345E+02 -0.13786793578E+01  0.20847173509E+02  0.00000000000E+00 0.  1.
         21    1    1    2  504  502 -0.14203000359E+02 -0.15197982345E+02 -0.55534987098E+02  0.59302939881E+02  0.00000000000E+00 0. -1.
</event>
<event>
 4    1  0.2825993E+006  0.2090848E+02  0.7546771E-02  0.1520575E+00
         21   -1    0    0  504  501  0.00000000000E+00  0.00000000000E+00  0.10378763069E+02  0.10378763069E+02  0.00000000000E+00 0.  1.
         21   -1    0    0  501  502 -0.00000000000E+00 -0.00000000000E+00 -0.59781355980E+02  0.59781355980E+02  0.00000000000E+00 0.  1.
         21    1    1    2  503  502  0.19159582734E+02 -0.83710884931E+01 -0.43768023789E+02  0.48505717596E+02  0.00000000000E+00 0.  1.
         21    1    1    2  504  503 -0.19159582734E+02  0.83710884931E+01 -0.56345691215E+01  0.21654401453E+02  0.00000000000E+00 0.  1.
</event>
<event>
 4    1  0.2825993E+006  0.2351567E+02  0.7546771E-02  0.1486122E+00
         21   -1    0    0  502  501  0.00000000000E+00  0.00000000000E+00  0.47603578378E+02  0.47603578378E+02  0.00000000000E+00 0. -1.
         21   -1    0    0  503  502 -0.00000000000E+00 -0.00000000000E+00 -0.51137123953E+02  0.51137123953E+02  0.00000000000E+00 0. -1.
         21    1    1    2  503  504 -0.19890837317E+02  0.12543586301E+02 -0.45168794853E+02  0.50923540675E+02  0.00000000000E+00 0. -1.
         21    1    1    2  504  501  0.19890837317E+02 -0.12543586301E+02  0.41635249277E+02  0.47817161656E+02  0.00000000000E+00 0. -1.
</event>
<event>
 4    1  0.2825993E+006  0.2599321E+02  0.7546771E-02  0.1457992E+00
         21   -1    0    0  504  501  0.00000000000E+00  0.00000000000E+00  0.37538519636E+02  0.37538519636E+02  0.00000000000E+00 0. -1.
         21   -1    0    0  503  502 -0.00000000000E+00 -0.00000000000E+00 -0.23242208165E+02  0.23242208165E+02  0.00000000000E+00 0. -1.
         21    1    1    2  503  501 -0.25909331492E+02 -0.20864612852E+01 -0.72864765866E+01  0.26995175868E+02  0.00000000000E+00 0. -1.
         21    1    1    2  504  502  0.25909331492E+02  0.20864612852E+01  0.21582788058E+02  0.33785551933E+02  0.00000000000E+00 0. -1.
</event>
<event>
 4    1  0.2825993E+006  0.4362560E+02  0.7546771E-02  0.1328456E+00
         21   -1    0    0  504  501  0.00000000000E+00  0.00000000000E+00  0.19752510680E+03  0.19752510680E+03  0.00000000000E+00 0. -1.
         21   -1    0    0  503  502 -0.00000000000E+00 -0.00000000000E+00 -0.12731387192E+02  0.12731387192E+02  0.00000000000E+00 0. -1.
         21    1    1    2  503  501  0.15369436096E+02 -0.40828583234E+02  0.40553210148E+02  0.59563039111E+02  0.00000000000E+00 0. -1.
         21    1    1    2  504  502 -0.15369436096E+02  0.40828583234E+02  0.14424050947E+03  0.15069345489E+03  0.00000000000E+00 0. -1.
</event>
<event>
 4    1  0.2825993E+006  0.2161273E+02  0.7546771E-02  0.1510694E+00
         21   -1    0    0  503  501  0.00000000000E+00  0.00000000000E+00  0.21534665446E+03  0.21534665446E+03  0.00000000000E+00 0. -1.
         21   -1    0    0  504  502 -0.00000000000E+00 -0.00000000000E+00 -0.21896719037E+02  0.21896719037E+02  0.00000000000E+00 0. -1.
         21    1    1    2  503  502  0.21336559386E+02 -0.34440267461E+01 -0.15868144525E+02  0.26812461605E+02  0.00000000000E+00 0. -1.
         21    1    1    2  504  501 -0.21336559386E+02  0.34440267461E+01  0.20931807994E+03  0.21043091189E+03  0.00000000000E+00 0. -1.
</event>
<event>
 4    1  0.2825993E+006  0.2652871E+02  0.7546771E-02  0.1452401E+00
         21   -1    0    0  503  501  0.00000000000E+00  0.00000000000E+00  0.34202600533E+03  0.34202600533E+03  0.00000000000E+00 0.  1.
         21   -1    0    0  501  502 -0.00000000000E+00 -0.00000000000E+00 -0.24398239985E+01  0.24398239985E+01  0.00000000000E+00 0.  1.
         21    1    1    2  503  504  0.15387266531E+01 -0.26484046796E+02  0.23795835811E+03  0.23943256380E+03  0.00000000000E+00 0.  1.
         21    1    1    2  504  502 -0.15387266531E+01  0.26484046796E+02  0.10162782322E+03  0.10503326553E+03  0.00000000000E+00 0.  1.
</event>
<event>
 4    1  0.2825993E+006  0.2210948E+02  0.7546771E-02  0.1503994E+00
         21   -1    0    0  503  501  0.00000000000E+00  0.00000000000E+00  0.24714225889E+02  0.24714225889E+02  0.00000000000E+00 0. -1.
         21   -1    0    0  504  502 -0.00000000000E+00 -0.00000000000E+00 -0.64024595113E+02  0.64024595113E+02  0.00000000000E+00 0. -1.
         21    1    1    2  503  502 -0.16167165927E+02 -0.15081501624E+02 -0.56539694184E+02  0.60708862317E+02  0.00000000000E+00 0. -1.
         21    1    1    2  504  501  0.16167165927E+02  0.15081501624E+02  0.17229324960E+02  0.28029958686E+02  0.00000000000E+00 0. -1.
</event>
<event>
 4    1  0.2825993E+006  0.2025206E+02  0.7546771E-02  0.1530217E+00
         21   -1    0    0  503  501  0.00000000000E+00  0.00000000000E+00  0.45541747959E+02  0.45541747959E+02  0.00000000000E+00 0. -1.
         21   -1    0    0  504  502 -0.00000000000E+00 -0.00000000000E+00 -0.90130101885E+01  0.90130101885E+01  0.00000000000E+00 0. -1.
         21    1    1    2  503  502 -0.10205948329E+01  0.20226327356E+02  0.19028727553E+02  0.27789177829E+02  0.00000000000E+00 0. -1.
         21    1    1    2  504  501  0.10205948329E+01 -0.20226327356E+02  0.17500010217E+02  0.26765580318E+02  0.00000000000E+00 0. -1.
</event>
<event>
 4    1  0.2825993E+006  0.2339339E+02  0.7546771E-02  0.1487617E+00
         21   -1    0    0  502  501  0.00000000000E+00  0.00000000000E+00  0.40886933474E+00  0.40886933474E+00  0.00000000000E+00 0. -1.
         21   -1    0    0  503  502 -0.00000000000E+00 -0.00000000000E+00 -0.13496431474E+04  0.13496431474E+04  0.00000000000E+00 0. -1.
         21    1    1    2  503  504  0.17869267442E+02  0.15097675323E+02 -0.73609483751E+03  0.73646646925E+03  0.00000000000E+00 0. -1.
         21    1    1    2  504  501 -0.17869267442E+02 -0.15097675323E+02 -0.61313944060E+03  0.61358554753E+03  0.00000000000E+00 0. -1.
</event>
<event>
 4    1  0.2825993E+006  0.3432394E+02  0.7546771E-02  0.1385379E+00
         21   -1    0    0  504  501  0.00000000000E+00  0.00000000000E+00  0.10493511422E+03  0.10493511422E+03  0.00000000000E+00 0. -1.
         21   -1    0    0  503  502 -0.00000000000E+00 -0.00000000000E+00 -0.93218001709E+02  0.93218001709E+02  0.00000000000E+00 0.  1.
         21    1    1    2  503  501  0.34272799585E+02 -0.18729012644E+01  0.98777326898E+02  0.10457099435E+03  0.00000000000E+00 0. -1.
         21    1    1    2  504  502 -0.34272799585E+02  0.18729012644E+01 -0.87060214385E+02  0.93582121579E+02  0.00000000000E+00 0.  1.
</event>
<event>
 4    1  0.2825993E+006  0.3098239E+02  0.7546771E-02  0.1411247E+00
         21   -1    0    0  503  501  0.00000000000E+00  0.00000000000E+00  0.35200676327E+02  0.35200676327E+02  0.00000000000E+00 0.  1.
         21   -1    0    0  504  502 -0.00000000000E+00 -0.00000000000E+00 -0.57251629817E+02  0.57251629817E+02  0.00000000000E+00 0.  1.
         21    1    1    2  503  502 -0.21774387737E+02  0.22040515816E+02 -0.44477651350E+02  0.54204886942E+02  0.00000000000E+00 0.  1.
         21    1    1    2  504  501  0.21774387737E+02 -0.22040515816E+02  0.22426697860E+02  0.38247419203E+02  0.00000000000E+00 0.  1.
</event>
<event>
 4    1  0.2825993E+006  0.2205919E+02  0.7546771E-02  0.1504662E+00
         21   -1    0    0  503  501  0.00000000000E+00  0.00000000000E+00  0.16533904606E+02  0.16533904606E+02  0.00000000000E+00 0.  1.
         21   -1    0    0  504  502 -0.00000000000E+00 -0.00000000000E+00 -0.22840566501E+03  0.22840566501E+03  0.00000000000E+00 0. -1.
         21    1    1    2  503  502  0.20824433696E+02  0.72767223256E+01 -0.22024332511E+03  0.22134527323E+03  0.00000000000E+00 0. -1.
         21    1    1    2  504  501 -0.20824433696E+02 -0.72767223256E+01  0.83715647019E+01  0.23594296389E+02  0.00000000000E+00 0.  1.
</event>
<event>
 4    1  0.2825993E+006  0.2524378E+02  0.7546771E-02  0.1466095E+00
         21   -1    0    0  503  501  0.00000000000E+00  0.00000000000E+00  0.16868197364E+03  0.16868197364E+03  0.00000000000E+00 0. -1.
         21   -1    0    0  504  502 -0.00000000000E+00 -0.00000000000E+00 -0.23847401332E+02  0.23847401332E+02  0.00000000000E+00 0.  1.
         21    1    1    2  503  502  0.34299690757E+01  0.25009671323E+02 -0.15893905679E+02  0.29830598138E+02  0.00000000000E+00 0.  1.
         21    1    1    2  504  501 -0.34299690757E+01 -0.25009671323E+02  0.16072847799E+03  0.16269877683E+03  0.00000000000E+00 0. -1.
</event>
<event>
 4    1  0.2825993E+006  0.2803853E+02  0.7546771E-02  0.1437446E+00
         21   -1    0    0  502  501  0.00000000000E+00  0.00000000000E+00  0.12203465983E+02  0.12203465983E+02  0.00000000000E+00 0. -1.
         21   -1    0    0  503  502 -0.00000000000E+00 -0.00000000000E+00 -0.23279513543E+03  0.23279513543E+03  0.00000000000E+00 0. -1.
         21    1    1    2  503  504 -0.23342159670E+02 -0.15533914062E+02 -0.21447584825E+03  0.21630082845E+03  0.00000000000E+00 0. -1.
         21    1    1    2  504  501  0.23342159670E+02  0.15533914062E+02 -0.61158211937E+01  0.28697772963E+02  0.00000000000E+00 0. -1.
</event>
<event>
 4    1  0.2825993E+006  0.2627366E+02  0.7546771E-02  0.1455044E+00
         21   -1    0    0  503  501  0.00000000000E+00  0.00000000000E+00  0.48053300240E+02  0.48053300240E+02  0.00000000000E+00 0.  1.
         21   -1    0    0  504  502 -0.00000000000E+00 -0.00000000000E+00 -0.21404865446E+02  0.21404865446E+02  0.00000000000E+00 0.  1.
         21    1    1    2  503  502  0.22737482168E+02 -0.13164808174E+02 -0.65919906044E+01  0.27087997521E+02  0.00000000000E+00 0.  1.
         21    1    1    2  504  501 -0.22737482168E+02  0.13164808174E+02  0.33240425399E+02  0.42370168164E+02  0.00000000000E+00 0.  1.
</event>
<event>
 4    1  0.2825993E+006  0.2042848E+02  0.7546771E-02  0.1527583E+00
         21   -1    0    0  502  501  0.00000000000E+00  0.00000000000E+00  0.20320998625E+02  0.20320998625E+02  0.00000000000E+00 0. -1.
         21   -1    0    0  503  502 -0.00000000000E+00 -0.00000000000E+00 -0.33637554862E+03  0.33637554862E+03  0.00000000000E+00 0.  1.
         21    1    1    2  503  504  0.19598041948E+02  0.57653916168E+01 -0.33084551764E+03  0.33147560926E+03  0.00000000000E+00 0.  1.
         21    1    1    2  504  501 -0.19598041948E+02 -0.57653916168E+01  0.14790967651E+02  0.25220937983E+02  0.00000000000E+00 0. -1.
</event>
<event>
 4    1  0.2825993E+006  0.3388353E+02  0.7546771E-02  0.1388587E+00
         21   -1    0    0  503  501  0.00000000000E+00  0.00000000000E+00  0.29555987638E+02  0.29555987638E+02  0.00000000000E+00 0. -1.
         21   -1    0    0  504  502 -0.00000000000E+00 -0.00000000000E+00 -0.54373724188E+02  0.54373724188E+02  0.00000000000E+00 0. -1.
         21    1    1    2  503  502  0.81237779937E+00  0.33873787813E+02 -0.34835460497E+02  0.48596324619E+02  0.00000000000E+00 0. -1.
         21    1    1    2  504  501 -0.81237779937E+00 -0.33873787813E+02  0.10017723947E+02  0.35333387207E+02  0.00000000000E+00 0. -1.
</event>
<event>
 4    1  0.2825993E+006  0.3922651E+02  0.7546771E-02  0.1353079E+00
         21   -1    0    0  504  501  0.00000000000E+00  0.00000000000E+00  0.56547117240E+03  0.56547117240E+03  0.00000000000E+00 0.  1.
         21   -1    0    0  501  502 -0.00000000000E+00 -0.00000000000E+00 -0.50711847850E+01  0.50711847850E+01  0.00000000000E+00 0.  1.
         21    1    1    2  503  502  0.73603916565E+01  0.38529778589E+02  0.86003047969E+02  0.94526416749E+02  0.00000000000E+00 0.  1.
         21    1    1    2  504  503 -0.73603916565E+01 -0.38529778589E+02  0.47439693965E+03  0.47601594044E+03  0.00000000000E+00 0.  1.
</event>
<event>
 4    1  0.2825993E+006  0.2233885E+02  0.7546771E-02  0.1500971E+00
         21   -1    0    0  503  501  0.00000000000E+00  0.00000000000E+00  0.45321230259E+02  0.45321230259E+02  0.00000000000E+00 0.  1.
         21   -1    0    0  504  502 -0.00000000000E+00 -0.00000000000E+00 -0.25587612565E+03  0.25587612565E+03  0.00000000000E+00 0. -1.
         21    1    1    2  503  502 -0.11933798748E+02  0.18884080872E+02  0.42045330775E+02  0.47611279157E+02  0.00000000000E+00 0.  1.
         21    1    1    2  504  501  0.11933798748E+02 -0.18884080872E+02 -0.25260022617E+03  0.25358607675E+03  0.00000000000E+00 0. -1.
</event>
<event>
 4    1  0.2825993E+006  0.2960645E+02  0.7546771E-02  0.1423048E+00
         21   -1    0    0  504  501  0.00000000000E+00  0.00000000000E+00  0.14054233309E+02  0.14054233309E+02  0.00000000000E+00 0.  1.
         21   -1    0    0  501  502 -0.00000000000E+00 -0.00000000000E+00 -0.20300845171E+03  0.20300845171E+03  0.00000000000E+00 0. -1.
         21    1    1    2  503  502 -0.10434542238E+02  0.27706718314E+02 -0.18481135423E+03  0.18716778186E+03  0.00000000000E+00 0. -1.
         21    1    1    2  504  503  0.10434542238E+02 -0.27706718314E+02 -0.41428641648E+01  0.29894903160E+02  0.00000000000E+00 0.  1.
</event>
<event>
 4    1  0.2825993E+006  0.2324137E+02  0.7546771E-02  0.1489489E+00
         21   -1    0    0  504  501  0.00000000000E+00  0.00000000000E+00  0.32298286433E+03  0.32298286433E+03  0.00000000000E+00 0.  1.
         21   -1    0    0  503  502 -0.00000000000E+00 -0.00000000000E+00 -0.23093482027E+02  0.23093482027E+02  0.00000000000E+00 0. -1.
         21    1    1    2  503  501  0.22438075969E+02 -0.60575425911E+01 -0.16710087455E+02  0.28624955863E+02  0.00000000000E+00 0. -1.
         21    1    1    2  504  502 -0.22438075969E+02  0.60575425911E+01  0.31659946976E+03  0.31745139050E+03  0.00000000000E+00 0.  1.
</event>
<event>
 4    1  0.2825993E+006  0.2354092E+02  0.7546771E-02  0.1485815E+00
         21   -1    0    0  504  501  0.00000000000E+00  0.00000000000E+00  0.16358898379E+02  0.16358898379E+02  0.00000000000E+00 0.  1.
         21   -1    0    0  503  502 -0.00000000000E+00 -0.00000000000E+00 -0.34858025073E+03  0.34858025073E+03  0.00000000000E+00 0. -1.
         21    1    1    2  503  501 -0.11803889631E+02 -0.20367701712E+02 -0.33948721591E+03  0.34030243145E+03  0.00000000000E+00 0. -1.
         21    1    1    2  504  502  0.11803889631E+02  0.20367701712E+02  0.72658635645E+01  0.24636717655E+02  0.00000000000E+00 0.  1.
</event>
<event>
 4    1  0.2825993E+006  0.2112948E+02  0.7546771E-02  0.1517424E+00
         21   -1    0    0  504  501  0.00000000000E+00  0.00000000000E+00  0.60130665476E+02  0.60130665476E+02  0.00000000000E+00 0.  1.
         21   -1    0    0  503  502 -0.00000000000E+00 -0.00000000000E+00 -0.10608617650E+03  0.10608617650E+03  0.00000000000E+00 0.  1.
         21    1    1    2  503  501 -0.17273779064E+02 -0.12168465662E+02  0.57169625152E+02  0.60949331742E+02  0.00000000000E+00 0.  1.
         21    1    1    2  504  502  0.17273779064E+02  0.12168465662E+02 -0.10312513618E+03  0.10526751024E+03  0.00000000000E+00 0.  1.
</event>
<event>
 4    1  0.2825993E+006  0.2321626E+02  0.7546771E-02  0.1489800E+00
         21   -1    0    0  502  501  0.00000000000E+00  0.00000000000E+00  0.50227454597E+03  0.50227454597E+03  0.00000000000E+00 0. -1.
         21   -1    0    0  504  502 -0.00000000000E+00 -0.00000000000E+00 -0.24342919597E+01  0.24342919597E+01  0.00000000000E+00 0.  1.
         21    1    1    2  503  501  0.18935248882E+02 -0.13433210433E+02  0.43862495252E+03  0.43923893699E+03  0.00000000000E+00 0. -1.
         21    1    1    2  504  503 -0.18935248882E+02  0.13433210433E+02  0.61215301486E+02  0.65469900938E+02  0.00000000000E+00 0.  1.
</event>
<event>
 4    1  0.2825993E+006  0.6083293E+02  0.7546771E-02  0.1257029E+00
         21   -1    0    0  502  501  0.00000000000E+00  0.00000000000E+00  0.84476797971E+02  0.84476797971E+02  0.00000000000E+00 0. -1.
         21   -1    0    0  503  502 -0.00000000000E+00 -0.00000000000E+00 -0.12654768218E+03  0.12654768218E+03  0.00000000000E+00 0.  1.
         21    1    1    2  503  504  0.23147812825E+02  0.56256770517E+02 -0.10635256759E+03  0.12252148424E+03  0.00000000000E+00 0.  1.
         21    1    1    2  504  501 -0.23147812825E+02 -0.56256770517E+02  0.64281683379E+02  0.88502995913E+02  0.00000000000E+00 0. -1.
</event>
<event>
 4    1  0.2825993E+006  0.2995505E+02  0.7546771E-02  0.1419988E+00
         21   -1    0    0  504  501  0.00000000000E+00  0.00000000000E+00  0.33380511535E+03  0.33380511535E+03  0.00000000000E+00 0. -1.
         21   -1    0    0  503  502 -0.00000000000E+00 -0.00000000000E+00 -0.38113277190E+01  0.38113277190E+01  0.00000000000E+00 0. -1.
         21    1    1    2  503  501  0.24697266705E+02  0.16951396542E+02  0.73356394981E+02  0.79236768688E+02  0.00000000000E+00 0. -1.
         21    1    1    2  504  502 -0.24697266705E+02 -0.16951396542E+02  0.25663739265E+03  0.25837967438E+03  0.00000000000E+00 0. -1.
</event>
<event>
 4    1  0.2825993E+006  0.2034175E+02  0.7546771E-02  0.1528874E+00
         21   -1    0    0  502  501  0.00000000000E+00  0.00000000000E+00  0.59992165709E+03  0.59992165709E+03  0.00000000000E+00 0. -1.
         21   -1    0    0  503  502 -0.00000000000E+00 -0.00000000000E+00 -0.45043923267E+01  0.45043923267E+01  0.00000000000E+00 0.  1.
         21    1    1    2  503  504 -0.20308147419E+02  0.11686915003E+01  0.19594624336E+02  0.28244220547E+02  0.00000000000E+00 0.  1.
         21    1    1    2  504  501  0.20308147419E+02 -0.11686915003E+01  0.57582264043E+03  0.57618182887E+03  0.00000000000E+00 0. -1.
</event>
<event>
 4    1  0.2825993E+006  0.4702568E+02  0.7546771E-02  0.1311610E+00
         21   -1    0    0  503  501  0.00000000000E+00  0.00000000000E+00  0.19847485834E+03  0.19847485834E+03  0.00000000000E+00 0. -1.
         21   -1    0    0  504  502 -0.00000000000E+00 -0.00000000000E+00 -0.25829419738E+02  0.25829419738E+02  0.00000000000E+00 0.  1.
         21    1    1    2  503  502  0.18436071676E+01 -0.46989531661E+02  0.17515401380E+01  0.47058292212E+02  0.00000000000E+00 0.  1.
         21    1    1    2  504  501 -0.18436071676E+01  0.46989531661E+02  0.17089389846E+03  0.17724598586E+03  0.00000000000E+00 0. -1.
</event>
<event>
 4    1  0.2825993E+006  0.2542374E+02  0.7546771E-02  0.1464118E+00
         21   -1    0    0  503  501  0.00000000000E+00  0.00000000000E+00  0.78013352751E+02  0.78013352751E+02  0.00000000000E+00 0. -1.
         21   -1    0    0  501  502 -0.00000000000E+00 -0.00000000000E+00 -0.48902674768E+02  0.48902674768E+02  0.00000000000E+00 0.  1.
         21    1    1    2  503  504 -0.40545996250E+01 -0.25098343416E+02  0.72388364826E+02  0.76723151542E+02  0.00000000000E+00 0. -1.
         21    1    1    2  504  502  0.40545996250E+01  0.25098343416E+02 -0.43277686843E+02  0.50192875977E+02  0.00000000000E+00 0.  1.
</event>
<event>
 4    1  0.2825993E+006  0.5034311E+02  0.7546771E-02  0.1296692E+00
         21   -1    0    0  503  501  0.00000000000E+00  0.00000000000E+00  0.10791939913E+03  0.10791939913E+03  0.00000000000E+00 0.  1.
         21   -1    0    0  504  502 -0.00000000000E+00 -0.00000000000E+00 -0.54232603470E+02  0.54232603470E+02  0.00000000000E+00 0. -1.
         21    1    1    2  503  502 -0.17023874809E+02  0.47377379672E+02  0.87891415938E+02  0.10128834787E+03  0.00000000000E+00 0.  1.
         21    1    1    2  504  501  0.17023874809E+02 -0.47377379672E+02 -0.34204620283E+02  0.60863654728E+02  0.00000000000E+00 0. -1.
</event>
<event>
 4    1  0.2825993E+006  0.2142683E+02  0.7546771E-02  0.1513257E+00
         21   -1    0    0  503  501  0.00000000000E+00  0.00000000000E+00  0.20255345530E+02  0.20255345530E+02  0.00000000000E+00 0. -1.
         21   -1    0    0  501  502 -0.00000000000E+00 -0.00000000000E+00 -0.16173255698E+03  0.16173255698E+03  0.00000000000E+00 0.  1.
         21    1    1    2  503  504 -0.21248414744E+02 -0.27593155899E+01  0.13638582586E+02  0.25399210354E+02  0.00000000000E+00 0. -1.
         21    1    1    2  504  502  0.21248414744E+02  0.27593155899E+01 -0.15511579403E+03  0.15658869215E+03  0.00000000000E+00 0.  1.
</event>
<event>
 4    1  0.2825993E+006  0.2270281E+02  0.7546771E-02  0.1496264E+00
         21   -1    0    0  503  501  0.00000000000E+00  0.00000000000E+00  0.10865534411E+03  0.10865534411E+03  0.00000000000E+00 0.  1.
         21   -1    0    0  504  502 -0.00000000000E+00 -0.00000000000E+00 -0.93075192676E+03  0.93075192676E+03  0.00000000000E+00 0. -1.
         21    1    1    2  503  502 -0.39743608687E+01 -0.22352225035E+02  0.10732931120E+03  0.10970414100E+03  0.00000000000E+00 0.  1.
         21    1    1    2  504  501  0.39743608687E+01  0.22352225035E+02 -0.92942589386E+03  0.92970312986E+03  0.00000000000E+00 0. -1.
</event>
<event>
 4    1  0.2825993E+006  0.2048479E+02  0.7546771E-02  0.1526749E+00
         21   -1    0    0  502  501  0.00000000000E+00  0.00000000000E+00  0.88517174208E+02  0.88517174208E+02  0.00000000000E+00 0.  1.
         21   -1    0    0  503  502 -0.00000000000E+00 -0.00000000000E+00 -0.51121508057E+01  0.51121508057E+01  0.00000000000E+00 0.  1.
         21    1    1    2  503  504  0.17783060956E+02 -0.10168062129E+02  0.29082072798E+02  0.35572372744E+02  0.00000000000E+00 0.  1.
         21    1    1    2  504  501 -0.17783060956E+02  0.10168062129E+02  0.54322950604E+02  0.58056952269E+02  0.00000000000E+00 0.  1.
</event>
<event>
 4    1  0.2825993E+006  0.3991743E+02  0.7546771E-02  0.1348970E+00
         21   -1    0    0  504  501  0.00000000000E+00  0.00000000000E+00  0.40212826339E+01  0.40212826339E+01  0.00000000000E+00 0.  1.
         21   -1    0    0  503  502 -0.00000000000E+00 -0.00000000000E+00 -0.49717211678E+03  0.49717211678E+03  0.00000000000E+00 0.  1.
         21    1    1    2  503  501  0.39184957214E+02 -0.76118652198E+01 -0.35948536253E+03  0.36169479847E+03  0.00000000000E+00 0.  1.
         21    1    1    2  504  502 -0.39184957214E+02  0.76118652198E+01 -0.13366547161E+03  0.13949860094E+03  0.00000000000E+00 0.  1.
</event>
<event>
 4    1  0.2825993E+006  0.2986126E+02  0.7546771E-02  0.1420806E+00
         21   -1    0    0  503  501  0.00000000000E+00  0.00000000000E+00  0.28533414359E+03  0.28533414359E+03  0.00000000000E+00 0.  1.
         21   -1    0    0  501  502 -0.00000000000E+00 -0.00000000000E+00 -0.14604171253E+02  0.14604171253E+02  0.00000000000E+00 0.  1.
         21    1    1    2  503  504  0.27727481150E+02  0.11085195304E+02  0.26832377963E+03  0.26998026869E+03  0.00000000000E+00 0.  1.
         21    1    1    2  504  502 -0.27727481150E+02 -0.11085195304E+02  0.24061927022E+01  0.29958046151E+02  0.00000000000E+00 0.  1.
</event>
<event>
 4    1  0.2825993E+006  0.3143625E+02  0.7546771E-02  0.1407513E+00
         21   -1    0    0  503  501  0.00000000000E+00  0.00000000000E+00  0.10422882436E+03  0.10422882436E+03  0.00000000000E+00 0.  1.
         21   -1    0    0  504  502 -0.00000000000E+00 -0.00000000000E+00 -0.13593682144E+02  0.13593682144E+02  0.00000000000E+00 0.  1.
         21    1    1    2  503  502 -0.13858903124E+02 -0.28216463054E+02  0.77719415792E+02  0.83836421525E+02  0.00000000000E+00 0.  1.
         21    1    1    2  504  501  0.13858903124E+02  0.28216463054E+02  0.12915726421E+02  0.33986084977E+02  0.00000000000E+00 0.  1.
</event>
<event>
 4    1  0.2825993E+006  0.3792998E+02  0.7546771E-02  0.1361062E+00
         21   -1    0    0  504  501  0.00000000000E+00  0.00000000000E+00  0.12950884029E+03  0.12950884029E+03  0.00000000000E+00 0.  1.
         21   -1    0    0  503  502 -0.00000000000E+00 -0.00000000000E+00 -0.72335329812E+02  0.72335329812E+02  0.00000000000E+00 0. -1.
         21    1    1    2  503  501 -0.21310322792E+02  0.31377594975E+02  0.12143654546E+03  0.12722231682E+03  0.00000000000E+00 0.  1.
         21    1    1    2  504  502  0.21310322792E+02 -0.31377594975E+02 -0.64263034975E+02  0.74621853288E+02  0.00000000000E+00 0. -1.
</event>
<event>
 4    1  0.2825993E+006  0.3265841E+02  0.7546771E-02  0.1397817E+00
         21   -1    0    0  503  501  0.00000000000E+00  0.00000000000E+00  0.13217110028E+01  0.13217110028E+01  0.00000000000E+00 0.  1.
         21   -1    0    0  504  502 -0.00000000000E+00 -0.00000000000E+00 -0.19620286094E+04  0.19620286094E+04  0.00000000000E+00 0.  1.
         21    1    1    2  503  502 -0.31473053926E+02 -0.87188754056E+01 -0.17335675742E+04  0.17338751703E+04  0.00000000000E+00 0.  1.
         21    1    1    2  504  501  0.31473053926E+02  0.87188754056E+01 -0.22713932420E+03  0.22947515009E+03  0.00000000000E+00 0.  1.
</event>
<event>
 4    1  0.2825993E+006  0.2003369E+02  0.7546771E-02  0.1533521E+00
         21   -1    0    0  503  501  0.00000000000E+00  0.00000000000E+00  0.54895574505E+01  0.54895574505E+01  0.00000000000E+00 0. -1.
         21   -1    0    0  504  502 -0.00000000000E+00 -0.00000000000E+00 -0.13968590734E+03  0.13968590734E+03  0.00000000000E+00 0. -1.
         21    1    1    2  503  502 -0.19609671257E+02  0.40999500671E+01 -0.11721010974E+03  0.11890987605E+03  0.00000000000E+00 0. -1.
         21    1    1    2  504  501  0.19609671257E+02 -0.40999500671E+01 -0.16986240148E+02  0.26265588737E+02  0.00000000000E+00 0. -1.
</event>
<event>
 4    1  0.2825993E+006  0.2345169E+02  0.7546771E-02  0.1486903E+00
         21   -1    0    0  503  501  0.00000000000E+00  0.00000000000E+00  0.66422064090E+01  0.66422064090E+01  0.00000000000E+00 0. -1.
         21   -1    0    0  504  502 -0.00000000000E+00 -0.00000000000E+00 -0.45412921434E+03  0.45412921434E+03  0.00000000000E+00 0. -1.
         21    1    1    2  503  502  0.23280668879E+02 -0.28270166309E+01 -0.43207012602E+03  0.43270610738E+03  0.00000000000E+00 0. -1.
         21    1    1    2  504  501 -0.23280668879E+02  0.28270166309E+01 -0.15416881908E+02  0.28065313364E+02  0.00000000000E+00 0. -1.
</event>
<event>
 4    1  0.2825993E+006  0.2648556E+02  0.7546771E-02  0.1452845E+00
         21   -1    0    0  502  501  0.00000000000E+00  0.00000000000E+00  0.15721651923E+03  0.15721651923E+03  0.00000000000E+00 0.  1.
         21   -1    0    0  504  502 -0.00000000000E+00 -0.00000000000E+00 -0.28290914391E+02  0.28290914391E+02  0.00000000000E+00 0. -1.
         21    1    1    2  503  501  0.43730790819E+01 -0.26122044149E+02  0.14958852922E+03  0.15191515095E+03  0.00000000000E+00 0.  1.
         21    1    1    2  504  503 -0.43730790819E+01  0.26122044149E+02 -0.20662924386E+02  0.33592282676E+02  0.00000000000E+00 0. -1.
</event>
<event>
 4    1  0.2825993E+006  0.2139111E+02  0.7546771E-02  0.1513753E+00
         21   -1    0    0  504  501  0.00000000000E+00  0.00000000000E+00  0.12508595805E+02  0.12508595805E+02  0.00000000000E+00 0.  1.
         21   -1    0    0  503  502 -0.00000000000E+00 -0.00000000000E+00 -0.24232291596E+03  0.24232291596E+03  0.00000000000E+00 0. -1.
         21    1    1    2  503  501 -0.19075600684E+02 -0.96799366200E+01 -0.23231228308E+03  0.23329504192E+03  0.00000000000E+00 0. -1.
         21    1    1    2  504  502  0.19075600684E+02  0.96799366200E+01  0.24979629287E+01  0.21536469841E+02  0.00000000000E+00 0.  1.
</event>
<event>
 4    1  0.2825993E+006  0.2205501E+02  0.7546771E-02  0.1504718E+00
         21   -1    0    0  502  501  0.00000000000E+00  0.00000000000E+00  0.24435929122E+02  0.24435929122E+02  0.00000000000E+00 0.  1.
         21   -1    0    0  504  502 -0.00000000000E+00 -0.00000000000E+00 -0.14481349181E+03  0.14481349181E+03  0.00000000000E+00 0. -1.
         21    1    1    2  503  501  0.21542138828E+02  0.47286184328E+01  0.18404747049E+02  0.28725568602E+02  0.00000000000E+00 0.  1.
         21    1    1    2  504  503 -0.21542138828E+02 -0.47286184328E+01 -0.13878230974E+03  0.14052385233E+03  0.00000000000E+00 0. -1.
</event>
<event>
 4    1  0.2825993E+006  0.4739481E+02  0.7546771E-02  0.1309881E+00
         21   -1    0    0  503  501  0.00000000000E+00  0.00000000000E+00  0.17418217687E+03  0.17418217687E+03  0.00000000000E+00 0. -1.
         21   -1    0    0  504  502 -0.00000000000E+00 -0.00000000000E+00 -0.14137162882E+02  0.14137162882E+02  0.00000000000E+00 0.  1.
         21    1    1    2  503  502  0.46984101056E+02 -0.62259455913E+01  0.10792116557E+03  0.11786961495E+03  0.00000000000E+00 0. -1.
         21    1    1    2  504  501 -0.46984101056E+02  0.62259455913E+01  0.52123848414E+02  0.70449724797E+02  0.00000000000E+00 0.  1.
</event>
<event>
 4    1  0.2825993E+006  0.2422161E+02  0.7546771E-02  0.1477703E+00
         21   -1    0    0  504  501  0.00000000000E+00  0.00000000000E+00  0.42954304362E+01  0.42954304362E+01  0.00000000000E+00 0.  1.
         21   -1    0    0  503  502 -0.00000000000E+00 -0.00000000000E+00 -0.17840247393E+03  0.17840247393E+03  0.00000000000E+00 0.  1.
         21    1    1    2  503  501  0.95210178469E+01  0.22271883064E+02 -0.13128055889E+03  0.13349633590E+03  0.00000000000E+00 0.  1.
         21    1    1    2  504  502 -0.95210178469E+01 -0.22271883064E+02 -0.42826484603E+02  0.49201568466E+02  0.00000000000E+00 0.  1.
</event>
<event>
 4    1  0.2825993E+006  0.2285931E+02  0.7546771E-02  0.1494272E+00
         21   -1    0    0  504  501  0.00000000000E+00  0.00000000000E+00  0.94856723521E+02  0.94856723521E+02  0.00000000000E+00 0. -1.
         21   -1    0    0  501  502 -0.00000000000E+00 -0.00000000000E+00 -0.81412895606E+01  0.81412895606E+01  0.00000000000E+00 0. -1.
         21    1    1    2  503  502 -0.14363143025E+02  0.17783370914E+02  0.14073452067E+02  0.26844183946E+02  0.00000000000E+00 0. -1.
         21    1    1    2  504  503  0.14363143025E+02 -0.17783370914E+02  0.72641981893E+02  0.76153829135E+02  0.00000000000E+00 0. -1.
</event>
<event>
 4    1  0.2825993E+006  0.2153248E+02  0.7546771E-02  0.1511796E+00
         21   -1    0    0  502  501  0.00000000000E+00  0.00000000000E+00  0.18876479735E+02  0.18876479735E+02  0.00000000000E+00 0. -1.
         21   -1    0    0  503  502 -0.00000000000E+00 -0.00000000000E+00 -0.70323780687E+02  0.70323780687E+02  0.00000000000E+00 0. -1.
         21    1    1    2  503  504 -0.75807316106E+01  0.20153913242E+02 -0.61701530572E+02  0.65350796366E+02  0.00000000000E+00 0. -1.
         21    1    1    2  504  501  0.75807316106E+01 -0.20153913242E+02  0.10254229620E+02  0.23849464057E+02  0.00000000000E+00 0. -1.
</event>
<event>
 4    1  0.2825993E+006  0.2337603E+02  0.7546771E-02  0.1487830E+00
         21   -1    0    0  503  501  0.00000000000E+00  0.00000000000E+00  0.10962155432E+02  0.10962155432E+02  0.00000000000E+00 0.  1.
         21   -1    0    0  504  502 -0.00000000000E+00 -0.00000000000E+00 -0.76000782744E+02  0.76000782744E+02  0.00000000000E+00 0.  1.
         21    1    1    2  503  502  0.11572733300E+01  0.23347361235E+02 -0.58026137084E+02  0.62557742471E+02  0.00000000000E+00 0.  1.
         21    1    1    2  504  501 -0.11572733300E+01 -0.23347361235E+02 -0.70124902275E+01  0.24405195704E+02  0.00000000000E+00 0.  1.
</event>
<event>
 4    1  0.2825993E+006  0.2071721E+02  0.7546771E-02  0.1523341E+00
         21   -1    0    0  503  501  0.00000000000E+00  0.00000000000E+00  0.54938710493E+02  0.54938710493E+02  0.00000000000E+00 0.  1.
         21   -1    0    0  504  502 -0.00000000000E+00 -0.00000000000E+00 -0.18359826025E+03  0.18359826025E+03  0.00000000000E+00 0. -1.
         21    1    1    2  503  502 -0.11406194329E+02  0.17294552581E+02 -0.18103314584E+03  0.18221471596E+03  0.00000000000E+00 0. -1.
         21    1    1    2  504  501  0.11406194329E+02 -0.17294552581E+02  0.52373596081E+02  0.56322254789E+02  0.00000000000E+00 0.  1.
</event>
<event>
 4    1  0.2825993E+006  0.2219525E+02  0.7546771E-02  0.1502858E+00
         21   -1    0    0  504  501  0.00000000000E+00  0.00000000000E+00  0.12574509064E+02  0.12574509064E+02  0.00000000000E+00 0. -1.
         21   -1    0    0  501  502 -0.00000000000E+00 -0.00000000000E+00 -0.13867500411E+03  0.13867500411E+03  0.00000000000E+00 0. -1.
         21    1    1    2  503  502  0.21263014222E+02 -0.63650100292E+01 -0.12710811841E+03  0.12903140274E+03  0.00000000000E+00 0. -1.
         21    1    1    2  504  503 -0.21263014222E+02  0.63650100292E+01  0.10076233665E+01  0.22218110435E+02  0.00000000000E+00 0. -1.
</event>
<event>
 4    1  0.2825993E+006  0.2063499E+02  0.7546771E-02  0.1524541E+00
         21   -1    0    0  502  501  0.00000000000E+00  0.00000000000E+00  0.36966161056E+02  0.36966161056E+02  0.00000000000E+00 0. -1.
         21   -1    0    0  504  502 -0.00000000000E+00 -0.00000000000E+00 -0.12623795384E+03  0.12623795384E+03  0.00000000000E+00 0.  1.
         21    1    1    2  503  501  0.16999943347E+02  0.11696350541E+02  0.33154191673E+02  0.39051288266E+02  0.00000000000E+00 0. -1.
         21    1    1    2  504  503 -0.16999943347E+02 -0.11696350541E+02 -0.12242598445E+03  0.12415282663E+03  0.00000000000E+00 0.  1.
</event>
<event>
 4    1  0.2825993E+006  0.3739144E+02  0.7546771E-02  0.1364489E+00
         21   -1    0    0  502  501  0.00000000000E+00  0.00000000000E+00  0.38010877112E+03  0.38010877112E+03  0.00000000000E+00 0. -1.
         21   -1    0    0  503  502 -0.00000000000E+00 -0.00000000000E+00 -0.13505081495E+02  0.13505081495E+02  0.00000000000E+00 0. -1.
         21    1    1    2  503  504  0.22674127922E+02 -0.29732205282E+02  0.15421675166E+02  0.40446856156E+02  0.00000000000E+00 0. -1.
         21    1    1    2  504  501 -0.22674127922E+02  0.29732205282E+02  0.35118201446E+03  0.35316699646E+03  0.00000000000E+00 0. -1.
</event>
<event>
 4    1  0.2825993E+006  0.2006269E+02  0.7546771E-02  0.1533080E+00
         21   -1    0    0  504  501  0.00000000000E+00  0.00000000000E+00  0.22732886350E+03  0.22732886350E+03  0.00000000000E+00 0. -1.
         21   -1    0    0  503  502 -0.00000000000E+00 -0.00000000000E+00 -0.27961414085E+02  0.27961414085E+02  0.00000000000E+00 0. -1.
         21    1    1    2  503  501  0.12376346453E+02 -0.15790423344E+02  0.22322130942E+03  0.22412109316E+03  0.00000000000E+00 0. -1.
         21    1    1    2  504  502 -0.12376346453E+02  0.15790423344E+02 -0.23853860001E+02  0.31169184427E+02  0.00000000000E+00 0. -1.
</event>
<event>
 4    1  0.2825993E+006  0.2019065E+02  0.7546771E-02  0.1531141E+00
         21   -1    0    0  504  501  0.00000000000E+00  0.00000000000E+00  0.54746317586E+02  0.54746317586E+02  0.00000000000E+00 0. -1.
         21   -1    0    0  501  502 -0.00000000000E+00 -0.00000000000E+00 -0.19221357045E+03  0.19221357045E+03  0.00000000000E+00 0. -1.
         21    1    1    2  503  502 -0.15231235456E+02  0.13254118830E+02 -0.18979812892E+03  0.19086904396E+03  0.00000000000E+00 0. -1.
         21    1    1    2  504  503  0.15231235456E+02 -0.13254118830E+02  0.52330876062E+02  0.56090844073E+02  0.00000000000E+00 0. -1.
</event>
<event>
 4    1  0.2825993E+006  0.3184488E+02  0.7546771E-02  0.1404214E+00
         21   -1    0    0  504  501  0.00000000000E+00  0.00000000000E+00  0.58737274776E+01  0.58737274776E+01  0.00000000000E+00 0. -1.
         21   -1    0    0  503  502 -0.00000000000E+00 -0.00000000000E+00 -0.28445096471E+03  0.28445096471E+03  0.00000000000E+00 0. -1.
         21    1    1    2  503  501 -0.18446101625E+02 -0.25958381460E+02 -0.48281790156E+02  0.57837941646E+02  0.00000000000E+00 0. -1.
         21    1    1    2  504  502  0.18446101625E+02  0.25958381460E+02 -0.23029544707E+03  0.23248675054E+03  0.00000000000E+00 0. -1.
</event>
<event>
 4    1  0.2825993E+006  0.2446101E+02  0.7546771E-02  0.1474924E+00
         21   -1    0    0  503  501  0.00000000000E+00  0.00000000000E+00  0.21128163805E+02  0.21128163805E+02  0.00000000000E+00 0.  1.
         21   -1    0    0  504  502 -0.00000000000E+00 -0.00000000000E+00 -0.68075545584E+03  0.68075545584E+03  0.00000000000E+00 0.  1.
         21    1    1    2  503  502  0.72479884450E+01  0.23362531550E+02 -0.67337828271E+03  0.67382241937E+03  0.00000000000E+00 0.  1.
         21    1    1    2  504  501 -0.72479884450E+01 -0.23362531550E+02  0.13750990670E+02  0.28061200283E+02  0.00000000000E+00 0.  1.
</event>
<event>
 4    1  0.2825993E+006  0.3216552E+02  0.7546771E-02  0.1401666E+00
         21   -1    0    0  503  501  0.00000000000E+00  0.00000000000E+00  0.96026833813E+01  0.96026833813E+01  0.00000000000E+00 0.  1.
         21   -1    0    0  504  502 -0.00000000000E+00 -0.00000000000E+00 -0.10897726604E+03  0.10897726604E+03  0.00000000000E+00 0.  1.
         21    1    1    2  503  502 -0.10198563573E+02  0.30505900372E+02 -0.55997457096E+02  0.64578137614E+02  0.00000000000E+00 0.  1.
         21    1    1    2  504  501  0.10198563573E+02 -0.30505900372E+02 -0.43377125566E+02  0.54001811811E+02  0.00000000000E+00 0.  1.
</event>
<event>
 4    1  0.2825993E+006  0.2075013E+02  0.7546771E-02  0.1522863E+00
         21   -1    0    0  503  501  0.00000000000E+00  0.00000000000E+00  0.50519535018E+02  0.50519535018E+02  0.00000000000E+00 0.  1.
         21   -1    0    0  504  502 -0.00000000000E+00 -0.00000000000E+00 -0.16284604554E+03  0.16284604554E+03  0.00000000000E+00 0. -1.
         21    1    1    2  503  502 -0.14756075935E+02  0.14588554484E+02  0.47690316430E+02  0.52008979803E+02  0.00000000000E+00 0.  1.
         21    1    1    2  504  501  0.14756075935E+02 -0.14588554484E+02 -0.16001682696E+03  0.16135660076E+03  0.00000000000E+00 0. -1.
</event>
<event>
 4    1  0.2825993E+006  0.2424047E+02  0.7546771E-02  0.1477483E+00
         21   -1    0    0  503  501  0.00000000000E+00  0.00000000000E+00  0.10201209076E+03  0.10201209076E+03  0.00000000000E+00 0.  1.
         21   -1    0    0  504  502 -0.00000000000E+00 -0.00000000000E+00 -0.79017724661E+01  0.79017724661E+01  0.00000000000E+00 0. -1.
         21    1    1    2  503  502 -0.13260498954E+02  0.20291857110E+02  0.18443944673E+02  0.30459471312E+02  0.00000000000E+00 0. -1.
         21    1    1    2  504  501  0.13260498954E+02 -0.20291857110E+02  0.75666373617E+02  0.79454391910E+02  0.00000000000E+00 0.  1.
</event>
<event>
 4    1  0.2825993E+006  0.4273006E+02  0.7546771E-02  0.1333190E+00
         21   -1    0    0  504  501  0.00000000000E+00  0.00000000000E+00  0.10359773713E+03  0.10359773713E+03  0.00000000000E+00 0.  1.
         21   -1    0    0  501  502 -0.00000000000E+00 -0.00000000000E+00 -0.44782143497E+02  0.44782143497E+02  0.00000000000E+00 0. -1.
         21    1    1    2  503  502  0.11991450755E+02 -0.41012965733E+02 -0.28367027009E+02  0.51288853280E+02  0.00000000000E+00 0. -1.
         21    1    1    2  504  503 -0.11991450755E+02  0.41012965733E+02  0.87182620639E+02  0.97091027345E+02  0.00000000000E+00 0.  1.
</event>
<event>
 4    1  0.2825993E+006  0.2641293E+02  0.7546771E-02  0.1453596E+00
         21   -1    0    0  503  501  0.00000000000E+00  0.00000000000E+00  0.56672285800E+01  0.56672285800E+01  0.00000000000E+00 0.  1.
         21   -1    0    0  504  502 -0.00000000000E+00 -0.00000000000E+00 -0.20830901896E+03  0.20830901896E+03  0.00000000000E+00 0.  1.
         21    1    1    2  503  502 -0.15324546857E+02  0.21512815078E+02 -0.16974688993E+03  0.17178955030E+03  0.00000000000E+00 0.  1.
         21    1    1    2  504  501  0.15324546857E+02 -0.21512815078E+02 -0.32894900447E+02  0.42186697244E+02  0.00000000000E+00 0.  1.
</event>
<event>
 4    1  0.2825993E+006  0.4345572E+02  0.7546771E-02  0.1329344E+00
         21   -1    0    0  504  501  0.00000000000E+00  0.00000000000E+00  0.58079214475E+02  0.58079214475E+02  0.00000000000E+00 0. -1.
         21   -1    0    0  503  502 -0.00000000000E+00 -0.00000000000E+00 -0.37662062069E+02  0.37662062069E+02  0.00000000000E+00 0.  1.
         21    1    1    2  503  501 -0.79954997478E+01  0.42713838377E+02 -0.74896618966E+01  0.44096428886E+02  0.00000000000E+00 0.  1.
         21    1    1    2  504  502  0.79954997478E+01 -0.42713838377E+02  0.27906814303E+02  0.51644847658E+02  0.00000000000E+00 0. -1.
</event>
<event>
 4    1  0.2825993E+006  0.2392495E+02  0.7546771E-02  0.1481199E+00
         21   -1    0    0  504  501  0.00000000000E+00  0.00000000000E+00  0.17048243228E+03  0.17048243228E+03  0.00000000000E+00 0.  1.
         21   -1    0    0  503  502 -0.00000000000E+00 -0.00000000000E+00 -0.10115847790E+04  0.10115847790E+04  0.00000000000E+00 0.  1.
         21    1    1    2  503  501 -0.15964396305E+02  0.17819685457E+02  0.16950076779E+03  0.17118093766E+03  0.00000000000E+00 0.  1.
         21    1    1    2  504  502  0.15964396305E+02 -0.17819685457E+02 -0.10106031145E+04  0.10108862736E+04  0.00000000000E+00 0.  1.
</event>
<event>
 4    1  0.2825993E+006  0.4693386E+02  0.7546771E-02  0.1312043E+00
         21   -1    0    0  504  501  0.00000000000E+00  0.00000000000E+00  0.11401964333E+03  0.11401964333E+03  0.00000000000E+00 0. -1.
         21   -1    0    0  503  502 -0.00000000000E+00 -0.00000000000E+00 -0.22006737863E+02  0.22006737863E+02  0.00000000000E+00 0.  1.
         21    1    1    2  503  501 -0.40872403245E+02  0.23070185173E+02  0.69773733738E+02  0.84090193903E+02  0.00000000000E+00 0. -1.
         21    1    1    2  504  502  0.40872403245E+02 -0.23070185173E+02  0.22239171729E+02  0.51936187289E+02  0.00000000000E+00 0.  1.
</event>
<event>
 4    1  0.2825993E+006  0.2501973E+02  0.7546771E-02  0.1468583E+00
         21   -1    0    0  504  501  0.00000000000E+00  0.00000000000E+00  0.23665176550E+02  0.23665176550E+02  0.00000000000E+00 0.  1.
         21   -1    0    0  501  502 -0.00000000000E+00 -0.00000000000E+00 -0.33735589554E+03  0.33735589554E+03  0.00000000000E+00 0.  1.
         21    1    1    2  503  502 -0.22276105857E+02  0.11391308939E+02 -0.33013460732E+03  0.33108132802E+03  0.00000000000E+00 0.  1.
         21    1    1    2  504  503  0.22276105857E+02 -0.11391308939E+02  0.16443888332E+02  0.29939744070E+02  0.00000000000E+00 0.  1.
</event>
<event>
 4    1  0.2825993E+006  0.2125867E+02  0.7546771E-02  0.1515604E+00
         21   -1    0    0  503  501  0.00000000000E+00  0.00000000000E+00  0.15500872030E+02  0.15500872030E+02  0.00000000000E+00 0.  1.
         21   -1    0    0  501  502 -0.00000000000E+00 -0.00000000000E+00 -0.25064772494E+03  0.25064772494E+03  0.00000000000E+00 0. -1.
         21    1    1    2  503  504  0.30424269509E+01  0.21039837289E+02  0.75221155614E+01  0.22550240296E+02  0.00000000000E+00 0.  1.
         21    1    1    2  504  502 -0.30424269509E+01 -0.21039837289E+02 -0.24266896847E+03  0.24359835667E+03  0.00000000000E+00 0. -1.
</event>
<event>
 4    1  0.2825993E+006  0.2817328E+02  0.7546771E-02  0.1436165E+00
         21   -1    0    0  504  501  0.00000000000E+00  0.00000000000E+00  0.21924140459E+03  0.21924140459E+03  0.00000000000E+00 0. -1.
         21   -1    0    0  501  502 -0.00000000000E+00 -0.00000000000E+00 -0.18934116752E+03  0.18934116752E+03  0.00000000000E+00 0.  1.
         21    1    1    2  503  502  0.27654130702E+02 -0.53835670621E+01 -0.18737862928E+03  0.18948478686E+03  0.00000000000E+00 0.  1.
         21    1    1    2  504  503 -0.27654130702E+02  0.53835670621E+01  0.21727886635E+03  0.21909778525E+03  0.00000000000E+00 0. -1.
</event>
<event>
 4    1  0.2825993E+006  0.2539873E+02  0.7546771E-02  0.1464392E+00
         21   -1    0    0  504  501  0.00000000000E+00  0.00000000000E+00  0.64524531084E+02  0.64524531084E+02  0.00000000000E+00 0.  1.
         21   -1    0    0  503  502 -0.00000000000E+00 -0.00000000000E+00 -0.60449016622E+02  0.60449016622E+02  0.00000000000E+00 0. -1.
         21    1    1    2  503  501 -0.13518685733E+02  0.21502106491E+02  0.59123786026E+02  0.64348407297E+02  0.00000000000E+00 0.  1.
         21    1    1    2  504  502  0.13518685733E+02 -0.21502106491E+02 -0.55048271565E+02  0.60625140410E+02  0.00000000000E+00 0. -1.
</event>
<event>
 4    1  0.2825993E+006  0.2638364E+02  0.7546771E-02  0.1453900E+00
         21   -1    0    0  502  501  0.00000000000E+00  0.00000000000E+00  0.70543892517E+02  0.70543892517E+02  0.00000000000E+00 0. -1.
         21   -1    0    0  504  502 -0.00000000000E+00 -0.00000000000E+00 -0.12567681575E+03  0.12567681575E+03  0.00000000000E+00 0.  1.
         21    1    1    2  503  501 -0.18989006490E+02  0.18317049863E+02  0.66613580138E+02  0.71648208226E+02  0.00000000000E+00 0. -1.
         21    1    1    2  504  503  0.18989006490E+02 -0.18317049863E+02 -0.12174650337E+03  0.12457250004E+03  0.00000000000E+00 0.  1.
</event>
<event>
 4    1  0.2825993E+006  0.3033398E+02  0.7546771E-02  0.1416716E+00
         21   -1    0    0  504  501  0.00000000000E+00  0.00000000000E+00  0.98079834798E+01  0.98079834798E+01  0.00000000000E+00 0. -1.
         21   -1    0    0  503  502 -0.00000000000E+00 -0.00000000000E+00 -0.15752889751E+03  0.15752889751E+03  0.00000000000E+00 0. -1.
         21    1    1    2  503  501  0.29853594288E+02  0.53771323637E+01 -0.20650422020E+02  0.36695920400E+02  0.00000000000E+00 0. -1.
         21    1    1    2  504  502 -0.29853594288E+02 -0.53771323637E+01 -0.12707049201E+03  0.13064096059E+03  0.00000000000E+00 0. -1.
</event>
<event>
 4    1  0.2825993E+006  0.2742666E+02  0.7546771E-02  0.1443369E+00
         21   -1    0    0  504  501  0.00000000000E+00  0.00000000000E+00  0.26130676602E+03  0.26130676602E+03  0.00000000000E+00 0.  1.
         21   -1    0    0  503  502 -0.00000000000E+00 -0.00000000000E+00 -0.12651576708E+02  0.12651576708E+02  0.00000000000E+00 0. -1.
         21    1    1    2  503  501  0.26632659186E+02  0.65515783970E+01  0.39367131628E+01  0.27707750276E+02  0.00000000000E+00 0. -1.
         21    1    1    2  504  502 -0.26632659186E+02 -0.65515783970E+01  0.24471847615E+03  0.24625059245E+03  0.00000000000E+00 0.  1.
</event>
<event>
 4    1  0.2825993E+006  0.2320237E+02  0.7546771E-02  0.1489972E+00
         21   -1    0    0  502  501  0.00000000000E+00  0.00000000000E+00  0.30964005790E+01  0.30964005790E+01  0.00000000000E+00 0.  1.
         21   -1    0    0  504  502 -0.00000000000E+00 -0.00000000000E+00 -0.20037445743E+03  0.20037445743E+03  0.00000000000E+00 0.  1.
         21    1    1    2  503  501  0.15585986437E+02 -0.17187991567E+02 -0.61633515226E+02  0.65856208716E+02  0.00000000000E+00 0.  1.
         21    1    1    2  504  503 -0.15585986437E+02  0.17187991567E+02 -0.13564454162E+03  0.13761464929E+03  0.00000000000E+00 0.  1.
</event>
<event>
 4    1  0.2825993E+006  0.2428949E+02  0.7546771E-02  0.1476911E+00
         21   -1    0    0  502  501  0.00000000000E+00  0.00000000000E+00  0.71873156080E+02  0.71873156080E+02  0.00000000000E+00 0.  1.
         21   -1    0    0  503  502 -0.00000000000E+00 -0.00000000000E+00 -0.70533856482E+02  0.70533856482E+02  0.00000000000E+00 0.  1.
         21    1    1    2  503  504  0.14497823507E+02 -0.19488267859E+02 -0.66262462438E+02  0.70574027793E+02  0.00000000000E+00 0.  1.
         21    1    1    2  504  501 -0.14497823507E+02  0.19488267859E+02  0.67601762035E+02  0.71832984769E+02  0.00000000000E+00 0.  1.
</event>
<event>
 4    1  0.2825993E+006  0.2327536E+02  0.7546771E-02  0.1489069E+00
         21   -1    0    0  503  501  0.00000000000E+00  0.00000000000E+00  0.20014317716E+02  0.20014317716E+02  0.00000000000E+00 0.  1.
         21   -1    0    0  504  502 -0.00000000000E+00 -0.00000000000E+00 -0.19098919534E+03  0.19098919534E+03  0.00000000000E+00 0.  1.
         21    1    1    2  503  502  0.19779162468E+02  0.12268946136E+02  0.12252754624E+02  0.26303465610E+02  0.00000000000E+00 0.  1.
         21    1    1    2  504  501 -0.19779162468E+02 -0.12268946136E+02 -0.18322763225E+03  0.18470004745E+03  0.00000000000E+00 0.  1.
</event>
<event>
 4    1  0.2825993E+006  0.3069750E+02  0.7546771E-02  0.1413630E+00
         21   -1    0    0  504  501  0.00000000000E+00  0.00000000000E+00  0.49071505441E+02  0.49071505441E+02  0.00000000000E+00 0. -1.
         21   -1    0    0  503  502 -0.00000000000E+00 -0.00000000000E+00 -0.29871281857E+02  0.29871281857E+02  0.00000000000E+00 0. -1.
         21    1    1    2  503  501 -0.27734857218E+02 -0.13157279697E+02 -0.13988156229E+02  0.33734327155E+02  0.00000000000E+00 0. -1.
         21    1    1    2  504  502  0.27734857218E+02  0.13157279697E+02  0.33188379813E+02  0.45208460143E+02  0.00000000000E+00 0. -1.
</event>
<event>
 4    1  0.2825993E+006  0.2063662E+02  0.7546771E-02  0.1524517E+00
         21   -1    0    0  504  501  0.00000000000E+00  0.00000000000E+00  0.10872852648E+03  0.10872852648E+03  0.00000000000E+00 0.  1.
         21   -1    0    0  503  502 -0.00000000000E+00 -0.00000000000E+00 -0.40467253783E+01  0.40467253783E+01  0.00000000000E+00 0.  1.
         21    1    1    2  503  501 -0.19957234487E+01 -0.20539890840E+02  0.42237999179E+02  0.47009771351E+02  0.00000000000E+00 0.  1.
         21    1    1    2  504  502  0.19957234487E+01  0.20539890840E+02  0.62443801923E+02  0.65765480508E+02  0.00000000000E+00 0.  1.
</event>
<event>
 4    1  0.2825993E+006  0.2661000E+02  0.7546771E-02  0.1451565E+00
         21   -1    0    0  504  501  0.00000000000E+00  0.00000000000E+00  0.70058972291E+02  0.70058972291E+02  0.00000000000E+00 0. -1.
         21   -1    0    0  503  502 -0.00000000000E+00 -0.00000000000E+00 -0.93507057426E+02  0.93507057426E+02  0.00000000000E+00 0.  1.
         21    1    1    2  503  501 -0.20469284677E+02  0.17002962953E+02 -0.88960769388E+02  0.92855322166E+02  0.00000000000E+00 0.  1.
         21    1    1    2  504  502  0.20469284677E+02 -0.17002962953E+02  0.65512684253E+02  0.70710707551E+02  0.00000000000E+00 0. -1.
</event>
<event>
 4    1  0.2825993E+006  0.2810263E+02  0.7546771E-02  0.1436836E+00
         21   -1    0    0  503  501  0.00000000000E+00  0.00000000000E+00  0.91480791407E+01  0.91480791407E+01  0.00000000000E+00 0.  1.
         21   -1    0    0  504  502 -0.00000000000E+00 -0.00000000000E+00 -0.51038338419E+03  0.51038338419E+03  0.00000000000E+00 0.  1.
         21    1    1    2  503  502  0.27486577764E+02 -0.58520009829E+01 -0.13838410314E+02  0.31325061416E+02  0.00000000000E+00 0.  1.
         21    1    1    2  504  501 -0.27486577764E+02  0.58520009829E+01 -0.48739689473E+03  0.48820640191E+03  0.00000000000E+00 0.  1.
</event>
<event>
 4    1  0.2825993E+006  0.2509660E+02  0.7546771E-02  0.1467726E+00
         21   -1    0    0  503  501  0.00000000000E+00  0.00000000000E+00  0.53623804844E+02  0.53623804844E+02  0.00000000000E+00 0.  1.
         21   -1    0    0  504  502 -0.00000000000E+00 -0.00000000000E+00 -0.13280774744E+02  0.13280774744E+02  0.00000000000E+00 0.  1.
         21    1    1    2  503  502  0.19496426003E+02  0.15802799721E+02  0.31545308453E+02  0.40310613879E+02  0.00000000000E+00 0.  1.
         21    1    1    2  504  501 -0.19496426003E+02 -0.15802799721E+02  0.87977216473E+01  0.26593965709E+02  0.00000000000E+00 0.  1.
</event>
<event>
 4    1  0.2825993E+006  0.3412851E+02  0.7546771E-02  0.1386796E+00
         21   -1    0    0  504  501  0.00000000000E+00  0.00000000000E+00  0.69954621458E+03  0.69954621458E+03  0.00000000000E+00 0. -1.
         21   -1    0    0  503  502 -0.00000000000E+00 -0.00000000000E+00 -0.24999976387E+01  0.24999976387E+01  0.00000000000E+00 0. -1.
         21    1    1    2  503  501 -0.11002981618E+01 -0.34110764685E+02  0.14565927185E+03  0.14960407214E+03  0.00000000000E+00 0. -1.
         21    1    1    2  504  502  0.11002981618E+01  0.34110764685E+02  0.55138694509E+03  0.55244214008E+03  0.00000000000E+00 0. -1.
</event>
<event>
 4    1  0.2825993E+006  0.2179889E+02  0.7546771E-02  0.1508158E+00
         21   -1    0    0  504  501  0.00000000000E+00  0.00000000000E+00  0.23999492479E+02  0.23999492479E+02  0.00000000000E+00 0. -1.
         21   -1    0    0  501  502 -0.00000000000E+00 -0.00000000000E+00 -0.20676668669E+02  0.20676668669E+02  0.00000000000E+00 0.  1.
         21    1    1    2  503  502  0.17196064239E+02 -0.13397268577E+02  0.62608845587E+01  0.22680169887E+02  0.00000000000E+00 0. -1.
         21    1    1    2  504  503 -0.17196064239E+02  0.13397268577E+02 -0.29380607487E+01  0.21995991262E+02  0.00000000000E+00 0.  1.
</event>
<event>
 4    1  0.2825993E+006  0.2104675E+02  0.7546771E-02  0.1518598E+00
         21   -1    0    0  503  501  0.00000000000E+00  0.00000000000E+00  0.18562606263E+03  0.18562606263E+03  0.00000000000E+00 0.  1.
         21   -1    0    0  501  502 -0.00000000000E+00 -0.00000000000E+00 -0.34546141365E+01  0.34546141365E+01  0.00000000000E+00 0.  1.
         21    1    1    2  503  504  0.13873645916E+02  0.15826795722E+02  0.14365842070E+03  0.14519196724E+03  0.00000000000E+00 0.  1.
         21    1    1    2  504  502 -0.13873645916E+02 -0.15826795722E+02  0.38513027791E+02  0.43888709521E+02  0.00000000000E+00 0.  1.
</event>
<event>
 4    1  0.2825993E+006  0.2197593E+02  0.7546771E-02  0.1505774E+00
         21   -1    0    0  502  501  0.00000000000E+00  0.00000000000E+00  0.40075042141E+02  0.40075042141E+02  0.00000000000E+00 0. -1.
         21   -1    0    0  504  502 -0.00000000000E+00 -0.00000000000E+00 -0.16873801371E+02  0.16873801371E+02  0.00000000000E+00 0. -1.
         21    1    1    2  503  501 -0.93937949958E+01 -0.19867012504E+02  0.26823655137E+02  0.34676361475E+02  0.00000000000E+00 0. -1.
         21    1    1    2  504  503  0.93937949958E+01  0.19867012504E+02 -0.36224143665E+01  0.22272482037E+02  0.00000000000E+00 0. -1.
</event>
<event>
 4    1  0.2825993E+006  0.2244683E+02  0.7546771E-02  0.1499564E+00
         21   -1    0    0  504  501  0.00000000000E+00  0.00000000000E+00  0.13620169898E+02  0.13620169898E+02  0.00000000000E+00 0. -1.
         21   -1    0    0  503  502 -0.00000000000E+00 -0.00000000000E+00 -0.53525949930E+03  0.53525949930E+03  0.00000000000E+00 0. -1.
         21    1    1    2  503  501 -0.21011908213E+02  0.78968148587E+01 -0.52560596568E+03  0.52608506073E+03  0.00000000000E+00 0. -1.
         21    1    1    2  504  502  0.21011908213E+02 -0.78968148587E+01  0.39666362767E+01  0.22794608464E+02  0.00000000000E+00 0. -1.
</event>
<event>
 4    1  0.2825993E+006  0.2174345E+02  0.7546771E-02  0.1508910E+00
         21   -1    0    0  504  501  0.00000000000E+00  0.00000000000E+00  0.84025087118E+02  0.84025087118E+02  0.00000000000E+00 0. -1.
         21   -1    0    0  503  502 -0.00000000000E+00 -0.00000000000E+00 -0.11925582053E+03  0.11925582053E+03  0.00000000000E+00 0.  1.
         21    1    1    2  503  501 -0.13100522668E+02 -0.17353782539E+02  0.81598362368E+02  0.84445664209E+02  0.00000000000E+00 0. -1.
         21    1    1    2  504  502  0.13100522668E+02  0.17353782539E+02 -0.11682909578E+03  0.11883524344E+03  0.00000000000E+00 0.  1.
</event>
<event>
 4    1  0.2825993E+006  0.3269263E+02  0.7546771E-02  0.1397553E+00
         21   -1    0    0  504  501  0.00000000000E+00  0.00000000000E+00  0.12406175627E+03  0.12406175627E+03  0.00000000000E+00 0. -1.
         21   -1    0    0  503  502 -0.00000000000E+00 -0.00000000000E+00 -0.22285157338E+02  0.22285157338E+02  0.00000000000E+00 0. -1.
         21    1    1    2  503  501 -0.30646355194E+02  0.11384579536E+02 -0.64217080177E+01  0.33317353913E+02  0.00000000000E+00 0. -1.
         21    1    1    2  504  502  0.30646355194E+02 -0.11384579536E+02  0.10819830695E+03  0.11302955969E+03  0.00000000000E+00 0. -1.
</event>
<event>
 4    1  0.2825993E+006  0.2535463E+02  0.7546771E-02  0.1464875E+00
         21   -1    0    0  503  501  0.00000000000E+00  0.00000000000E+00  0.15596758900E+02  0.15596758900E+02  0.00000000000E+00 0. -1.
         21   -1    0    0  504  502 -0.00000000000E+00 -0.00000000000E+00 -0.71214250639E+02  0.71214250639E+02  0.00000000000E+00 0. -1.
         21    1    1    2  503  502  0.24698701727E+02  0.57298804385E+01  0.36206821514E+00  0.25357217715E+02  0.00000000000E+00 0. -1.
         21    1    1    2  504  501 -0.24698701727E+02 -0.57298804385E+01 -0.55979559954E+02  0.61453791824E+02  0.00000000000E+00 0. -1.
</event>
<event>
 4    1  0.2825993E+006  0.2386897E+02  0.7546771E-02  0.1481865E+00
         21   -1    0    0  503  501  0.00000000000E+00  0.00000000000E+00  0.71164510673E+01  0.71164510673E+01  0.00000000000E+00 0.  1.
         21   -1    0    0  504  502 -0.00000000000E+00 -0.00000000000E+00 -0.80311349053E+02  0.80311349053E+02  0.00000000000E+00 0. -1.
         21    1    1    2  503  502 -0.18417941170E+01  0.23797804798E+02 -0.34141464154E+02  0.41657739898E+02  0.00000000000E+00 0. -1.
         21    1    1    2  504  501  0.18417941170E+01 -0.23797804798E+02 -0.39053433832E+02  0.45770060223E+02  0.00000000000E+00 0.  1.
</event>
<event>
 4    1  0.2825993E+006  0.2123778E+02  0.7546771E-02  0.1515897E+00
         21   -1    0    0  502  501  0.00000000000E+00  0.00000000000E+00  0.72739863719E+03  0.72739863719E+03  0.00000000000E+00 0. -1.
         21   -1    0    0  503  502 -0.00000000000E+00 -0.00000000000E+00 -0.16737179282E+01  0.16737179282E+01  0.00000000000E+00 0. -1.
         21    1    1    2  503  504  0.70294114009E+00 -0.21226143489E+02  0.73630832443E+02  0.76632517771E+02  0.00000000000E+00 0. -1.
         21    1    1    2  504  501 -0.70294114009E+00  0.21226143489E+02  0.65209408682E+03  0.65243983735E+03  0.00000000000E+00 0. -1.
</event>
<event>
 4    1  0.2825993E+006  0.2048044E+02  0.7546771E-02  0.1526814E+00
         21   -1    0    0  502  501  0.00000000000E+00  0.00000000000E+00  0.53921303022E+02  0.53921303022E+02  0.00000000000E+00 0. -1.
         21   -1    0    0  504  502 -0.00000000000E+00 -0.00000000000E+00 -0.78028293209E+01  0.78028293209E+01  0.00000000000E+00 0.  1.
         21    1    1    2  503  501 -0.12359359885E+02  0.16330786681E+02  0.21350114450E+02  0.29585059700E+02  0.00000000000E+00 0.  1.
         21    1    1    2  504  503  0.12359359885E+02 -0.16330786681E+02  0.24768359251E+02  0.32139072643E+02  0.00000000000E+00 0. -1.
</event>
<event>
 4    1  0.2825993E+006  0.2922392E+02  0.7546771E-02  0.1426463E+00
         21   -1    0    0  503  501  0.00000000000E+00  0.00000000000E+00  0.51649301044E+01  0.51649301044E+01  0.00000000000E+00 0. -1.
         21   -1    0    0  504  502 -0.00000000000E+00 -0.00000000000E+00 -0.16548867352E+03  0.16548867352E+03  0.00000000000E+00 0.  1.
         21    1    1    2  503  502  0.37039135961E+01  0.28988247354E+02 -0.77720076805E+02  0.83032811582E+02  0.00000000000E+00 0.  1.
         21    1    1    2  504  501 -0.37039135961E+01 -0.28988247354E+02 -0.82603666609E+02  0.87620792040E+02  0.00000000000E+00 0. -1.
</event>
<event>
 4    1  0.2825993E+006  0.3928200E+02  0.7546771E-02  0.1352745E+00
         21   -1    0    0  504  501  0.00000000000E+00  0.00000000000E+00  0.43349558228E+02  0.43349558228E+02  0.00000000000E+00 0. -1.
         21   -1    0    0  501  502 -0.00000000000E+00 -0.00000000000E+00 -0.16981954840E+03  0.16981954840E+03  0.00000000000E+00 0. -1.
         21    1    1    2  503  502  0.30520123683E+02 -0.24730492228E+02 -0.15799272007E+03  0.16280287096E+03  0.00000000000E+00 0. -1.
         21    1    1    2  504  503 -0.30520123683E+02  0.24730492228E+02  0.31522729900E+02  0.50366235673E+02  0.00000000000E+00 0. -1.
</event>
<event>
 4    1  0.2825993E+006  0.2007100E+02  0.7546771E-02  0.1532953E+00
         21   -1    0    0  504  501  0.00000000000E+00  0.00000000000E+00  0.13433681425E+03  0.13433681425E+03  0.00000000000E+00 0. -1.
         21   -1    0    0  501  502 -0.00000000000E+00 -0.00000000000E+00 -0.76801325921E+02  0.76801325921E+02  0.00000000000E+00 0. -1.
         21    1    1    2  503  502 -0.19946207240E+02 -0.22346974402E+01 -0.74719790651E+02  0.77368547685E+02  0.00000000000E+00 0. -1.
         21    1    1    2  504  503  0.19946207240E+02  0.22346974402E+01  0.13225527898E+03  0.13376959248E+03  0.00000000000E+00 0. -1.
</event>
<event>
 4    1  0.2825993E+006  0.6173778E+02  0.7546771E-02  0.1254040E+00
         21   -1    0    0  502  501  0.00000000000E+00  0.00000000000E+00  0.23057271078E+03  0.23057271078E+03  0.00000000000E+00 0. -1.
         21   -1    0    0  503  502 -0.00000000000E+00 -0.00000000000E+00 -0.29879272944E+02  0.29879272944E+02  0.00000000000E+00 0. -1.
         21    1    1    2  503  504  0.60318035295E+02  0.13163902164E+02  0.13304833606E+02  0.63155144678E+02  0.00000000000E+00 0. -1.
         21    1    1    2  504  501 -0.60318035295E+02 -0.13163902164E+02  0.18738860423E+03  0.19729683904E+03  0.00000000000E+00 0. -1.
</event>
<event>
 4    1  0.2825993E+006  0.4977313E+02  0.7546771E-02  0.1299159E+00
         21   -1    0    0  503  501  0.00000000000E+00  0.00000000000E+00  0.17821488856E+03  0.17821488856E+03  0.00000000000E+00 0.  1.
         21   -1    0    0  501  502 -0.00000000000E+00 -0.00000000000E+00 -0.18439068755E+02  0.18439068755E+02  0.00000000000E+00 0. -1.
         21    1    1    2  503  504  0.42803069698E+02 -0.25402005169E+02  0.12866758228E+03  0.13795909311E+03  0.00000000000E+00 0.  1.
         21    1    1    2  504  502 -0.42803069698E+02  0.25402005169E+02  0.31108237528E+02  0.58694864207E+02  0.00000000000E+00 0. -1.
</event>
<event>
 4    1  0.2825993E+006  0.2463656E+02  0.7546771E-02  0.1472910E+00
         21   -1    0    0  503  501  0.00000000000E+00  0.00000000000E+00  0.54702755316E+02  0.54702755316E+02  0.00000000000E+00 0. -1.
         21   -1    0    0  504  502 -0.00000000000E+00 -0.00000000000E+00 -0.15843752609E+03  0.15843752609E+03  0.00000000000E+00 0.  1.
         21    1    1    2  503  502 -0.69064726498E+01  0.23648698848E+02 -0.15463817012E+03  0.15658839031E+03  0.00000000000E+00 0.  1.
         21    1    1    2  504  501  0.69064726498E+01 -0.23648698848E+02  0.50903399346E+02  0.56551891097E+02  0.00000000000E+00 0. -1.
</event>
<event>
 4    1  0.2825993E+006  0.3144802E+02  0.7546771E-02  0.1407417E+00
         21   -1    0    0  502  501  0.00000000000E+00  0.00000000000E+00  0.10294951520E+02  0.10294951520E+02  0.00000000000E+00 0.  1.
         21   -1    0    0  504  502 -0.00000000000E+00 -0.00000000000E+00 -0.17208516838E+03  0.17208516838E+03  0.00000000000E+00 0.  1.
         21    1    1    2  503  501 -0.23914750651E+02 -0.20422113897E+02 -0.20285428155E+02  0.37422942564E+02  0.00000000000E+00 0.  1.
         21    1    1    2  504  503  0.23914750651E+02  0.20422113897E+02 -0.14150478870E+03  0.14495717733E+03  0.00000000000E+00 0.  1.
</event>
<event>
 4    1  0.2825993E+006  0.2551161E+02  0.7546771E-02  0.1463161E+00
         21   -1    0    0  503  501  0.00000000000E+00  0.00000000000E+00  0.50086702016E+03  0.50086702016E+03  0.00000000000E+00 0. -1.
         21   -1    0    0  504  502 -0.00000000000E+00 -0.00000000000E+00 -0.32759772395E+01  0.32759772395E+01  0.00000000000E+00 0.  1.
         21    1    1    2  503  502  0.19470076300E+02 -0.16485096813E+02  0.52998193387E+02  0.58818796233E+02  0.00000000000E+00 0.  1.
         21    1    1    2  504  501 -0.19470076300E+02  0.16485096813E+02  0.44459284953E+03  0.44532420117E+03  0.00000000000E+00 0. -1.
</event>
<event>
 4    1  0.2825993E+006  0.2046567E+02  0.7546771E-02  0.1527032E+00
         21   -1    0    0  504  501  0.00000000000E+00  0.00000000000E+00  0.52779321736E+03  0.52779321736E+03  0.00000000000E+00 0. -1.
         21   -1    0    0  503  502 -0.00000000000E+00 -0.00000000000E+00 -0.71795736626E+02  0.71795736626E+02  0.00000000000E+00 0. -1.
         21    1    1    2  503  501 -0.12579068406E+02  0.16143435107E+02 -0.70134283843E+02  0.73059299403E+02  0.00000000000E+00 0. -1.
         21    1    1    2  504  502  0.12579068406E+02 -0.16143435107E+02  0.52613176458E+03  0.52652965459E+03  0.00000000000E+00 0. -1.
</event>
<event>
 4    1  0.2825993E+006  0.2040331E+02  0.7546771E-02  0.1527957E+00
         21   -1    0    0  503  501  0.00000000000E+00  0.00000000000E+00  0.59457507455E+00  0.59457507455E+00  0.00000000000E+00 0. -1.
         21   -1    0    0  504  502 -0.00000000000E+00 -0.00000000000E+00 -0.71672375221E+03  0.71672375221E+03  0.00000000000E+00 0. -1.
         21    1    1    2  503  502  0.19982807034E+02 -0.41209615093E+01 -0.30353317457E+03  0.30421815029E+03  0.00000000000E+00 0. -1.
         21    1    1    2  504  501 -0.19982807034E+02  0.41209615093E+01 -0.41259600256E+03  0.41310017699E+03  0.00000000000E+00 0. -1.
</event>
<event>
 4    1  0.2825993E+006  0.2361653E+02  0.7546771E-02  0.1484898E+00
         21   -1    0    0  503  501  0.00000000000E+00  0.00000000000E+00  0.40046761060E+02  0.40046761060E+02  0.00000000000E+00 0. -1.
         21   -1    0    0  504  502 -0.00000000000E+00 -0.00000000000E+00 -0.70011322110E+02  0.70011322110E+02  0.00000000000E+00 0. -1.
         21    1    1    2  503  502 -0.21241774122E+02 -0.10321207254E+02  0.34270150600E+02  0.41619508757E+02  0.00000000000E+00 0. -1.
         21    1    1    2  504  501  0.21241774122E+02  0.10321207254E+02 -0.64234711649E+02  0.68438574413E+02  0.00000000000E+00 0. -1.
</event>
<event>
 4    1  0.2825993E+006  0.5826535E+02  0.7546771E-02  0.1265843E+00
         21   -1    0    0  502  501  0.00000000000E+00  0.00000000000E+00  0.58032787554E+03  0.58032787554E+03  0.00000000000E+00 0.  1.
         21   -1    0    0  503  502 -0.00000000000E+00 -0.00000000000E+00 -0.48977234913E+02  0.48977234913E+02  0.00000000000E+00 0. -1.
         21    1    1    2  503  504 -0.49003239864E+02  0.31520372919E+02 -0.29588691967E+02  0.65347854735E+02  0.00000000000E+00 0. -1.
         21    1    1    2  504  501  0.49003239864E+02 -0.31520372919E+02  0.56093933260E+03  0.56395725572E+03  0.00000000000E+00 0.  1.
</event>
<event>
 4    1  0.2825993E+006  0.2035184E+02  0.7546771E-02  0.1528723E+00
         21   -1    0    0  503  501  0.00000000000E+00  0.00000000000E+00  0.50584149824E+02  0.50584149824E+02  0.00000000000E+00 0.  1.
         21   -1    0    0  501  502 -0.00000000000E+00 -0.00000000000E+00 -0.16775337344E+02  0.16775337344E+02  0.00000000000E+00 0.  1.
         21    1    1    2  503  504 -0.50387563166E+01  0.19718222770E+02  0.41000976402E+02  0.45774200598E+02  0.00000000000E+00 0.  1.
         21    1    1    2  504  502  0.50387563166E+01 -0.19718222770E+02 -0.71921639222E+01  0.21585286570E+02  0.00000000000E+00 0.  1.
</event>
<event>
 4    1  0.2825993E+006  0.2175899E+02  0.7546771E-02  0.1508698E+00
         21   -1    0    0  502  501  0.00000000000E+00  0.00000000000E+00  0.73025234065E+02  0.73025234065E+02  0.00000000000E+00 0.  1.
         21   -1    0    0  503  502 -0.00000000000E+00 -0.00000000000E+00 -0.49701128391E+02  0.49701128391E+02  0.00000000000E+00 0. -1.
         21    1    1    2  503  504  0.10410350488E+02 -0.19107025825E+02 -0.45558963885E+02  0.50488345422E+02  0.00000000000E+00 0. -1.
         21    1    1    2  504  501 -0.10410350488E+02  0.19107025825E+02  0.68883069559E+02  0.72238017034E+02  0.00000000000E+00 0.  1.
</event>
<event>
 4    1  0.2825993E+006  0.2404867E+02  0.7546771E-02  0.1479734E+00
         21   -1    0    0  504  501  0.00000000000E+00  0.00000000000E+00  0.13394582754E+01  0.13394582754E+01  0.00000000000E+00 0. -1.
         21   -1    0    0  503  502 -0.00000000000E+00 -0.00000000000E+00 -0.44370490716E+03  0.44370490716E+03  0.00000000000E+00 0. -1.
         21    1    1    2  503  501  0.15775090540E+02  0.18151721190E+02 -0.25767727801E+03  0.25879705962E+03  0.00000000000E+00 0. -1.
         21    1    1    2  504  502 -0.15775090540E+02 -0.18151721190E+02 -0.18468817087E+03  0.18624730582E+03  0.00000000000E+00 0. -1.
</event>
<event>
 4    1  0.2825993E+006  0.3275265E+02  0.7546771E-02  0.1397091E+00
         21   -1    0    0  503  501  0.00000000000E+00  0.00000000000E+00  0.18114248910E+03  0.18114248910E+03  0.00000000000E+00 0.  1.
         21   -1    0    0  504  502 -0.00000000000E+00 -0.00000000000E+00 -0.80291712936E+01  0.80291712936E+01  0.00000000000E+00 0.  1.
         21    1    1    2  503  502 -0.55506148957E+01  0.32278885559E+02  0.38102063251E+02  0.50244432554E+02  0.00000000000E+00 0.  1.
         21    1    1    2  504  501  0.55506148957E+01 -0.32278885559E+02  0.13501125456E+03  0.13892722784E+03  0.00000000000E+00 0.  1.
</event>
<event>
 4    1  0.2825993E+006  0.2025657E+02  0.7546771E-02  0.1530149E+00
         21   -1    0    0  504  501  0.00000000000E+00  0.00000000000E+00  0.30554782836E+01  0.30554782836E+01  0.00000000000E+00 0.  1.
         21   -1    0    0  501  502 -0.00000000000E+00 -0.00000000000E+00 -0.19287407231E+03  0.19287407231E+03  0.00000000000E+00 0.  1.
         21    1    1    2  503  502  0.17466389935E+02  0.10259338638E+02 -0.14889917343E+03  0.15027073120E+03  0.00000000000E+00 0.  1.
         21    1    1    2  504  503 -0.17466389935E+02 -0.10259338638E+02 -0.40919420598E+02  0.45658819397E+02  0.00000000000E+00 0.  1.
</event>
<event>
 4    1  0.2825993E+006  0.2392221E+02  0.7546771E-02  0.1481232E+00
         21   -1    0    0  502  501  0.00000000000E+00  0.00000000000E+00  0.21130935780E+02  0.21130935780E+02  0.00000000000E+00 0.  1.
         21   -1    0    0  504  502 -0.00000000000E+00 -0.00000000000E+00 -0.20833856656E+03  0.20833856656E+03  0.00000000000E+00 0.  1.
         21    1    1    2  503  501 -0.51351767173E+01  0.23364551112E+02  0.13414170663E+02  0.27426488349E+02  0.00000000000E+00 0.  1.
         21    1    1    2  504  503  0.51351767173E+01 -0.23364551112E+02 -0.20062180145E+03  0.20204301400E+03  0.00000000000E+00 0.  1.
</event>
<event>
 4    1  0.2825993E+006  0.2432823E+02  0.7546771E-02  0.1476461E+00
         21   -1    0    0  503  501  0.00000000000E+00  0.00000000000E+00  0.24923170215E+01  0.24923170215E+01  0.00000000000E+00 0.  1.
         21   -1    0    0  504  502 -0.00000000000E+00 -0.00000000000E+00 -0.26539381821E+03  0.26539381821E+03  0.00000000000E+00 0.  1.
         21    1    1    2  503  502 -0.24327064489E+02 -0.23815016010E+00 -0.17489416862E+03  0.17657812152E+03  0.00000000000E+00 0.  1.
         21    1    1    2  504  501  0.24327064489E+02  0.23815016010E+00 -0.88007332565E+02  0.91308013709E+02  0.00000000000E+00 0.  1.
</event>
<event>
 4    1  0.2825993E+006  0.4473838E+02  0.7546771E-02  0.1322753E+00
         21   -1    0    0  504  501  0.00000000000E+00  0.00000000000E+00  0.66284183712E+03  0.66284183712E+03  0.00000000000E+00 0.  1.
         21   -1    0    0  503  502 -0.00000000000E+00 -0.00000000000E+00 -0.58278191015E+01  0.58278191015E+01  0.00000000000E+00 0.  1.
         21    1    1    2  503  501 -0.36855333281E+02  0.25361533200E+02  0.96423964539E+02  0.10629724312E+03  0.00000000000E+00 0.  1.
         21    1    1    2  504  502  0.36855333281E+02 -0.25361533200E+02  0.56059005348E+03  0.56237241311E+03  0.00000000000E+00 0.  1.
</event>
<event>
 4    1  0.2825993E+006  0.4514237E+02  0.7546771E-02  0.1320729E+00
         21   -1    0    0  504  501  0.00000000000E+00  0.00000000000E+00  0.32964303028E+03  0.32964303028E+03  0.00000000000E+00 0. -1.
         21   -1    0    0  503  502 -0.00000000000E+00 -0.00000000000E+00 -0.74085900022E+01  0.74085900022E+01  0.00000000000E+00 0. -1.
         21    1    1    2  503  501 -0.29771915061E+02 -0.33933265449E+02  0.92543300022E+02  0.10296647906E+03  0.00000000000E+00 0. -1.
         21    1    1    2  504  502  0.29771915061E+02  0.33933265449E+02  0.22969114026E+03  0.23408514123E+03  0.00000000000E+00 0. -1.
</event>
<event>
 4    1  0.2825993E+006  0.2440768E+02  0.7546771E-02  0.1475540E+00
         21   -1    0    0  504  501  0.00000000000E+00  0.00000000000E+00  0.19838067169E+02  0.19838067169E+02  0.00000000000E+00 0. -1.
         21   -1    0    0  501  502 -0.00000000000E+00 -0.00000000000E+00 -0.57032471950E+03  0.57032471950E+03  0.00000000000E+00 0. -1.
         21    1    1    2  503  502  0.18712914967E+02  0.15670407700E+02 -0.56245106357E+03  0.56298040266E+03  0.00000000000E+00 0. -1.
         21    1    1    2  504  503 -0.18712914967E+02 -0.15670407700E+02  0.11964411242E+02  0.27182384009E+02  0.00000000000E+00 0. -1.
</event>
<event>
 4    1  0.2825993E+006  0.2555775E+02  0.7546771E-02  0.1462660E+00
         21   -1    0    0  503  501  0.00000000000E+00  0.00000000000E+00  0.26530130518E+03  0.26530130518E+03  0.00000000000E+00 0.  1.
         21   -1    0    0  504  502 -0.00000000000E+00 -0.00000000000E+00 -0.59515493381E+01  0.59515493381E+01  0.00000000000E+00 0.  1.
         21    1    1    2  503  502  0.32836303452E+01  0.25345934506E+02  0.23352516112E+03  0.23491955964E+03  0.00000000000E+00 0.  1.
         21    1    1    2  504  501 -0.32836303452E+01 -0.25345934506E+02  0.25824594717E+02  0.36333294876E+02  0.00000000000E+00 0.  1.
</event>
<event>
 4    1  0.2825993E+006  0.2127433E+02  0.7546771E-02  0.1515384E+00
         21   -1    0    0  502  501  0.00000000000E+00  0.00000000000E+00  0.52512384199E+02  0.52512384199E+02  0.00000000000E+00 0.  1.
         21   -1    0    0  504  502 -0.00000000000E+00 -0.00000000000E+00 -0.12660299583E+02  0.12660299583E+02  0.00000000000E+00 0.  1.
         21    1    1    2  503  501 -0.17432311219E+02  0.12194738471E+02  0.38337213885E+02  0.43844487558E+02  0.00000000000E+00 0.  1.
         21    1    1    2  504  503  0.17432311219E+02 -0.12194738471E+02  0.15148707312E+01  0.21328196223E+02  0.00000000000E+00 0.  1.
</event>
<event>
 4    1  0.2825993E+006  0.2245653E+02  0.7546771E-02  0.1499438E+00
         21   -1    0    0  502  501  0.00000000000E+00  0.00000000000E+00  0.28243117115E+02  0.28243117115E+02  0.00000000000E+00 0.  1.
         21   -1    0    0  504  502 -0.00000000000E+00 -0.00000000000E+00 -0.13323122833E+04  0.13323122833E+04  0.00000000000E+00 0.  1.
         21    1    1    2  503  501 -0.88320409735E+01  0.20646811580E+02  0.23669230729E+02  0.32627109272E+02  0.00000000000E+00 0.  1.
         21    1    1    2  504  503  0.88320409735E+01 -0.20646811580E+02 -0.13277383970E+04  0.13279282912E+04  0.00000000000E+00 0.  1.
</event>
<event>
 4    1  0.2825993E+006  0.3252965E+02  0.7546771E-02  0.1398815E+00
         21   -1    0    0  504  501  0.00000000000E+00  0.00000000000E+00  0.24907415948E+02  0.24907415948E+02  0.00000000000E+00 0. -1.
         21   -1    0    0  501  502 -0.00000000000E+00 -0.00000000000E+00 -0.50182427477E+02  0.50182427477E+02  0.00000000000E+00 0.  1.
         21    1    1    2  503  502 -0.21381323002E+02  0.24515654115E+02 -0.27342444938E+02  0.42494559242E+02  0.00000000000E+00 0.  1.
         21    1    1    2  504  503  0.21381323002E+02 -0.24515654115E+02  0.20674334087E+01  0.32595284182E+02  0.00000000000E+00 0. -1.
</event>
<event>
 4    1  0.2825993E+006  0.6952368E+02  0.7546771E-02  0.1230510E+00
         21   -1    0    0  503  501  0.00000000000E+00  0.00000000000E+00  0.27518910313E+03  0.27518910313E+03  0.00000000000E+00 0.  1.
         21   -1    0    0  504  502 -0.00000000000E+00 -0.00000000000E+00 -0.13332231218E+03  0.13332231218E+03  0.00000000000E+00 0.  1.
         21    1    1    2  503  502  0.69522743280E+02 -0.36165654218E+00 -0.11939257341E+03  0.13815979594E+03  0.00000000000E+00 0.  1.
         21    1    1    2  504  501 -0.69522743280E+02  0.36165654218E+00  0.26125936436E+03  0.27035161937E+03  0.00000000000E+00 0.  1.
</event>
<event>
 4    1  0.2825993E+006  0.3017806E+02  0.7546771E-02  0.1418055E+00
         21   -1    0    0  503  501  0.00000000000E+00  0.00000000000E+00  0.17579512586E+02  0.17579512586E+02  0.00000000000E+00 0. -1.
         21   -1    0    0  504  502 -0.00000000000E+00 -0.00000000000E+00 -0.53711172346E+02  0.53711172346E+02  0.00000000000E+00 0. -1.
         21    1    1    2  503  502 -0.30020446931E+02 -0.30802409290E+01 -0.11351592779E+02  0.32242422005E+02  0.00000000000E+00 0. -1.
         21    1    1    2  504  501  0.30020446931E+02  0.30802409290E+01 -0.24780066980E+02  0.39048262928E+02  0.00000000000E+00 0. -1.
</event>
<event>
 4    1  0.2825993E+006  0.2625499E+02  0.7546771E-02  0.1455239E+00
         21   -1    0    0  502  501  0.00000000000E+00  0.00000000000E+00  0.14045511865E+01  0.14045511865E+01  0.00000000000E+00 0.  1.
         21   -1    0    0  504  502 -0.00000000000E+00 -0.00000000000E+00 -0.16227409234E+04  0.16227409234E+04  0.00000000000E+00 0. -1.
         21    1    1    2  503  501 -0.75114493241E+01 -0.25157551093E+02 -0.13242374541E+03  0.13500137998E+03  0.00000000000E+00 0.  1.
         21    1    1    2  504  503  0.75114493241E+01  0.25157551093E+02 -0.14889126268E+04  0.14891440946E+04  0.00000000000E+00 0. -1.
</event>
<event>
 4    1  0.2825993E+006  0.2107278E+02  0.7546771E-02  0.1518228E+00
         21   -1    0    0  504  501  0.00000000000E+00  0.00000000000E+00  0.62517500746E+02  0.62517500746E+02  0.00000000000E+00 0.  1.
         21   -1    0    0  503  502 -0.00000000000E+00 -0.00000000000E+00 -0.42582928847E+02  0.42582928847E+02  0.00000000000E+00 0.  1.
         21    1    1    2  503  501  0.13178326349E+02  0.16443651431E+02  0.57934896654E+02  0.61648310667E+02  0.00000000000E+00 0.  1.
         21    1    1    2  504  502 -0.13178326349E+02 -0.16443651431E+02 -0.38000324754E+02  0.43452118926E+02  0.00000000000E+00 0.  1.
</event>
<event>
 4    1  0.2825993E+006  0.4230779E+02  0.7546771E-02  0.1335468E+00
         21   -1    0    0  502  501  0.00000000000E+00  0.00000000000E+00  0.26201837158E+02  0.26201837158E+02  0.00000000000E+00 0. -1.
         21   -1    0    0  504  502 -0.00000000000E+00 -0.00000000000E+00 -0.10439751640E+03  0.10439751640E+03  0.00000000000E+00 0. -1.
         21    1    1    2  503  501 -0.92733120277E+01  0.41278990057E+02 -0.70757934579E+00  0.42313709417E+02  0.00000000000E+00 0. -1.
         21    1    1    2  504  503  0.92733120277E+01 -0.41278990057E+02 -0.77488099901E+02  0.88285644146E+02  0.00000000000E+00 0. -1.
</event>
<event>
 4    1  0.2825993E+006  0.2113551E+02  0.7546771E-02  0.1517339E+00
         21   -1    0    0  502  501  0.00000000000E+00  0.00000000000E+00  0.19255026324E+03  0.19255026324E+03  0.00000000000E+00 0.  1.
         21   -1    0    0  504  502 -0.00000000000E+00 -0.00000000000E+00 -0.60644217462E+02  0.60644217462E+02  0.00000000000E+00 0. -1.
         21    1    1    2  503  501 -0.21055881886E+02  0.18328858493E+01  0.19010514170E+03  0.19127643487E+03  0.00000000000E+00 0.  1.
         21    1    1    2  504  503  0.21055881886E+02 -0.18328858493E+01 -0.58199095931E+02  0.61918045832E+02  0.00000000000E+00 0. -1.
</event>
<event>
 4    1  0.2825993E+006  0.2757545E+02  0.7546771E-02  0.1441912E+00
         21   -1    0    0  503  501  0.00000000000E+00  0.00000000000E+00  0.74192397808E+02  0.74192397808E+02  0.00000000000E+00 0. -1.
         21   -1    0    0  501  502 -0.00000000000E+00 -0.00000000000E+00 -0.24096371359E+02  0.24096371359E+02  0.00000000000E+00 0.  1.
         21    1    1    2  503  504  0.23778334188E+02 -0.13964110083E+02  0.62302632311E+02  0.68132397140E+02  0.00000000000E+00 0. -1.
         21    1    1    2  504  502 -0.23778334188E+02  0.13964110083E+02 -0.12206605861E+02  0.30156372027E+02  0.00000000000E+00 0.  1.
</event>
<event>
 4    1  0.2825993E+006  0.4072896E+02  0.7546771E-02  0.1344266E+00
         21   -1    0    0  504  501  0.00000000000E+00  0.00000000000E+00  0.31138413011E+03  0.31138413011E+03  0.00000000000E+00 0. -1.
         21   -1    0    0  503  502 -0.00000000000E+00 -0.00000000000E+00 -0.72543482959E+01  0.72543482959E+01  0.00000000000E+00 0. -1.
         21    1    1    2  503  501  0.17001873971E+02  0.37010597697E+02  0.23417775530E+03  0.23769322485E+03  0.00000000000E+00 0. -1.
         21    1    1    2  504  502 -0.17001873971E+02 -0.37010597697E+02  0.69952026514E+02  0.80945253559E+02  0.00000000000E+00 0. -1.
</event>
<event>
 4    1  0.2825993E+006  0.2143368E+02  0.7546771E-02  0.1513162E+00
         21   -1    0    0  503  501  0.00000000000E+00  0.00000000000E+00  0.13398392760E+03  0.13398392760E+03  0.00000000000E+00 0. -1.
         21   -1    0    0  504  502 -0.00000000000E+00 -0.00000000000E+00 -0.19880462926E+02  0.19880462926E+02  0.00000000000E+00 0. -1.
         21    1    1    2  503  502 -0.35114910174E+01 -0.21144076049E+02 -0.12932456755E+02  0.25032997401E+02  0.00000000000E+00 0. -1.
         21    1    1    2  504  501  0.35114910174E+01  0.21144076049E+02  0.12703592143E+03  0.12883139312E+03  0.00000000000E+00 0. -1.
</event>
<event>
 4    1  0.2825993E+006  0.2511479E+02  0.7546771E-02  0.1467523E+00
         21   -1    0    0  502  501  0.00000000000E+00  0.00000000000E+00  0.19928734501E+01  0.19928734501E+01  0.00000000000E+00 0.  1.
         21   -1    0    0  503  502 -0.00000000000E+00 -0.00000000000E+00 -0.33552966985E+03  0.33552966985E+03  0.00000000000E+00 0.  1.
         21    1    1    2  503  504 -0.22541002534E+02  0.11075018628E+02 -0.20695441202E+03  0.20847273560E+03  0.00000000000E+00 0.  1.
         21    1    1    2  504  501  0.22541002534E+02 -0.11075018628E+02 -0.12658238438E+03  0.12904980770E+03  0.00000000000E+00 0.  1.
</event>
<event>
 4    1  0.2825993E+006  0.4557017E+02  0.7546771E-02  0.1318613E+00
         21   -1    0    0  504  501  0.00000000000E+00  0.00000000000E+00  0.13007628262E+02  0.13007628262E+02  0.00000000000E+00 0. -1.
         21   -1    0    0  503  502 -0.00000000000E+00 -0.00000000000E+00 -0.16319263532E+03  0.16319263532E+03  0.00000000000E+00 0.  1.
         21    1    1    2  503  501 -0.42519821041E+01 -0.45371366627E+02 -0.88076831582E+02  0.99167376303E+02  0.00000000000E+00 0.  1.
         21    1    1    2  504  502  0.42519821041E+01  0.45371366627E+02 -0.62108175475E+02  0.77032887277E+02  0.00000000000E+00 0. -1.
</event>
<event>
 4    1  0.2825993E+006  0.2660203E+02  0.7546771E-02  0.1451647E+00
         21   -1    0    0  502  501  0.00000000000E+00  0.00000000000E+00  0.86580358525E+03  0.86580358525E+03  0.00000000000E+00 0. -1.
         21   -1    0    0  504  502 -0.00000000000E+00 -0.00000000000E+00 -0.91616359168E+00  0.91616359168E+00  0.00000000000E+00 0. -1.
         21    1    1    2  503  501 -0.16923866004E+02  0.20524398815E+02  0.29012522344E+03  0.29134226172E+03  0.00000000000E+00 0. -1.
         21    1    1    2  504  503  0.16923866004E+02 -0.20524398815E+02  0.57476219821E+03  0.57537748712E+03  0.00000000000E+00 0. -1.
</event>
<event>
 4    1  0.2825993E+006  0.4814495E+02  0.7546771E-02  0.1306422E+00
         21   -1    0    0  504  501  0.00000000000E+00  0.00000000000E+00  0.63959225514E+02  0.63959225514E+02  0.00000000000E+00 0. -1.
         21   -1    0    0  503  502 -0.00000000000E+00 -0.00000000000E+00 -0.20508386063E+03  0.20508386063E+03  0.00000000000E+00 0. -1.
         21    1    1    2  503  501 -0.48021704896E+02  0.34426873603E+01 -0.19262071151E+03  0.19854640450E+03  0.00000000000E+00 0. -1.
         21    1    1    2  504  502  0.48021704896E+02 -0.34426873603E+01  0.51496076400E+02  0.70496681638E+02  0.00000000000E+00 0. -1.
</event>
<event>
 4    1  0.2825993E+006  0.2659948E+02  0.7546771E-02  0.1451673E+00
         21   -1    0    0  503  501  0.00000000000E+00  0.00000000000E+00  0.10495213836E+03  0.10495213836E+03  0.00000000000E+00 0. -1.
         21   -1    0    0  504  502 -0.00000000000E+00 -0.00000000000E+00 -0.28843905250E+02  0.28843905250E+02  0.00000000000E+00 0.  1.
         21    1    1    2  503  502 -0.11243259420E+02  0.24106455766E+02 -0.20506585100E+02  0.33586487230E+02  0.00000000000E+00 0.  1.
         21    1    1    2  504  501  0.11243259420E+02 -0.24106455766E+02  0.96614818214E+02  0.10020955638E+03  0.00000000000E+00 0. -1.
</event>
<event>
 4    1  0.2825993E+006  0.2318371E+02  0.7546771E-02  0.1490204E+00
         21   -1    0    0  502  501  0.00000000000E+00  0.00000000000E+00  0.12660641016E+01  0.12660641016E+01  0.00000000000E+00 0.  1.
         21   -1    0    0  503  502 -0.00000000000E+00 -0.00000000000E+00 -0.50832828743E+03  0.50832828743E+03  0.00000000000E+00 0.  1.
         21    1    1    2  503  504  0.22306830541E+02  0.63158324563E+01 -0.35698229606E+03  0.35773432059E+03  0.00000000000E+00 0.  1.
         21    1    1    2  504  501 -0.22306830541E+02 -0.63158324563E+01 -0.15007992727E+03  0.15186003094E+03  0.00000000000E+00 0.  1.
</event>
<event>
 4    1  0.2825993E+006  0.3600653E+02  0.7546771E-02  0.1373622E+00
         21   -1    0    0  504  501  0.00000000000E+00  0.00000000000E+00  0.27963813753E+01  0.27963813753E+01  0.00000000000E+00 0.  1.
         21   -1    0    0  503  502 -0.00000000000E+00 -0.00000000000E+00 -0.90548833910E+03  0.90548833910E+03  0.00000000000E+00 0.  1.
         21    1    1    2  503  501  0.35885131624E+02  0.29542272745E+01 -0.76859109921E+03  0.76943404390E+03  0.00000000000E+00 0.  1.
         21    1    1    2  504  502 -0.35885131624E+02 -0.29542272745E+01 -0.13410085851E+03  0.13885067657E+03  0.00000000000E+00 0.  1.
</event>
<event>
 4    1  0.2825993E+006  0.2266892E+02  0.7546771E-02  0.1496698E+00
         21   -1    0    0  503  501  0.00000000000E+00  0.00000000000E+00  0.94338293843E+02  0.94338293843E+02  0.00000000000E+00 0.  1.
         21   -1    0    0  504  502 -0.00000000000E+00 -0.00000000000E+00 -0.29066998652E+02  0.29066998652E+02  0.00000000000E+00 0.  1.
         21    1    1    2  503  502  0.12215866527E+02 -0.19095880825E+02 -0.22985730019E+02  0.32283491819E+02  0.00000000000E+00 0.  1.
         21    1    1    2  504  501 -0.12215866527E+02  0.19095880825E+02  0.88257025210E+02  0.91121800676E+02  0.00000000000E+00 0.  1.
</event>
<event>
 4    1  0.2825993E+006  0.4331293E+02  0.7546771E-02  0.1330094E+00
         21   -1    0    0  502  501  0.00000000000E+00  0.00000000000E+00  0.12746804920E+04  0.12746804920E+04  0.00000000000E+00 0. -1.
         21   -1    0    0  504  502 -0.00000000000E+00 -0.00000000000E+00 -0.23828806973E+02  0.23828806973E+02  0.00000000000E+00 0.  1.
         21    1    1    2  503  501  0.42928930368E+02  0.57547308062E+01  0.12543108529E+04  0.12550584551E+04  0.00000000000E+00 0. -1.
         21    1    1    2  504  503 -0.42928930368E+02 -0.57547308062E+01 -0.34591679007E+01  0.43450843855E+02  0.00000000000E+00 0.  1.
</event>
<event>
 4    1  0.2825993E+006  0.4800224E+02  0.7546771E-02  0.1307074E+00
         21   -1    0    0  504  501  0.00000000000E+00  0.00000000000E+00  0.37981629640E+02  0.37981629640E+02  0.00000000000E+00 0. -1.
         21   -1    0    0  501  502 -0.00000000000E+00 -0.00000000000E+00 -0.60693251839E+02  0.60693251839E+02  0.00000000000E+00 0. -1.
         21    1    1    2  503  502 -0.31821135681E+02  0.35939257764E+02 -0.12390409588E+02  0.49575570339E+02  0.00000000000E+00 0. -1.
         21    1    1    2  504  503  0.31821135681E+02 -0.35939257764E+02 -0.10321212612E+02  0.49099311140E+02  0.00000000000E+00 0. -1.
</event>
<event>
 4    1  0.2825993E+006  0.2618211E+02  0.7546771E-02  0.1456002E+00
         21   -1    0    0  503  501  0.00000000000E+00  0.00000000000E+00  0.33360395523E+02  0.33360395523E+02  0.00000000000E+00 0.  1.
         21   -1    0    0  504  502 -0.00000000000E+00 -0.00000000000E+00 -0.20584759043E+02  0.20584759043E+02  0.00000000000E+00 0.  1.
         21    1    1    2  503  502  0.15593674240E+02  0.21031882350E+02  0.75214075914E+01  0.27241041163E+02  0.00000000000E+00 0.  1.
         21    1    1    2  504  501 -0.15593674240E+02 -0.21031882350E+02  0.52542288890E+01  0.26704113404E+02  0.00000000000E+00 0.  1.
</event>
<event>
 4    1  0.2825993E+006  0.2481404E+02  0.7546771E-02  0.1470894E+00
         21   -1    0    0  503  501  0.00000000000E+00  0.00000000000E+00  0.86938926338E+01  0.86938926338E+01  0.00000000000E+00 0.  1.
         21   -1    0    0  504  502 -0.00000000000E+00 -0.00000000000E+00 -0.11671066444E+04  0.11671066444E+04  0.00000000000E+00 0. -1.
         21    1    1    2  503  502  0.46619009544E+01  0.24372184009E+02 -0.94231659632E+01  0.26543035445E+02  0.00000000000E+00 0.  1.
         21    1    1    2  504  501 -0.46619009544E+01 -0.24372184009E+02 -0.11489895858E+04  0.11492575016E+04  0.00000000000E+00 0. -1.
</event>
<event>
 4    1  0.2825993E+006  0.4686822E+02  0.7546771E-02  0.1312353E+00
         21   -1    0    0  502  501  0.00000000000E+00  0.00000000000E+00  0.47586640552E+01  0.47586640552E+01  0.00000000000E+00 0.  1.
         21   -1    0    0  503  502 -0.00000000000E+00 -0.00000000000E+00 -0.52479166568E+03  0.52479166568E+03  0.00000000000E+00 0.  1.
         21    1    1    2  503  504 -0.34923835314E+01 -0.46737925407E+02 -0.35189020674E+03  0.35499767325E+03  0.00000000000E+00 0.  1.
         21    1    1    2  504  501  0.34923835314E+01  0.46737925407E+02 -0.16814279488E+03  0.17455265648E+03  0.00000000000E+00 0.  1.
</event>
<event>
 4    1  0.2825993E+006  0.2458918E+02  0.7546771E-02  0.1473452E+00
         21   -1    0    0  504  501  0.00000000000E+00  0.00000000000E+00  0.70726582502E+02  0.70726582502E+02  0.00000000000E+00 0.  1.
         21   -1    0    0  503  502 -0.00000000000E+00 -0.00000000000E+00 -0.13653822724E+02  0.13653822724E+02  0.00000000000E+00 0.  1.
         21    1    1    2  503  501  0.87250453006E+01 -0.22989157739E+02  0.27385549099E+01  0.24741209996E+02  0.00000000000E+00 0.  1.
         21    1    1    2  504  502 -0.87250453006E+01  0.22989157739E+02  0.54334204868E+02  0.59639195230E+02  0.00000000000E+00 0.  1.
</event>
<event>
 4    1  0.2825993E+006  0.2262796E+02  0.7546771E-02  0.1497223E+00
         21   -1    0    0  503  501  0.00000000000E+00  0.00000000000E+00  0.25255933579E+02  0.25255933579E+02  0.00000000000E+00 0.  1.
         21   -1    0    0  504  502 -0.00000000000E+00 -0.00000000000E+00 -0.84397098554E+02  0.84397098554E+02  0.00000000000E+00 0. -1.
         21    1    1    2  503  502 -0.12654083839E+02  0.18758967264E+02  0.18219307742E+02  0.29051125024E+02  0.00000000000E+00 0.  1.
         21    1    1    2  504  501  0.12654083839E+02 -0.18758967264E+02 -0.77360472717E+02  0.80601907109E+02  0.00000000000E+00 0. -1.
</event>
<event>
 4    1  0.2825993E+006  0.2220462E+02  0.7546771E-02  0.1502735E+00
         21   -1    0    0  504  501  0.00000000000E+00  0.00000000000E+00  0.11553361382E+03  0.11553361382E+03  0.00000000000E+00 0.  1.
         21   -1    0    0  503  502 -0.00000000000E+00 -0.00000000000E+00 -0.97187213253E+01  0.97187213253E+01  0.00000000000E+00 0.  1.
         21    1    1    2  503  501 -0.15418202312E+02 -0.15978867319E+02  0.99809978837E+02  0.10225007109E+03  0.00000000000E+00 0.  1.
         21    1    1    2  504  502  0.15418202312E+02  0.15978867319E+02  0.60049136541E+01  0.23002264048E+02  0.00000000000E+00 0.  1.
</event>
<event>
 4    1  0.2825993E+006  0.2182453E+02  0.7546771E-02  0.1507811E+00
         21   -1    0    0  504  501  0.00000000000E+00  0.00000000000E+00  0.58928446819E+02  0.58928446819E+02  0.00000000000E+00 0.  1.
         21   -1    0    0  503  502 -0.00000000000E+00 -0.00000000000E+00 -0.34121741212E+02  0.34121741212E+02  0.00000000000E+00 0.  1.
         21    1    1    2  503  501 -0.14310430994E+02 -0.16477916328E+02  0.53046081563E+02  0.57360238240E+02  0.00000000000E+00 0.  1.
         21    1    1    2  504  502  0.14310430994E+02  0.16477916328E+02 -0.28239375956E+02  0.35689949792E+02  0.00000000000E+00 0.  1.
</event>
<event>
 4    1  0.2825993E+006  0.2920655E+02  0.7546771E-02  0.1426619E+00
         21   -1    0    0  503  501  0.00000000000E+00  0.00000000000E+00  0.78320604654E+03  0.78320604654E+03  0.00000000000E+00 0.  1.
         21   -1    0    0  501  502 -0.00000000000E+00 -0.00000000000E+00 -0.11108532818E+02  0.11108532818E+02  0.00000000000E+00 0. -1.
         21    1    1    2  503  504  0.42097349146E+00 -0.29203513771E+02  0.76323413632E+03  0.76379275284E+03  0.00000000000E+00 0.  1.
         21    1    1    2  504  502 -0.42097349146E+00  0.29203513771E+02  0.88633773985E+01  0.30521826521E+02  0.00000000000E+00 0. -1.
</event>
<event>
 4    1  0.2825993E+006  0.2457866E+02  0.7546771E-02  0.1473572E+00
         21   -1    0    0  502  501  0.00000000000E+00  0.00000000000E+00  0.30344058662E+03  0.30344058662E+03  0.00000000000E+00 0. -1.
         21   -1    0    0  503  502 -0.00000000000E+00 -0.00000000000E+00 -0.49539394814E+01  0.49539394814E+01  0.00000000000E+00 0. -1.
         21    1    1    2  503  504  0.21424489859E+02  0.12045824354E+02  0.29989514079E+02  0.38774754736E+02  0.00000000000E+00 0. -1.
         21    1    1    2  504  501 -0.21424489859E+02 -0.12045824354E+02  0.26849713306E+03  0.26961977136E+03  0.00000000000E+00 0. -1.
</event>
<event>
 4    1  0.2825993E+006  0.3747949E+02  0.7546771E-02  0.1363924E+00
         21   -1    0    0  504  501  0.00000000000E+00  0.00000000000E+00  0.95942625225E+02  0.95942625225E+02  0.00000000000E+00 0.  1.
         21   -1    0    0  501  502 -0.00000000000E+00 -0.00000000000E+00 -0.22888953734E+02  0.22888953734E+02  0.00000000000E+00 0.  1.
         21    1    1    2  503  502 -0.37230878202E+02  0.43097323623E+01  0.86057427090E+00  0.37489367464E+02  0.00000000000E+00 0.  1.
         21    1    1    2  504  503  0.37230878202E+02 -0.43097323623E+01  0.72193097220E+02  0.81342211495E+02  0.00000000000E+00 0.  1.
</event>
<event>
 4    1  0.2825993E+006  0.2825968E+02  0.7546771E-02  0.1435349E+00
         21   -1    0    0  504  501  0.00000000000E+00  0.00000000000E+00  0.57345680343E+03  0.57345680343E+03  0.00000000000E+00 0. -1.
         21   -1    0    0  503  502 -0.00000000000E+00 -0.00000000000E+00 -0.15551502112E+01  0.15551502112E+01  0.00000000000E+00 0. -1.
         21    1    1    2  503  501 -0.28074996353E+02  0.32254952059E+01  0.19300636815E+03  0.19506426476E+03  0.00000000000E+00 0. -1.
         21    1    1    2  504  502  0.28074996353E+02 -0.32254952059E+01  0.37889528508E+03  0.37994768889E+03  0.00000000000E+00 0. -1.
</event>
<event>
 4    1  0.2825993E+006  0.2327664E+02  0.7546771E-02  0.1489053E+00
         21   -1    0    0  504  501  0.00000000000E+00  0.00000000000E+00  0.22785028585E+03  0.22785028585E+03  0.00000000000E+00 0.  1.
         21   -1    0    0  503  502 -0.00000000000E+00 -0.00000000000E+00 -0.25861536304E+02  0.25861536304E+02  0.00000000000E+00 0.  1.
         21    1    1    2  503  501 -0.20406190047E+02 -0.11197738872E+02  0.22187768751E+03  0.22309529391E+03  0.00000000000E+00 0.  1.
         21    1    1    2  504  502  0.20406190047E+02  0.11197738872E+02 -0.19888937970E+02  0.30616528243E+02  0.00000000000E+00 0.  1.
</event>
<event>
 4    1  0.2825993E+006  0.4018766E+02  0.7546771E-02  0.1347390E+00
         21   -1    0    0  504  501  0.00000000000E+00  0.00000000000E+00  0.13869078203E+02  0.13869078203E+02  0.00000000000E+00 0.  1.
         21   -1    0    0  503  502 -0.00000000000E+00 -0.00000000000E+00 -0.11645632327E+03  0.11645632327E+03  0.00000000000E+00 0.  1.
         21    1    1    2  503  501 -0.40176413560E+02  0.95070215228E+00 -0.50797000267E+02  0.64771778402E+02  0.00000000000E+00 0.  1.
         21    1    1    2  504  502  0.40176413560E+02 -0.95070215228E+00 -0.51790244795E+02  0.65553623066E+02  0.00000000000E+00 0.  1.
</event>
<event>
 4    1  0.2825993E+006  0.2299634E+02  0.7546771E-02  0.1492544E+00
         21   -1    0    0  504  501  0.00000000000E+00  0.00000000000E+00  0.25120142340E+02  0.25120142340E+02  0.00000000000E+00 0.  1.
         21   -1    0    0  503  502 -0.00000000000E+00 -0.00000000000E+00 -0.13430931691E+03  0.13430931691E+03  0.00000000000E+00 0. -1.
         21    1    1    2  503  501  0.64553675979E+01 -0.22071693940E+02  0.18606658664E+02  0.29581061355E+02  0.00000000000E+00 0.  1.
         21    1    1    2  504  502 -0.64553675979E+01  0.22071693940E+02 -0.12779583323E+03  0.12984839789E+03  0.00000000000E+00 0. -1.
</event>
<event>
 4    1  0.2825993E+006  0.2215276E+02  0.7546771E-02  0.1503420E+00
         21   -1    0    0  504  501  0.00000000000E+00  0.00000000000E+00  0.33698370179E+03  0.33698370179E+03  0.00000000000E+00 0. -1.
         21   -1    0    0  501  502 -0.00000000000E+00 -0.00000000000E+00 -0.21366186977E+01  0.21366186977E+01  0.00000000000E+00 0. -1.
         21    1    1    2  503  502 -0.18246522038E+02  0.12562216486E+02  0.71743625309E+02  0.75085901620E+02  0.00000000000E+00 0. -1.
         21    1    1    2  504  503  0.18246522038E+02 -0.12562216486E+02  0.26310345779E+03  0.26403441887E+03  0.00000000000E+00 0. -1.
</event>
<event>
 4    1  0.2825993E+006  0.2067071E+02  0.7546771E-02  0.1524019E+00
         21   -1    0    0  503  501  0.00000000000E+00  0.00000000000E+00  0.21832941649E+02  0.21832941649E+02  0.00000000000E+00 0. -1.
         21   -1    0    0  504  502 -0.00000000000E+00 -0.00000000000E+00 -0.47007014158E+02  0.47007014158E+02  0.00000000000E+00 0. -1.
         21    1    1    2  503  502 -0.20530476177E+02 -0.24037185734E+01  0.13709279494E+02  0.24803682373E+02  0.00000000000E+00 0. -1.
         21    1    1    2  504  501  0.20530476177E+02  0.24037185734E+01 -0.38883352003E+02  0.44036273434E+02  0.00000000000E+00 0. -1.
</event>
<event>
 4    1  0.2825993E+006  0.2149217E+02  0.7546771E-02  0.1512353E+00
         21   -1    0    0  503  501  0.00000000000E+00  0.00000000000E+00  0.22164588263E+02  0.22164588263E+02  0.00000000000E+00 0.  1.
         21   -1    0    0  501  502 -0.00000000000E+00 -0.00000000000E+00 -0.26401114199E+02  0.26401114199E+02  0.00000000000E+00 0.  1.
         21    1    1    2  503  504  0.19235569939E+02  0.95867798385E+01  0.90263073507E+01  0.23310678303E+02  0.00000000000E+00 0.  1.
         21    1    1    2  504  502 -0.19235569939E+02 -0.95867798385E+01 -0.13262833287E+02  0.25255024160E+02  0.00000000000E+00 0.  1.
</event>
<event>
 4    1  0.2825993E+006  0.2292732E+02  0.7546771E-02  0.1493413E+00
         21   -1    0    0  504  501  0.00000000000E+00  0.00000000000E+00  0.10980128015E+03  0.10980128015E+03  0.00000000000E+00 0. -1.
         21   -1    0    0  503  502 -0.00000000000E+00 -0.00000000000E+00 -0.13331597359E+02  0.13331597359E+02  0.00000000000E+00 0. -1.
         21    1    1    2  503  501 -0.22862259362E+02  0.17260464592E+01  0.97522557270E+02  0.10018139206E+03  0.00000000000E+00 0. -1.
         21    1    1    2  504  502  0.22862259362E+02 -0.17260464592E+01 -0.10528744786E+01  0.22951485446E+02  0.00000000000E+00 0. -1.
</event>
<event>
 4    1  0.2825993E+006  0.2538622E+02  0.7546771E-02  0.1464529E+00
         21   -1    0    0  504  501  0.00000000000E+00  0.00000000000E+00  0.90727545769E+02  0.90727545769E+02  0.00000000000E+00 0. -1.
         21   -1    0    0  503  502 -0.00000000000E+00 -0.00000000000E+00 -0.11976884094E+03  0.11976884094E+03  0.00000000000E+00 0. -1.
         21    1    1    2  503  501 -0.19325002607E+02 -0.16462210685E+02 -0.11660011203E+03  0.11933166483E+03  0.00000000000E+00 0. -1.
         21    1    1    2  504  502  0.19325002607E+02  0.16462210685E+02  0.87558816855E+02  0.91164721880E+02  0.00000000000E+00 0. -1.
</event>
<event>
 4    1  0.2825993E+006  0.2536141E+02  0.7546771E-02  0.1464801E+00
         21   -1    0    0  503  501  0.00000000000E+00  0.00000000000E+00  0.10703628589E+02  0.10703628589E+02  0.00000000000E+00 0. -1.
         21   -1    0    0  504  502 -0.00000000000E+00 -0.00000000000E+00 -0.11105346614E+03  0.11105346614E+03  0.00000000000E+00 0. -1.
         21    1    1    2  503  502 -0.23895842547E+02 -0.84964646060E+01 -0.91415015543E+02  0.94867835796E+02  0.00000000000E+00 0. -1.
         21    1    1    2  504  501  0.23895842547E+02  0.84964646060E+01 -0.89348220108E+01  0.26889258937E+02  0.00000000000E+00 0. -1.
</event>
<event>
 4    1  0.2825993E+006  0.3632310E+02  0.7546771E-02  0.1371493E+00
         21   -1    0    0  503  501  0.00000000000E+00  0.00000000000E+00  0.69864787768E+02  0.69864787768E+02  0.00000000000E+00 0.  1.
         21   -1    0    0  501  502 -0.00000000000E+00 -0.00000000000E+00 -0.41224763737E+02  0.41224763737E+02  0.00000000000E+00 0. -1.
         21    1    1    2  503  504  0.31429267836E+02 -0.18209035441E+02  0.55209098369E+02  0.66086400954E+02  0.00000000000E+00 0.  1.
         21    1    1    2  504  502 -0.31429267836E+02  0.18209035441E+02 -0.26569074338E+02  0.45003150552E+02  0.00000000000E+00 0. -1.
</event>
<event>
 4    1  0.2825993E+006  0.2060827E+02  0.7546771E-02  0.1524932E+00
         21   -1    0    0  503  501  0.00000000000E+00  0.00000000000E+00  0.25770112012E+01  0.25770112012E+01  0.00000000000E+00 0. -1.
         21   -1    0    0  501  502 -0.00000000000E+00 -0.00000000000E+00 -0.90381709536E+03  0.90381709536E+03  0.00000000000E+00 0. -1.
         21    1    1    2  503  504 -0.15907727213E+02  0.13101330232E+02 -0.40819059070E+02  0.45726318705E+02  0.00000000000E+00 0. -1.
         21    1    1    2  504  502  0.15907727213E+02 -0.13101330232E+02 -0.86042102509E+03  0.86066778786E+03  0.00000000000E+00 0. -1.
</event>
<event>
 4    1  0.2825993E+006  0.2985371E+02  0.7546771E-02  0.1420872E+00
         21   -1    0    0  504  501  0.00000000000E+00  0.00000000000E+00  0.20778703803E+03  0.20778703803E+03  0.00000000000E+00 0. -1.
         21   -1    0    0  501  502 -0.00000000000E+00 -0.00000000000E+00 -0.47842327008E+02  0.47842327008E+02  0.00000000000E+00 0.  1.
         21    1    1    2  503  502  0.28160073486E+02  0.99123191263E+01 -0.41978311886E+02  0.51511382024E+02  0.00000000000E+00 0.  1.
         21    1    1    2  504  503 -0.28160073486E+02 -0.99123191263E+01  0.20192302291E+03  0.20411798301E+03  0.00000000000E+00 0. -1.
</event>
<event>
 4    1  0.2825993E+006  0.2036909E+02  0.7546771E-02  0.1528466E+00
         21   -1    0    0  503  501  0.00000000000E+00  0.00000000000E+00  0.26447243293E+02  0.26447243293E+02  0.00000000000E+00 0.  1.
         21   -1    0    0  504  502 -0.00000000000E+00 -0.00000000000E+00 -0.20247228426E+02  0.20247228426E+02  0.00000000000E+00 0. -1.
         21    1    1    2  503  502  0.13663926376E+02 -0.15106189762E+02 -0.79791429773E+01  0.21876164559E+02  0.00000000000E+00 0. -1.
         21    1    1    2  504  501 -0.13663926376E+02  0.15106189762E+02  0.14179157844E+02  0.24818307161E+02  0.00000000000E+00 0.  1.
</event>
<event>
 4    1  0.2825993E+006  0.2555101E+02  0.7546771E-02  0.1462733E+00
         21   -1    0    0  504  501  0.00000000000E+00  0.00000000000E+00  0.29923555517E+03  0.29923555517E+03  0.00000000000E+00 0. -1.
         21   -1    0    0  501  502 -0.00000000000E+00 -0.00000000000E+00 -0.46178641084E+01  0.46178641084E+01  0.00000000000E+00 0. -1.
         21    1    1    2  503  502 -0.20550401908E+02  0.15183384308E+02  0.36961151134E+02  0.44933071014E+02  0.00000000000E+00 0. -1.
         21    1    1    2  504  503  0.20550401908E+02 -0.15183384308E+02  0.25765653993E+03  0.25892034827E+03  0.00000000000E+00 0. -1.
</event>
<event>
 4    1  0.2825993E+006  0.2052681E+02  0.7546771E-02  0.1526129E+00
         21   -1    0    0  503  501  0.00000000000E+00  0.00000000000E+00  0.12493880077E+01  0.12493880077E+01  0.00000000000E+00 0. -1.
         21   -1    0    0  504  502 -0.00000000000E+00 -0.00000000000E+00 -0.45524959894E+03  0.45524959894E+03  0.00000000000E+00 0. -1.
         21    1    1    2  503  502 -0.18603579038E+02  0.86750716919E+01 -0.11079257750E+03  0.11267806021E+03  0.00000000000E+00 0. -1.
         21    1    1    2  504  501  0.18603579038E+02 -0.86750716919E+01 -0.34320763343E+03  0.34382092674E+03  0.00000000000E+00 0. -1.
</event>
<event>
 4    1  0.2825993E+006  0.2040978E+02  0.7546771E-02  0.1527861E+00
         21   -1    0    0  504  501  0.00000000000E+00  0.00000000000E+00  0.75906825857E+02  0.75906825857E+02  0.00000000000E+00 0.  1.
         21   -1    0    0  503  502 -0.00000000000E+00 -0.00000000000E+00 -0.18199242042E+02  0.18199242042E+02  0.00000000000E+00 0. -1.
         21    1    1    2  503  501  0.20406045921E+02 -0.39025824609E+00 -0.10470322170E+02  0.22938758859E+02  0.00000000000E+00 0. -1.
         21    1    1    2  504  502 -0.20406045921E+02  0.39025824609E+00  0.68177905984E+02  0.71167309040E+02  0.00000000000E+00 0.  1.
</event>
<event>
 4    1  0.2825993E+006  0.2182326E+02  0.7546771E-02  0.1507828E+00
         21   -1    0    0  504  501  0.00000000000E+00  0.00000000000E+00  0.74030534174E+03  0.74030534174E+03  0.00000000000E+00 0.  1.
         21   -1    0    0  501  502 -0.00000000000E+00 -0.00000000000E+00 -0.52154671334E+02  0.52154671334E+02  0.00000000000E+00 0.  1.
         21    1    1    2  503  502 -0.11867710475E+02  0.18314264752E+02 -0.49703361777E+02  0.54283321723E+02  0.00000000000E+00 0.  1.
         21    1    1    2  504  503  0.11867710475E+02 -0.18314264752E+02  0.73785403218E+03  0.73817669135E+03  0.00000000000E+00 0.  1.
</event>
<event>
 4    1  0.2825993E+006  0.2836765E+02  0.7546771E-02  0.1434333E+00
         21   -1    0    0  503  501  0.00000000000E+00  0.00000000000E+00  0.39244513122E+02  0.39244513122E+02  0.00000000000E+00 0.  1.
         21   -1    0    0  504  502 -0.00000000000E+00 -0.00000000000E+00 -0.26907895624E+02  0.26907895624E+02  0.00000000000E+00 0.  1.
         21    1    1    2  503  502  0.10288423446E+02  0.26436181882E+02  0.22302654866E+02  0.36085063164E+02  0.00000000000E+00 0.  1.
         21    1    1    2  504  501 -0.10288423446E+02 -0.26436181882E+02 -0.99660373683E+01  0.30067345582E+02  0.00000000000E+00 0.  1.
</event>
<event>
 4    1  0.2825993E+006  0.2186085E+02  0.7546771E-02  0.1507320E+00
         21   -1    0    0  503  501  0.00000000000E+00  0.00000000000E+00  0.33912322539E+02  0.33912322539E+02  0.00000000000E+00 0. -1.
         21   -1    0    0  504  502 -0.00000000000E+00 -0.00000000000E+00 -0.88405530644E+02  0.88405530644E+02  0.00000000000E+00 0. -1.
         21    1    1    2  503  502 -0.20755018247E+02 -0.68648407520E+01 -0.83319593140E+02  0.86139720351E+02  0.00000000000E+00 0. -1.
         21    1    1    2  504  501  0.20755018247E+02  0.68648407520E+01  0.28826385035E+02  0.36178132832E+02  0.00000000000E+00 0. -1.
</event>
<event>
 4    1  0.2825993E+006  0.2089000E+02  0.7546771E-02  0.1520841E+00
         21   -1    0    0  502  501  0.00000000000E+00  0.00000000000E+00  0.46789059866E+03  0.46789059866E+03  0.00000000000E+00 0.  1.
         21   -1    0    0  503  502 -0.00000000000E+00 -0.00000000000E+00 -0.16123118308E+01  0.16123118308E+01  0.00000000000E+00 0.  1.
         21    1    1    2  503  504 -0.20785440427E+02  0.20875194002E+01  0.80726645015E+02  0.83385751099E+02  0.00000000000E+00 0.  1.
         21    1    1    2  504  501  0.20785440427E+02 -0.20875194002E+01  0.38555164181E+03  0.38611715939E+03  0.00000000000E+00 0.  1.
</event>
<event>
 4    1  0.2825993E+006  0.2081317E+02  0.7546771E-02  0.1521949E+00
         21   -1    0    0  503  501  0.00000000000E+00  0.00000000000E+00  0.57614955243E+02  0.57614955243E+02  0.00000000000E+00 0. -1.
         21   -1    0    0  501  502 -0.00000000000E+00 -0.00000000000E+00 -0.46367684488E+02  0.46367684488E+02  0.00000000000E+00 0. -1.
         21    1    1    2  503  504  0.20338152600E+02  0.44212443898E+01  0.53213354303E+02  0.57138856563E+02  0.00000000000E+00 0. -1.
         21    1    1    2  504  502 -0.20338152600E+02 -0.44212443898E+01 -0.41966083548E+02  0.46843783168E+02  0.00000000000E+00 0. -1.
</event>
<event>
 4    1  0.2825993E+006  0.2206755E+02  0.7546771E-02  0.1504551E+00
         21   -1    0    0  504  501  0.00000000000E+00  0.00000000000E+00  0.75433205288E+02  0.75433205288E+02  0.00000000000E+00 0. -1.
         21   -1    0    0  501  502 -0.00000000000E+00 -0.00000000000E+00 -0.80000764201E+01  0.80000764201E+01  0.00000000000E+00 0. -1.
         21    1    1    2  503  502 -0.23058808896E+01 -0.21946741762E+02  0.52045377336E+02  0.56530503824E+02  0.00000000000E+00 0. -1.
         21    1    1    2  504  503  0.23058808896E+01  0.21946741762E+02  0.15387751532E+02  0.26902777883E+02  0.00000000000E+00 0. -1.
</event>
<event>
 4    1  0.2825993E+006  0.2098849E+02  0.7546771E-02  0.1519429E+00
         21   -1    0    0  503  501  0.00000000000E+00  0.00000000000E+00  0.47632185390E+03  0.47632185390E+03  0.00000000000E+00 0.  1.
         21   -1    0    0  504  502 -0.00000000000E+00 -0.00000000000E+00 -0.17614116739E+02  0.17614116739E+02  0.00000000000E+00 0.  1.
         21    1    1    2  503  502 -0.67320373076E+01  0.19879548296E+02  0.46975090598E+03  0.47021955556E+03  0.00000000000E+00 0.  1.
         21    1    1    2  504  501  0.67320373076E+01 -0.19879548296E+02 -0.11043168814E+02  0.23716415079E+02  0.00000000000E+00 0.  1.
</event>
<event>
 4    1  0.2825993E+006  0.2011003E+02  0.7546771E-02  0.1532360E+00
         21   -1    0    0  504  501  0.00000000000E+00  0.00000000000E+00  0.90324573660E+01  0.90324573660E+01  0.00000000000E+00 0. -1.
         21   -1    0    0  501  502 -0.00000000000E+00 -0.00000000000E+00 -0.49606440618E+02  0.49606440618E+02  0.00000000000E+00 0. -1.
         21    1    1    2  503  502  0.11698546884E+02 -0.16357173524E+02 -0.29438664419E+02  0.35651761355E+02  0.00000000000E+00 0. -1.
         21    1    1    2  504  503 -0.11698546884E+02  0.16357173524E+02 -0.11135318833E+02  0.22987136629E+02  0.00000000000E+00 0. -1.
</event>
<event>
 4    1  0.2825993E+006  0.2553796E+02  0.7546771E-02  0.1462874E+00
         21   -1    0    0  504  501  0.00000000000E+00  0.00000000000E+00  0.11030804055E+04  0.11030804055E+04  0.00000000000E+00 0. -1.
         21   -1    0    0  503  502 -0.00000000000E+00 -0.00000000000E+00 -0.35101586288E+02  0.35101586288E+02  0.00000000000E+00 0. -1.
         21    1    1    2  503  501  0.25370678713E+02  0.29182552460E+01 -0.30288421206E+02  0.39617874895E+02  0.00000000000E+00 0. -1.
         21    1    1    2  504  502 -0.25370678713E+02 -0.29182552460E+01  0.10982672404E+04  0.10985641169E+04  0.00000000000E+00 0. -1.
</event>
<event>
 4    1  0.2825993E+006  0.2086204E+02  0.7546771E-02  0.1521244E+00
         21   -1    0    0  504  501  0.00000000000E+00  0.00000000000E+00  0.70330572588E+03  0.70330572588E+03  0.00000000000E+00 0. -1.
         21   -1    0    0  503  502 -0.00000000000E+00 -0.00000000000E+00 -0.67248954806E+01  0.67248954806E+01  0.00000000000E+00 0.  1.
         21    1    1    2  503  501  0.46765198280E+01  0.20331132608E+02  0.10003548070E+02  0.23136459643E+02  0.00000000000E+00 0.  1.
         21    1    1    2  504  502 -0.46765198280E+01 -0.20331132608E+02  0.68657728233E+03  0.68689416172E+03  0.00000000000E+00 0. -1.
</event>
<event>
 4    1  0.2825993E+006  0.3488870E+02  0.7546771E-02  0.1381347E+00
         21   -1    0    0  503  501  0.00000000000E+00  0.00000000000E+00  0.39369553472E+02  0.39369553472E+02  0.00000000000E+00 0.  1.
         21   -1    0    0  504  502 -0.00000000000E+00 -0.00000000000E+00 -0.34484199730E+02  0.34484199730E+02  0.00000000000E+00 0.  1.
         21    1    1    2  503  502 -0.10722118987E+02 -0.33200260130E+02 -0.94326552347E+01  0.36141334964E+02  0.00000000000E+00 0.  1.
         21    1    1    2  504  501  0.10722118987E+02  0.33200260130E+02  0.14318008978E+02  0.37712418237E+02  0.00000000000E+00 0.  1.
</event>
<event>
 4    1  0.2825993E+006  0.3833340E+02  0.7546771E-02  0.1358539E+00
         21   -1    0    0  503  501  0.00000000000E+00  0.00000000000E+00  0.13729080884E+02  0.13729080884E+02  0.00000000000E+00 0.  1.
         21   -1    0    0  504  502 -0.00000000000E+00 -0.00000000000E+00 -0.15193407411E+04  0.15193407411E+04  0.00000000000E+00 0. -1.
         21    1    1    2  503  502  0.34885907703E+02 -0.15887823264E+02 -0.13763715315E+02  0.40729465299E+02  0.00000000000E+00 0.  1.
         21    1    1    2  504  501 -0.34885907703E+02  0.15887823264E+02 -0.14918479449E+04  0.14923403567E+04  0.00000000000E+00 0. -1.
</event>
<event>
 4    1  0.2825993E+006  0.2205397E+02  0.7546771E-02  0.1504732E+00
         21   -1    0    0  502  501  0.00000000000E+00  0.00000000000E+00  0.15510787409E+03  0.15510787409E+03  0.00000000000E+00 0. -1.
         21   -1    0    0  504  502 -0.00000000000E+00 -0.00000000000E+00 -0.28999199830E+03  0.28999199830E+03  0.00000000000E+00 0.  1.
         21    1    1    2  503  501  0.86720365298E+01 -0.20277412066E+02  0.15390136652E+03  0.15547349701E+03  0.00000000000E+00 0. -1.
         21    1    1    2  504  503 -0.86720365298E+01  0.20277412066E+02 -0.28878549073E+03  0.28962637538E+03  0.00000000000E+00 0.  1.
</event>
<event>
 4    1  0.2825993E+006  0.2494795E+02  0.7546771E-02  0.1469387E+00
         21   -1    0    0  502  501  0.00000000000E+00  0.00000000000E+00  0.52585320921E+02  0.52585320921E+02  0.00000000000E+00 0. -1.
         21   -1    0    0  504  502 -0.00000000000E+00 -0.00000000000E+00 -0.42414397357E+02  0.42414397357E+02  0.00000000000E+00 0. -1.
         21    1    1    2  503  501  0.87188394825E+01 -0.23374819339E+02  0.45416830993E+02  0.51817843244E+02  0.00000000000E+00 0. -1.
         21    1    1    2  504  503 -0.87188394825E+01  0.23374819339E+02 -0.35245907429E+02  0.43181875035E+02  0.00000000000E+00 0. -1.
</event>
<event>
 4    1  0.2825993E+006  0.3361494E+02  0.7546771E-02  0.1390571E+00
         21   -1    0    0  503  501  0.00000000000E+00  0.00000000000E+00  0.30652749043E+02  0.30652749043E+02  0.00000000000E+00 0.  1.
         21   -1    0    0  504  502 -0.00000000000E+00 -0.00000000000E+00 -0.38257449083E+02  0.38257449083E+02  0.00000000000E+00 0. -1.
         21    1    1    2  503  502 -0.27488777073E+02 -0.19347635824E+02  0.27748030099E+01  0.33729266352E+02  0.00000000000E+00 0. -1.
         21    1    1    2  504  501  0.27488777073E+02  0.19347635824E+02 -0.10379503050E+02  0.35180931774E+02  0.00000000000E+00 0.  1.
</event>
<event>
 4    1  0.2825993E+006  0.4093091E+02  0.7546771E-02  0.1343115E+00
         21   -1    0    0  504  501  0.00000000000E+00  0.00000000000E+00  0.11728035513E+03  0.11728035513E+03  0.00000000000E+00 0. -1.
         21   -1    0    0  501  502 -0.00000000000E+00 -0.00000000000E+00 -0.47384847317E+03  0.47384847317E+03  0.00000000000E+00 0.  1.
         21    1    1    2  503  502 -0.21156341151E+02  0.35039244481E+02 -0.46935925246E+03  0.47114058125E+03  0.00000000000E+00 0.  1.
         21    1    1    2  504  503  0.21156341151E+02 -0.35039244481E+02  0.11279113443E+03  0.11998824705E+03  0.00000000000E+00 0. -1.
</event>
<event>
 4    1  0.2825993E+006  0.2102101E+02  0.7546771E-02  0.1518965E+00
         21   -1    0    0  504  501  0.00000000000E+00  0.00000000000E+00  0.51003372866E+02  0.51003372866E+02  0.00000000000E+00 0.  1.
         21   -1    0    0  503  502 -0.00000000000E+00 -0.00000000000E+00 -0.15529187554E+03  0.15529187554E+03  0.00000000000E+00 0.  1.
         21    1    1    2  503  501  0.75235125607E+01 -0.19628543093E+02  0.48084756487E+02  0.52478821934E+02  0.00000000000E+00 0.  1.
         21    1    1    2  504  502 -0.75235125607E+01  0.19628543093E+02 -0.15237325916E+03  0.15381642647E+03  0.00000000000E+00 0.  1.
</event>
<event>
 4    1  0.2825993E+006  0.2477468E+02  0.7546771E-02  0.1471340E+00
         21   -1    0    0  503  501  0.00000000000E+00  0.00000000000E+00  0.25196531724E+02  0.25196531724E+02  0.00000000000E+00 0. -1.
         21   -1    0    0  504  502 -0.00000000000E+00 -0.00000000000E+00 -0.91216323788E+02  0.91216323788E+02  0.00000000000E+00 0.  1.
         21    1    1    2  503  502  0.30344208025E+01 -0.24588151027E+02  0.16821866639E+02  0.29945952611E+02  0.00000000000E+00 0. -1.
         21    1    1    2  504  501 -0.30344208025E+01  0.24588151027E+02 -0.82841658703E+02  0.86466902901E+02  0.00000000000E+00 0.  1.
</event>
<event>
 4    1  0.2825993E+006  0.2204911E+02  0.7546771E-02  0.1504797E+00
         21   -1    0    0  502  501  0.00000000000E+00  0.00000000000E+00  0.52250481976E+00  0.52250481976E+00  0.00000000000E+00 0.  1.
         21   -1    0    0  503  502 -0.00000000000E+00 -0.00000000000E+00 -0.12307999909E+04  0.12307999909E+04  0.00000000000E+00 0. -1.
         21    1    1    2  503  504  0.18609096711E+02 -0.11826450416E+02 -0.91927174425E+03  0.91953613479E+03  0.00000000000E+00 0. -1.
         21    1    1    2  504  501 -0.18609096711E+02  0.11826450416E+02 -0.31100574182E+03  0.31178636092E+03  0.00000000000E+00 0.  1.
</event>
<event>
 4    1  0.2825993E+006  0.3031987E+02  0.7546771E-02  0.1416837E+00
         21   -1    0    0  503  501  0.00000000000E+00  0.00000000000E+00  0.15511357880E+03  0.15511357880E+03  0.00000000000E+00 0.  1.
         21   -1    0    0  504  502 -0.00000000000E+00 -0.00000000000E+00 -0.23932409111E+02  0.23932409111E+02  0.00000000000E+00 0.  1.
         21    1    1    2  503  502  0.46954612645E+00  0.30316233716E+02  0.14324172501E+03  0.14641545780E+03  0.00000000000E+00 0.  1.
         21    1    1    2  504  501 -0.46954612645E+00 -0.30316233716E+02 -0.12060555323E+02  0.32630530106E+02  0.00000000000E+00 0.  1.
</event>
<event>
 4    1  0.2825993E+006  0.3974128E+02  0.7546771E-02  0.1350009E+00
         21   -1    0    0  504  501  0.00000000000E+00  0.00000000000E+00  0.15291038494E+01  0.15291038494E+01  0.00000000000E+00 0. -1.
         21   -1    0    0  503  502 -0.00000000000E+00 -0.00000000000E+00 -0.12132642869E+04  0.12132642869E+04  0.00000000000E+00 0.  1.
         21    1    1    2  503  501  0.55834218991E+01 -0.39347101138E+02 -0.37165870376E+03  0.37377742180E+03  0.00000000000E+00 0. -1.
         21    1    1    2  504  502 -0.55834218991E+01  0.39347101138E+02 -0.84007647932E+03  0.84101596898E+03  0.00000000000E+00 0.  1.
</event>
<event>
 4    1  0.2825993E+006  0.2547938E+02  0.7546771E-02  0.1463511E+00
         21   -1    0    0  503  501  0.00000000000E+00  0.00000000000E+00  0.81237586269E+01  0.81237586269E+01  0.00000000000E+00 0.  1.
         21   -1    0    0  501  502 -0.00000000000E+00 -0.00000000000E+00 -0.26263421078E+03  0.26263421078E+03  0.00000000000E+00 0. -1.
         21    1    1    2  503  504  0.10686406636E+02  0.23130054208E+02 -0.14335611127E+02  0.29235397053E+02  0.00000000000E+00 0.  1.
         21    1    1    2  504  502 -0.10686406636E+02 -0.23130054208E+02 -0.24017484102E+03  0.24152257235E+03  0.00000000000E+00 0. -1.
</event>
<event>
 4    1  0.2825993E+006  0.3098479E+02  0.7546771E-02  0.1411227E+00
         21   -1    0    0  504  501  0.00000000000E+00  0.00000000000E+00  0.17232715124E+02  0.17232715124E+02  0.00000000000E+00 0. -1.
         21   -1    0    0  503  502 -0.00000000000E+00 -0.00000000000E+00 -0.20113669645E+03  0.20113669645E+03  0.00000000000E+00 0. -1.
         21    1    1    2  503  501  0.29724547142E+02 -0.87469039502E+01  0.88825350113E+00  0.30997516445E+02  0.00000000000E+00 0. -1.
         21    1    1    2  504  502 -0.29724547142E+02  0.87469039502E+01 -0.18479223482E+03  0.18737189512E+03  0.00000000000E+00 0. -1.
</event>
<event>
 4    1  0.2825993E+006  0.2656028E+02  0.7546771E-02  0.1452076E+00
         21   -1    0    0  503  501  0.00000000000E+00  0.00000000000E+00  0.10385162801E+03  0.10385162801E+03  0.00000000000E+00 0.  1.
         21   -1    0    0  501  502 -0.00000000000E+00 -0.00000000000E+00 -0.48668321508E+02  0.48668321508E+02  0.00000000000E+00 0.  1.
         21    1    1    2  503  504 -0.68529326439E+01  0.25660982641E+02  0.98329741559E+02  0.10185375197E+03  0.00000000000E+00 0.  1.
         21    1    1    2  504  502  0.68529326439E+01 -0.25660982641E+02 -0.43146435055E+02  0.50666197547E+02  0.00000000000E+00 0.  1.
</event>
<event>
 4    1  0.2825993E+006  0.2058243E+02  0.7546771E-02  0.1525311E+00
         21   -1    0    0  503  501  0.00000000000E+00  0.00000000000E+00  0.31082085740E+03  0.31082085740E+03  0.00000000000E+00 0.  1.
         21   -1    0    0  504  502 -0.00000000000E+00 -0.00000000000E+00 -0.42090501650E+01  0.42090501650E+01  0.00000000000E+00 0.  1.
         21    1    1    2  503  502 -0.75790736813E+01 -0.19136196492E+02  0.23780763196E+02  0.31450931183E+02  0.00000000000E+00 0.  1.
         21    1    1    2  504  501  0.75790736813E+01  0.19136196492E+02  0.28283104403E+03  0.28357897638E+03  0.00000000000E+00 0.  1.
</event>
<event>
 4    1  0.2825993E+006  0.2137884E+02  0.7546771E-02  0.1513924E+00
         21   -1    0    0  504  501  0.00000000000E+00  0.00000000000E+00  0.67815102639E+02  0.67815102639E+02  0.00000000000E+00 0.  1.
         21   -1    0    0  503  502 -0.00000000000E+00 -0.00000000000E+00 -0.71645759253E+01  0.71645759253E+01  0.00000000000E+00 0. -1.
         21    1    1    2  503  501 -0.14295506531E+02 -0.15896334711E+02  0.21195953181E+02  0.30105205455E+02  0.00000000000E+00 0. -1.
         21    1    1    2  504  502  0.14295506531E+02  0.15896334711E+02  0.39454573532E+02  0.44874473109E+02  0.00000000000E+00 0.  1.
</event>
<event>
 4    1  0.2825993E+006  0.3606536E+02  0.7546771E-02  0.1373224E+00
         21   -1    0    0  504  501  0.00000000000E+00  0.00000000000E+00  0.34408320596E+03  0.34408320596E+03  0.00000000000E+00 0. -1.
         21   -1    0    0  503  502 -0.00000000000E+00 -0.00000000000E+00 -0.63201161169E+01  0.63201161169E+01  0.00000000000E+00 0. -1.
         21    1    1    2  503  501 -0.33685977077E+02 -0.12882738658E+02  0.57814882926E+02  0.68141548961E+02  0.00000000000E+00 0. -1.
         21    1    1    2  504  502  0.33685977077E+02  0.12882738658E+02  0.27994820692E+03  0.28226177312E+03  0.00000000000E+00 0. -1.
</event>
<event>
 4    1  0.2825993E+006  0.2498278E+02  0.7546771E-02  0.1468996E+00
         21   -1    0    0  504  501  0.00000000000E+00  0.00000000000E+00  0.93978964197E+01  0.93978964197E+01  0.00000000000E+00 0. -1.
         21   -1    0    0  503  502 -0.00000000000E+00 -0.00000000000E+00 -0.70117962221E+02  0.70117962221E+02  0.00000000000E+00 0. -1.
         21    1    1    2  503  501 -0.24176966743E+02  0.62939300933E+01 -0.21220561579E+02  0.32778827170E+02  0.00000000000E+00 0. -1.
         21    1    1    2  504  502  0.24176966743E+02 -0.62939300933E+01 -0.39499504223E+02  0.46737031471E+02  0.00000000000E+00 0. -1.
</event>
<event>
 4    1  0.2825993E+006  0.2415759E+02  0.7546771E-02  0.1478452E+00
         21   -1    0    0  503  501  0.00000000000E+00  0.00000000000E+00  0.37196966517E+03  0.37196966517E+03  0.00000000000E+00 0. -1.
         21   -1    0    0  504  502 -0.00000000000E+00 -0.00000000000E+00 -0.11694490106E+03  0.11694490106E+03  0.00000000000E+00 0. -1.
         21    1    1    2  503  502  0.14893872439E+02  0.19020040017E+02 -0.11529956155E+03  0.11780313346E+03  0.00000000000E+00 0. -1.
         21    1    1    2  504  501 -0.14893872439E+02 -0.19020040017E+02  0.37032432567E+03  0.37111143278E+03  0.00000000000E+00 0. -1.
</event>
<event>
 4    1  0.2825993E+006  0.2495221E+02  0.7546771E-02  0.1469339E+00
         21   -1    0    0  503  501  0.00000000000E+00  0.00000000000E+00  0.30040312213E+02  0.30040312213E+02  0.00000000000E+00 0. -1.
         21   -1    0    0  504  502 -0.00000000000E+00 -0.00000000000E+00 -0.13356777685E+03  0.13356777685E+03  0.00000000000E+00 0. -1.
         21    1    1    2  503  502  0.19040482963E+02 -0.16126771674E+02 -0.12695355528E+03  0.12938244840E+03  0.00000000000E+00 0. -1.
         21    1    1    2  504  501 -0.19040482963E+02  0.16126771674E+02  0.23426090641E+02  0.34225640663E+02  0.00000000000E+00 0. -1.
</event>
<event>
 4    1  0.2825993E+006  0.3510281E+02  0.7546771E-02  0.1379842E+00
         21   -1    0    0  504  501  0.00000000000E+00  0.00000000000E+00  0.93493147558E+02  0.93493147558E+02  0.00000000000E+00 0.  1.
         21   -1    0    0  503  502 -0.00000000000E+00 -0.00000000000E+00 -0.16584411980E+02  0.16584411980E+02  0.00000000000E+00 0.  1.
         21    1    1    2  503  501 -0.35101495939E+02  0.30407705895E+00  0.63392377120E+02  0.72462410648E+02  0.00000000000E+00 0.  1.
         21    1    1    2  504  502  0.35101495939E+02 -0.30407705895E+00  0.13516358458E+02  0.37615148889E+02  0.00000000000E+00 0.  1.
</event>
<event>
 4    1  0.2825993E+006  0.2689564E+02  0.7546771E-02  0.1448659E+00
         21   -1    0    0  503  501  0.00000000000E+00  0.00000000000E+00  0.80874873652E+01  0.80874873652E+01  0.00000000000E+00 0.  1.
         21   -1    0    0  504  502 -0.00000000000E+00 -0.00000000000E+00 -0.11192527929E+03  0.11192527929E+03  0.00000000000E+00 0.  1.
         21    1    1    2  503  502  0.25565145633E+02 -0.83545640528E+01 -0.25025476322E+02  0.36737581261E+02  0.00000000000E+00 0.  1.
         21    1    1    2  504  501 -0.25565145633E+02  0.83545640528E+01 -0.78812315605E+02  0.83275185397E+02  0.00000000000E+00 0.  1.
</event>
<event>
 4    1  0.2825993E+006  0.2256853E+02  0.7546771E-02  0.1497988E+00
         21   -1    0    0  504  501  0.00000000000E+00  0.00000000000E+00  0.34991825304E+03  0.34991825304E+03  0.00000000000E+00 0.  1.
         21   -1    0    0  503  502 -0.00000000000E+00 -0.00000000000E+00 -0.22311869287E+01  0.22311869287E+01  0.00000000000E+00 0.  1.
         21    1    1    2  503  501 -0.17722193419E+02 -0.13973636843E+02  0.70031871285E+02  0.73578540770E+02  0.00000000000E+00 0.  1.
         21    1    1    2  504  502  0.17722193419E+02  0.13973636843E+02  0.27765519482E+03  0.27857089919E+03  0.00000000000E+00 0.  1.
</event>
<event>
 4    1  0.2825993E+006  0.2137821E+02  0.7546771E-02  0.1513933E+00
         21   -1    0    0  503  501  0.00000000000E+00  0.00000000000E+00  0.60806770693E+02  0.60806770693E+02  0.00000000000E+00 0.  1.
         21   -1    0    0  504  502 -0.00000000000E+00 -0.00000000000E+00 -0.10231569058E+02  0.10231569058E+02  0.00000000000E+00 0. -1.
         21    1    1    2  503  502  0.11588683519E+02 -0.17964700374E+02  0.43586138461E+02  0.48546673533E+02  0.00000000000E+00 0.  1.
         21    1    1    2  504  501 -0.11588683519E+02  0.17964700374E+02  0.69890631744E+01  0.22491666218E+02  0.00000000000E+00 0. -1.
</event>
<event>
 4    1  0.2825993E+006  0.2250060E+02  0.7546771E-02  0.1498866E+00
         21   -1    0    0  502  501  0.00000000000E+00  0.00000000000E+00  0.31223570481E+02  0.31223570481E+02  0.00000000000E+00 0.  1.
         21   -1    0    0  503  502 -0.00000000000E+00 -0.00000000000E+00 -0.16524530757E+02  0.16524530757E+02  0.00000000000E+00 0.  1.
         21    1    1    2  503  504  0.10602343496E+02 -0.19846089040E+02  0.40797957022E+01  0.22867480639E+02  0.00000000000E+00 0.  1.
         21    1    1    2  504  501 -0.10602343496E+02  0.19846089040E+02  0.10619244022E+02  0.24880620599E+02  0.00000000000E+00 0.  1.
</event>
<event>
 4    1  0.2825993E+006  0.2605701E+02  0.7546771E-02  0.1457318E+00
         21   -1    0    0  503  501  0.00000000000E+00  0.00000000000E+00  0.31233757087E+03  0.31233757087E+03  0.00000000000E+00 0. -1.
         21   -1    0    0  501  502 -0.00000000000E+00 -0.00000000000E+00 -0.43002085728E+02  0.43002085728E+02  0.00000000000E+00 0.  1.
         21    1    1    2  503  504 -0.15748127519E+02  0.20759682623E+02  0.30778858220E+03  0.30888959076E+03  0.00000000000E+00 0. -1.
         21    1    1    2  504  502  0.15748127519E+02 -0.20759682623E+02 -0.38453097062E+02  0.46450065841E+02  0.00000000000E+00 0.  1.
</event>
<event>
 4    1  0.2825993E+006  0.2135318E+02  0.7546771E-02  0.1514282E+00
         21   -1    0    0  502  501  0.00000000000E+00  0.00000000000E+00  0.50740502827E+00  0.50740502827E+00  0.00000000000E+00 0.  1.
         21   -1    0    0  503  502 -0.00000000000E+00 -0.00000000000E+00 -0.92754063019E+03  0.92754063019E+03  0.00000000000E+00 0. -1.
         21    1    1    2  503  504  0.14093867069E+02 -0.16041235042E+02 -0.54546993620E+03  0.54588772619E+03  0.00000000000E+00 0. -1.
         21    1    1    2  504  501 -0.14093867069E+02  0.16041235042E+02 -0.38156328896E+03  0.38216030902E+03  0.00000000000E+00 0.  1.
</event>
<event>
 4    1  0.2825993E+006  0.2195385E+02  0.7546771E-02  0.1506070E+00
         21   -1    0    0  504  501  0.00000000000E+00  0.00000000000E+00  0.15835891789E+02  0.15835891789E+02  0.00000000000E+00 0. -1.
         21   -1    0    0  503  502 -0.00000000000E+00 -0.00000000000E+00 -0.93837453170E+02  0.93837453170E+02  0.00000000000E+00 0. -1.
         21    1    1    2  503  501  0.19415865881E+02  0.10246738825E+02 -0.84075672305E+02  0.86894707423E+02  0.00000000000E+00 0. -1.
         21    1    1    2  504  502 -0.19415865881E+02 -0.10246738825E+02  0.60741109241E+01  0.22778637536E+02  0.00000000000E+00 0. -1.
</event>
<event>
 4    1  0.2825993E+006  0.5173984E+02  0.7546771E-02  0.1290800E+00
         21   -1    0    0  503  501  0.00000000000E+00  0.00000000000E+00  0.12704723686E+02  0.12704723686E+02  0.00000000000E+00 0.  1.
         21   -1    0    0  504  502 -0.00000000000E+00 -0.00000000000E+00 -0.35380863613E+03  0.35380863613E+03  0.00000000000E+00 0.  1.
         21    1    1    2  503  502 -0.50419554371E+02 -0.11613750491E+02 -0.28709692918E+03  0.29172188367E+03  0.00000000000E+00 0.  1.
         21    1    1    2  504  501  0.50419554371E+02  0.11613750491E+02 -0.54006983258E+02  0.74791476146E+02  0.00000000000E+00 0.  1.
</event>
<event>
 4    1  0.2825993E+006  0.2145326E+02  0.7546771E-02  0.1512891E+00
         21   -1    0    0  502  501  0.00000000000E+00  0.00000000000E+00  0.16756457345E+03  0.16756457345E+03  0.00000000000E+00 0.  1.
         21   -1    0    0  504  502 -0.00000000000E+00 -0.00000000000E+00 -0.54030376026E+01  0.54030376026E+01  0.00000000000E+00 0. -1.
         21    1    1    2  503  501  0.89681598859E+01  0.19488833536E+02  0.14172100496E+03  0.14333557050E+03  0.00000000000E+00 0.  1.
         21    1    1    2  504  503 -0.89681598859E+01 -0.19488833536E+02  0.20440530892E+02  0.29632040555E+02  0.00000000000E+00 0. -1.
</event>
<event>
 4    1  0.2825993E+006  0.2340009E+02  0.7546771E-02  0.1487534E+00
         21   -1    0    0  504  501  0.00000000000E+00  0.00000000000E+00  0.30558799799E+02  0.30558799799E+02  0.00000000000E+00 0. -1.
         21   -1    0    0  503  502 -0.00000000000E+00 -0.00000000000E+00 -0.18308448092E+02  0.18308448092E+02  0.00000000000E+00 0. -1.
         21    1    1    2  503  501  0.14117660962E+02  0.18661609747E+02  0.25587335236E+01  0.23539565557E+02  0.00000000000E+00 0. -1.
         21    1    1    2  504  502 -0.14117660962E+02 -0.18661609747E+02  0.96916181832E+01  0.25327682334E+02  0.00000000000E+00 0. -1.
</event>
<event>
 4    1  0.2825993E+006  0.2231298E+02  0.7546771E-02  0.1501310E+00
         21   -1    0    0  504  501  0.00000000000E+00  0.00000000000E+00  0.26280855519E+02  0.26280855519E+02  0.00000000000E+00 0.  1.
         21   -1    0    0  503  502 -0.00000000000E+00 -0.00000000000E+00 -0.13933286974E+03  0.13933286974E+03  0.00000000000E+00 0. -1.
         21    1    1    2  503  501  0.18927469574E+02  0.11816097909E+02  0.20445923950E+02  0.30263923745E+02  0.00000000000E+00 0.  1.
         21    1    1    2  504  502 -0.18927469574E+02 -0.11816097909E+02 -0.13349793817E+03  0.13534980152E+03  0.00000000000E+00 0. -1.
</event>
<event>
 4    1  0.2825993E+006  0.2862965E+02  0.7546771E-02  0.1431891E+00
         21   -1    0    0  504  501  0.00000000000E+00  0.00000000000E+00  0.66094883638E+01  0.66094883638E+01  0.00000000000E+00 0. -1.
         21   -1    0    0  503  502 -0.00000000000E+00 -0.00000000000E+00 -0.14130530841E+03  0.14130530841E+03  0.00000000000E+00 0. -1.
         21    1    1    2  503  501  0.27559922417E+02 -0.77528916297E+01 -0.41475317661E+02  0.50397010103E+02  0.00000000000E+00 0. -1.
         21    1    1    2  504  502 -0.27559922417E+02  0.77528916297E+01 -0.93220502385E+02  0.97517786671E+02  0.00000000000E+00 0. -1.
</event>
<event>
 4    1  0.2825993E+006  0.2003723E+02  0.7546771E-02  0.1533467E+00
         21   -1    0    0  503  501  0.00000000000E+00  0.00000000000E+00  0.14665935384E+03  0.14665935384E+03  0.00000000000E+00 0.  1.
         21   -1    0    0  501  502 -0.00000000000E+00 -0.00000000000E+00 -0.10726640695E+02  0.10726640695E+02  0.00000000000E+00 0. -1.
         21    1    1    2  503  504 -0.59645602992E+01  0.19128892794E+02  0.13587926064E+03  0.13734869490E+03  0.00000000000E+00 0.  1.
         21    1    1    2  504  502  0.59645602992E+01 -0.19128892794E+02  0.53452497680E-01  0.20037299625E+02  0.00000000000E+00 0. -1.
</event>
<event>
 4    1  0.2825993E+006  0.2181193E+02  0.7546771E-02  0.1507981E+00
         21   -1    0    0  503  501  0.00000000000E+00  0.00000000000E+00  0.29152354891E+02  0.29152354891E+02  0.00000000000E+00 0.  1.
         21   -1    0    0  504  502 -0.00000000000E+00 -0.00000000000E+00 -0.17120527622E+02  0.17120527622E+02  0.00000000000E+00 0.  1.
         21    1    1    2  503  502  0.20287604750E+02  0.80108375932E+01  0.11019507225E+02  0.24437470510E+02  0.00000000000E+00 0.  1.
         21    1    1    2  504  501 -0.20287604750E+02 -0.80108375932E+01  0.10123200441E+01  0.21835412002E+02  0.00000000000E+00 0.  1.
</event>
<event>
 4    1  0.2825993E+006  0.2053940E+02  0.7546771E-02  0.1525944E+00
         21   -1    0    0  503  501  0.00000000000E+00  0.00000000000E+00  0.64607519825E+02  0.64607519825E+02  0.00000000000E+00 0.  1.
         21   -1    0    0  504  502 -0.00000000000E+00 -0.00000000000E+00 -0.95339808057E+01  0.95339808057E+01  0.00000000000E+00 0.  1.
         21    1    1    2  503  502 -0.20469781135E+02  0.16896752458E+01  0.48346448165E+02  0.52528525511E+02  0.00000000000E+00 0.  1.
         21    1    1    2  504  501  0.20469781135E+02 -0.16896752458E+01  0.67270908538E+01  0.21612975119E+02  0.00000000000E+00 0.  1.
</event>
<event>
 4    1  0.2825993E+006  0.4011947E+02  0.7546771E-02  0.1347787E+00
         21   -1    0    0  503  501  0.00000000000E+00  0.00000000000E+00  0.28422336951E+02  0.28422336951E+02  0.00000000000E+00 0.  1.
         21   -1    0    0  504  502 -0.00000000000E+00 -0.00000000000E+00 -0.69458800429E+02  0.69458800429E+02  0.00000000000E+00 0.  1.
         21    1    1    2  503  502 -0.13450474860E+02  0.37797575885E+02  0.51419664268E+00  0.40122766790E+02  0.00000000000E+00 0.  1.
         21    1    1    2  504  501  0.13450474860E+02 -0.37797575885E+02 -0.41550660120E+02  0.57758370590E+02  0.00000000000E+00 0.  1.
</event>
<event>
 4    1  0.2825993E+006  0.6293885E+02  0.7546771E-02  0.1250161E+00
         21   -1    0    0  504  501  0.00000000000E+00  0.00000000000E+00  0.15912430391E+03  0.15912430391E+03  0.00000000000E+00 0. -1.
         21   -1    0    0  503  502 -0.00000000000E+00 -0.00000000000E+00 -0.70018035272E+02  0.70018035272E+02  0.00000000000E+00 0. -1.
         21    1    1    2  503  501  0.29162264280E+02 -0.55775096984E+02 -0.47422454517E+02  0.78804747915E+02  0.00000000000E+00 0. -1.
         21    1    1    2  504  502 -0.29162264280E+02  0.55775096984E+02  0.13652872316E+03  0.15033759127E+03  0.00000000000E+00 0. -1.
</event>
<event>
 4    1  0.2825993E+006  0.2091038E+02  0.7546771E-02  0.1520548E+00
         21   -1    0    0  502  501  0.00000000000E+00  0.00000000000E+00  0.59446483986E+01  0.59446483986E+01  0.00000000000E+00 0.  1.
         21   -1    0    0  504  502 -0.00000000000E+00 -0.00000000000E+00 -0.83180458710E+02  0.83180458710E+02  0.00000000000E+00 0.  1.
         21    1    1    2  503  501 -0.99937199855E+01 -0.18367626488E+02 -0.23457003133E+02  0.31424117139E+02  0.00000000000E+00 0.  1.
         21    1    1    2  504  503  0.99937199855E+01  0.18367626488E+02 -0.53778807178E+02  0.57700989970E+02  0.00000000000E+00 0.  1.
</event>
<event>
 4    1  0.2825993E+006  0.2511276E+02  0.7546771E-02  0.1467546E+00
         21   -1    0    0  503  501  0.00000000000E+00  0.00000000000E+00  0.26213178166E+02  0.26213178166E+02  0.00000000000E+00 0.  1.
         21   -1    0    0  504  502 -0.00000000000E+00 -0.00000000000E+00 -0.49453751020E+02  0.49453751020E+02  0.00000000000E+00 0.  1.
         21    1    1    2  503  502 -0.80577615470E+01  0.23784937888E+02  0.15491142551E+02  0.29506377090E+02  0.00000000000E+00 0.  1.
         21    1    1    2  504  501  0.80577615470E+01 -0.23784937888E+02 -0.38731715405E+02  0.46160552095E+02  0.00000000000E+00 0.  1.
</event>
<event>
 4    1  0.2825993E+006  0.3054414E+02  0.7546771E-02  0.1414926E+00
         21   -1    0    0  504  501  0.00000000000E+00  0.00000000000E+00  0.12539295226E+01  0.12539295226E+01  0.00000000000E+00 0.  1.
         21   -1    0    0  501  502 -0.00000000000E+00 -0.00000000000E+00 -0.16210159671E+04  0.16210159671E+04  0.00000000000E+00 0.  1.
         21    1    1    2  503  502 -0.26111739160E+02  0.15846813337E+02 -0.14065027946E+04  0.14068344095E+04  0.00000000000E+00 0.  1.
         21    1    1    2  504  503  0.26111739160E+02 -0.15846813337E+02 -0.21325924296E+03  0.21543548715E+03  0.00000000000E+00 0.  1.
</event>
<event>
 4    1  0.2825993E+006  0.2486537E+02  0.7546771E-02  0.1470315E+00
         21   -1    0    0  503  501  0.00000000000E+00  0.00000000000E+00  0.23578900979E+01  0.23578900979E+01  0.00000000000E+00 0.  1.
         21   -1    0    0  504  502 -0.00000000000E+00 -0.00000000000E+00 -0.41332213020E+03  0.41332213020E+03  0.00000000000E+00 0.  1.
         21    1    1    2  503  502  0.33278420202E+01  0.24641675557E+02 -0.33114865853E+03  0.33208089489E+03  0.00000000000E+00 0.  1.
         21    1    1    2  504  501 -0.33278420202E+01 -0.24641675557E+02 -0.79815581577E+02  0.83599125410E+02  0.00000000000E+00 0.  1.
</event>
<event>
 4    1  0.2825993E+006  0.3349307E+02  0.7546771E-02  0.1391478E+00
         21   -1    0    0  502  501  0.00000000000E+00  0.00000000000E+00  0.42601196818E+02  0.42601196818E+02  0.00000000000E+00 0. -1.
         21   -1    0    0  504  502 -0.00000000000E+00 -0.00000000000E+00 -0.26716865540E+02  0.26716865540E+02  0.00000000000E+00 0. -1.
         21    1    1    2  503  501  0.42079884286E+01  0.33227682220E+02  0.12100584526E+02  0.35611938703E+02  0.00000000000E+00 0. -1.
         21    1    1    2  504  503 -0.42079884286E+01 -0.33227682220E+02  0.37837467526E+01  0.33706123655E+02  0.00000000000E+00 0. -1.
</event>
<event>
 4    1  0.2825993E+006  0.2182586E+02  0.7546771E-02  0.1507793E+00
         21   -1    0    0  503  501  0.00000000000E+00  0.00000000000E+00  0.43389559416E+02  0.43389559416E+02  0.00000000000E+00 0.  1.
         21   -1    0    0  504  502 -0.00000000000E+00 -0.00000000000E+00 -0.11736227970E+02  0.11736227970E+02  0.00000000000E+00 0.  1.
         21    1    1    2  503  502 -0.17637211385E+02  0.12856792432E+02  0.88248430246E+01  0.23542433848E+02  0.00000000000E+00 0.  1.
         21    1    1    2  504  501  0.17637211385E+02 -0.12856792432E+02  0.22828488421E+02  0.31583353537E+02  0.00000000000E+00 0.  1.
</event>
<event>
 4    1  0.2825993E+006  0.2174239E+02  0.7546771E-02  0.1508924E+00
         21   -1    0    0  504  501  0.00000000000E+00  0.00000000000E+00  0.11251270366E+02  0.11251270366E+02  0.00000000000E+00 0.  1.
         21   -1    0    0  501  502 -0.00000000000E+00 -0.00000000000E+00 -0.11904683057E+03  0.11904683057E+03  0.00000000000E+00 0.  1.
         21    1    1    2  503  502 -0.19159574735E+02  0.10278234492E+02 -0.10630389381E+03  0.10850460473E+03  0.00000000000E+00 0.  1.
         21    1    1    2  504  503  0.19159574735E+02 -0.10278234492E+02 -0.14916663946E+01  0.21793496207E+02  0.00000000000E+00 0.  1.
</event>
<event>
 4    1  0.2825993E+006  0.6958127E+02  0.7546771E-02  0.1230349E+00
         21   -1    0    0  504  501  0.00000000000E+00  0.00000000000E+00  0.38578639145E+03  0.38578639145E+03  0.00000000000E+00 0.  1.
         21   -1    0    0  501  502 -0.00000000000E+00 -0.00000000000E+00 -0.32951480595E+02  0.32951480595E+02  0.00000000000E+00 0. -1.
         21    1    1    2  503  502  0.79369000677E+01 -0.69127116680E+02  0.11674269939E+02  0.70553817911E+02  0.00000000000E+00 0. -1.
         21    1    1    2  504  503 -0.79369000677E+01  0.69127116680E+02  0.34116064092E+03  0.34818405413E+03  0.00000000000E+00 0.  1.
</event>
<event>
 4    1  0.2825993E+006  0.3232969E+02  0.7546771E-02  0.1400375E+00
         21   -1    0    0  503  501  0.00000000000E+00  0.00000000000E+00  0.79940989023E+01  0.79940989023E+01  0.00000000000E+00 0.  1.
         21   -1    0    0  501  502 -0.00000000000E+00 -0.00000000000E+00 -0.27803037853E+03  0.27803037853E+03  0.00000000000E+00 0.  1.
         21    1    1    2  503  504 -0.11151468862E+02 -0.30345570080E+02 -0.30929548463E+02  0.44741992014E+02  0.00000000000E+00 0.  1.
         21    1    1    2  504  502  0.11151468862E+02  0.30345570080E+02 -0.23910673116E+03  0.24128248542E+03  0.00000000000E+00 0.  1.
</event>
<event>
 4    1  0.2825993E+006  0.2609152E+02  0.7546771E-02  0.1456954E+00
         21   -1    0    0  504  501  0.00000000000E+00  0.00000000000E+00  0.20281742683E+01  0.20281742683E+01  0.00000000000E+00 0.  1.
         21   -1    0    0  501  502 -0.00000000000E+00 -0.00000000000E+00 -0.78222372100E+03  0.78222372100E+03  0.00000000000E+00 0. -1.
         21    1    1    2  503  502  0.10304272640E+02  0.23970598586E+02 -0.68637894233E+03  0.68687467569E+03  0.00000000000E+00 0. -1.
         21    1    1    2  504  503 -0.10304272640E+02 -0.23970598586E+02 -0.93816604405E+02  0.97377219581E+02  0.00000000000E+00 0.  1.
</event>
<event>
 4    1  0.2825993E+006  0.2376728E+02  0.7546771E-02  0.1483082E+00
         21   -1    0    0  502  501  0.00000000000E+00  0.00000000000E+00  0.32841436625E+03  0.32841436625E+03  0.00000000000E+00 0. -1.
         21   -1    0    0  504  502 -0.00000000000E+00 -0.00000000000E+00 -0.15342430655E+03  0.15342430655E+03  0.00000000000E+00 0.  1.
         21    1    1    2  503  501 -0.22565824863E+02  0.74610357946E+01  0.32706009205E+03  0.32792253250E+03  0.00000000000E+00 0. -1.
         21    1    1    2  504  503  0.22565824863E+02 -0.74610357946E+01 -0.15207003235E+03  0.15391614030E+03  0.00000000000E+00 0.  1.
</event>
<event>
 4    1  0.2825993E+006  0.2122577E+02  0.7546771E-02  0.1516066E+00
         21   -1    0    0  504  501  0.00000000000E+00  0.00000000000E+00  0.53890094627E+02  0.53890094627E+02  0.00000000000E+00 0. -1.
         21   -1    0    0  503  502 -0.00000000000E+00 -0.00000000000E+00 -0.12557775186E+03  0.12557775186E+03  0.00000000000E+00 0.  1.
         21    1    1    2  503  501 -0.20096001446E+02  0.68325846641E+01  0.50851675268E+02  0.55103778136E+02  0.00000000000E+00 0. -1.
         21    1    1    2  504  502  0.20096001446E+02 -0.68325846641E+01 -0.12253933250E+03  0.12436406836E+03  0.00000000000E+00 0.  1.
</event>
<event>
 4    1  0.2825993E+006  0.2016016E+02  0.7546771E-02  0.1531601E+00
         21   -1    0    0  502  501  0.00000000000E+00  0.00000000000E+00  0.30962034314E+03  0.30962034314E+03  0.00000000000E+00 0. -1.
         21   -1    0    0  504  502 -0.00000000000E+00 -0.00000000000E+00 -0.20680927438E+01  0.20680927438E+01  0.00000000000E+00 0. -1.
         21    1    1    2  503  501  0.20157629469E+02  0.31935501553E+00  0.24796470113E+03  0.24878288731E+03  0.00000000000E+00 0. -1.
         21    1    1    2  504  503 -0.20157629469E+02 -0.31935501553E+00  0.59587549267E+02  0.62905548572E+02  0.00000000000E+00 0. -1.
</event>
<event>
 4    1  0.2825993E+006  0.2099353E+02  0.7546771E-02  0.1519357E+00
         21   -1    0    0  503  501  0.00000000000E+00  0.00000000000E+00  0.97694643544E+02  0.97694643544E+02  0.00000000000E+00 0.  1.
         21   -1    0    0  504  502 -0.00000000000E+00 -0.00000000000E+00 -0.81185048770E+01  0.81185048770E+01  0.00000000000E+00 0. -1.
         21    1    1    2  503  502  0.16790009295E+02 -0.12602541122E+02  0.95219335955E+01  0.23052021045E+02  0.00000000000E+00 0. -1.
         21    1    1    2  504  501 -0.16790009295E+02  0.12602541122E+02  0.80054205071E+02  0.82761127376E+02  0.00000000000E+00 0.  1.
</event>
<event>
 4    1  0.2825993E+006  0.2372960E+02  0.7546771E-02  0.1483534E+00
         21   -1    0    0  503  501  0.00000000000E+00  0.00000000000E+00  0.97015763478E+02  0.97015763478E+02  0.00000000000E+00 0.  1.
         21   -1    0    0  504  502 -0.00000000000E+00 -0.00000000000E+00 -0.63915530564E+01  0.63915530564E+01  0.00000000000E+00 0.  1.
         21    1    1    2  503  502 -0.19214977753E+02  0.13924026530E+02  0.29637854857E+02  0.37967042621E+02  0.00000000000E+00 0.  1.
         21    1    1    2  504  501  0.19214977753E+02 -0.13924026530E+02  0.60986355564E+02  0.65440273913E+02  0.00000000000E+00 0.  1.
</event>
<event>
 4    1  0.2825993E+006  0.2036376E+02  0.7546771E-02  0.1528546E+00
         21   -1    0    0  504  501  0.00000000000E+00  0.00000000000E+00  0.96124906620E+03  0.96124906620E+03  0.00000000000E+00 0.  1.
         21   -1    0    0  501  502 -0.00000000000E+00 -0.00000000000E+00 -0.21789093711E+01  0.21789093711E+01  0.00000000000E+00 0.  1.
         21    1    1    2  503  502  0.64418313392E+01 -0.19318008129E+02  0.48135755786E+02  0.52265989077E+02  0.00000000000E+00 0.  1.
         21    1    1    2  504  503 -0.64418313392E+01  0.19318008129E+02  0.91093440104E+03  0.91116198649E+03  0.00000000000E+00 0.  1.
</event>
<event>
 4    1  0.2825993E+006  0.2019878E+02  0.7546771E-02  0.1531018E+00
         21   -1    0    0  502  501  0.00000000000E+00  0.00000000000E+00  0.99931210796E+02  0.99931210796E+02  0.00000000000E+00 0.  1.
         21   -1    0    0  504  502 -0.00000000000E+00 -0.00000000000E+00 -0.70377230100E+02  0.70377230100E+02  0.00000000000E+00 0. -1.
         21    1    1    2  503  501 -0.11657806672E+02 -0.16495038319E+02  0.97424331934E+02  0.99496186853E+02  0.00000000000E+00 0.  1.
         21    1    1    2  504  503  0.11657806672E+02  0.16495038319E+02 -0.67870351238E+02  0.70812254043E+02  0.00000000000E+00 0. -1.
</event>
<event>
 4    1  0.2825993E+006  0.3207982E+02  0.7546771E-02  0.1402344E+00
         21   -1    0    0  504  501  0.00000000000E+00  0.00000000000E+00  0.27516286240E+03  0.27516286240E+03  0.00000000000E+00 0.  1.
         21   -1    0    0  501  502 -0.00000000000E+00 -0.00000000000E+00 -0.34168957004E+03  0.34168957004E+03  0.00000000000E+00 0.  1.
         21    1    1    2  503  502  0.23960911608E+02  0.21330479726E+02 -0.33999696033E+03  0.34150702435E+03  0.00000000000E+00 0.  1.
         21    1    1    2  504  503 -0.23960911608E+02 -0.21330479726E+02  0.27347025269E+03  0.27534540809E+03  0.00000000000E+00 0.  1.
</event>
<event>
 4    1  0.2825993E+006  0.3256818E+02  0.7546771E-02  0.1398516E+00
         21   -1    0    0  504  501  0.00000000000E+00  0.00000000000E+00  0.97190246956E+02  0.97190246956E+02  0.00000000000E+00 0.  1.
         21   -1    0    0  501  502 -0.00000000000E+00 -0.00000000000E+00 -0.12074703339E+03  0.12074703339E+03  0.00000000000E+00 0.  1.
         21    1    1    2  503  502 -0.32509524560E+02 -0.19537003587E+01 -0.11570596174E+03  0.12020214521E+03  0.00000000000E+00 0.  1.
         21    1    1    2  504  503  0.32509524560E+02  0.19537003587E+01  0.92149175299E+02  0.97735135138E+02  0.00000000000E+00 0.  1.
</event>
<event>
 4    1  0.2825993E+006  0.2655440E+02  0.7546771E-02  0.1452136E+00
         21   -1    0    0  503  501  0.00000000000E+00  0.00000000000E+00  0.68470740199E+01  0.68470740199E+01  0.00000000000E+00 0.  1.
         21   -1    0    0  501  502 -0.00000000000E+00 -0.00000000000E+00 -0.13102029570E+03  0.13102029570E+03  0.00000000000E+00 0.  1.
         21    1    1    2  503  504  0.26345862688E+02  0.33213775950E+01 -0.30198707677E+02  0.40213156743E+02  0.00000000000E+00 0.  1.
         21    1    1    2  504  502 -0.26345862688E+02 -0.33213775950E+01 -0.93974514003E+02  0.97654212976E+02  0.00000000000E+00 0.  1.
</event>
<event>
 4    1  0.2825993E+006  0.2361618E+02  0.7546771E-02  0.1484902E+00
         21   -1    0    0  504  501  0.00000000000E+00  0.00000000000E+00  0.77334831853E+02  0.77334831853E+02  0.00000000000E+00 0.  1.
         21   -1    0    0  503  502 -0.00000000000E+00 -0.00000000000E+00 -0.80875624699E+01  0.80875624699E+01  0.00000000000E+00 0.  1.
         21    1    1    2  503  501 -0.22426146579E+02  0.74021469552E+01  0.20568839684E+02  0.31317742509E+02  0.00000000000E+00 0.  1.
         21    1    1    2  504  502  0.22426146579E+02 -0.74021469552E+01  0.48678429700E+02  0.54104651814E+02  0.00000000000E+00 0.  1.
</event>
<event>
 4    1  0.2825993E+006  0.2832729E+02  0.7546771E-02  0.1434712E+00
         21   -1    0    0  502  501  0.00000000000E+00  0.00000000000E+00  0.10726708055E+03  0.10726708055E+03  0.00000000000E+00 0. -1.
         21   -1    0    0  504  502 -0.00000000000E+00 -0.00000000000E+00 -0.12243757535E+02  0.12243757535E+02  0.00000000000E+00 0. -1.
         21    1    1    2  503  501  0.28314589102E+02 -0.84811437817E+00  0.84781870476E+02  0.89389041920E+02  0.00000000000E+00 0. -1.
         21    1    1    2  504  503 -0.28314589102E+02  0.84811437817E+00  0.10241452536E+02  0.30121796162E+02  0.00000000000E+00 0. -1.
</event>
<event>
 4    1  0.2825993E+006  0.2110660E+02  0.7546771E-02  0.1517748E+00
         21   -1    0    0  504  501  0.00000000000E+00  0.00000000000E+00  0.31796258701E+02  0.31796258701E+02  0.00000000000E+00 0. -1.
         21   -1    0    0  503  502 -0.00000000000E+00 -0.00000000000E+00 -0.16567952579E+02  0.16567952579E+02  0.00000000000E+00 0.  1.
         21    1    1    2  503  501 -0.12219410950E+02  0.17209717155E+02  0.17114623229E+02  0.27173492540E+02  0.00000000000E+00 0. -1.
         21    1    1    2  504  502  0.12219410950E+02 -0.17209717155E+02 -0.18863171069E+01  0.21190718741E+02  0.00000000000E+00 0.  1.
</event>
<event>
 4    1  0.2825993E+006  0.2248426E+02  0.7546771E-02  0.1499078E+00
         21   -1    0    0  503  501  0.00000000000E+00  0.00000000000E+00  0.23637316085E+02  0.23637316085E+02  0.00000000000E+00 0.  1.
         21   -1    0    0  504  502 -0.00000000000E+00 -0.00000000000E+00 -0.24408625351E+02  0.24408625351E+02  0.00000000000E+00 0.  1.
         21    1    1    2  503  502  0.20278651342E+02  0.97117516844E+01  0.80660304415E+01  0.23887290933E+02  0.00000000000E+00 0.  1.
         21    1    1    2  504  501 -0.20278651342E+02 -0.97117516844E+01 -0.88373397079E+01  0.24158650504E+02  0.00000000000E+00 0.  1.
</event>
<event>
 4    1  0.2825993E+006  0.7631986E+02  0.7546771E-02  0.1212659E+00
         21   -1    0    0  504  501  0.00000000000E+00  0.00000000000E+00  0.18162492214E+02  0.18162492214E+02  0.00000000000E+00 0.  1.
         21   -1    0    0  503  502 -0.00000000000E+00 -0.00000000000E+00 -0.88887561402E+03  0.88887561402E+03  0.00000000000E+00 0.  1.
         21    1    1    2  503  501  0.75000487874E+02 -0.14129695900E+02 -0.72766311545E+02  0.10544978702E+03  0.00000000000E+00 0.  1.
         21    1    1    2  504  502 -0.75000487874E+02  0.14129695900E+02 -0.79794681026E+03  0.80158831921E+03  0.00000000000E+00 0.  1.
</event>
<event>
 4    1  0.2825993E+006  0.2338198E+02  0.7546771E-02  0.1487757E+00
         21   -1    0    0  502  501  0.00000000000E+00  0.00000000000E+00  0.29423853115E+02  0.29423853115E+02  0.00000000000E+00 0. -1.
         21   -1    0    0  503  502 -0.00000000000E+00 -0.00000000000E+00 -0.54057009819E+02  0.54057009819E+02  0.00000000000E+00 0.  1.
         21    1    1    2  503  504 -0.11925041488E+02  0.20112442282E+02 -0.46130839504E+02  0.51718191214E+02  0.00000000000E+00 0.  1.
         21    1    1    2  504  501  0.11925041488E+02 -0.20112442282E+02  0.21497682800E+02  0.31762671721E+02  0.00000000000E+00 0. -1.
</event>
<event>
 4    1  0.2825993E+006  0.2945019E+02  0.7546771E-02  0.1424435E+00
         21   -1    0    0  504  501  0.00000000000E+00  0.00000000000E+00  0.40751658311E+03  0.40751658311E+03  0.00000000000E+00 0. -1.
         21   -1    0    0  503  502 -0.00000000000E+00 -0.00000000000E+00 -0.64728723258E+01  0.64728723258E+01  0.00000000000E+00 0.  1.
         21    1    1    2  503  501 -0.10989624837E+02 -0.27322919751E+02  0.30937908573E+02  0.42713791504E+02  0.00000000000E+00 0.  1.
         21    1    1    2  504  502  0.10989624837E+02  0.27322919751E+02  0.37010580221E+03  0.37127566393E+03  0.00000000000E+00 0. -1.
</event>
<event>
 4    1  0.2825993E+006  0.2190460E+02  0.7546771E-02  0.1506731E+00
         21   -1    0    0  502  501  0.00000000000E+00  0.00000000000E+00  0.11745727894E+02  0.11745727894E+02  0.00000000000E+00 0. -1.
         21   -1    0    0  503  502 -0.00000000000E+00 -0.00000000000E+00 -0.43963104818E+02  0.43963104818E+02  0.00000000000E+00 0. -1.
         21    1    1    2  503  504  0.21210498559E+02  0.54704888133E+01 -0.23521032869E+02  0.32141102722E+02  0.00000000000E+00 0. -1.
         21    1    1    2  504  501 -0.21210498559E+02 -0.54704888133E+01 -0.86963440556E+01  0.23567729990E+02  0.00000000000E+00 0. -1.
</event>
<event>
 4    1  0.2825993E+006  0.2595554E+02  0.7546771E-02  0.1458392E+00
         21   -1    0    0  504  501  0.00000000000E+00  0.00000000000E+00  0.10165237508E+02  0.10165237508E+02  0.00000000000E+00 0. -1.
         21   -1    0    0  503  502 -0.00000000000E+00 -0.00000000000E+00 -0.74051150777E+02  0.74051150777E+02  0.00000000000E+00 0. -1.
         21    1    1    2  503  501  0.17018833617E+02 -0.19597179387E+02 -0.45589202853E+02  0.52460133000E+02  0.00000000000E+00 0. -1.
         21    1    1    2  504  502 -0.17018833617E+02  0.19597179387E+02 -0.18296710416E+02  0.31756255284E+02  0.00000000000E+00 0. -1.
</event>
<event>
 4    1  0.2825993E+006  0.2155793E+02  0.7546771E-02  0.1511446E+00
         21   -1    0    0  504  501  0.00000000000E+00  0.00000000000E+00  0.24190109124E+03  0.24190109124E+03  0.00000000000E+00 0. -1.
         21   -1    0    0  503  502 -0.00000000000E+00 -0.00000000000E+00 -0.19597328644E+01  0.19597328644E+01  0.00000000000E+00 0. -1.
         21    1    1    2  503  501 -0.76181645429E+01 -0.20167001403E+02  0.10287698053E+03  0.10511145275E+03  0.00000000000E+00 0. -1.
         21    1    1    2  504  502  0.76181645429E+01  0.20167001403E+02  0.13706437785E+03  0.13874937136E+03  0.00000000000E+00 0. -1.
</event>
<event>
 4    1  0.2825993E+006  0.3629888E+02  0.7546771E-02  0.1371655E+00
         21   -1    0    0  503  501  0.00000000000E+00  0.00000000000E+00  0.39823037537E+03  0.39823037537E+03  0.00000000000E+00 0. -1.
         21   -1    0    0  504  502 -0.00000000000E+00 -0.00000000000E+00 -0.37646326692E+01  0.37646326692E+01  0.00000000000E+00 0. -1.
         21    1    1    2  503  502  0.23957362231E+02  0.27270010972E+02  0.12728105133E+03  0.13235586399E+03  0.00000000000E+00 0. -1.
         21    1    1    2  504  501 -0.23957362231E+02 -0.27270010972E+02  0.26718469137E+03  0.26963914405E+03  0.00000000000E+00 0. -1.
</event>
<event>
 4    1  0.2825993E+006  0.2327196E+02  0.7546771E-02  0.1489111E+00
         21   -1    0    0  502  501  0.00000000000E+00  0.00000000000E+00  0.25916747928E+02  0.25916747928E+02  0.00000000000E+00 0. -1.
         21   -1    0    0  504  502 -0.00000000000E+00 -0.00000000000E+00 -0.99976979910E+03  0.99976979910E+03  0.00000000000E+00 0.  1.
         21    1    1    2  503  501 -0.22328036703E+02  0.65607059310E+01  0.20528749827E+02  0.31032461307E+02  0.00000000000E+00 0. -1.
         21    1    1    2  504  503  0.22328036703E+02 -0.65607059310E+01 -0.99438180100E+03  0.99465408573E+03  0.00000000000E+00 0.  1.
</event>
<event>
 4    1  0.2825993E+006  0.2032587E+02  0.7546771E-02  0.1529111E+00
         21   -1    0    0  504  501  0.00000000000E+00  0.00000000000E+00  0.15097514476E+03  0.15097514476E+03  0.00000000000E+00 0.  1.
         21   -1    0    0  503  502 -0.00000000000E+00 -0.00000000000E+00 -0.43534808395E+01  0.43534808395E+01  0.00000000000E+00 0. -1.
         21    1    1    2  503  501  0.13273429384E+02 -0.15393405375E+02  0.12064317012E+03  0.12234343200E+03  0.00000000000E+00 0.  1.
         21    1    1    2  504  502 -0.13273429384E+02  0.15393405375E+02  0.25978493796E+02  0.32985193596E+02  0.00000000000E+00 0. -1.
</event>
<event>
 4    1  0.2825993E+006  0.4986730E+02  0.7546771E-02  0.1298749E+00
         21   -1    0    0  503  501  0.00000000000E+00  0.00000000000E+00  0.66249636733E+02  0.66249636733E+02  0.00000000000E+00 0.  1.
         21   -1    0    0  501  502 -0.00000000000E+00 -0.00000000000E+00 -0.89813643208E+02  0.89813643208E+02  0.00000000000E+00 0. -1.
         21    1    1    2  503  504 -0.44648084700E+02 -0.22210282063E+02  0.47750955794E+02  0.69042753971E+02  0.00000000000E+00 0.  1.
         21    1    1    2  504  502  0.44648084700E+02  0.22210282063E+02 -0.71314962268E+02  0.87020525970E+02  0.00000000000E+00 0. -1.
</event>
<event>
 4    1  0.2825993E+006  0.2528082E+02  0.7546771E-02  0.1465686E+00
         21   -1    0    0  503  501  0.00000000000E+00  0.00000000000E+00  0.11221733767E+03  0.11221733767E+03  0.00000000000E+00 0. -1.
         21   -1    0    0  501  502 -0.00000000000E+00 -0.00000000000E+00 -0.13198976759E+02  0.13198976759E+02  0.00000000000E+00 0.  1.
         21    1    1    2  503  504  0.13648803359E+02  0.21279806343E+02  0.96790408764E+02  0.10003750906E+03  0.00000000000E+00 0. -1.
         21    1    1    2  504  502 -0.13648803359E+02 -0.21279806343E+02  0.22279521514E+01  0.25378805368E+02  0.00000000000E+00 0.  1.
</event>
<event>
 4    1  0.2825993E+006  0.2278817E+02  0.7546771E-02  0.1495175E+00
         21   -1    0    0  504  501  0.00000000000E+00  0.00000000000E+00  0.65572024350E+02  0.65572024350E+02  0.00000000000E+00 0.  1.
         21   -1    0    0  501  502 -0.00000000000E+00 -0.00000000000E+00 -0.23121436486E+02  0.23121436486E+02  0.00000000000E+00 0. -1.
         21    1    1    2  503  502 -0.20346122799E+02 -0.10263340158E+02 -0.14733321047E+02  0.27136167990E+02  0.00000000000E+00 0. -1.
         21    1    1    2  504  503  0.20346122799E+02  0.10263340158E+02  0.57183908911E+02  0.61557292846E+02  0.00000000000E+00 0.  1.
</event>
