<event>
 4    1  0.5967370E+002  0.2001577E+02  0.7546771E-02  0.1533795E+00
          2   -1    0    0  503    0  0.00000000000E+00  0.00000000000E+00  0.28108126223E+01  0.28108126223E+01  0.00000000000E+00 0.  1.
         -2   -1    0    0    0  501 -0.00000000000E+00 -0.00000000000E+00 -0.25048032868E+03  0.25048032868E+03  0.00000000000E+00 0. -1.
         21    1    1    2  502  501 -0.20014774518E+02  0.19944105038E+00 -0.20697494349E+03  0.20794051604E+03  0.00000000000E+00 0. -1.
         21    1    1    2  503  502  0.20014774518E+02 -0.19944105038E+00 -0.40694572567E+02  0.45350625268E+02  0.00000000000E+00 0.  1.
</event>
<event>
 4    1  0.5967370E+002  0.7466574E+02  0.7546771E-02  0.1216804E+00
          2   -1    0    0  502    0  0.00000000000E+00  0.00000000000E+00  0.40128978141E+03  0.40128978141E+03  0.00000000000E+00 0. -1.
         -2   -1    0    0    0  501 -0.00000000000E+00 -0.00000000000E+00 -0.30688344059E+02  0.30688344059E+02  0.00000000000E+00 0.  1.
         21    1    1    2  502  503  0.29282782540E+02 -0.68683996085E+02  0.34508873209E+03  0.35307393799E+03  0.00000000000E+00 0. -1.
         21    1    1    2  503  501 -0.29282782540E+02  0.68683996085E+02  0.25512705254E+02  0.78904187473E+02  0.00000000000E+00 0.  1.
</event>
<event>
 4    1  0.5967370E+002  0.3131897E+02  0.7546771E-02  0.1408471E+00
          2   -1    0    0  503    0  0.00000000000E+00  0.00000000000E+00  0.43019109188E+02  0.43019109188E+02  0.00000000000E+00 0. -1.
         -2   -1    0    0    0  501 -0.00000000000E+00 -0.00000000000E+00 -0.37747669785E+02  0.37747669785E+02  0.00000000000E+00 0.  1.
         21    1    1    2  502  501  0.25115130093E+02 -0.18711170803E+02 -0.22775778097E+02  0.38724846550E+02  0.00000000000E+00 0. -1.
         21    1    1    2  503  502 -0.25115130093E+02  0.18711170803E+02  0.28047217500E+02  0.42041932423E+02  0.00000000000E+00 0.  1.
</event>
<event>
 4    1  0.5967370E+002  0.2217254E+02  0.7546771E-02  0.1503158E+00
          2   -1    0    0  503    0  0.00000000000E+00  0.00000000000E+00  0.82495023431E+03  0.82495023431E+03  0.00000000000E+00 0. -1.
         -2   -1    0    0    0  501 -0.00000000000E+00 -0.00000000000E+00 -0.11573070023E+01  0.11573070023E+01  0.00000000000E+00 0.  1.
         21    1    1    2  502  501  0.89682042316E+01 -0.20277891092E+02  0.12421928728E+03  0.12618261721E+03  0.00000000000E+00 0.  1.
         21    1    1    2  503  502 -0.89682042316E+01  0.20277891092E+02  0.69957364003E+03  0.69992492410E+03  0.00000000000E+00 0. -1.
</event>
<event>
 4    1  0.5967370E+002  0.2310910E+02  0.7546771E-02  0.1491133E+00
          2   -1    0    0  502    0  0.00000000000E+00  0.00000000000E+00  0.15894441404E+03  0.15894441404E+03  0.00000000000E+00 0.  1.
         -2   -1    0    0    0  501 -0.00000000000E+00 -0.00000000000E+00 -0.15867598723E+02  0.15867598723E+02  0.00000000000E+00 0. -1.
         21    1    1    2  502  503 -0.20120042541E+02 -0.11367255889E+02  0.14914080050E+03  0.15092053867E+03  0.00000000000E+00 0.  1.
         21    1    1    2  503  501  0.20120042541E+02  0.11367255889E+02 -0.60639851803E+01  0.23891474097E+02  0.00000000000E+00 0. -1.
</event>
<event>
 4    1  0.5967370E+002  0.2518528E+02  0.7546771E-02  0.1466741E+00
          2   -1    0    0  503    0  0.00000000000E+00  0.00000000000E+00  0.56912819291E+03  0.56912819291E+03  0.00000000000E+00 0.  1.
         -2   -1    0    0    0  501 -0.00000000000E+00 -0.00000000000E+00 -0.18633954550E+01  0.18633954550E+01  0.00000000000E+00 0. -1.
         21    1    1    2  502  501 -0.10941526441E+01 -0.25161503475E+02  0.10264213190E+03  0.10568682827E+03  0.00000000000E+00 0. -1.
         21    1    1    2  503  502  0.10941526441E+01  0.25161503475E+02  0.46462266556E+03  0.46530476010E+03  0.00000000000E+00 0.  1.
</event>
<event>
 4    1  0.5967370E+002  0.2006687E+02  0.7546771E-02  0.1533016E+00
          2   -1    0    0  503    0  0.00000000000E+00  0.00000000000E+00  0.44787647749E+01  0.44787647749E+01  0.00000000000E+00 0. -1.
         -2   -1    0    0    0  501 -0.00000000000E+00 -0.00000000000E+00 -0.10264990052E+03  0.10264990052E+03  0.00000000000E+00 0.  1.
         21    1    1    2  502  501 -0.14338027360E+02 -0.14039237906E+02 -0.30214163134E+02  0.36270854462E+02  0.00000000000E+00 0. -1.
         21    1    1    2  503  502  0.14338027360E+02  0.14039237906E+02 -0.67956972615E+02  0.70857810837E+02  0.00000000000E+00 0.  1.
</event>
<event>
 4    1  0.5967370E+002  0.3224386E+02  0.7546771E-02  0.1401049E+00
          2   -1    0    0  502    0  0.00000000000E+00  0.00000000000E+00  0.11176493031E+04  0.11176493031E+04  0.00000000000E+00 0. -1.
         -2   -1    0    0    0  501 -0.00000000000E+00 -0.00000000000E+00 -0.93047393255E+00  0.93047393255E+00  0.00000000000E+00 0.  1.
         21    1    1    2  502  503 -0.17972172494E+02  0.26770644796E+02  0.56748956695E+03  0.56840485132E+03  0.00000000000E+00 0. -1.
         21    1    1    2  503  501  0.17972172494E+02 -0.26770644796E+02  0.54922926220E+03  0.55017492570E+03  0.00000000000E+00 0.  1.
</event>
<event>
 4    1  0.5967370E+002  0.2049367E+02  0.7546771E-02  0.1526618E+00
          2   -1    0    0  502    0  0.00000000000E+00  0.00000000000E+00  0.68722151834E+02  0.68722151834E+02  0.00000000000E+00 0. -1.
         -2   -1    0    0    0  501 -0.00000000000E+00 -0.00000000000E+00 -0.63565600683E+01  0.63565600683E+01  0.00000000000E+00 0.  1.
         21    1    1    2  502  503 -0.10092852031E+01 -0.20468801627E+02  0.38554631244E+02  0.43662914322E+02  0.00000000000E+00 0. -1.
         21    1    1    2  503  501  0.10092852031E+01  0.20468801627E+02  0.23810960522E+02  0.31415797581E+02  0.00000000000E+00 0.  1.
</event>
<event>
 4    1  0.5967370E+002  0.2354466E+02  0.7546771E-02  0.1485770E+00
          2   -1    0    0  503    0  0.00000000000E+00  0.00000000000E+00  0.43460105573E+03  0.43460105573E+03  0.00000000000E+00 0.  1.
         -2   -1    0    0    0  501 -0.00000000000E+00 -0.00000000000E+00 -0.54072318571E+01  0.54072318571E+01  0.00000000000E+00 0. -1.
         21    1    1    2  502  501 -0.11508717196E+02  0.20540220090E+02  0.22284504353E+02  0.32418364350E+02  0.00000000000E+00 0. -1.
         21    1    1    2  503  502  0.11508717196E+02 -0.20540220090E+02  0.40690931952E+03  0.40758992324E+03  0.00000000000E+00 0.  1.
</event>
<event>
 4    1  0.5967370E+002  0.2260619E+02  0.7546771E-02  0.1497503E+00
          2   -1    0    0  503    0  0.00000000000E+00  0.00000000000E+00  0.48153641700E+02  0.48153641700E+02  0.00000000000E+00 0.  1.
         -2   -1    0    0    0  501 -0.00000000000E+00 -0.00000000000E+00 -0.15809091776E+02  0.15809091776E+02  0.00000000000E+00 0. -1.
         21    1    1    2  502  501 -0.19798702181E+02  0.10911051755E+02 -0.21633168480E+01  0.22709460545E+02  0.00000000000E+00 0. -1.
         21    1    1    2  503  502  0.19798702181E+02 -0.10911051755E+02  0.34507866772E+02  0.41253272932E+02  0.00000000000E+00 0.  1.
</event>
<event>
 4    1  0.5967370E+002  0.8029825E+02  0.7546771E-02  0.1203157E+00
          2   -1    0    0  502    0  0.00000000000E+00  0.00000000000E+00  0.70061014614E+03  0.70061014614E+03  0.00000000000E+00 0.  1.
         -2   -1    0    0    0  501 -0.00000000000E+00 -0.00000000000E+00 -0.21956523575E+02  0.21956523575E+02  0.00000000000E+00 0. -1.
         21    1    1    2  502  503 -0.80220702690E+02  0.35280860803E+01  0.63980688335E+02  0.10267101349E+03  0.00000000000E+00 0. -1.
         21    1    1    2  503  501  0.80220702690E+02 -0.35280860803E+01  0.61467293423E+03  0.61989565623E+03  0.00000000000E+00 0.  1.
</event>
<event>
 4    1  0.5967370E+002  0.3912783E+02  0.7546771E-02  0.1353674E+00
          2   -1    0    0  502    0  0.00000000000E+00  0.00000000000E+00  0.19145215937E+03  0.19145215937E+03  0.00000000000E+00 0. -1.
         -2   -1    0    0    0  501 -0.00000000000E+00 -0.00000000000E+00 -0.26762651819E+02  0.26762651819E+02  0.00000000000E+00 0.  1.
         21    1    1    2  502  503 -0.15319843021E+02 -0.36004015640E+02  0.17370870642E+03  0.17806094860E+03  0.00000000000E+00 0. -1.
         21    1    1    2  503  501  0.15319843021E+02  0.36004015640E+02 -0.90191988658E+01  0.40153862586E+02  0.00000000000E+00 0.  1.
</event>
<event>
 4    1  0.5967370E+002  0.2354312E+02  0.7546771E-02  0.1485789E+00
          2   -1    0    0  503    0  0.00000000000E+00  0.00000000000E+00  0.81655951133E+03  0.81655951133E+03  0.00000000000E+00 0.  1.
         -2   -1    0    0    0  501 -0.00000000000E+00 -0.00000000000E+00 -0.34701639651E+01  0.34701639651E+01  0.00000000000E+00 0. -1.
         21    1    1    2  502  501  0.17123604263E+02  0.16157367600E+02  0.38811319360E+02  0.45393797607E+02  0.00000000000E+00 0. -1.
         21    1    1    2  503  502 -0.17123604263E+02 -0.16157367600E+02  0.77427802800E+03  0.77463587769E+03  0.00000000000E+00 0.  1.
</event>
<event>
 4    1  0.5967370E+002  0.2225501E+02  0.7546771E-02  0.1502071E+00
          2   -1    0    0  502    0  0.00000000000E+00  0.00000000000E+00  0.30383699050E+03  0.30383699050E+03  0.00000000000E+00 0.  1.
         -2   -1    0    0    0  501 -0.00000000000E+00 -0.00000000000E+00 -0.33506699379E+01  0.33506699379E+01  0.00000000000E+00 0. -1.
         21    1    1    2  502  503 -0.56524137980E+01 -0.21525235066E+02  0.26030677176E+03  0.26125638930E+03  0.00000000000E+00 0.  1.
         21    1    1    2  503  501  0.56524137980E+01  0.21525235066E+02  0.40179548808E+02  0.45931271143E+02  0.00000000000E+00 0. -1.
</event>
<event>
 4    1  0.5967370E+002  0.2369734E+02  0.7546771E-02  0.1483922E+00
          2   -1    0    0  503    0  0.00000000000E+00  0.00000000000E+00  0.36254701735E+03  0.36254701735E+03  0.00000000000E+00 0.  1.
         -2   -1    0    0    0  501 -0.00000000000E+00 -0.00000000000E+00 -0.11055639210E+02  0.11055639210E+02  0.00000000000E+00 0. -1.
         21    1    1    2  502  501 -0.23462406504E+02  0.33285588806E+01  0.25237513946E+01  0.23831347932E+02  0.00000000000E+00 0. -1.
         21    1    1    2  503  502  0.23462406504E+02 -0.33285588806E+01  0.34896762675E+03  0.34977130863E+03  0.00000000000E+00 0.  1.
</event>
<event>
 4    1  0.5967370E+002  0.2244084E+02  0.7546771E-02  0.1499641E+00
          2   -1    0    0  503    0  0.00000000000E+00  0.00000000000E+00  0.70262970274E+01  0.70262970274E+01  0.00000000000E+00 0. -1.
         -2   -1    0    0    0  501 -0.00000000000E+00 -0.00000000000E+00 -0.10652826416E+03  0.10652826416E+03  0.00000000000E+00 0.  1.
         21    1    1    2  502  501  0.22120182070E+02  0.37800763966E+01 -0.82228305680E+02  0.85235472002E+02  0.00000000000E+00 0.  1.
         21    1    1    2  503  502 -0.22120182070E+02 -0.37800763966E+01 -0.17273661454E+02  0.28319089187E+02  0.00000000000E+00 0. -1.
</event>
<event>
 4    1  0.5967370E+002  0.2070424E+02  0.7546771E-02  0.1523530E+00
          2   -1    0    0  502    0  0.00000000000E+00  0.00000000000E+00  0.18441396485E+03  0.18441396485E+03  0.00000000000E+00 0. -1.
         -2   -1    0    0    0  501 -0.00000000000E+00 -0.00000000000E+00 -0.65610746087E+01  0.65610746087E+01  0.00000000000E+00 0.  1.
         21    1    1    2  502  503  0.20702686687E+02 -0.25339049360E+00  0.16565692129E+03  0.16694574273E+03  0.00000000000E+00 0. -1.
         21    1    1    2  503  501 -0.20702686687E+02  0.25339049360E+00  0.12195968950E+02  0.24029296732E+02  0.00000000000E+00 0.  1.
</event>
<event>
 4    1  0.5967370E+002  0.2600727E+02  0.7546771E-02  0.1457843E+00
          2   -1    0    0  502    0  0.00000000000E+00  0.00000000000E+00  0.37770428197E+02  0.37770428197E+02  0.00000000000E+00 0. -1.
         -2   -1    0    0    0  501 -0.00000000000E+00 -0.00000000000E+00 -0.18603847013E+02  0.18603847013E+02  0.00000000000E+00 0.  1.
         21    1    1    2  502  503  0.17803480537E+02 -0.18958224554E+02  0.15036187983E+02  0.30041057680E+02  0.00000000000E+00 0.  1.
         21    1    1    2  503  501 -0.17803480537E+02  0.18958224554E+02  0.41303932006E+01  0.26333217529E+02  0.00000000000E+00 0. -1.
</event>
<event>
 4    1  0.5967370E+002  0.2253823E+02  0.7546771E-02  0.1498380E+00
          2   -1    0    0  502    0  0.00000000000E+00  0.00000000000E+00  0.42537010997E+02  0.42537010997E+02  0.00000000000E+00 0.  1.
         -2   -1    0    0    0  501 -0.00000000000E+00 -0.00000000000E+00 -0.12476493168E+02  0.12476493168E+02  0.00000000000E+00 0. -1.
         21    1    1    2  502  503 -0.21812121812E+02 -0.56747627669E+01  0.20724235096E+02  0.30618058572E+02  0.00000000000E+00 0.  1.
         21    1    1    2  503  501  0.21812121812E+02  0.56747627669E+01  0.93362827337E+01  0.24395445593E+02  0.00000000000E+00 0. -1.
</event>
<event>
 4    1  0.5967370E+002  0.3921872E+02  0.7546771E-02  0.1353126E+00
          2   -1    0    0  503    0  0.00000000000E+00  0.00000000000E+00  0.39073103776E+03  0.39073103776E+03  0.00000000000E+00 0. -1.
         -2   -1    0    0    0  501 -0.00000000000E+00 -0.00000000000E+00 -0.59646868397E+01  0.59646868397E+01  0.00000000000E+00 0.  1.
         21    1    1    2  502  501  0.36740135241E+02 -0.13721175765E+02  0.76721648478E+02  0.86164491219E+02  0.00000000000E+00 0.  1.
         21    1    1    2  503  502 -0.36740135241E+02  0.13721175765E+02  0.30804470245E+03  0.31053123338E+03  0.00000000000E+00 0. -1.
</event>
<event>
 4    1  0.5967370E+002  0.2272208E+02  0.7546771E-02  0.1496018E+00
          2   -1    0    0  502    0  0.00000000000E+00  0.00000000000E+00  0.24141420530E+02  0.24141420530E+02  0.00000000000E+00 0.  1.
         -2   -1    0    0    0  501 -0.00000000000E+00 -0.00000000000E+00 -0.95075795632E+02  0.95075795632E+02  0.00000000000E+00 0. -1.
         21    1    1    2  502  503 -0.81154075492E+00 -0.22707578870E+02  0.17010796789E+02  0.28384149520E+02  0.00000000000E+00 0.  1.
         21    1    1    2  503  501  0.81154075492E+00  0.22707578870E+02 -0.87945171892E+02  0.90833066642E+02  0.00000000000E+00 0. -1.
</event>
<event>
 4    1  0.5967370E+002  0.7704269E+02  0.7546771E-02  0.1210885E+00
          2   -1    0    0  502    0  0.00000000000E+00  0.00000000000E+00  0.18683368049E+04  0.18683368049E+04  0.00000000000E+00 0. -1.
         -2   -1    0    0    0  501 -0.00000000000E+00 -0.00000000000E+00 -0.66354073631E+01  0.66354073631E+01  0.00000000000E+00 0.  1.
         21    1    1    2  502  503 -0.19411567239E+02 -0.74557144457E+02  0.16076711352E+04  0.16095160936E+04  0.00000000000E+00 0. -1.
         21    1    1    2  503  501  0.19411567239E+02  0.74557144457E+02  0.25403026238E+03  0.26545611867E+03  0.00000000000E+00 0.  1.
</event>
<event>
 4    1  0.5967370E+002  0.4507293E+02  0.7546771E-02  0.1321075E+00
          2   -1    0    0  503    0  0.00000000000E+00  0.00000000000E+00  0.10108764076E+03  0.10108764076E+03  0.00000000000E+00 0. -1.
         -2   -1    0    0    0  501 -0.00000000000E+00 -0.00000000000E+00 -0.33953776307E+02  0.33953776307E+02  0.00000000000E+00 0.  1.
         21    1    1    2  502  501 -0.51829967596E+01  0.44773934042E+02 -0.95673379603E+01  0.46077137288E+02  0.00000000000E+00 0.  1.
         21    1    1    2  503  502  0.51829967596E+01 -0.44773934042E+02  0.76701202410E+02  0.88964279776E+02  0.00000000000E+00 0. -1.
</event>
<event>
 4    1  0.5967370E+002  0.2137123E+02  0.7546771E-02  0.1514030E+00
          2   -1    0    0  503    0  0.00000000000E+00  0.00000000000E+00  0.34831625901E+03  0.34831625901E+03  0.00000000000E+00 0. -1.
         -2   -1    0    0    0  501 -0.00000000000E+00 -0.00000000000E+00 -0.19872500919E+01  0.19872500919E+01  0.00000000000E+00 0.  1.
         21    1    1    2  502  501  0.64440447225E+01 -0.20376553333E+02  0.71009026782E+02  0.74155320258E+02  0.00000000000E+00 0. -1.
         21    1    1    2  503  502 -0.64440447225E+01  0.20376553333E+02  0.27531998213E+03  0.27614818884E+03  0.00000000000E+00 0.  1.
</event>
<event>
 4    1  0.5967370E+002  0.2115859E+02  0.7546771E-02  0.1517013E+00
          2   -1    0    0  502    0  0.00000000000E+00  0.00000000000E+00  0.50617638025E+03  0.50617638025E+03  0.00000000000E+00 0. -1.
         -2   -1    0    0    0  501 -0.00000000000E+00 -0.00000000000E+00 -0.19902008747E+01  0.19902008747E+01  0.00000000000E+00 0.  1.
         21    1    1    2  502  503  0.15530320602E+01  0.21101514549E+02  0.44148308004E+03  0.44198981412E+03  0.00000000000E+00 0. -1.
         21    1    1    2  503  501 -0.15530320602E+01 -0.21101514549E+02  0.62703099335E+02  0.66176767003E+02  0.00000000000E+00 0.  1.
</event>
<event>
 4    1  0.5967370E+002  0.2541652E+02  0.7546771E-02  0.1464197E+00
          2   -1    0    0  503    0  0.00000000000E+00  0.00000000000E+00  0.85605589961E+03  0.85605589961E+03  0.00000000000E+00 0. -1.
         -2   -1    0    0    0  501 -0.00000000000E+00 -0.00000000000E+00 -0.54918583547E+01  0.54918583547E+01  0.00000000000E+00 0.  1.
         21    1    1    2  502  501  0.10101573520E+02  0.23322902895E+02  0.25197110163E+02  0.35789578757E+02  0.00000000000E+00 0.  1.
         21    1    1    2  503  502 -0.10101573520E+02 -0.23322902895E+02  0.82536693109E+03  0.82575817921E+03  0.00000000000E+00 0. -1.
</event>
<event>
 4    1  0.5967370E+002  0.2416216E+02  0.7546771E-02  0.1478399E+00
          2   -1    0    0  503    0  0.00000000000E+00  0.00000000000E+00  0.40910918412E+01  0.40910918412E+01  0.00000000000E+00 0.  1.
         -2   -1    0    0    0  501 -0.00000000000E+00 -0.00000000000E+00 -0.14271894080E+03  0.14271894080E+03  0.00000000000E+00 0. -1.
         21    1    1    2  502  501  0.80989944742E+01  0.22764368215E+02 -0.68532764393E+02  0.72667392736E+02  0.00000000000E+00 0. -1.
         21    1    1    2  503  502 -0.80989944742E+01 -0.22764368215E+02 -0.70095084561E+02  0.74142639901E+02  0.00000000000E+00 0.  1.
</event>
<event>
 4    1  0.5967370E+002  0.2126252E+02  0.7546771E-02  0.1515550E+00
          2   -1    0    0  502    0  0.00000000000E+00  0.00000000000E+00  0.66801810671E+01  0.66801810671E+01  0.00000000000E+00 0. -1.
         -2   -1    0    0    0  501 -0.00000000000E+00 -0.00000000000E+00 -0.14342701948E+03  0.14342701948E+03  0.00000000000E+00 0.  1.
         21    1    1    2  502  503  0.83757181945E+01 -0.19543340677E+02 -0.13829375842E+02  0.25364275197E+02  0.00000000000E+00 0.  1.
         21    1    1    2  503  501 -0.83757181945E+01  0.19543340677E+02 -0.12291746257E+03  0.12474292535E+03  0.00000000000E+00 0. -1.
</event>
<event>
 4    1  0.5967370E+002  0.2352499E+03  0.7546771E-02  0.1032616E+00
          2   -1    0    0  502    0  0.00000000000E+00  0.00000000000E+00  0.95550566980E+03  0.95550566980E+03  0.00000000000E+00 0.  1.
         -2   -1    0    0    0  501 -0.00000000000E+00 -0.00000000000E+00 -0.90438188571E+02  0.90438188571E+02  0.00000000000E+00 0. -1.
         21    1    1    2  502  503 -0.19957944381E+03 -0.12454135240E+03  0.74612815455E+03  0.78233606964E+03  0.00000000000E+00 0.  1.
         21    1    1    2  503  501  0.19957944381E+03  0.12454135240E+03  0.11893932668E+03  0.26360778873E+03  0.00000000000E+00 0. -1.
</event>
<event>
 4    1  0.5967370E+002  0.2150900E+02  0.7546771E-02  0.1512120E+00
          2   -1    0    0  502    0  0.00000000000E+00  0.00000000000E+00  0.20330580867E+04  0.20330580867E+04  0.00000000000E+00 0. -1.
         -2   -1    0    0    0  501 -0.00000000000E+00 -0.00000000000E+00 -0.30202266176E+00  0.30202266176E+00  0.00000000000E+00 0.  1.
         21    1    1    2  502  503  0.12622637109E+02  0.17415684782E+02  0.51155178511E+03  0.51200377527E+03  0.00000000000E+00 0.  1.
         21    1    1    2  503  501 -0.12622637109E+02 -0.17415684782E+02  0.15212042789E+04  0.15213563340E+04  0.00000000000E+00 0. -1.
</event>
<event>
 4    1  0.5967370E+002  0.2645729E+02  0.7546771E-02  0.1453137E+00
          2   -1    0    0  503    0  0.00000000000E+00  0.00000000000E+00  0.18219888478E+02  0.18219888478E+02  0.00000000000E+00 0. -1.
         -2   -1    0    0    0  501 -0.00000000000E+00 -0.00000000000E+00 -0.18395623050E+03  0.18395623050E+03  0.00000000000E+00 0.  1.
         21    1    1    2  502  501  0.14345815892E+02 -0.22230289282E+02 -0.17278268503E+03  0.17479658018E+03  0.00000000000E+00 0.  1.
         21    1    1    2  503  502 -0.14345815892E+02  0.22230289282E+02  0.70463430088E+01  0.27379538801E+02  0.00000000000E+00 0. -1.
</event>
<event>
 4    1  0.5967370E+002  0.2987296E+02  0.7546771E-02  0.1420704E+00
          2   -1    0    0  502    0  0.00000000000E+00  0.00000000000E+00  0.18166957121E+04  0.18166957121E+04  0.00000000000E+00 0.  1.
         -2   -1    0    0    0  501 -0.00000000000E+00 -0.00000000000E+00 -0.50631295412E+00  0.50631295412E+00  0.00000000000E+00 0. -1.
         21    1    1    2  502  503  0.19442383016E+02  0.22680111198E+02  0.10649788482E+04  0.10653977383E+04  0.00000000000E+00 0.  1.
         21    1    1    2  503  501 -0.19442383016E+02 -0.22680111198E+02  0.75121055100E+03  0.75180428679E+03  0.00000000000E+00 0. -1.
</event>
<event>
 4    1  0.5967370E+002  0.2867871E+02  0.7546771E-02  0.1431437E+00
          2   -1    0    0  502    0  0.00000000000E+00  0.00000000000E+00  0.11971667647E+03  0.11971667647E+03  0.00000000000E+00 0.  1.
         -2   -1    0    0    0  501 -0.00000000000E+00 -0.00000000000E+00 -0.24362839442E+02  0.24362839442E+02  0.00000000000E+00 0. -1.
         21    1    1    2  502  503 -0.26269437520E+02  0.11505869664E+02  0.10872006510E+03  0.11243896540E+03  0.00000000000E+00 0.  1.
         21    1    1    2  503  501  0.26269437520E+02 -0.11505869664E+02 -0.13366228069E+02  0.31640550519E+02  0.00000000000E+00 0. -1.
</event>
<event>
 4    1  0.5967370E+002  0.2212129E+02  0.7546771E-02  0.1503837E+00
          2   -1    0    0  502    0  0.00000000000E+00  0.00000000000E+00  0.20586855321E+02  0.20586855321E+02  0.00000000000E+00 0.  1.
         -2   -1    0    0    0  501 -0.00000000000E+00 -0.00000000000E+00 -0.10929575356E+03  0.10929575356E+03  0.00000000000E+00 0. -1.
         21    1    1    2  502  503  0.16877174784E+02 -0.14300789402E+02  0.13092578765E+02  0.25705392915E+02  0.00000000000E+00 0.  1.
         21    1    1    2  503  501 -0.16877174784E+02  0.14300789402E+02 -0.10180147701E+03  0.10417721597E+03  0.00000000000E+00 0. -1.
</event>
<event>
 4    1  0.5967370E+002  0.2280900E+02  0.7546771E-02  0.1494911E+00
          2   -1    0    0  503    0  0.00000000000E+00  0.00000000000E+00  0.40553769392E+03  0.40553769392E+03  0.00000000000E+00 0.  1.
         -2   -1    0    0    0  501 -0.00000000000E+00 -0.00000000000E+00 -0.14237032546E+01  0.14237032546E+01  0.00000000000E+00 0. -1.
         21    1    1    2  502  501  0.19347330319E+02  0.12080207801E+02  0.13805818403E+03  0.13992967087E+03  0.00000000000E+00 0. -1.
         21    1    1    2  503  502 -0.19347330319E+02 -0.12080207801E+02  0.26605580664E+03  0.26703172631E+03  0.00000000000E+00 0.  1.
</event>
<event>
 4    1  0.5967370E+002  0.2047595E+02  0.7546771E-02  0.1526880E+00
          2   -1    0    0  502    0  0.00000000000E+00  0.00000000000E+00  0.29938778617E+03  0.29938778617E+03  0.00000000000E+00 0. -1.
         -2   -1    0    0    0  501 -0.00000000000E+00 -0.00000000000E+00 -0.14425753640E+01  0.14425753640E+01  0.00000000000E+00 0.  1.
         21    1    1    2  502  503 -0.19696956212E+01 -0.20380995906E+02  0.12325581518E+03  0.12494503060E+03  0.00000000000E+00 0.  1.
         21    1    1    2  503  501  0.19696956212E+01  0.20380995906E+02  0.17468939563E+03  0.17588533094E+03  0.00000000000E+00 0. -1.
</event>
<event>
 4    1  0.5967370E+002  0.2838888E+02  0.7546771E-02  0.1434134E+00
          2   -1    0    0  502    0  0.00000000000E+00  0.00000000000E+00  0.28810392418E+02  0.28810392418E+02  0.00000000000E+00 0.  1.
         -2   -1    0    0    0  501 -0.00000000000E+00 -0.00000000000E+00 -0.28978711250E+02  0.28978711250E+02  0.00000000000E+00 0. -1.
         21    1    1    2  502  503 -0.23790640292E+02 -0.15489798222E+02  0.52972785039E+01  0.28878877645E+02  0.00000000000E+00 0.  1.
         21    1    1    2  503  501  0.23790640292E+02  0.15489798222E+02 -0.54655973354E+01  0.28910226023E+02  0.00000000000E+00 0. -1.
</event>
<event>
 4    1  0.5967370E+002  0.3846606E+02  0.7546771E-02  0.1357717E+00
          2   -1    0    0  503    0  0.00000000000E+00  0.00000000000E+00  0.94493062833E+03  0.94493062833E+03  0.00000000000E+00 0. -1.
         -2   -1    0    0    0  501 -0.00000000000E+00 -0.00000000000E+00 -0.42420455776E+01  0.42420455776E+01  0.00000000000E+00 0.  1.
         21    1    1    2  502  501 -0.38290179031E+02 -0.36742603796E+01  0.93393280515E+02  0.10100466744E+03  0.00000000000E+00 0.  1.
         21    1    1    2  503  502  0.38290179031E+02  0.36742603796E+01  0.84729530223E+03  0.84816800646E+03  0.00000000000E+00 0. -1.
</event>
<event>
 4    1  0.5967370E+002  0.2192930E+02  0.7546771E-02  0.1506399E+00
          2   -1    0    0  503    0  0.00000000000E+00  0.00000000000E+00  0.15821534602E+03  0.15821534602E+03  0.00000000000E+00 0.  1.
         -2   -1    0    0    0  501 -0.00000000000E+00 -0.00000000000E+00 -0.42017575699E+01  0.42017575699E+01  0.00000000000E+00 0. -1.
         21    1    1    2  502  501 -0.94637412866E+01 -0.19782103757E+02  0.34295842184E+02  0.40707478665E+02  0.00000000000E+00 0. -1.
         21    1    1    2  503  502  0.94637412866E+01  0.19782103757E+02  0.11971774627E+03  0.12170962492E+03  0.00000000000E+00 0.  1.
</event>
<event>
 4    1  0.5967370E+002  0.3353527E+02  0.7546771E-02  0.1391164E+00
          2   -1    0    0  503    0  0.00000000000E+00  0.00000000000E+00  0.11783019679E+04  0.11783019679E+04  0.00000000000E+00 0.  1.
         -2   -1    0    0    0  501 -0.00000000000E+00 -0.00000000000E+00 -0.97263589405E+00  0.97263589405E+00  0.00000000000E+00 0. -1.
         21    1    1    2  502  501  0.31786147519E+02 -0.10689031359E+02  0.50800867076E+03  0.50911435271E+03  0.00000000000E+00 0. -1.
         21    1    1    2  503  502 -0.31786147519E+02  0.10689031359E+02  0.66932066120E+03  0.67016025105E+03  0.00000000000E+00 0.  1.
</event>
<event>
 4    1  0.5967370E+002  0.2305862E+02  0.7546771E-02  0.1491763E+00
          2   -1    0    0  503    0  0.00000000000E+00  0.00000000000E+00  0.58324635453E+03  0.58324635453E+03  0.00000000000E+00 0.  1.
         -2   -1    0    0    0  501 -0.00000000000E+00 -0.00000000000E+00 -0.11437312401E+01  0.11437312401E+01  0.00000000000E+00 0. -1.
         21    1    1    2  502  501 -0.15748551051E+02  0.16842893402E+02  0.15942050830E+03  0.16107947848E+03  0.00000000000E+00 0. -1.
         21    1    1    2  503  502  0.15748551051E+02 -0.16842893402E+02  0.42268211499E+03  0.42331060729E+03  0.00000000000E+00 0.  1.
</event>
<event>
 4    1  0.5967370E+002  0.2934852E+02  0.7546771E-02  0.1425343E+00
          2   -1    0    0  502    0  0.00000000000E+00  0.00000000000E+00  0.74290446135E+01  0.74290446135E+01  0.00000000000E+00 0.  1.
         -2   -1    0    0    0  501 -0.00000000000E+00 -0.00000000000E+00 -0.12751289127E+03  0.12751289127E+03  0.00000000000E+00 0. -1.
         21    1    1    2  502  503 -0.16147574301E+01  0.29304068637E+02 -0.39716977859E+02  0.49383946891E+02  0.00000000000E+00 0. -1.
         21    1    1    2  503  501  0.16147574301E+01 -0.29304068637E+02 -0.80366868797E+02  0.85557988993E+02  0.00000000000E+00 0.  1.
</event>
<event>
 4    1  0.5967370E+002  0.5599923E+02  0.7546771E-02  0.1274067E+00
          2   -1    0    0  503    0  0.00000000000E+00  0.00000000000E+00  0.51607792887E+03  0.51607792887E+03  0.00000000000E+00 0.  1.
         -2   -1    0    0    0  501 -0.00000000000E+00 -0.00000000000E+00 -0.60797383086E+01  0.60797383086E+01  0.00000000000E+00 0. -1.
         21    1    1    2  502  501 -0.55084320526E+02  0.10081249258E+02  0.24891342677E+03  0.25513488194E+03  0.00000000000E+00 0. -1.
         21    1    1    2  503  502  0.55084320526E+02 -0.10081249258E+02  0.26108476379E+03  0.26702278524E+03  0.00000000000E+00 0.  1.
</event>
<event>
 4    1  0.5967370E+002  0.7296753E+02  0.7546771E-02  0.1221188E+00
          2   -1    0    0  503    0  0.00000000000E+00  0.00000000000E+00  0.21179494057E+04  0.21179494057E+04  0.00000000000E+00 0. -1.
         -2   -1    0    0    0  501 -0.00000000000E+00 -0.00000000000E+00 -0.25435966189E+01  0.25435966189E+01  0.00000000000E+00 0.  1.
         21    1    1    2  502  501  0.34793326886E+02 -0.64138019314E+02  0.94309480279E+03  0.94591335130E+03  0.00000000000E+00 0.  1.
         21    1    1    2  503  502 -0.34793326886E+02  0.64138019314E+02  0.11723110063E+04  0.11745796510E+04  0.00000000000E+00 0. -1.
</event>
<event>
 4    1  0.5967370E+002  0.3756672E+02  0.7546771E-02  0.1363367E+00
          2   -1    0    0  502    0  0.00000000000E+00  0.00000000000E+00  0.78364258498E+03  0.78364258498E+03  0.00000000000E+00 0.  1.
         -2   -1    0    0    0  501 -0.00000000000E+00 -0.00000000000E+00 -0.24688630133E+01  0.24688630133E+01  0.00000000000E+00 0. -1.
         21    1    1    2  502  503  0.21268109456E+02  0.30966529600E+02  0.59503505867E+03  0.59621974094E+03  0.00000000000E+00 0.  1.
         21    1    1    2  503  501 -0.21268109456E+02 -0.30966529600E+02  0.18613866330E+03  0.18989170706E+03  0.00000000000E+00 0. -1.
</event>
<event>
 4    1  0.5967370E+002  0.2186933E+02  0.7546771E-02  0.1507206E+00
          2   -1    0    0  503    0  0.00000000000E+00  0.00000000000E+00  0.29629464459E+01  0.29629464459E+01  0.00000000000E+00 0. -1.
         -2   -1    0    0    0  501 -0.00000000000E+00 -0.00000000000E+00 -0.14325648160E+04  0.14325648160E+04  0.00000000000E+00 0.  1.
         21    1    1    2  502  501  0.16146257953E+02 -0.14750110693E+02 -0.13909191444E+04  0.13910910588E+04  0.00000000000E+00 0.  1.
         21    1    1    2  503  502 -0.16146257953E+02  0.14750110693E+02 -0.38682725091E+02  0.44436703656E+02  0.00000000000E+00 0. -1.
</event>
<event>
 4    1  0.5967370E+002  0.2628229E+02  0.7546771E-02  0.1454954E+00
          2   -1    0    0  502    0  0.00000000000E+00  0.00000000000E+00  0.24428034721E+03  0.24428034721E+03  0.00000000000E+00 0.  1.
         -2   -1    0    0    0  501 -0.00000000000E+00 -0.00000000000E+00 -0.60611196797E+01  0.60611196797E+01  0.00000000000E+00 0. -1.
         21    1    1    2  502  503 -0.21067577515E+02 -0.15713557134E+02  0.21053260714E+03  0.21216676782E+03  0.00000000000E+00 0.  1.
         21    1    1    2  503  501  0.21067577515E+02  0.15713557134E+02  0.27686620395E+02  0.38174699070E+02  0.00000000000E+00 0. -1.
</event>
<event>
 4    1  0.5967370E+002  0.3010452E+02  0.7546771E-02  0.1418690E+00
          2   -1    0    0  502    0  0.00000000000E+00  0.00000000000E+00  0.11391194910E+03  0.11391194910E+03  0.00000000000E+00 0.  1.
         -2   -1    0    0    0  501 -0.00000000000E+00 -0.00000000000E+00 -0.14149768596E+02  0.14149768596E+02  0.00000000000E+00 0. -1.
         21    1    1    2  502  503 -0.16833125923E+02 -0.24958520136E+02  0.92244669117E+02  0.97032782276E+02  0.00000000000E+00 0.  1.
         21    1    1    2  503  501  0.16833125923E+02  0.24958520136E+02  0.75175113836E+01  0.31028935417E+02  0.00000000000E+00 0. -1.
</event>
<event>
 4    1  0.5967370E+002  0.2818380E+02  0.7546771E-02  0.1436066E+00
          2   -1    0    0  502    0  0.00000000000E+00  0.00000000000E+00  0.10883595663E+04  0.10883595663E+04  0.00000000000E+00 0.  1.
         -2   -1    0    0    0  501 -0.00000000000E+00 -0.00000000000E+00 -0.11503626717E+01  0.11503626717E+01  0.00000000000E+00 0. -1.
         21    1    1    2  502  503 -0.27932861476E+02  0.37525610250E+01  0.87297108787E+03  0.87342592515E+03  0.00000000000E+00 0.  1.
         21    1    1    2  503  501  0.27932861476E+02 -0.37525610250E+01  0.21423811572E+03  0.21608400379E+03  0.00000000000E+00 0. -1.
</event>
<event>
 4    1  0.5967370E+002  0.2237961E+02  0.7546771E-02  0.1500439E+00
          2   -1    0    0  503    0  0.00000000000E+00  0.00000000000E+00  0.12974840065E+02  0.12974840065E+02  0.00000000000E+00 0.  1.
         -2   -1    0    0    0  501 -0.00000000000E+00 -0.00000000000E+00 -0.45873781328E+02  0.45873781328E+02  0.00000000000E+00 0. -1.
         21    1    1    2  502  501 -0.18839319322E+02 -0.12080033422E+02 -0.28165001187E+02  0.35973802299E+02  0.00000000000E+00 0. -1.
         21    1    1    2  503  502  0.18839319322E+02  0.12080033422E+02 -0.47339400757E+01  0.22874819095E+02  0.00000000000E+00 0.  1.
</event>
<event>
 4    1  0.5967370E+002  0.3208824E+02  0.7546771E-02  0.1402277E+00
          2   -1    0    0  503    0  0.00000000000E+00  0.00000000000E+00  0.16855830450E+03  0.16855830450E+03  0.00000000000E+00 0. -1.
         -2   -1    0    0    0  501 -0.00000000000E+00 -0.00000000000E+00 -0.96609958708E+01  0.96609958708E+01  0.00000000000E+00 0.  1.
         21    1    1    2  502  501  0.21199670132E+02  0.24087943574E+02  0.25413729883E+02  0.40933027079E+02  0.00000000000E+00 0.  1.
         21    1    1    2  503  502 -0.21199670132E+02 -0.24087943574E+02  0.13348357875E+03  0.13728627329E+03  0.00000000000E+00 0. -1.
</event>
<event>
 4    1  0.5967370E+002  0.2049054E+02  0.7546771E-02  0.1526664E+00
          2   -1    0    0  503    0  0.00000000000E+00  0.00000000000E+00  0.21269517270E+02  0.21269517270E+02  0.00000000000E+00 0. -1.
         -2   -1    0    0    0  501 -0.00000000000E+00 -0.00000000000E+00 -0.61615454023E+02  0.61615454023E+02  0.00000000000E+00 0.  1.
         21    1    1    2  502  501 -0.11980871970E+02  0.16622905780E+02 -0.54337875263E+02  0.58072945317E+02  0.00000000000E+00 0.  1.
         21    1    1    2  503  502  0.11980871970E+02 -0.16622905780E+02  0.13991938511E+02  0.24812025975E+02  0.00000000000E+00 0. -1.
</event>
<event>
 4    1  0.5967370E+002  0.2228351E+02  0.7546771E-02  0.1501697E+00
          2   -1    0    0  502    0  0.00000000000E+00  0.00000000000E+00  0.42291821596E+01  0.42291821596E+01  0.00000000000E+00 0.  1.
         -2   -1    0    0    0  501 -0.00000000000E+00 -0.00000000000E+00 -0.13160955193E+03  0.13160955193E+03  0.00000000000E+00 0. -1.
         21    1    1    2  502  503  0.14259346352E+02  0.17123834125E+02 -0.85998367329E+02  0.88838470477E+02  0.00000000000E+00 0. -1.
         21    1    1    2  503  501 -0.14259346352E+02 -0.17123834125E+02 -0.41382002442E+02  0.47000263612E+02  0.00000000000E+00 0.  1.
</event>
<event>
 4    1  0.5967370E+002  0.2281165E+02  0.7546771E-02  0.1494877E+00
          2   -1    0    0  502    0  0.00000000000E+00  0.00000000000E+00  0.49433732799E+01  0.49433732799E+01  0.00000000000E+00 0. -1.
         -2   -1    0    0    0  501 -0.00000000000E+00 -0.00000000000E+00 -0.10536204616E+03  0.10536204616E+03  0.00000000000E+00 0.  1.
         21    1    1    2  502  503 -0.78401608632E+01 -0.21422023718E+02 -0.51870859597E+02  0.56665309475E+02  0.00000000000E+00 0. -1.
         21    1    1    2  503  501  0.78401608632E+01  0.21422023718E+02 -0.48547813282E+02  0.53640109964E+02  0.00000000000E+00 0.  1.
</event>
<event>
 4    1  0.5967370E+002  0.2229457E+02  0.7546771E-02  0.1501551E+00
          2   -1    0    0  502    0  0.00000000000E+00  0.00000000000E+00  0.90401833809E+02  0.90401833809E+02  0.00000000000E+00 0. -1.
         -2   -1    0    0    0  501 -0.00000000000E+00 -0.00000000000E+00 -0.67862853872E+01  0.67862853872E+01  0.00000000000E+00 0.  1.
         21    1    1    2  502  503  0.16410546747E+02 -0.15091115025E+02  0.62978640956E+02  0.66808360359E+02  0.00000000000E+00 0. -1.
         21    1    1    2  503  501 -0.16410546747E+02  0.15091115025E+02  0.20636907466E+02  0.30379758837E+02  0.00000000000E+00 0.  1.
</event>
<event>
 4    1  0.5967370E+002  0.5640560E+02  0.7546771E-02  0.1272560E+00
          2   -1    0    0  503    0  0.00000000000E+00  0.00000000000E+00  0.58888449619E+03  0.58888449619E+03  0.00000000000E+00 0. -1.
         -2   -1    0    0    0  501 -0.00000000000E+00 -0.00000000000E+00 -0.70172189291E+01  0.70172189291E+01  0.00000000000E+00 0.  1.
         21    1    1    2  502  501  0.53387626482E+02 -0.18203100203E+02  0.14801860032E+03  0.15840169683E+03  0.00000000000E+00 0.  1.
         21    1    1    2  503  502 -0.53387626482E+02  0.18203100203E+02  0.43384867694E+03  0.43750001829E+03  0.00000000000E+00 0. -1.
</event>
<event>
 4    1  0.5967370E+002  0.2997204E+02  0.7546771E-02  0.1419840E+00
          2   -1    0    0  503    0  0.00000000000E+00  0.00000000000E+00  0.90263394639E+01  0.90263394639E+01  0.00000000000E+00 0. -1.
         -2   -1    0    0    0  501 -0.00000000000E+00 -0.00000000000E+00 -0.10207493963E+03  0.10207493963E+03  0.00000000000E+00 0.  1.
         21    1    1    2  502  501  0.19967363171E+01 -0.29905454980E+02 -0.37739869679E+02  0.48193577963E+02  0.00000000000E+00 0.  1.
         21    1    1    2  503  502 -0.19967363171E+01  0.29905454980E+02 -0.55308730491E+02  0.62907701134E+02  0.00000000000E+00 0. -1.
</event>
<event>
 4    1  0.5967370E+002  0.4817169E+02  0.7546771E-02  0.1306300E+00
          2   -1    0    0  503    0  0.00000000000E+00  0.00000000000E+00  0.79905891827E+02  0.79905891827E+02  0.00000000000E+00 0.  1.
         -2   -1    0    0    0  501 -0.00000000000E+00 -0.00000000000E+00 -0.29067690259E+02  0.29067690259E+02  0.00000000000E+00 0. -1.
         21    1    1    2  502  501 -0.36171915676E+02 -0.31813585752E+02  0.23754441542E+02  0.53710196565E+02  0.00000000000E+00 0. -1.
         21    1    1    2  503  502  0.36171915676E+02  0.31813585752E+02  0.27083760026E+02  0.55263385521E+02  0.00000000000E+00 0.  1.
</event>
<event>
 4    1  0.5967370E+002  0.3147459E+02  0.7546771E-02  0.1407201E+00
          2   -1    0    0  503    0  0.00000000000E+00  0.00000000000E+00  0.15303692109E+03  0.15303692109E+03  0.00000000000E+00 0.  1.
         -2   -1    0    0    0  501 -0.00000000000E+00 -0.00000000000E+00 -0.14039999150E+02  0.14039999150E+02  0.00000000000E+00 0. -1.
         21    1    1    2  502  501  0.14360794630E+02  0.28007449124E+02  0.81707211515E+01  0.32517846069E+02  0.00000000000E+00 0. -1.
         21    1    1    2  503  502 -0.14360794630E+02 -0.28007449124E+02  0.13082620078E+03  0.13455907417E+03  0.00000000000E+00 0.  1.
</event>
<event>
 4    1  0.5967370E+002  0.5572786E+02  0.7546771E-02  0.1275082E+00
          2   -1    0    0  502    0  0.00000000000E+00  0.00000000000E+00  0.71302985741E+03  0.71302985741E+03  0.00000000000E+00 0. -1.
         -2   -1    0    0    0  501 -0.00000000000E+00 -0.00000000000E+00 -0.10710089597E+02  0.10710089597E+02  0.00000000000E+00 0.  1.
         21    1    1    2  502  503 -0.48889303306E+02 -0.26747535194E+02  0.62990038878E+03  0.63236073123E+03  0.00000000000E+00 0. -1.
         21    1    1    2  503  501  0.48889303306E+02  0.26747535194E+02  0.72419379034E+02  0.91379215779E+02  0.00000000000E+00 0.  1.
</event>
<event>
 4    1  0.5967370E+002  0.2715365E+02  0.7546771E-02  0.1446071E+00
          2   -1    0    0  503    0  0.00000000000E+00  0.00000000000E+00  0.31606036008E+02  0.31606036008E+02  0.00000000000E+00 0. -1.
         -2   -1    0    0    0  501 -0.00000000000E+00 -0.00000000000E+00 -0.49109569746E+02  0.49109569746E+02  0.00000000000E+00 0.  1.
         21    1    1    2  502  501  0.26209251027E+02 -0.70990137486E+01 -0.37992958730E+02  0.46698883805E+02  0.00000000000E+00 0.  1.
         21    1    1    2  503  502 -0.26209251027E+02  0.70990137486E+01  0.20489424992E+02  0.34016721949E+02  0.00000000000E+00 0. -1.
</event>
<event>
 4    1  0.5967370E+002  0.2190342E+02  0.7546771E-02  0.1506747E+00
          2   -1    0    0  503    0  0.00000000000E+00  0.00000000000E+00  0.38081914326E+03  0.38081914326E+03  0.00000000000E+00 0.  1.
         -2   -1    0    0    0  501 -0.00000000000E+00 -0.00000000000E+00 -0.26498007431E+01  0.26498007431E+01  0.00000000000E+00 0. -1.
         21    1    1    2  502  501  0.14443798329E+02  0.16466216941E+02  0.50217493148E+02  0.54786460267E+02  0.00000000000E+00 0. -1.
         21    1    1    2  503  502 -0.14443798329E+02 -0.16466216941E+02  0.32795184937E+03  0.32868248374E+03  0.00000000000E+00 0.  1.
</event>
<event>
 4    1  0.5967370E+002  0.2189906E+02  0.7546771E-02  0.1506806E+00
          2   -1    0    0  503    0  0.00000000000E+00  0.00000000000E+00  0.13019553886E+04  0.13019553886E+04  0.00000000000E+00 0. -1.
         -2   -1    0    0    0  501 -0.00000000000E+00 -0.00000000000E+00 -0.66352092138E+00  0.66352092138E+00  0.00000000000E+00 0.  1.
         21    1    1    2  502  501  0.21385492833E+02 -0.47148112766E+01  0.21623520696E+03  0.21734128342E+03  0.00000000000E+00 0.  1.
         21    1    1    2  503  502 -0.21385492833E+02  0.47148112766E+01  0.10850566607E+04  0.10852776261E+04  0.00000000000E+00 0. -1.
</event>
<event>
 4    1  0.5967370E+002  0.2419996E+02  0.7546771E-02  0.1477956E+00
          2   -1    0    0  502    0  0.00000000000E+00  0.00000000000E+00  0.19432093641E+02  0.19432093641E+02  0.00000000000E+00 0. -1.
         -2   -1    0    0    0  501 -0.00000000000E+00 -0.00000000000E+00 -0.92307605496E+02  0.92307605496E+02  0.00000000000E+00 0.  1.
         21    1    1    2  502  503 -0.23993625297E+02  0.31534273705E+01  0.94132579843E+01  0.25966277842E+02  0.00000000000E+00 0. -1.
         21    1    1    2  503  501  0.23993625297E+02 -0.31534273705E+01 -0.82288769839E+02  0.85773421295E+02  0.00000000000E+00 0.  1.
</event>
<event>
 4    1  0.5967370E+002  0.2133594E+02  0.7546771E-02  0.1514522E+00
          2   -1    0    0  502    0  0.00000000000E+00  0.00000000000E+00  0.16440476235E+02  0.16440476235E+02  0.00000000000E+00 0.  1.
         -2   -1    0    0    0  501 -0.00000000000E+00 -0.00000000000E+00 -0.59047385240E+02  0.59047385240E+02  0.00000000000E+00 0. -1.
         21    1    1    2  502  503 -0.13666692693E+02 -0.16384256602E+02  0.62022511639E+01  0.22219142042E+02  0.00000000000E+00 0.  1.
         21    1    1    2  503  501  0.13666692693E+02  0.16384256602E+02 -0.48809160169E+02  0.53268719432E+02  0.00000000000E+00 0. -1.
</event>
<event>
 4    1  0.5967370E+002  0.2921360E+02  0.7546771E-02  0.1426555E+00
          2   -1    0    0  502    0  0.00000000000E+00  0.00000000000E+00  0.20616414615E+04  0.20616414615E+04  0.00000000000E+00 0. -1.
         -2   -1    0    0    0  501 -0.00000000000E+00 -0.00000000000E+00 -0.88595534201E+00  0.88595534201E+00  0.00000000000E+00 0.  1.
         21    1    1    2  502  503 -0.24046942960E+02  0.16588522214E+02  0.17830973928E+04  0.17833366891E+04  0.00000000000E+00 0. -1.
         21    1    1    2  503  501  0.24046942960E+02 -0.16588522214E+02  0.27765811335E+03  0.27919072772E+03  0.00000000000E+00 0.  1.
</event>
<event>
 4    1  0.5967370E+002  0.2251031E+02  0.7546771E-02  0.1498740E+00
          2   -1    0    0  502    0  0.00000000000E+00  0.00000000000E+00  0.51943185817E+03  0.51943185817E+03  0.00000000000E+00 0. -1.
         -2   -1    0    0    0  501 -0.00000000000E+00 -0.00000000000E+00 -0.11319504083E+01  0.11319504083E+01  0.00000000000E+00 0.  1.
         21    1    1    2  502  503  0.17239024208E+02 -0.14475157560E+02  0.35591004625E+03  0.35662119281E+03  0.00000000000E+00 0. -1.
         21    1    1    2  503  501 -0.17239024208E+02  0.14475157560E+02  0.16238986151E+03  0.16394261576E+03  0.00000000000E+00 0.  1.
</event>
<event>
 4    1  0.5967370E+002  0.2095983E+02  0.7546771E-02  0.1519839E+00
          2   -1    0    0  502    0  0.00000000000E+00  0.00000000000E+00  0.37624244941E+02  0.37624244941E+02  0.00000000000E+00 0.  1.
         -2   -1    0    0    0  501 -0.00000000000E+00 -0.00000000000E+00 -0.10094446520E+03  0.10094446520E+03  0.00000000000E+00 0. -1.
         21    1    1    2  502  503  0.16592118110E+01 -0.20894056634E+02  0.33494036083E+02  0.39511581081E+02  0.00000000000E+00 0.  1.
         21    1    1    2  503  501 -0.16592118110E+01  0.20894056634E+02 -0.96814256346E+02  0.99057129063E+02  0.00000000000E+00 0. -1.
</event>
<event>
 4    1  0.5967370E+002  0.3181668E+02  0.7546771E-02  0.1404440E+00
          2   -1    0    0  503    0  0.00000000000E+00  0.00000000000E+00  0.58184785720E+02  0.58184785720E+02  0.00000000000E+00 0.  1.
         -2   -1    0    0    0  501 -0.00000000000E+00 -0.00000000000E+00 -0.19321672323E+02  0.19321672323E+02  0.00000000000E+00 0. -1.
         21    1    1    2  502  501  0.31736043559E+02 -0.22638087338E+01  0.31659303928E+02  0.44884438461E+02  0.00000000000E+00 0.  1.
         21    1    1    2  503  502 -0.31736043559E+02  0.22638087338E+01  0.72038094700E+01  0.32622019582E+02  0.00000000000E+00 0. -1.
</event>
<event>
 4    1  0.5967370E+002  0.2070982E+02  0.7546771E-02  0.1523448E+00
          2   -1    0    0  503    0  0.00000000000E+00  0.00000000000E+00  0.88541843814E+03  0.88541843814E+03  0.00000000000E+00 0. -1.
         -2   -1    0    0    0  501 -0.00000000000E+00 -0.00000000000E+00 -0.15384241403E+01  0.15384241403E+01  0.00000000000E+00 0.  1.
         21    1    1    2  502  501 -0.20295411702E+02 -0.41222514417E+01  0.74860839674E+02  0.77672659346E+02  0.00000000000E+00 0.  1.
         21    1    1    2  503  502  0.20295411702E+02  0.41222514417E+01  0.80901917432E+03  0.80928420293E+03  0.00000000000E+00 0. -1.
</event>
<event>
 4    1  0.5967370E+002  0.2524994E+02  0.7546771E-02  0.1466027E+00
          2   -1    0    0  502    0  0.00000000000E+00  0.00000000000E+00  0.54270690124E+03  0.54270690124E+03  0.00000000000E+00 0. -1.
         -2   -1    0    0    0  501 -0.00000000000E+00 -0.00000000000E+00 -0.13988462896E+01  0.13988462896E+01  0.00000000000E+00 0.  1.
         21    1    1    2  502  503 -0.25227295314E+02  0.10690930850E+01  0.37953696765E+03  0.38037595771E+03  0.00000000000E+00 0. -1.
         21    1    1    2  503  501  0.25227295314E+02 -0.10690930850E+01  0.16177108730E+03  0.16372978982E+03  0.00000000000E+00 0.  1.
</event>
<event>
 4    1  0.5967370E+002  0.2063903E+02  0.7546771E-02  0.1524481E+00
          2   -1    0    0  502    0  0.00000000000E+00  0.00000000000E+00  0.43335072473E+03  0.43335072473E+03  0.00000000000E+00 0.  1.
         -2   -1    0    0    0  501 -0.00000000000E+00 -0.00000000000E+00 -0.10302410744E+01  0.10302410744E+01  0.00000000000E+00 0. -1.
         21    1    1    2  502  503  0.63320113577E+01  0.19643706728E+02  0.16963575345E+03  0.17088668301E+03  0.00000000000E+00 0.  1.
         21    1    1    2  503  501 -0.63320113577E+01 -0.19643706728E+02  0.26268473021E+03  0.26349428280E+03  0.00000000000E+00 0. -1.
</event>
<event>
 4    1  0.5967370E+002  0.2390098E+02  0.7546771E-02  0.1481484E+00
          2   -1    0    0  503    0  0.00000000000E+00  0.00000000000E+00  0.98542183220E+02  0.98542183220E+02  0.00000000000E+00 0.  1.
         -2   -1    0    0    0  501 -0.00000000000E+00 -0.00000000000E+00 -0.58263105911E+01  0.58263105911E+01  0.00000000000E+00 0. -1.
         21    1    1    2  502  501  0.37881326357E+01  0.23598875333E+02  0.50054221299E+02  0.55467845962E+02  0.00000000000E+00 0.  1.
         21    1    1    2  503  502 -0.37881326357E+01 -0.23598875333E+02  0.42661651330E+02  0.48900647849E+02  0.00000000000E+00 0. -1.
</event>
<event>
 4    1  0.5967370E+002  0.2168714E+02  0.7546771E-02  0.1509676E+00
          2   -1    0    0  502    0  0.00000000000E+00  0.00000000000E+00  0.21200792672E+03  0.21200792672E+03  0.00000000000E+00 0. -1.
         -2   -1    0    0    0  501 -0.00000000000E+00 -0.00000000000E+00 -0.40927864180E+01  0.40927864180E+01  0.00000000000E+00 0.  1.
         21    1    1    2  502  503  0.73191561390E+01 -0.20414753107E+02  0.17707799119E+03  0.17840108507E+03  0.00000000000E+00 0. -1.
         21    1    1    2  503  501 -0.73191561390E+01  0.20414753107E+02  0.30837149116E+02  0.37699628070E+02  0.00000000000E+00 0.  1.
</event>
<event>
 4    1  0.5967370E+002  0.5262721E+02  0.7546771E-02  0.1287167E+00
          2   -1    0    0  502    0  0.00000000000E+00  0.00000000000E+00  0.13105971423E+04  0.13105971423E+04  0.00000000000E+00 0.  1.
         -2   -1    0    0    0  501 -0.00000000000E+00 -0.00000000000E+00 -0.31312439615E+01  0.31312439615E+01  0.00000000000E+00 0. -1.
         21    1    1    2  502  503  0.16528242049E+02  0.49964394228E+02  0.10282650743E+04  0.10296109394E+04  0.00000000000E+00 0.  1.
         21    1    1    2  503  501 -0.16528242049E+02 -0.49964394228E+02  0.27920082403E+03  0.28411744687E+03  0.00000000000E+00 0. -1.
</event>
<event>
 4    1  0.5967370E+002  0.3908306E+02  0.7546771E-02  0.1353944E+00
          2   -1    0    0  503    0  0.00000000000E+00  0.00000000000E+00  0.28208382813E+03  0.28208382813E+03  0.00000000000E+00 0.  1.
         -2   -1    0    0    0  501 -0.00000000000E+00 -0.00000000000E+00 -0.10186487219E+02  0.10186487219E+02  0.00000000000E+00 0. -1.
         21    1    1    2  502  501  0.16081658073E+02  0.35621142889E+02  0.35932755649E+02  0.53090945326E+02  0.00000000000E+00 0. -1.
         21    1    1    2  503  502 -0.16081658073E+02 -0.35621142889E+02  0.23596458526E+03  0.23917937002E+03  0.00000000000E+00 0.  1.
</event>
<event>
 4    1  0.5967370E+002  0.4241394E+02  0.7546771E-02  0.1334893E+00
          2   -1    0    0  503    0  0.00000000000E+00  0.00000000000E+00  0.63619571803E+03  0.63619571803E+03  0.00000000000E+00 0. -1.
         -2   -1    0    0    0  501 -0.00000000000E+00 -0.00000000000E+00 -0.34726587879E+01  0.34726587879E+01  0.00000000000E+00 0.  1.
         21    1    1    2  502  501 -0.12364452805E+02 -0.40571700028E+02  0.17852171535E+03  0.18349099538E+03  0.00000000000E+00 0.  1.
         21    1    1    2  503  502  0.12364452805E+02  0.40571700028E+02  0.45420134390E+03  0.45617738144E+03  0.00000000000E+00 0. -1.
</event>
<event>
 4    1  0.5967370E+002  0.2178767E+02  0.7546771E-02  0.1508310E+00
          2   -1    0    0  502    0  0.00000000000E+00  0.00000000000E+00  0.99041953933E+01  0.99041953933E+01  0.00000000000E+00 0. -1.
         -2   -1    0    0    0  501 -0.00000000000E+00 -0.00000000000E+00 -0.51583028942E+02  0.51583028942E+02  0.00000000000E+00 0.  1.
         21    1    1    2  502  503 -0.13914494364E+02 -0.16765718210E+02 -0.12657373257E+02  0.25197451424E+02  0.00000000000E+00 0. -1.
         21    1    1    2  503  501  0.13914494364E+02  0.16765718210E+02 -0.29021460292E+02  0.36289772912E+02  0.00000000000E+00 0.  1.
</event>
<event>
 4    1  0.5967370E+002  0.4851052E+02  0.7546771E-02  0.1304763E+00
          2   -1    0    0  503    0  0.00000000000E+00  0.00000000000E+00  0.75385755172E+03  0.75385755172E+03  0.00000000000E+00 0. -1.
         -2   -1    0    0    0  501 -0.00000000000E+00 -0.00000000000E+00 -0.41331875972E+01  0.41331875972E+01  0.00000000000E+00 0.  1.
         21    1    1    2  502  501  0.47106189058E+02  0.11587825769E+02  0.18736928069E+03  0.19354719863E+03  0.00000000000E+00 0.  1.
         21    1    1    2  503  502 -0.47106189058E+02 -0.11587825769E+02  0.56235508343E+03  0.56444354068E+03  0.00000000000E+00 0. -1.
</event>
<event>
 4    1  0.5967370E+002  0.2318430E+02  0.7546771E-02  0.1490197E+00
          2   -1    0    0  502    0  0.00000000000E+00  0.00000000000E+00  0.60957068434E+01  0.60957068434E+01  0.00000000000E+00 0. -1.
         -2   -1    0    0    0  501 -0.00000000000E+00 -0.00000000000E+00 -0.88595651027E+02  0.88595651027E+02  0.00000000000E+00 0.  1.
         21    1    1    2  502  503 -0.76487158928E+01 -0.21886272752E+02 -0.44497795005E+02  0.50175348032E+02  0.00000000000E+00 0. -1.
         21    1    1    2  503  501  0.76487158928E+01  0.21886272752E+02 -0.38002149178E+02  0.44516009838E+02  0.00000000000E+00 0.  1.
</event>
<event>
 4    1  0.5967370E+002  0.2340538E+02  0.7546771E-02  0.1487470E+00
          2   -1    0    0  503    0  0.00000000000E+00  0.00000000000E+00  0.12016636951E+01  0.12016636951E+01  0.00000000000E+00 0.  1.
         -2   -1    0    0    0  501 -0.00000000000E+00 -0.00000000000E+00 -0.80229762330E+03  0.80229762330E+03  0.00000000000E+00 0. -1.
         21    1    1    2  502  501  0.86211319922E+01 -0.21759777300E+02 -0.66453896877E+03  0.66495101537E+03  0.00000000000E+00 0. -1.
         21    1    1    2  503  502 -0.86211319922E+01  0.21759777300E+02 -0.13655699084E+03  0.13854827163E+03  0.00000000000E+00 0.  1.
</event>
<event>
 4    1  0.5967370E+002  0.2152709E+02  0.7546771E-02  0.1511871E+00
          2   -1    0    0  503    0  0.00000000000E+00  0.00000000000E+00  0.26702109533E+01  0.26702109533E+01  0.00000000000E+00 0.  1.
         -2   -1    0    0    0  501 -0.00000000000E+00 -0.00000000000E+00 -0.72045254526E+03  0.72045254526E+03  0.00000000000E+00 0. -1.
         21    1    1    2  502  501  0.11059888708E+02 -0.18468737367E+02 -0.67390837123E+03  0.67425211028E+03  0.00000000000E+00 0. -1.
         21    1    1    2  503  502 -0.11059888708E+02  0.18468737367E+02 -0.43873963071E+02  0.48870645932E+02  0.00000000000E+00 0.  1.
</event>
<event>
 4    1  0.5967370E+002  0.3103611E+02  0.7546771E-02  0.1410801E+00
          2   -1    0    0  503    0  0.00000000000E+00  0.00000000000E+00  0.17093828120E+04  0.17093828120E+04  0.00000000000E+00 0. -1.
         -2   -1    0    0    0  501 -0.00000000000E+00 -0.00000000000E+00 -0.72614728589E+00  0.72614728589E+00  0.00000000000E+00 0.  1.
         21    1    1    2  502  501 -0.16750860421E+02 -0.26127554008E+02  0.44965708586E+03  0.45072689654E+03  0.00000000000E+00 0.  1.
         21    1    1    2  503  502  0.16750860421E+02  0.26127554008E+02  0.12589995788E+04  0.12593820627E+04  0.00000000000E+00 0. -1.
</event>
<event>
 4    1  0.5967370E+002  0.2076473E+02  0.7546771E-02  0.1522651E+00
          2   -1    0    0  503    0  0.00000000000E+00  0.00000000000E+00  0.31107623789E+01  0.31107623789E+01  0.00000000000E+00 0. -1.
         -2   -1    0    0    0  501 -0.00000000000E+00 -0.00000000000E+00 -0.17541120166E+03  0.17541120166E+03  0.00000000000E+00 0.  1.
         21    1    1    2  502  501  0.43613241361E+01  0.20301552543E+02 -0.12703675309E+03  0.12872261192E+03  0.00000000000E+00 0.  1.
         21    1    1    2  503  502 -0.43613241361E+01 -0.20301552543E+02 -0.45263686194E+02  0.49799352122E+02  0.00000000000E+00 0. -1.
</event>
<event>
 4    1  0.5967370E+002  0.2340207E+02  0.7546771E-02  0.1487510E+00
          2   -1    0    0  503    0  0.00000000000E+00  0.00000000000E+00  0.57800016266E+02  0.57800016266E+02  0.00000000000E+00 0.  1.
         -2   -1    0    0    0  501 -0.00000000000E+00 -0.00000000000E+00 -0.11749284446E+02  0.11749284446E+02  0.00000000000E+00 0. -1.
         21    1    1    2  502  501  0.13706053936E+02  0.18968418114E+02  0.77258836517E+01  0.24644392434E+02  0.00000000000E+00 0. -1.
         21    1    1    2  503  502 -0.13706053936E+02 -0.18968418114E+02  0.38324848169E+02  0.44904908278E+02  0.00000000000E+00 0.  1.
</event>
<event>
 4    1  0.5967370E+002  0.3376879E+02  0.7546771E-02  0.1389432E+00
          2   -1    0    0  503    0  0.00000000000E+00  0.00000000000E+00  0.60614115622E+03  0.60614115622E+03  0.00000000000E+00 0. -1.
         -2   -1    0    0    0  501 -0.00000000000E+00 -0.00000000000E+00 -0.69970403489E+01  0.69970403489E+01  0.00000000000E+00 0.  1.
         21    1    1    2  502  501 -0.14084138161E+02  0.30691503026E+02  0.37436716057E+02  0.50416654141E+02  0.00000000000E+00 0.  1.
         21    1    1    2  503  502  0.14084138161E+02 -0.30691503026E+02  0.56170739981E+03  0.56272154242E+03  0.00000000000E+00 0. -1.
</event>
<event>
 4    1  0.5967370E+002  0.2091752E+02  0.7546771E-02  0.1520446E+00
          2   -1    0    0  502    0  0.00000000000E+00  0.00000000000E+00  0.31044073246E+02  0.31044073246E+02  0.00000000000E+00 0. -1.
         -2   -1    0    0    0  501 -0.00000000000E+00 -0.00000000000E+00 -0.86676183311E+02  0.86676183311E+02  0.00000000000E+00 0.  1.
         21    1    1    2  502  503  0.17727418448E+02 -0.11103217517E+02  0.26046331553E+02  0.33405900548E+02  0.00000000000E+00 0. -1.
         21    1    1    2  503  501 -0.17727418448E+02  0.11103217517E+02 -0.81678441618E+02  0.84314356009E+02  0.00000000000E+00 0.  1.
</event>
<event>
 4    1  0.5967370E+002  0.2829737E+02  0.7546771E-02  0.1434994E+00
          2   -1    0    0  502    0  0.00000000000E+00  0.00000000000E+00  0.93342088771E+00  0.93342088771E+00  0.00000000000E+00 0. -1.
         -2   -1    0    0    0  501 -0.00000000000E+00 -0.00000000000E+00 -0.91956333272E+03  0.91956333272E+03  0.00000000000E+00 0.  1.
         21    1    1    2  502  503 -0.27726236552E+02  0.56565704289E+01 -0.34008955279E+03  0.34126477243E+03  0.00000000000E+00 0.  1.
         21    1    1    2  503  501  0.27726236552E+02 -0.56565704289E+01 -0.57854035904E+03  0.57923198118E+03  0.00000000000E+00 0. -1.
</event>
<event>
 4    1  0.5967370E+002  0.3067572E+02  0.7546771E-02  0.1413814E+00
          2   -1    0    0  502    0  0.00000000000E+00  0.00000000000E+00  0.23368918118E+04  0.23368918118E+04  0.00000000000E+00 0.  1.
         -2   -1    0    0    0  501 -0.00000000000E+00 -0.00000000000E+00 -0.58117870330E+00  0.58117870330E+00  0.00000000000E+00 0. -1.
         21    1    1    2  502  503  0.30659152578E+02  0.10079004651E+01  0.18158789643E+04  0.18161380489E+04  0.00000000000E+00 0.  1.
         21    1    1    2  503  501 -0.30659152578E+02 -0.10079004651E+01  0.52043166877E+03  0.52133494163E+03  0.00000000000E+00 0. -1.
</event>
<event>
 4    1  0.5967370E+002  0.2338330E+02  0.7546771E-02  0.1487740E+00
          2   -1    0    0  503    0  0.00000000000E+00  0.00000000000E+00  0.15988496620E+04  0.15988496620E+04  0.00000000000E+00 0.  1.
         -2   -1    0    0    0  501 -0.00000000000E+00 -0.00000000000E+00 -0.38351283153E+00  0.38351283153E+00  0.00000000000E+00 0. -1.
         21    1    1    2  502  501  0.20857630344E+02 -0.10570615364E+02  0.10623655107E+04  0.10626228197E+04  0.00000000000E+00 0.  1.
         21    1    1    2  503  502 -0.20857630344E+02  0.10570615364E+02  0.53610063850E+03  0.53661035515E+03  0.00000000000E+00 0. -1.
</event>
<event>
 4    1  0.5967370E+002  0.2087983E+02  0.7546771E-02  0.1520987E+00
          2   -1    0    0  502    0  0.00000000000E+00  0.00000000000E+00  0.83621636171E+01  0.83621636171E+01  0.00000000000E+00 0.  1.
         -2   -1    0    0    0  501 -0.00000000000E+00 -0.00000000000E+00 -0.11834558187E+03  0.11834558187E+03  0.00000000000E+00 0. -1.
         21    1    1    2  502  503  0.18391565386E+02 -0.98852245924E+01 -0.76047855179E+01  0.22221613473E+02  0.00000000000E+00 0.  1.
         21    1    1    2  503  501 -0.18391565386E+02  0.98852245924E+01 -0.10237863274E+03  0.10448613202E+03  0.00000000000E+00 0. -1.
</event>
<event>
 4    1  0.5967370E+002  0.3537400E+02  0.7546771E-02  0.1377953E+00
          2   -1    0    0  503    0  0.00000000000E+00  0.00000000000E+00  0.19649794691E+02  0.19649794691E+02  0.00000000000E+00 0.  1.
         -2   -1    0    0    0  501 -0.00000000000E+00 -0.00000000000E+00 -0.17081053837E+03  0.17081053837E+03  0.00000000000E+00 0. -1.
         21    1    1    2  502  501 -0.34700376341E+02  0.68705223712E+01 -0.15099779035E+03  0.15508595322E+03  0.00000000000E+00 0. -1.
         21    1    1    2  503  502  0.34700376341E+02 -0.68705223712E+01 -0.16295333815E+00  0.35374379849E+02  0.00000000000E+00 0.  1.
</event>
<event>
 4    1  0.5967370E+002  0.3044561E+02  0.7546771E-02  0.1415763E+00
          2   -1    0    0  502    0  0.00000000000E+00  0.00000000000E+00  0.17796488244E+04  0.17796488244E+04  0.00000000000E+00 0. -1.
         -2   -1    0    0    0  501 -0.00000000000E+00 -0.00000000000E+00 -0.52584166753E+00  0.52584166753E+00  0.00000000000E+00 0.  1.
         21    1    1    2  502  503  0.11404348224E+01 -0.30424247896E+02  0.80286593215E+03  0.80344299142E+03  0.00000000000E+00 0. -1.
         21    1    1    2  503  501 -0.11404348224E+01  0.30424247896E+02  0.97625705054E+03  0.97673167461E+03  0.00000000000E+00 0.  1.
</event>
<event>
 4    1  0.5967370E+002  0.2404905E+02  0.7546771E-02  0.1479729E+00
          2   -1    0    0  503    0  0.00000000000E+00  0.00000000000E+00  0.12747105997E+02  0.12747105997E+02  0.00000000000E+00 0.  1.
         -2   -1    0    0    0  501 -0.00000000000E+00 -0.00000000000E+00 -0.51446508034E+02  0.51446508034E+02  0.00000000000E+00 0. -1.
         21    1    1    2  502  501 -0.66144790571E+01 -0.23121533509E+02 -0.83202577276E+01  0.25447658707E+02  0.00000000000E+00 0.  1.
         21    1    1    2  503  502  0.66144790571E+01  0.23121533509E+02 -0.30379144309E+02  0.38745955324E+02  0.00000000000E+00 0. -1.
</event>
<event>
 4    1  0.5967370E+002  0.2858910E+02  0.7546771E-02  0.1432267E+00
          2   -1    0    0  502    0  0.00000000000E+00  0.00000000000E+00  0.66175417625E+02  0.66175417625E+02  0.00000000000E+00 0. -1.
         -2   -1    0    0    0  501 -0.00000000000E+00 -0.00000000000E+00 -0.39646333282E+02  0.39646333282E+02  0.00000000000E+00 0.  1.
         21    1    1    2  502  503 -0.12993697380E+02 -0.25465668770E+02  0.57166831604E+02  0.63917001597E+02  0.00000000000E+00 0. -1.
         21    1    1    2  503  501  0.12993697380E+02  0.25465668770E+02 -0.30637747261E+02  0.41904749310E+02  0.00000000000E+00 0.  1.
</event>
<event>
 4    1  0.5967370E+002  0.3257920E+02  0.7546771E-02  0.1398431E+00
          2   -1    0    0  502    0  0.00000000000E+00  0.00000000000E+00  0.25933778104E+02  0.25933778104E+02  0.00000000000E+00 0. -1.
         -2   -1    0    0    0  501 -0.00000000000E+00 -0.00000000000E+00 -0.32623217222E+03  0.32623217222E+03  0.00000000000E+00 0.  1.
         21    1    1    2  502  503  0.27835338428E+02  0.16929215336E+02  0.14518504852E+02  0.35667791919E+02  0.00000000000E+00 0. -1.
         21    1    1    2  503  501 -0.27835338428E+02 -0.16929215336E+02 -0.31481689897E+03  0.31649815841E+03  0.00000000000E+00 0.  1.
</event>
<event>
 4    1  0.5967370E+002  0.2159491E+02  0.7546771E-02  0.1510938E+00
          2   -1    0    0  503    0  0.00000000000E+00  0.00000000000E+00  0.11343230598E+03  0.11343230598E+03  0.00000000000E+00 0.  1.
         -2   -1    0    0    0  501 -0.00000000000E+00 -0.00000000000E+00 -0.41589034793E+01  0.41589034793E+01  0.00000000000E+00 0. -1.
         21    1    1    2  502  501 -0.20072218407E+02  0.79653157416E+01  0.48338183191E+02  0.52942611957E+02  0.00000000000E+00 0.  1.
         21    1    1    2  503  502  0.20072218407E+02 -0.79653157416E+01  0.60935219311E+02  0.64648597503E+02  0.00000000000E+00 0. -1.
</event>
<event>
 4    1  0.5967370E+002  0.3221834E+02  0.7546771E-02  0.1401250E+00
          2   -1    0    0  502    0  0.00000000000E+00  0.00000000000E+00  0.24654309668E+02  0.24654309668E+02  0.00000000000E+00 0. -1.
         -2   -1    0    0    0  501 -0.00000000000E+00 -0.00000000000E+00 -0.45946576453E+02  0.45946576453E+02  0.00000000000E+00 0.  1.
         21    1    1    2  502  503 -0.10318925799E+02  0.30521157501E+02 -0.43628455552E+00  0.32221291548E+02  0.00000000000E+00 0. -1.
         21    1    1    2  503  501  0.10318925799E+02 -0.30521157501E+02 -0.20855982229E+02  0.38379594573E+02  0.00000000000E+00 0.  1.
</event>
<event>
 4    1  0.5967370E+002  0.2446914E+02  0.7546771E-02  0.1474830E+00
          2   -1    0    0  503    0  0.00000000000E+00  0.00000000000E+00  0.35277815673E+03  0.35277815673E+03  0.00000000000E+00 0. -1.
         -2   -1    0    0    0  501 -0.00000000000E+00 -0.00000000000E+00 -0.52713203682E+01  0.52713203682E+01  0.00000000000E+00 0.  1.
         21    1    1    2  502  501  0.41290291127E+01  0.24118253229E+02  0.26339919994E+02  0.35951778892E+02  0.00000000000E+00 0.  1.
         21    1    1    2  503  502 -0.41290291127E+01 -0.24118253229E+02  0.32116691637E+03  0.32209769821E+03  0.00000000000E+00 0. -1.
</event>
<event>
 4    1  0.5967370E+002  0.3313201E+02  0.7546771E-02  0.1394194E+00
          2   -1    0    0  503    0  0.00000000000E+00  0.00000000000E+00  0.23597066298E+02  0.23597066298E+02  0.00000000000E+00 0. -1.
         -2   -1    0    0    0  501 -0.00000000000E+00 -0.00000000000E+00 -0.65831634841E+02  0.65831634841E+02  0.00000000000E+00 0.  1.
         21    1    1    2  502  501  0.21643932295E+02  0.25085255260E+02 -0.45335482962E+02  0.56151899808E+02  0.00000000000E+00 0.  1.
         21    1    1    2  503  502 -0.21643932295E+02 -0.25085255260E+02  0.31009144189E+01  0.33276801331E+02  0.00000000000E+00 0. -1.
</event>
<event>
 4    1  0.5967370E+002  0.2703361E+02  0.7546771E-02  0.1447271E+00
          2   -1    0    0  503    0  0.00000000000E+00  0.00000000000E+00  0.17422114325E+02  0.17422114325E+02  0.00000000000E+00 0. -1.
         -2   -1    0    0    0  501 -0.00000000000E+00 -0.00000000000E+00 -0.62052184937E+02  0.62052184937E+02  0.00000000000E+00 0.  1.
         21    1    1    2  502  501 -0.22879002891E+02  0.14400253900E+02 -0.44933629173E+02  0.52438984700E+02  0.00000000000E+00 0.  1.
         21    1    1    2  503  502  0.22879002891E+02 -0.14400253900E+02  0.30355856158E+00  0.27035314562E+02  0.00000000000E+00 0. -1.
</event>
<event>
 4    1  0.5967370E+002  0.2372678E+02  0.7546771E-02  0.1483568E+00
          2   -1    0    0  502    0  0.00000000000E+00  0.00000000000E+00  0.20160942147E+04  0.20160942147E+04  0.00000000000E+00 0.  1.
         -2   -1    0    0    0  501 -0.00000000000E+00 -0.00000000000E+00 -0.43630538262E+00  0.43630538262E+00  0.00000000000E+00 0. -1.
         21    1    1    2  502  503  0.70595982596E+01  0.22652194944E+02  0.40286492563E+03  0.40356301635E+03  0.00000000000E+00 0. -1.
         21    1    1    2  503  501 -0.70595982596E+01 -0.22652194944E+02  0.16127929837E+04  0.16129675038E+04  0.00000000000E+00 0.  1.
</event>
<event>
 4    1  0.5967370E+002  0.2189348E+02  0.7546771E-02  0.1506881E+00
          2   -1    0    0  503    0  0.00000000000E+00  0.00000000000E+00  0.10057351510E+02  0.10057351510E+02  0.00000000000E+00 0.  1.
         -2   -1    0    0    0  501 -0.00000000000E+00 -0.00000000000E+00 -0.14521006635E+03  0.14521006635E+03  0.00000000000E+00 0. -1.
         21    1    1    2  502  501  0.17033440445E+01  0.21827117249E+02 -0.13120720927E+03  0.13302126218E+03  0.00000000000E+00 0. -1.
         21    1    1    2  503  502 -0.17033440445E+01 -0.21827117249E+02 -0.39455055739E+01  0.22246155680E+02  0.00000000000E+00 0.  1.
</event>
<event>
 4    1  0.5967370E+002  0.3493083E+02  0.7546771E-02  0.1381050E+00
          2   -1    0    0  502    0  0.00000000000E+00  0.00000000000E+00  0.14265472525E+04  0.14265472525E+04  0.00000000000E+00 0. -1.
         -2   -1    0    0    0  501 -0.00000000000E+00 -0.00000000000E+00 -0.14487354109E+01  0.14487354109E+01  0.00000000000E+00 0.  1.
         21    1    1    2  502  503  0.31719524713E+02  0.14629926473E+02  0.11695108076E+04  0.11700323466E+04  0.00000000000E+00 0. -1.
         21    1    1    2  503  501 -0.31719524713E+02 -0.14629926473E+02  0.25558770949E+03  0.25796364131E+03  0.00000000000E+00 0.  1.
</event>
<event>
 4    1  0.5967370E+002  0.3018263E+02  0.7546771E-02  0.1418016E+00
          2   -1    0    0  503    0  0.00000000000E+00  0.00000000000E+00  0.29294640792E+02  0.29294640792E+02  0.00000000000E+00 0.  1.
         -2   -1    0    0    0  501 -0.00000000000E+00 -0.00000000000E+00 -0.86534300055E+02  0.86534300055E+02  0.00000000000E+00 0. -1.
         21    1    1    2  502  501  0.48566460901E+01  0.29789326394E+02 -0.74974330093E+02  0.80821662636E+02  0.00000000000E+00 0. -1.
         21    1    1    2  503  502 -0.48566460901E+01 -0.29789326394E+02  0.17734670830E+02  0.35007278211E+02  0.00000000000E+00 0.  1.
</event>
<event>
 4    1  0.5967370E+002  0.4336762E+02  0.7546771E-02  0.1329807E+00
          2   -1    0    0  502    0  0.00000000000E+00  0.00000000000E+00  0.88410233593E+03  0.88410233593E+03  0.00000000000E+00 0. -1.
         -2   -1    0    0    0  501 -0.00000000000E+00 -0.00000000000E+00 -0.46507378580E+01  0.46507378580E+01  0.00000000000E+00 0.  1.
         21    1    1    2  502  503  0.40350351634E+02  0.15893381069E+02  0.76705635009E+03  0.76828132520E+03  0.00000000000E+00 0. -1.
         21    1    1    2  503  501 -0.40350351634E+02 -0.15893381069E+02  0.11239524799E+03  0.12047174859E+03  0.00000000000E+00 0.  1.
</event>
<event>
 4    1  0.5967370E+002  0.3359385E+02  0.7546771E-02  0.1390728E+00
          2   -1    0    0  502    0  0.00000000000E+00  0.00000000000E+00  0.55288245686E+02  0.55288245686E+02  0.00000000000E+00 0.  1.
         -2   -1    0    0    0  501 -0.00000000000E+00 -0.00000000000E+00 -0.22070189572E+02  0.22070189572E+02  0.00000000000E+00 0. -1.
         21    1    1    2  502  503  0.43834023024E+01 -0.33306644826E+02  0.27210942983E+02  0.43231727045E+02  0.00000000000E+00 0.  1.
         21    1    1    2  503  501 -0.43834023024E+01  0.33306644826E+02  0.60071131312E+01  0.34126708213E+02  0.00000000000E+00 0. -1.
</event>
<event>
 4    1  0.5967370E+002  0.3493980E+02  0.7546771E-02  0.1380987E+00
          2   -1    0    0  502    0  0.00000000000E+00  0.00000000000E+00  0.14357468548E+02  0.14357468548E+02  0.00000000000E+00 0. -1.
         -2   -1    0    0    0  501 -0.00000000000E+00 -0.00000000000E+00 -0.26530977430E+03  0.26530977430E+03  0.00000000000E+00 0.  1.
         21    1    1    2  502  503 -0.11231760117E+02 -0.33085304272E+02 -0.10207652323E+02  0.36400356592E+02  0.00000000000E+00 0. -1.
         21    1    1    2  503  501  0.11231760117E+02  0.33085304272E+02 -0.24074465343E+03  0.24326688625E+03  0.00000000000E+00 0.  1.
</event>
<event>
 4    1  0.5967370E+002  0.3190576E+02  0.7546771E-02  0.1403728E+00
          2   -1    0    0  503    0  0.00000000000E+00  0.00000000000E+00  0.11082623652E+02  0.11082623652E+02  0.00000000000E+00 0.  1.
         -2   -1    0    0    0  501 -0.00000000000E+00 -0.00000000000E+00 -0.31808288220E+03  0.31808288220E+03  0.00000000000E+00 0. -1.
         21    1    1    2  502  501 -0.15351328247E+02  0.27969880279E+02 -0.29229988546E+03  0.29403605310E+03  0.00000000000E+00 0. -1.
         21    1    1    2  503  502  0.15351328247E+02 -0.27969880279E+02 -0.14700373087E+02  0.35129452752E+02  0.00000000000E+00 0.  1.
</event>
<event>
 4    1  0.5967370E+002  0.2223715E+02  0.7546771E-02  0.1502306E+00
          2   -1    0    0  503    0  0.00000000000E+00  0.00000000000E+00  0.15268962952E+02  0.15268962952E+02  0.00000000000E+00 0.  1.
         -2   -1    0    0    0  501 -0.00000000000E+00 -0.00000000000E+00 -0.36154335737E+02  0.36154335737E+02  0.00000000000E+00 0. -1.
         21    1    1    2  502  501 -0.11448478719E+01 -0.22207660230E+02 -0.18744279843E+02  0.29083309241E+02  0.00000000000E+00 0.  1.
         21    1    1    2  503  502  0.11448478719E+01  0.22207660230E+02 -0.21410929423E+01  0.22339989448E+02  0.00000000000E+00 0. -1.
</event>
<event>
 4    1  0.5967370E+002  0.7586231E+02  0.7546771E-02  0.1213793E+00
          2   -1    0    0  502    0  0.00000000000E+00  0.00000000000E+00  0.30592983997E+04  0.30592983997E+04  0.00000000000E+00 0. -1.
         -2   -1    0    0    0  501 -0.00000000000E+00 -0.00000000000E+00 -0.46748250623E+01  0.46748250623E+01  0.00000000000E+00 0.  1.
         21    1    1    2  502  503  0.68684563335E+02  0.32210559531E+02  0.27116014598E+04  0.27126624497E+04  0.00000000000E+00 0. -1.
         21    1    1    2  503  501 -0.68684563335E+02 -0.32210559531E+02  0.34302211482E+03  0.35131077502E+03  0.00000000000E+00 0.  1.
</event>
<event>
 4    1  0.5967370E+002  0.2202506E+02  0.7546771E-02  0.1505117E+00
          2   -1    0    0  502    0  0.00000000000E+00  0.00000000000E+00  0.41230983158E+03  0.41230983158E+03  0.00000000000E+00 0.  1.
         -2   -1    0    0    0  501 -0.00000000000E+00 -0.00000000000E+00 -0.12122438757E+01  0.12122438757E+01  0.00000000000E+00 0. -1.
         21    1    1    2  502  503 -0.99098183758E+01  0.19669746362E+02  0.24102737808E+03  0.24203161035E+03  0.00000000000E+00 0. -1.
         21    1    1    2  503  501  0.99098183758E+01 -0.19669746362E+02  0.17007020963E+03  0.17149046511E+03  0.00000000000E+00 0.  1.
</event>
<event>
 4    1  0.5967370E+002  0.2261662E+02  0.7546771E-02  0.1497369E+00
          2   -1    0    0  502    0  0.00000000000E+00  0.00000000000E+00  0.33052191989E+01  0.33052191989E+01  0.00000000000E+00 0.  1.
         -2   -1    0    0    0  501 -0.00000000000E+00 -0.00000000000E+00 -0.15587056245E+03  0.15587056245E+03  0.00000000000E+00 0. -1.
         21    1    1    2  502  503  0.21118138012E+02 -0.80954208737E+01 -0.69560947553E+02  0.73145314387E+02  0.00000000000E+00 0. -1.
         21    1    1    2  503  501 -0.21118138012E+02  0.80954208737E+01 -0.83004395702E+02  0.86030467267E+02  0.00000000000E+00 0.  1.
</event>
<event>
 4    1  0.5967370E+002  0.3341248E+02  0.7546771E-02  0.1392081E+00
          2   -1    0    0  503    0  0.00000000000E+00  0.00000000000E+00  0.98398983650E+03  0.98398983650E+03  0.00000000000E+00 0. -1.
         -2   -1    0    0    0  501 -0.00000000000E+00 -0.00000000000E+00 -0.13655407716E+01  0.13655407716E+01  0.00000000000E+00 0.  1.
         21    1    1    2  502  501 -0.10135043264E+02 -0.31838261575E+02  0.28868393552E+03  0.29061109515E+03  0.00000000000E+00 0.  1.
         21    1    1    2  503  502  0.10135043264E+02  0.31838261575E+02  0.69394036021E+03  0.69474428212E+03  0.00000000000E+00 0. -1.
</event>
<event>
 4    1  0.5967370E+002  0.2930410E+02  0.7546771E-02  0.1425742E+00
          2   -1    0    0  502    0  0.00000000000E+00  0.00000000000E+00  0.57376514731E+03  0.57376514731E+03  0.00000000000E+00 0.  1.
         -2   -1    0    0    0  501 -0.00000000000E+00 -0.00000000000E+00 -0.15025174919E+01  0.15025174919E+01  0.00000000000E+00 0. -1.
         21    1    1    2  502  503 -0.17325314128E+02 -0.23633955635E+02  0.30409308567E+03  0.30550177597E+03  0.00000000000E+00 0. -1.
         21    1    1    2  503  501  0.17325314128E+02  0.23633955635E+02  0.26816954414E+03  0.26976588883E+03  0.00000000000E+00 0.  1.
</event>
<event>
 4    1  0.5967370E+002  0.2120694E+02  0.7546771E-02  0.1516331E+00
          2   -1    0    0  502    0  0.00000000000E+00  0.00000000000E+00  0.39668636796E+01  0.39668636796E+01  0.00000000000E+00 0.  1.
         -2   -1    0    0    0  501 -0.00000000000E+00 -0.00000000000E+00 -0.11892114660E+03  0.11892114660E+03  0.00000000000E+00 0. -1.
         21    1    1    2  502  503  0.14334706983E+02  0.15628519115E+02 -0.44205279713E+02  0.49028983148E+02  0.00000000000E+00 0.  1.
         21    1    1    2  503  501 -0.14334706983E+02 -0.15628519115E+02 -0.70749003209E+02  0.73859027134E+02  0.00000000000E+00 0. -1.
</event>
<event>
 4    1  0.5967370E+002  0.2899901E+02  0.7546771E-02  0.1428499E+00
          2   -1    0    0  502    0  0.00000000000E+00  0.00000000000E+00  0.83285107408E+02  0.83285107408E+02  0.00000000000E+00 0. -1.
         -2   -1    0    0    0  501 -0.00000000000E+00 -0.00000000000E+00 -0.11134278845E+02  0.11134278845E+02  0.00000000000E+00 0.  1.
         21    1    1    2  502  503 -0.27808857955E+02  0.82225251862E+01  0.50483815255E+02  0.58219911576E+02  0.00000000000E+00 0. -1.
         21    1    1    2  503  501  0.27808857955E+02 -0.82225251862E+01  0.21667013308E+02  0.36199474677E+02  0.00000000000E+00 0.  1.
</event>
<event>
 4    1  0.5967370E+002  0.3196308E+02  0.7546771E-02  0.1403271E+00
          2   -1    0    0  502    0  0.00000000000E+00  0.00000000000E+00  0.24317461714E+03  0.24317461714E+03  0.00000000000E+00 0. -1.
         -2   -1    0    0    0  501 -0.00000000000E+00 -0.00000000000E+00 -0.14510548814E+02  0.14510548814E+02  0.00000000000E+00 0.  1.
         21    1    1    2  502  503  0.78201812481E+01 -0.30991668244E+02  0.22293256506E+03  0.22521227165E+03  0.00000000000E+00 0. -1.
         21    1    1    2  503  501 -0.78201812481E+01  0.30991668244E+02  0.57315032694E+01  0.32472894313E+02  0.00000000000E+00 0.  1.
</event>
<event>
 4    1  0.5967370E+002  0.2543284E+02  0.7546771E-02  0.1464019E+00
          2   -1    0    0  503    0  0.00000000000E+00  0.00000000000E+00  0.17168266750E+04  0.17168266750E+04  0.00000000000E+00 0. -1.
         -2   -1    0    0    0  501 -0.00000000000E+00 -0.00000000000E+00 -0.43361378009E+00  0.43361378009E+00  0.00000000000E+00 0.  1.
         21    1    1    2  502  501 -0.19409033094E+01  0.25358668705E+02  0.54728295810E+03  0.54787358525E+03  0.00000000000E+00 0. -1.
         21    1    1    2  503  502  0.19409033094E+01 -0.25358668705E+02  0.11691101031E+04  0.11693867035E+04  0.00000000000E+00 0.  1.
</event>
<event>
 4    1  0.5967370E+002  0.2056188E+02  0.7546771E-02  0.1525613E+00
          2   -1    0    0  503    0  0.00000000000E+00  0.00000000000E+00  0.38166975824E+02  0.38166975824E+02  0.00000000000E+00 0. -1.
         -2   -1    0    0    0  501 -0.00000000000E+00 -0.00000000000E+00 -0.38907291031E+02  0.38907291031E+02  0.00000000000E+00 0.  1.
         21    1    1    2  502  501  0.18810586436E+02  0.83037768156E+01 -0.32962806636E+02  0.38850192957E+02  0.00000000000E+00 0.  1.
         21    1    1    2  503  502 -0.18810586436E+02 -0.83037768156E+01  0.32222491430E+02  0.38224073898E+02  0.00000000000E+00 0. -1.
</event>
<event>
 4    1  0.5967370E+002  0.2953135E+02  0.7546771E-02  0.1423713E+00
          2   -1    0    0  502    0  0.00000000000E+00  0.00000000000E+00  0.20594727260E+01  0.20594727260E+01  0.00000000000E+00 0.  1.
         -2   -1    0    0    0  501 -0.00000000000E+00 -0.00000000000E+00 -0.10772305301E+04  0.10772305301E+04  0.00000000000E+00 0. -1.
         21    1    1    2  502  503  0.29124339782E+02 -0.48860244740E+01 -0.11718124380E+03  0.12084512527E+03  0.00000000000E+00 0.  1.
         21    1    1    2  503  501 -0.29124339782E+02  0.48860244740E+01 -0.95798981357E+03  0.95844487755E+03  0.00000000000E+00 0. -1.
</event>
<event>
 4    1  0.5967370E+002  0.2561822E+02  0.7546771E-02  0.1462005E+00
          2   -1    0    0  503    0  0.00000000000E+00  0.00000000000E+00  0.74588154508E+03  0.74588154508E+03  0.00000000000E+00 0. -1.
         -2   -1    0    0    0  501 -0.00000000000E+00 -0.00000000000E+00 -0.60162562527E+02  0.60162562527E+02  0.00000000000E+00 0.  1.
         21    1    1    2  502  501 -0.15399275323E+02  0.20473288115E+02 -0.57204568941E+02  0.62678991013E+02  0.00000000000E+00 0.  1.
         21    1    1    2  503  502  0.15399275323E+02 -0.20473288115E+02  0.74292355149E+03  0.74336511659E+03  0.00000000000E+00 0. -1.
</event>
<event>
 4    1  0.5967370E+002  0.3967891E+02  0.7546771E-02  0.1350378E+00
          2   -1    0    0  503    0  0.00000000000E+00  0.00000000000E+00  0.28146951399E+01  0.28146951399E+01  0.00000000000E+00 0.  1.
         -2   -1    0    0    0  501 -0.00000000000E+00 -0.00000000000E+00 -0.56157648444E+03  0.56157648444E+03  0.00000000000E+00 0. -1.
         21    1    1    2  502  501  0.33624665563E+02  0.21066510027E+02 -0.26163525257E+03  0.26462694754E+03  0.00000000000E+00 0. -1.
         21    1    1    2  503  502 -0.33624665563E+02 -0.21066510027E+02 -0.29712653673E+03  0.29976423204E+03  0.00000000000E+00 0.  1.
</event>
<event>
 4    1  0.5967370E+002  0.2738113E+02  0.7546771E-02  0.1443817E+00
          2   -1    0    0  503    0  0.00000000000E+00  0.00000000000E+00  0.49545700492E+03  0.49545700492E+03  0.00000000000E+00 0. -1.
         -2   -1    0    0    0  501 -0.00000000000E+00 -0.00000000000E+00 -0.59526492487E+01  0.59526492487E+01  0.00000000000E+00 0.  1.
         21    1    1    2  502  501  0.19104819386E+02 -0.19614585156E+02  0.28245126954E+02  0.39338445206E+02  0.00000000000E+00 0.  1.
         21    1    1    2  503  502 -0.19104819386E+02  0.19614585156E+02  0.46125922872E+03  0.46207120897E+03  0.00000000000E+00 0. -1.
</event>
<event>
 4    1  0.5967370E+002  0.2371548E+02  0.7546771E-02  0.1483704E+00
          2   -1    0    0  502    0  0.00000000000E+00  0.00000000000E+00  0.73512067030E+02  0.73512067030E+02  0.00000000000E+00 0.  1.
         -2   -1    0    0    0  501 -0.00000000000E+00 -0.00000000000E+00 -0.79360452607E+01  0.79360452607E+01  0.00000000000E+00 0. -1.
         21    1    1    2  502  503 -0.22305364258E+02  0.80557316038E+01  0.40509112394E+02  0.46940518460E+02  0.00000000000E+00 0.  1.
         21    1    1    2  503  501  0.22305364258E+02 -0.80557316038E+01  0.25066909375E+02  0.34507593831E+02  0.00000000000E+00 0. -1.
</event>
<event>
 4    1  0.5967370E+002  0.2484606E+02  0.7546771E-02  0.1470533E+00
          2   -1    0    0  502    0  0.00000000000E+00  0.00000000000E+00  0.12913443439E+03  0.12913443439E+03  0.00000000000E+00 0.  1.
         -2   -1    0    0    0  501 -0.00000000000E+00 -0.00000000000E+00 -0.56043563502E+01  0.56043563502E+01  0.00000000000E+00 0. -1.
         21    1    1    2  502  503  0.10255812297E+02 -0.22630615806E+02  0.87595191295E+02  0.91050777018E+02  0.00000000000E+00 0.  1.
         21    1    1    2  503  501 -0.10255812297E+02  0.22630615806E+02  0.35934886749E+02  0.43688013726E+02  0.00000000000E+00 0. -1.
</event>
<event>
 4    1  0.5967370E+002  0.2694535E+02  0.7546771E-02  0.1448158E+00
          2   -1    0    0  503    0  0.00000000000E+00  0.00000000000E+00  0.10230383615E+02  0.10230383615E+02  0.00000000000E+00 0. -1.
         -2   -1    0    0    0  501 -0.00000000000E+00 -0.00000000000E+00 -0.14344012503E+03  0.14344012503E+03  0.00000000000E+00 0.  1.
         21    1    1    2  502  501 -0.17247711520E+02  0.20701885680E+02 -0.12121891404E+03  0.12417760162E+03  0.00000000000E+00 0.  1.
         21    1    1    2  503  502  0.17247711520E+02 -0.20701885680E+02 -0.11990827370E+02  0.29492907018E+02  0.00000000000E+00 0. -1.
</event>
<event>
 4    1  0.5967370E+002  0.7129924E+02  0.7546771E-02  0.1225629E+00
          2   -1    0    0  503    0  0.00000000000E+00  0.00000000000E+00  0.28281631463E+04  0.28281631463E+04  0.00000000000E+00 0. -1.
         -2   -1    0    0    0  501 -0.00000000000E+00 -0.00000000000E+00 -0.30985708240E+01  0.30985708240E+01  0.00000000000E+00 0.  1.
         21    1    1    2  502  501  0.61757604407E+01  0.71031271801E+02  0.49520938806E+03  0.50031581987E+03  0.00000000000E+00 0.  1.
         21    1    1    2  503  502 -0.61757604407E+01 -0.71031271801E+02  0.23298551874E+04  0.23309458973E+04  0.00000000000E+00 0. -1.
</event>
<event>
 4    1  0.5967370E+002  0.3456321E+02  0.7546771E-02  0.1383660E+00
          2   -1    0    0  502    0  0.00000000000E+00  0.00000000000E+00  0.16938561611E+03  0.16938561611E+03  0.00000000000E+00 0.  1.
         -2   -1    0    0    0  501 -0.00000000000E+00 -0.00000000000E+00 -0.12730076534E+02  0.12730076534E+02  0.00000000000E+00 0. -1.
         21    1    1    2  502  503 -0.32919922775E+02 -0.10530631403E+02  0.13913819908E+03  0.14336685097E+03  0.00000000000E+00 0.  1.
         21    1    1    2  503  501  0.32919922775E+02  0.10530631403E+02  0.17517340497E+02  0.38748841677E+02  0.00000000000E+00 0. -1.
</event>
<event>
 4    1  0.5967370E+002  0.2028289E+02  0.7546771E-02  0.1529754E+00
          2   -1    0    0  503    0  0.00000000000E+00  0.00000000000E+00  0.97056320768E+03  0.97056320768E+03  0.00000000000E+00 0.  1.
         -2   -1    0    0    0  501 -0.00000000000E+00 -0.00000000000E+00 -0.47495713290E+00  0.47495713290E+00  0.00000000000E+00 0. -1.
         21    1    1    2  502  501 -0.10009785868E+02 -0.17640851918E+02  0.32581503573E+03  0.32644575810E+03  0.00000000000E+00 0. -1.
         21    1    1    2  503  502  0.10009785868E+02  0.17640851918E+02  0.64427321482E+03  0.64459240672E+03  0.00000000000E+00 0.  1.
</event>
<event>
 4    1  0.5967370E+002  0.2748997E+02  0.7546771E-02  0.1442747E+00
          2   -1    0    0  503    0  0.00000000000E+00  0.00000000000E+00  0.11616886107E+04  0.11616886107E+04  0.00000000000E+00 0. -1.
         -2   -1    0    0    0  501 -0.00000000000E+00 -0.00000000000E+00 -0.11209549111E+01  0.11209549111E+01  0.00000000000E+00 0.  1.
         21    1    1    2  502  501  0.58090227454E+01 -0.26869198559E+02  0.20363594474E+03  0.20548308098E+03  0.00000000000E+00 0.  1.
         21    1    1    2  503  502 -0.58090227454E+01  0.26869198559E+02  0.95693171103E+03  0.95732648462E+03  0.00000000000E+00 0. -1.
</event>
<event>
 4    1  0.5967370E+002  0.2294249E+02  0.7546771E-02  0.1493222E+00
          2   -1    0    0  502    0  0.00000000000E+00  0.00000000000E+00  0.13816626952E+02  0.13816626952E+02  0.00000000000E+00 0.  1.
         -2   -1    0    0    0  501 -0.00000000000E+00 -0.00000000000E+00 -0.40754721704E+02  0.40754721704E+02  0.00000000000E+00 0. -1.
         21    1    1    2  502  503  0.87097907507E+00 -0.22925950464E+02 -0.20438274147E+02  0.30725898837E+02  0.00000000000E+00 0. -1.
         21    1    1    2  503  501 -0.87097907507E+00  0.22925950464E+02 -0.64998206050E+01  0.23845449820E+02  0.00000000000E+00 0.  1.
</event>
<event>
 4    1  0.5967370E+002  0.2148550E+02  0.7546771E-02  0.1512445E+00
          2   -1    0    0  503    0  0.00000000000E+00  0.00000000000E+00  0.38276651990E+01  0.38276651990E+01  0.00000000000E+00 0.  1.
         -2   -1    0    0    0  501 -0.00000000000E+00 -0.00000000000E+00 -0.15577476651E+03  0.15577476651E+03  0.00000000000E+00 0. -1.
         21    1    1    2  502  501  0.16359113334E+02 -0.13928610851E+02 -0.11389280998E+03  0.11590167796E+03  0.00000000000E+00 0.  1.
         21    1    1    2  503  502 -0.16359113334E+02  0.13928610851E+02 -0.38054291329E+02  0.43700753745E+02  0.00000000000E+00 0. -1.
</event>
<event>
 4    1  0.5967370E+002  0.2324239E+02  0.7546771E-02  0.1489477E+00
          2   -1    0    0  503    0  0.00000000000E+00  0.00000000000E+00  0.39962223574E+03  0.39962223574E+03  0.00000000000E+00 0.  1.
         -2   -1    0    0    0  501 -0.00000000000E+00 -0.00000000000E+00 -0.18732909094E+01  0.18732909094E+01  0.00000000000E+00 0. -1.
         21    1    1    2  502  501  0.21797476360E+02  0.80671288681E+01  0.92955855458E+02  0.95817532883E+02  0.00000000000E+00 0. -1.
         21    1    1    2  503  502 -0.21797476360E+02 -0.80671288681E+01  0.30479308937E+03  0.30567799376E+03  0.00000000000E+00 0.  1.
</event>
<event>
 4    1  0.5967370E+002  0.2669730E+02  0.7546771E-02  0.1450673E+00
          2   -1    0    0  502    0  0.00000000000E+00  0.00000000000E+00  0.31083677459E+02  0.31083677459E+02  0.00000000000E+00 0. -1.
         -2   -1    0    0    0  501 -0.00000000000E+00 -0.00000000000E+00 -0.26127291086E+02  0.26127291086E+02  0.00000000000E+00 0.  1.
         21    1    1    2  502  503  0.32358507919E+01 -0.26500474885E+02  0.12485088872E+02  0.29472416657E+02  0.00000000000E+00 0. -1.
         21    1    1    2  503  501 -0.32358507919E+01  0.26500474885E+02 -0.75287024984E+01  0.27738551887E+02  0.00000000000E+00 0.  1.
</event>
<event>
 4    1  0.5967370E+002  0.3424535E+02  0.7546771E-02  0.1385948E+00
          2   -1    0    0  503    0  0.00000000000E+00  0.00000000000E+00  0.35628726920E+02  0.35628726920E+02  0.00000000000E+00 0. -1.
         -2   -1    0    0    0  501 -0.00000000000E+00 -0.00000000000E+00 -0.76038034394E+02  0.76038034394E+02  0.00000000000E+00 0.  1.
         21    1    1    2  502  501  0.17463355692E+02 -0.29458019475E+02 -0.62251141699E+02  0.71048915166E+02  0.00000000000E+00 0.  1.
         21    1    1    2  503  502 -0.17463355692E+02  0.29458019475E+02  0.21841834225E+02  0.40617846148E+02  0.00000000000E+00 0. -1.
</event>
<event>
 4    1  0.5967370E+002  0.2526947E+02  0.7546771E-02  0.1465811E+00
          2   -1    0    0  502    0  0.00000000000E+00  0.00000000000E+00  0.19669197772E+03  0.19669197772E+03  0.00000000000E+00 0. -1.
         -2   -1    0    0    0  501 -0.00000000000E+00 -0.00000000000E+00 -0.52433701879E+02  0.52433701879E+02  0.00000000000E+00 0.  1.
         21    1    1    2  502  503 -0.25072552455E+02 -0.31485148387E+01  0.19277422025E+03  0.19442336800E+03  0.00000000000E+00 0. -1.
         21    1    1    2  503  501  0.25072552455E+02  0.31485148387E+01 -0.48515944408E+02  0.54702311597E+02  0.00000000000E+00 0.  1.
</event>
<event>
 4    1  0.5967370E+002  0.2574905E+02  0.7546771E-02  0.1460596E+00
          2   -1    0    0  503    0  0.00000000000E+00  0.00000000000E+00  0.23070745850E+02  0.23070745850E+02  0.00000000000E+00 0.  1.
         -2   -1    0    0    0  501 -0.00000000000E+00 -0.00000000000E+00 -0.35028516147E+02  0.35028516147E+02  0.00000000000E+00 0. -1.
         21    1    1    2  502  501 -0.16585829232E+02 -0.19695776987E+02  0.63312695786E+01  0.26516001526E+02  0.00000000000E+00 0.  1.
         21    1    1    2  503  502  0.16585829232E+02  0.19695776987E+02 -0.18289039875E+02  0.31583260471E+02  0.00000000000E+00 0. -1.
</event>
<event>
 4    1  0.5967370E+002  0.2175404E+02  0.7546771E-02  0.1508766E+00
          2   -1    0    0  503    0  0.00000000000E+00  0.00000000000E+00  0.12762397416E+04  0.12762397416E+04  0.00000000000E+00 0. -1.
         -2   -1    0    0    0  501 -0.00000000000E+00 -0.00000000000E+00 -0.90451706491E+00  0.90451706491E+00  0.00000000000E+00 0.  1.
         21    1    1    2  502  501 -0.21702855804E+02  0.14914758173E+01  0.14715031000E+03  0.14874962919E+03  0.00000000000E+00 0.  1.
         21    1    1    2  503  502  0.21702855804E+02 -0.14914758173E+01  0.11281849146E+04  0.11283946295E+04  0.00000000000E+00 0. -1.
</event>
<event>
 4    1  0.5967370E+002  0.2436147E+02  0.7546771E-02  0.1476075E+00
          2   -1    0    0  502    0  0.00000000000E+00  0.00000000000E+00  0.64416084076E+03  0.64416084076E+03  0.00000000000E+00 0.  1.
         -2   -1    0    0    0  501 -0.00000000000E+00 -0.00000000000E+00 -0.22306147242E+01  0.22306147242E+01  0.00000000000E+00 0. -1.
         21    1    1    2  502  503 -0.21435393313E+02 -0.11576059169E+02  0.56857687702E+03  0.56909853832E+03  0.00000000000E+00 0.  1.
         21    1    1    2  503  501  0.21435393313E+02  0.11576059169E+02  0.73353349010E+02  0.77292917162E+02  0.00000000000E+00 0. -1.
</event>
<event>
 4    1  0.5967370E+002  0.2367749E+02  0.7546771E-02  0.1484162E+00
          2   -1    0    0  502    0  0.00000000000E+00  0.00000000000E+00  0.15070374917E+01  0.15070374917E+01  0.00000000000E+00 0.  1.
         -2   -1    0    0    0  501 -0.00000000000E+00 -0.00000000000E+00 -0.40243703526E+03  0.40243703526E+03  0.00000000000E+00 0. -1.
         21    1    1    2  502  503  0.13879164654E+02  0.19183130215E+02 -0.14492367490E+03  0.14684514034E+03  0.00000000000E+00 0.  1.
         21    1    1    2  503  501 -0.13879164654E+02 -0.19183130215E+02 -0.25600632287E+03  0.25709893241E+03  0.00000000000E+00 0. -1.
</event>
<event>
 4    1  0.5967370E+002  0.2351760E+02  0.7546771E-02  0.1486099E+00
          2   -1    0    0  502    0  0.00000000000E+00  0.00000000000E+00  0.23395018730E+01  0.23395018730E+01  0.00000000000E+00 0.  1.
         -2   -1    0    0    0  501 -0.00000000000E+00 -0.00000000000E+00 -0.24608822135E+03  0.24608822135E+03  0.00000000000E+00 0. -1.
         21    1    1    2  502  503  0.86933655475E+00  0.23501524594E+02 -0.97238766642E+02  0.10004226678E+03  0.00000000000E+00 0.  1.
         21    1    1    2  503  501 -0.86933655475E+00 -0.23501524594E+02 -0.14650995284E+03  0.14838545645E+03  0.00000000000E+00 0. -1.
</event>
<event>
 4    1  0.5967370E+002  0.2201925E+02  0.7546771E-02  0.1505195E+00
          2   -1    0    0  503    0  0.00000000000E+00  0.00000000000E+00  0.21142701501E+01  0.21142701501E+01  0.00000000000E+00 0.  1.
         -2   -1    0    0    0  501 -0.00000000000E+00 -0.00000000000E+00 -0.23032055577E+03  0.23032055577E+03  0.00000000000E+00 0. -1.
         21    1    1    2  502  501 -0.31022609377E+01  0.21799616905E+02 -0.12175785236E+03  0.12373286520E+03  0.00000000000E+00 0. -1.
         21    1    1    2  503  502  0.31022609377E+01 -0.21799616905E+02 -0.10644843326E+03  0.10870196072E+03  0.00000000000E+00 0.  1.
</event>
<event>
 4    1  0.5967370E+002  0.3160437E+02  0.7546771E-02  0.1406149E+00
          2   -1    0    0  503    0  0.00000000000E+00  0.00000000000E+00  0.91981334570E+01  0.91981334570E+01  0.00000000000E+00 0.  1.
         -2   -1    0    0    0  501 -0.00000000000E+00 -0.00000000000E+00 -0.60514265363E+03  0.60514265363E+03  0.00000000000E+00 0. -1.
         21    1    1    2  502  501 -0.29399997521E+02  0.11596396272E+02 -0.57622061445E+03  0.57708667701E+03  0.00000000000E+00 0. -1.
         21    1    1    2  503  502  0.29399997521E+02 -0.11596396272E+02 -0.19723905716E+02  0.37254110074E+02  0.00000000000E+00 0.  1.
</event>
<event>
 4    1  0.5967370E+002  0.2391128E+02  0.7546771E-02  0.1481362E+00
          2   -1    0    0  503    0  0.00000000000E+00  0.00000000000E+00  0.76007941081E+03  0.76007941081E+03  0.00000000000E+00 0.  1.
         -2   -1    0    0    0  501 -0.00000000000E+00 -0.00000000000E+00 -0.12569050571E+01  0.12569050571E+01  0.00000000000E+00 0. -1.
         21    1    1    2  502  501  0.19950573146E+02  0.13180430371E+02  0.13819625720E+03  0.14024961539E+03  0.00000000000E+00 0. -1.
         21    1    1    2  503  502 -0.19950573146E+02 -0.13180430371E+02  0.62062624855E+03  0.62108670047E+03  0.00000000000E+00 0.  1.
</event>
<event>
 4    1  0.5967370E+002  0.7111063E+02  0.7546771E-02  0.1226139E+00
          2   -1    0    0  503    0  0.00000000000E+00  0.00000000000E+00  0.13363271615E+03  0.13363271615E+03  0.00000000000E+00 0.  1.
         -2   -1    0    0    0  501 -0.00000000000E+00 -0.00000000000E+00 -0.54804146631E+02  0.54804146631E+02  0.00000000000E+00 0. -1.
         21    1    1    2  502  501  0.69591439437E+02 -0.14620304965E+02 -0.13004801005E+02  0.72290017356E+02  0.00000000000E+00 0. -1.
         21    1    1    2  503  502 -0.69591439437E+02  0.14620304965E+02  0.91833370526E+02  0.11614684543E+03  0.00000000000E+00 0.  1.
</event>
<event>
 4    1  0.5967370E+002  0.2243392E+02  0.7546771E-02  0.1499731E+00
          2   -1    0    0  503    0  0.00000000000E+00  0.00000000000E+00  0.12256606415E+04  0.12256606415E+04  0.00000000000E+00 0.  1.
         -2   -1    0    0    0  501 -0.00000000000E+00 -0.00000000000E+00 -0.16251678583E+01  0.16251678583E+01  0.00000000000E+00 0. -1.
         21    1    1    2  502  501 -0.34139615714E+01 -0.22172636843E+02  0.81531777165E+02  0.84561880572E+02  0.00000000000E+00 0. -1.
         21    1    1    2  503  502  0.34139615714E+01  0.22172636843E+02  0.11425036965E+04  0.11427239288E+04  0.00000000000E+00 0.  1.
</event>
<event>
 4    1  0.5967370E+002  0.3457284E+02  0.7546771E-02  0.1383591E+00
          2   -1    0    0  502    0  0.00000000000E+00  0.00000000000E+00  0.77208822581E+03  0.77208822581E+03  0.00000000000E+00 0. -1.
         -2   -1    0    0    0  501 -0.00000000000E+00 -0.00000000000E+00 -0.33208507458E+01  0.33208507458E+01  0.00000000000E+00 0.  1.
         21    1    1    2  502  503  0.20215977357E+02  0.28046307152E+02  0.66765216704E+03  0.66854670535E+03  0.00000000000E+00 0. -1.
         21    1    1    2  503  501 -0.20215977357E+02 -0.28046307152E+02  0.10111520803E+03  0.10686237121E+03  0.00000000000E+00 0.  1.
</event>
<event>
 4    1  0.5967370E+002  0.2701384E+02  0.7546771E-02  0.1447469E+00
          2   -1    0    0  503    0  0.00000000000E+00  0.00000000000E+00  0.22749971992E+03  0.22749971992E+03  0.00000000000E+00 0.  1.
         -2   -1    0    0    0  501 -0.00000000000E+00 -0.00000000000E+00 -0.33072720569E+01  0.33072720569E+01  0.00000000000E+00 0. -1.
         21    1    1    2  502  501 -0.25801793000E+02  0.80009327076E+01  0.13212181693E+03  0.13485518883E+03  0.00000000000E+00 0. -1.
         21    1    1    2  503  502  0.25801793000E+02 -0.80009327076E+01  0.92070630936E+02  0.95951803147E+02  0.00000000000E+00 0.  1.
</event>
<event>
 4    1  0.5967370E+002  0.2578114E+02  0.7546771E-02  0.1460251E+00
          2   -1    0    0  503    0  0.00000000000E+00  0.00000000000E+00  0.37267127437E+03  0.37267127437E+03  0.00000000000E+00 0. -1.
         -2   -1    0    0    0  501 -0.00000000000E+00 -0.00000000000E+00 -0.20022119545E+01  0.20022119545E+01  0.00000000000E+00 0.  1.
         21    1    1    2  502  501 -0.11640265332E+02  0.23003722074E+02  0.12342130270E+03  0.12608522898E+03  0.00000000000E+00 0.  1.
         21    1    1    2  503  502  0.11640265332E+02 -0.23003722074E+02  0.24724775972E+03  0.24858825735E+03  0.00000000000E+00 0. -1.
</event>
<event>
 4    1  0.5967370E+002  0.2367676E+02  0.7546771E-02  0.1484171E+00
          2   -1    0    0  502    0  0.00000000000E+00  0.00000000000E+00  0.64559489062E+01  0.64559489062E+01  0.00000000000E+00 0. -1.
         -2   -1    0    0    0  501 -0.00000000000E+00 -0.00000000000E+00 -0.17523176579E+03  0.17523176579E+03  0.00000000000E+00 0.  1.
         21    1    1    2  502  503  0.20380350628E+02 -0.12051144849E+02 -0.19865215125E+02  0.30906561696E+02  0.00000000000E+00 0. -1.
         21    1    1    2  503  501 -0.20380350628E+02  0.12051144849E+02 -0.14891060175E+03  0.15078115300E+03  0.00000000000E+00 0.  1.
</event>
<event>
 4    1  0.5967370E+002  0.4101542E+02  0.7546771E-02  0.1342636E+00
          2   -1    0    0  503    0  0.00000000000E+00  0.00000000000E+00  0.33019071996E+02  0.33019071996E+02  0.00000000000E+00 0.  1.
         -2   -1    0    0    0  501 -0.00000000000E+00 -0.00000000000E+00 -0.51460240331E+02  0.51460240331E+02  0.00000000000E+00 0. -1.
         21    1    1    2  502  501  0.25125086705E+02  0.32419044233E+02 -0.13433756593E+02  0.43159358512E+02  0.00000000000E+00 0.  1.
         21    1    1    2  503  502 -0.25125086705E+02 -0.32419044233E+02 -0.50074117420E+01  0.41319953815E+02  0.00000000000E+00 0. -1.
</event>
<event>
 4    1  0.5967370E+002  0.2603355E+02  0.7546771E-02  0.1457565E+00
          2   -1    0    0  503    0  0.00000000000E+00  0.00000000000E+00  0.17010387372E+02  0.17010387372E+02  0.00000000000E+00 0.  1.
         -2   -1    0    0    0  501 -0.00000000000E+00 -0.00000000000E+00 -0.51038663442E+02  0.51038663442E+02  0.00000000000E+00 0. -1.
         21    1    1    2  502  501  0.16400272562E+02  0.20218228232E+02 -0.32949663982E+02  0.41993166700E+02  0.00000000000E+00 0.  1.
         21    1    1    2  503  502 -0.16400272562E+02 -0.20218228232E+02 -0.10786120873E+01  0.26055884114E+02  0.00000000000E+00 0. -1.
</event>
<event>
 4    1  0.5967370E+002  0.2313012E+02  0.7546771E-02  0.1490871E+00
          2   -1    0    0  502    0  0.00000000000E+00  0.00000000000E+00  0.75159426706E+03  0.75159426706E+03  0.00000000000E+00 0. -1.
         -2   -1    0    0    0  501 -0.00000000000E+00 -0.00000000000E+00 -0.55554515705E+01  0.55554515705E+01  0.00000000000E+00 0.  1.
         21    1    1    2  502  503  0.23122715236E+02 -0.58527468126E+00  0.72650968878E+03  0.72687779606E+03  0.00000000000E+00 0. -1.
         21    1    1    2  503  501 -0.23122715236E+02  0.58527468126E+00  0.19529126707E+02  0.30271922573E+02  0.00000000000E+00 0.  1.
</event>
<event>
 4    1  0.5967370E+002  0.2266082E+02  0.7546771E-02  0.1496802E+00
          2   -1    0    0  502    0  0.00000000000E+00  0.00000000000E+00  0.11235537172E+04  0.11235537172E+04  0.00000000000E+00 0. -1.
         -2   -1    0    0    0  501 -0.00000000000E+00 -0.00000000000E+00 -0.33806542551E+01  0.33806542551E+01  0.00000000000E+00 0.  1.
         21    1    1    2  502  503  0.10844548962E+02  0.19897448089E+02  0.10840826165E+04  0.10843194327E+04  0.00000000000E+00 0. -1.
         21    1    1    2  503  501 -0.10844548962E+02 -0.19897448089E+02  0.36090446457E+02  0.42614938791E+02  0.00000000000E+00 0.  1.
</event>
<event>
 4    1  0.5967370E+002  0.3077897E+02  0.7546771E-02  0.1412946E+00
          2   -1    0    0  503    0  0.00000000000E+00  0.00000000000E+00  0.56870532484E+02  0.56870532484E+02  0.00000000000E+00 0.  1.
         -2   -1    0    0    0  501 -0.00000000000E+00 -0.00000000000E+00 -0.28216942253E+02  0.28216942253E+02  0.00000000000E+00 0. -1.
         21    1    1    2  502  501  0.30774703123E+02  0.51242445797E+00 -0.12902798791E+02  0.33374049017E+02  0.00000000000E+00 0. -1.
         21    1    1    2  503  502 -0.30774703123E+02 -0.51242445797E+00  0.41556389022E+02  0.51713425720E+02  0.00000000000E+00 0.  1.
</event>
<event>
 4    1  0.5967370E+002  0.2365826E+02  0.7546771E-02  0.1484394E+00
          2   -1    0    0  503    0  0.00000000000E+00  0.00000000000E+00  0.12320174373E+02  0.12320174373E+02  0.00000000000E+00 0.  1.
         -2   -1    0    0    0  501 -0.00000000000E+00 -0.00000000000E+00 -0.68447284154E+02  0.68447284154E+02  0.00000000000E+00 0. -1.
         21    1    1    2  502  501 -0.15678051812E+02  0.17717564785E+02 -0.46455814022E+01  0.24110056762E+02  0.00000000000E+00 0.  1.
         21    1    1    2  503  502  0.15678051812E+02 -0.17717564785E+02 -0.51481528379E+02  0.56657401765E+02  0.00000000000E+00 0. -1.
</event>
<event>
 4    1  0.5967370E+002  0.2766166E+02  0.7546771E-02  0.1441073E+00
          2   -1    0    0  503    0  0.00000000000E+00  0.00000000000E+00  0.79470658940E+03  0.79470658940E+03  0.00000000000E+00 0.  1.
         -2   -1    0    0    0  501 -0.00000000000E+00 -0.00000000000E+00 -0.98690530757E+00  0.98690530757E+00  0.00000000000E+00 0. -1.
         21    1    1    2  502  501  0.21500207395E+02 -0.17404263506E+02  0.45899886736E+03  0.45983162956E+03  0.00000000000E+00 0.  1.
         21    1    1    2  503  502 -0.21500207395E+02  0.17404263506E+02  0.33472081673E+03  0.33586186515E+03  0.00000000000E+00 0. -1.
</event>
<event>
 4    1  0.5967370E+002  0.2202391E+02  0.7546771E-02  0.1505133E+00
          2   -1    0    0  503    0  0.00000000000E+00  0.00000000000E+00  0.35109710351E+02  0.35109710351E+02  0.00000000000E+00 0.  1.
         -2   -1    0    0    0  501 -0.00000000000E+00 -0.00000000000E+00 -0.16860182245E+02  0.16860182245E+02  0.00000000000E+00 0. -1.
         21    1    1    2  502  501  0.20529785657E+02 -0.79737404123E+01 -0.19178778531E+01  0.22107258780E+02  0.00000000000E+00 0. -1.
         21    1    1    2  503  502 -0.20529785657E+02  0.79737404123E+01  0.20167405959E+02  0.29862633816E+02  0.00000000000E+00 0.  1.
</event>
<event>
 4    1  0.5967370E+002  0.2206909E+02  0.7546771E-02  0.1504530E+00
          2   -1    0    0  502    0  0.00000000000E+00  0.00000000000E+00  0.45885980069E+02  0.45885980069E+02  0.00000000000E+00 0.  1.
         -2   -1    0    0    0  501 -0.00000000000E+00 -0.00000000000E+00 -0.11397643716E+02  0.11397643716E+02  0.00000000000E+00 0. -1.
         21    1    1    2  502  503 -0.21237973619E+02  0.59994481740E+01  0.24753221336E+02  0.33162733125E+02  0.00000000000E+00 0.  1.
         21    1    1    2  503  501  0.21237973619E+02 -0.59994481740E+01  0.97351150168E+01  0.24120890659E+02  0.00000000000E+00 0. -1.
</event>
<event>
 4    1  0.5967370E+002  0.2734904E+02  0.7546771E-02  0.1444133E+00
          2   -1    0    0  503    0  0.00000000000E+00  0.00000000000E+00  0.20101861853E+04  0.20101861853E+04  0.00000000000E+00 0. -1.
         -2   -1    0    0    0  501 -0.00000000000E+00 -0.00000000000E+00 -0.57325450321E+00  0.57325450321E+00  0.00000000000E+00 0.  1.
         21    1    1    2  502  501  0.12456751335E+02 -0.24347470425E+02  0.40923734888E+03  0.41015018919E+03  0.00000000000E+00 0.  1.
         21    1    1    2  503  502 -0.12456751335E+02  0.24347470425E+02  0.16003755820E+04  0.16006092507E+04  0.00000000000E+00 0. -1.
</event>
<event>
 4    1  0.5967370E+002  0.2606812E+02  0.7546771E-02  0.1457200E+00
          2   -1    0    0  502    0  0.00000000000E+00  0.00000000000E+00  0.64691993855E+03  0.64691993855E+03  0.00000000000E+00 0. -1.
         -2   -1    0    0    0  501 -0.00000000000E+00 -0.00000000000E+00 -0.10563742359E+01  0.10563742359E+01  0.00000000000E+00 0.  1.
         21    1    1    2  502  503  0.14031056335E+02 -0.21969893222E+02  0.34722690952E+03  0.34820406868E+03  0.00000000000E+00 0.  1.
         21    1    1    2  503  501 -0.14031056335E+02  0.21969893222E+02  0.29863665479E+03  0.29977224411E+03  0.00000000000E+00 0. -1.
</event>
<event>
 4    1  0.5967370E+002  0.2081562E+02  0.7546771E-02  0.1521914E+00
          2   -1    0    0  502    0  0.00000000000E+00  0.00000000000E+00  0.80546109152E+02  0.80546109152E+02  0.00000000000E+00 0. -1.
         -2   -1    0    0    0  501 -0.00000000000E+00 -0.00000000000E+00 -0.14407404480E+02  0.14407404480E+02  0.00000000000E+00 0.  1.
         21    1    1    2  502  503  0.10344819323E+02 -0.18063077594E+02  0.70651704461E+02  0.73654282987E+02  0.00000000000E+00 0. -1.
         21    1    1    2  503  501 -0.10344819323E+02  0.18063077594E+02 -0.45129997901E+01  0.21299230645E+02  0.00000000000E+00 0.  1.
</event>
<event>
 4    1  0.5967370E+002  0.3139578E+02  0.7546771E-02  0.1407843E+00
          2   -1    0    0  503    0  0.00000000000E+00  0.00000000000E+00  0.70323004561E+03  0.70323004561E+03  0.00000000000E+00 0. -1.
         -2   -1    0    0    0  501 -0.00000000000E+00 -0.00000000000E+00 -0.41174129685E+01  0.41174129685E+01  0.00000000000E+00 0.  1.
         21    1    1    2  502  501  0.24941757180E+02 -0.19068399575E+02  0.62322828018E+02  0.69784167300E+02  0.00000000000E+00 0.  1.
         21    1    1    2  503  502 -0.24941757180E+02  0.19068399575E+02  0.63678980463E+03  0.63756329128E+03  0.00000000000E+00 0. -1.
</event>
<event>
 4    1  0.5967370E+002  0.2587727E+02  0.7546771E-02  0.1459224E+00
          2   -1    0    0  503    0  0.00000000000E+00  0.00000000000E+00  0.36338051376E+03  0.36338051376E+03  0.00000000000E+00 0. -1.
         -2   -1    0    0    0  501 -0.00000000000E+00 -0.00000000000E+00 -0.53465738764E+01  0.53465738764E+01  0.00000000000E+00 0.  1.
         21    1    1    2  502  501  0.20512923452E+02 -0.15775071617E+02  0.29769802370E+02  0.39444569287E+02  0.00000000000E+00 0.  1.
         21    1    1    2  503  502 -0.20512923452E+02  0.15775071617E+02  0.32826413751E+03  0.32928251835E+03  0.00000000000E+00 0. -1.
</event>
<event>
 4    1  0.5967370E+002  0.3018331E+02  0.7546771E-02  0.1418010E+00
          2   -1    0    0  502    0  0.00000000000E+00  0.00000000000E+00  0.17476866853E+04  0.17476866853E+04  0.00000000000E+00 0.  1.
         -2   -1    0    0    0  501 -0.00000000000E+00 -0.00000000000E+00 -0.66444627172E+00  0.66444627172E+00  0.00000000000E+00 0. -1.
         21    1    1    2  502  503 -0.29487225694E+02 -0.64448055814E+01  0.12792913869E+04  0.12796474063E+04  0.00000000000E+00 0.  1.
         21    1    1    2  503  501  0.29487225694E+02  0.64448055814E+01  0.46773085217E+03  0.46870372526E+03  0.00000000000E+00 0. -1.
</event>
<event>
 4    1  0.5967370E+002  0.2572216E+02  0.7546771E-02  0.1460884E+00
          2   -1    0    0  502    0  0.00000000000E+00  0.00000000000E+00  0.21736281799E+03  0.21736281799E+03  0.00000000000E+00 0.  1.
         -2   -1    0    0    0  501 -0.00000000000E+00 -0.00000000000E+00 -0.23466484398E+02  0.23466484398E+02  0.00000000000E+00 0. -1.
         21    1    1    2  502  503  0.21778527710E+02  0.13686672065E+02  0.20928204059E+03  0.21085682767E+03  0.00000000000E+00 0.  1.
         21    1    1    2  503  501 -0.21778527710E+02 -0.13686672065E+02 -0.15385706992E+02  0.29972474724E+02  0.00000000000E+00 0. -1.
</event>
<event>
 4    1  0.5967370E+002  0.2196593E+02  0.7546771E-02  0.1505908E+00
          2   -1    0    0  502    0  0.00000000000E+00  0.00000000000E+00  0.11424185472E+02  0.11424185472E+02  0.00000000000E+00 0.  1.
         -2   -1    0    0    0  501 -0.00000000000E+00 -0.00000000000E+00 -0.23264259256E+03  0.23264259256E+03  0.00000000000E+00 0. -1.
         21    1    1    2  502  503 -0.21962519233E+02  0.38711420587E+00 -0.20743623466E+00  0.21966910076E+02  0.00000000000E+00 0.  1.
         21    1    1    2  503  501  0.21962519233E+02 -0.38711420587E+00 -0.22101097085E+03  0.22209986796E+03  0.00000000000E+00 0. -1.
</event>
<event>
 4    1  0.5967370E+002  0.5763402E+02  0.7546771E-02  0.1268090E+00
          2   -1    0    0  502    0  0.00000000000E+00  0.00000000000E+00  0.77334033717E+03  0.77334033717E+03  0.00000000000E+00 0.  1.
         -2   -1    0    0    0  501 -0.00000000000E+00 -0.00000000000E+00 -0.11414839743E+02  0.11414839743E+02  0.00000000000E+00 0. -1.
         21    1    1    2  502  503 -0.52991037889E+02  0.22663401194E+02  0.69084533526E+03  0.69324523590E+03  0.00000000000E+00 0.  1.
         21    1    1    2  503  501  0.52991037889E+02 -0.22663401194E+02  0.71080162172E+02  0.91509941015E+02  0.00000000000E+00 0. -1.
</event>
<event>
 4    1  0.5967370E+002  0.3622279E+02  0.7546771E-02  0.1372165E+00
          2   -1    0    0  503    0  0.00000000000E+00  0.00000000000E+00  0.13996514028E+01  0.13996514028E+01  0.00000000000E+00 0. -1.
         -2   -1    0    0    0  501 -0.00000000000E+00 -0.00000000000E+00 -0.14531921843E+04  0.14531921843E+04  0.00000000000E+00 0.  1.
         21    1    1    2  502  501 -0.21317160160E+02  0.29285993692E+02 -0.29261521142E+03  0.29484869458E+03  0.00000000000E+00 0. -1.
         21    1    1    2  503  502  0.21317160160E+02 -0.29285993692E+02 -0.11591773215E+04  0.11597431411E+04  0.00000000000E+00 0.  1.
</event>
<event>
 4    1  0.5967370E+002  0.2847652E+02  0.7546771E-02  0.1433315E+00
          2   -1    0    0  502    0  0.00000000000E+00  0.00000000000E+00  0.81435770777E+01  0.81435770777E+01  0.00000000000E+00 0.  1.
         -2   -1    0    0    0  501 -0.00000000000E+00 -0.00000000000E+00 -0.37817583138E+03  0.37817583138E+03  0.00000000000E+00 0. -1.
         21    1    1    2  502  503 -0.92971493198E+01  0.26916073273E+02 -0.19225724468E+02  0.34358993979E+02  0.00000000000E+00 0.  1.
         21    1    1    2  503  501  0.92971493198E+01 -0.26916073273E+02 -0.35080652983E+03  0.35196041448E+03  0.00000000000E+00 0. -1.
</event>
<event>
 4    1  0.5967370E+002  0.2020235E+02  0.7546771E-02  0.1530965E+00
          2   -1    0    0  502    0  0.00000000000E+00  0.00000000000E+00  0.31667511599E+03  0.31667511599E+03  0.00000000000E+00 0. -1.
         -2   -1    0    0    0  501 -0.00000000000E+00 -0.00000000000E+00 -0.18926526774E+01  0.18926526774E+01  0.00000000000E+00 0.  1.
         21    1    1    2  502  503  0.95815217787E+01 -0.17785648147E+02  0.24736116292E+03  0.24818476940E+03  0.00000000000E+00 0. -1.
         21    1    1    2  503  501 -0.95815217787E+01  0.17785648147E+02  0.67421300388E+02  0.70382999265E+02  0.00000000000E+00 0.  1.
</event>
<event>
 4    1  0.5967370E+002  0.2202889E+02  0.7546771E-02  0.1505066E+00
          2   -1    0    0  502    0  0.00000000000E+00  0.00000000000E+00  0.18348254444E+04  0.18348254444E+04  0.00000000000E+00 0. -1.
         -2   -1    0    0    0  501 -0.00000000000E+00 -0.00000000000E+00 -0.27179568833E+00  0.27179568833E+00  0.00000000000E+00 0.  1.
         21    1    1    2  502  503 -0.21906296963E+02  0.23208267885E+01  0.10678253993E+04  0.10680525996E+04  0.00000000000E+00 0. -1.
         21    1    1    2  503  501  0.21906296963E+02 -0.23208267885E+01  0.76672824935E+03  0.76704464045E+03  0.00000000000E+00 0.  1.
</event>
<event>
 4    1  0.5967370E+002  0.3114921E+02  0.7546771E-02  0.1409866E+00
          2   -1    0    0  503    0  0.00000000000E+00  0.00000000000E+00  0.18243097965E+03  0.18243097965E+03  0.00000000000E+00 0.  1.
         -2   -1    0    0    0  501 -0.00000000000E+00 -0.00000000000E+00 -0.61830431526E+01  0.61830431526E+01  0.00000000000E+00 0. -1.
         21    1    1    2  502  501  0.25637358344E+02 -0.17691773605E+02  0.52861140312E+02  0.61356117472E+02  0.00000000000E+00 0.  1.
         21    1    1    2  503  502 -0.25637358344E+02  0.17691773605E+02  0.12338679619E+03  0.12725790533E+03  0.00000000000E+00 0. -1.
</event>
<event>
 4    1  0.5967370E+002  0.3164264E+02  0.7546771E-02  0.1405839E+00
          2   -1    0    0  503    0  0.00000000000E+00  0.00000000000E+00  0.40811153176E+02  0.40811153176E+02  0.00000000000E+00 0. -1.
         -2   -1    0    0    0  501 -0.00000000000E+00 -0.00000000000E+00 -0.28292817953E+02  0.28292817953E+02  0.00000000000E+00 0.  1.
         21    1    1    2  502  501 -0.20299310181E+02  0.24273326786E+02  0.18853259137E+02  0.36833432737E+02  0.00000000000E+00 0. -1.
         21    1    1    2  503  502  0.20299310181E+02 -0.24273326786E+02 -0.63349239140E+01  0.32270538392E+02  0.00000000000E+00 0.  1.
</event>
<event>
 4    1  0.5967370E+002  0.2058487E+02  0.7546771E-02  0.1525275E+00
          2   -1    0    0  503    0  0.00000000000E+00  0.00000000000E+00  0.14105599510E+02  0.14105599510E+02  0.00000000000E+00 0. -1.
         -2   -1    0    0    0  501 -0.00000000000E+00 -0.00000000000E+00 -0.36203553119E+03  0.36203553119E+03  0.00000000000E+00 0.  1.
         21    1    1    2  502  501 -0.19076728446E+02 -0.77340346172E+01 -0.35406389710E+03  0.35466178268E+03  0.00000000000E+00 0.  1.
         21    1    1    2  503  502  0.19076728446E+02  0.77340346172E+01  0.61339654233E+01  0.21479348022E+02  0.00000000000E+00 0. -1.
</event>
<event>
 4    1  0.5967370E+002  0.2415841E+02  0.7546771E-02  0.1478443E+00
          2   -1    0    0  503    0  0.00000000000E+00  0.00000000000E+00  0.67720438452E+03  0.67720438452E+03  0.00000000000E+00 0.  1.
         -2   -1    0    0    0  501 -0.00000000000E+00 -0.00000000000E+00 -0.21541744857E+01  0.21541744857E+01  0.00000000000E+00 0. -1.
         21    1    1    2  502  501 -0.12666132389E+01  0.24125181725E+02  0.74426018677E+02  0.78248712184E+02  0.00000000000E+00 0. -1.
         21    1    1    2  503  502  0.12666132389E+01 -0.24125181725E+02  0.60062419136E+03  0.60110984682E+03  0.00000000000E+00 0.  1.
</event>
<event>
 4    1  0.5967370E+002  0.2087221E+02  0.7546771E-02  0.1521097E+00
          2   -1    0    0  503    0  0.00000000000E+00  0.00000000000E+00  0.12859467403E+04  0.12859467403E+04  0.00000000000E+00 0.  1.
         -2   -1    0    0    0  501 -0.00000000000E+00 -0.00000000000E+00 -0.37620189835E+00  0.37620189835E+00  0.00000000000E+00 0. -1.
         21    1    1    2  502  501 -0.76012408126E+01  0.19438887886E+02  0.43992843716E+03  0.44042329530E+03  0.00000000000E+00 0. -1.
         21    1    1    2  503  502  0.76012408126E+01 -0.19438887886E+02  0.84564210121E+03  0.84589964686E+03  0.00000000000E+00 0.  1.
</event>
<event>
 4    1  0.5967370E+002  0.3019318E+02  0.7546771E-02  0.1417925E+00
          2   -1    0    0  503    0  0.00000000000E+00  0.00000000000E+00  0.13749302328E+04  0.13749302328E+04  0.00000000000E+00 0.  1.
         -2   -1    0    0    0  501 -0.00000000000E+00 -0.00000000000E+00 -0.16299253715E+01  0.16299253715E+01  0.00000000000E+00 0. -1.
         21    1    1    2  502  501  0.89496860213E+01  0.28836279196E+02  0.15653552059E+03  0.15942081760E+03  0.00000000000E+00 0. -1.
         21    1    1    2  503  502 -0.89496860213E+01 -0.28836279196E+02  0.12167647869E+04  0.12171393406E+04  0.00000000000E+00 0.  1.
</event>
<event>
 4    1  0.5967370E+002  0.2050520E+02  0.7546771E-02  0.1526448E+00
          2   -1    0    0  502    0  0.00000000000E+00  0.00000000000E+00  0.79906584966E+03  0.79906584966E+03  0.00000000000E+00 0.  1.
         -2   -1    0    0    0  501 -0.00000000000E+00 -0.00000000000E+00 -0.61975669547E+00  0.61975669547E+00  0.00000000000E+00 0. -1.
         21    1    1    2  502  503 -0.77066363094E+01 -0.19001865144E+02  0.24386577612E+03  0.24472633672E+03  0.00000000000E+00 0.  1.
         21    1    1    2  503  501  0.77066363094E+01  0.19001865144E+02  0.55458031684E+03  0.55495926963E+03  0.00000000000E+00 0. -1.
</event>
<event>
 4    1  0.5967370E+002  0.2067263E+02  0.7546771E-02  0.1523991E+00
          2   -1    0    0  503    0  0.00000000000E+00  0.00000000000E+00  0.79586325426E+03  0.79586325426E+03  0.00000000000E+00 0.  1.
         -2   -1    0    0    0  501 -0.00000000000E+00 -0.00000000000E+00 -0.53983990061E+00  0.53983990061E+00  0.00000000000E+00 0. -1.
         21    1    1    2  502  501 -0.67260405214E+01  0.19547837318E+02  0.36864617468E+03  0.36922535080E+03  0.00000000000E+00 0.  1.
         21    1    1    2  503  502  0.67260405214E+01 -0.19547837318E+02  0.42667723968E+03  0.42717774336E+03  0.00000000000E+00 0. -1.
</event>
<event>
 4    1  0.5967370E+002  0.2255953E+02  0.7546771E-02  0.1498104E+00
          2   -1    0    0  502    0  0.00000000000E+00  0.00000000000E+00  0.15742693022E+04  0.15742693022E+04  0.00000000000E+00 0.  1.
         -2   -1    0    0    0  501 -0.00000000000E+00 -0.00000000000E+00 -0.47265203880E+00  0.47265203880E+00  0.00000000000E+00 0. -1.
         21    1    1    2  502  503 -0.17983523717E+02  0.13620766126E+02  0.12295283542E+04  0.12297352992E+04  0.00000000000E+00 0.  1.
         21    1    1    2  503  501  0.17983523717E+02 -0.13620766126E+02  0.34426829603E+03  0.34500665508E+03  0.00000000000E+00 0. -1.
</event>
<event>
 4    1  0.5967370E+002  0.2166952E+02  0.7546771E-02  0.1509917E+00
          2   -1    0    0  502    0  0.00000000000E+00  0.00000000000E+00  0.16562104169E+03  0.16562104169E+03  0.00000000000E+00 0. -1.
         -2   -1    0    0    0  501 -0.00000000000E+00 -0.00000000000E+00 -0.28765893774E+01  0.28765893774E+01  0.00000000000E+00 0.  1.
         21    1    1    2  502  503 -0.18845642068E+02 -0.10696261622E+02  0.71266060528E+02  0.74487714563E+02  0.00000000000E+00 0. -1.
         21    1    1    2  503  501  0.18845642068E+02  0.10696261622E+02  0.91478391789E+02  0.94009916509E+02  0.00000000000E+00 0.  1.
</event>
<event>
 4    1  0.5967370E+002  0.2702028E+02  0.7546771E-02  0.1447404E+00
          2   -1    0    0  503    0  0.00000000000E+00  0.00000000000E+00  0.76331414018E+02  0.76331414018E+02  0.00000000000E+00 0. -1.
         -2   -1    0    0    0  501 -0.00000000000E+00 -0.00000000000E+00 -0.12456982952E+02  0.12456982952E+02  0.00000000000E+00 0.  1.
         21    1    1    2  502  501  0.20832177158E+02  0.17208024742E+02  0.10546186853E+02  0.29005478411E+02  0.00000000000E+00 0.  1.
         21    1    1    2  503  502 -0.20832177158E+02 -0.17208024742E+02  0.53328244212E+02  0.59782918559E+02  0.00000000000E+00 0. -1.
</event>
<event>
 4    1  0.5967370E+002  0.2180648E+02  0.7546771E-02  0.1508055E+00
          2   -1    0    0  503    0  0.00000000000E+00  0.00000000000E+00  0.15521995059E+03  0.15521995059E+03  0.00000000000E+00 0.  1.
         -2   -1    0    0    0  501 -0.00000000000E+00 -0.00000000000E+00 -0.14918393512E+02  0.14918393512E+02  0.00000000000E+00 0. -1.
         21    1    1    2  502  501 -0.19327226241E+02  0.10098563110E+02 -0.56823996930E+01  0.22534691418E+02  0.00000000000E+00 0. -1.
         21    1    1    2  503  502  0.19327226241E+02 -0.10098563110E+02  0.14598395677E+03  0.14760365268E+03  0.00000000000E+00 0.  1.
</event>
<event>
 4    1  0.5967370E+002  0.2628717E+02  0.7546771E-02  0.1454903E+00
          2   -1    0    0  502    0  0.00000000000E+00  0.00000000000E+00  0.55681362225E+02  0.55681362225E+02  0.00000000000E+00 0.  1.
         -2   -1    0    0    0  501 -0.00000000000E+00 -0.00000000000E+00 -0.73241735057E+02  0.73241735057E+02  0.00000000000E+00 0. -1.
         21    1    1    2  502  503  0.23479962156E+02  0.11819750827E+02  0.49966844260E+02  0.56459725980E+02  0.00000000000E+00 0.  1.
         21    1    1    2  503  501 -0.23479962156E+02 -0.11819750827E+02 -0.67527217091E+02  0.72463371302E+02  0.00000000000E+00 0. -1.
</event>
<event>
 4    1  0.5967370E+002  0.2648143E+02  0.7546771E-02  0.1452888E+00
          2   -1    0    0  502    0  0.00000000000E+00  0.00000000000E+00  0.14095406221E+04  0.14095406221E+04  0.00000000000E+00 0. -1.
         -2   -1    0    0    0  501 -0.00000000000E+00 -0.00000000000E+00 -0.52906660252E+00  0.52906660252E+00  0.00000000000E+00 0.  1.
         21    1    1    2  502  503 -0.24917958673E+02 -0.89644438316E+01  0.87668246424E+03  0.87708232740E+03  0.00000000000E+00 0. -1.
         21    1    1    2  503  501  0.24917958673E+02  0.89644438316E+01  0.53232909128E+03  0.53298736133E+03  0.00000000000E+00 0.  1.
</event>
<event>
 4    1  0.5967370E+002  0.2549754E+02  0.7546771E-02  0.1463314E+00
          2   -1    0    0  502    0  0.00000000000E+00  0.00000000000E+00  0.14375397492E+04  0.14375397492E+04  0.00000000000E+00 0. -1.
         -2   -1    0    0    0  501 -0.00000000000E+00 -0.00000000000E+00 -0.98902166511E+00  0.98902166511E+00  0.00000000000E+00 0.  1.
         21    1    1    2  502  503 -0.13300651370E+02 -0.21753552406E+02  0.12481599476E+04  0.12484203535E+04  0.00000000000E+00 0. -1.
         21    1    1    2  503  501  0.13300651370E+02  0.21753552406E+02  0.18839077999E+03  0.19010841737E+03  0.00000000000E+00 0.  1.
</event>
<event>
 4    1  0.5967370E+002  0.2302720E+03  0.7546771E-02  0.1035529E+00
          2   -1    0    0  503    0  0.00000000000E+00  0.00000000000E+00  0.85731484768E+03  0.85731484768E+03  0.00000000000E+00 0. -1.
         -2   -1    0    0    0  501 -0.00000000000E+00 -0.00000000000E+00 -0.66955768760E+02  0.66955768760E+02  0.00000000000E+00 0.  1.
         21    1    1    2  502  501  0.17866762843E+03 -0.14526898413E+03  0.26756738660E+03  0.35301204735E+03  0.00000000000E+00 0. -1.
         21    1    1    2  503  502 -0.17866762843E+03  0.14526898413E+03  0.52279169232E+03  0.57125856909E+03  0.00000000000E+00 0.  1.
</event>
<event>
 4    1  0.5967370E+002  0.3204784E+02  0.7546771E-02  0.1402597E+00
          2   -1    0    0  503    0  0.00000000000E+00  0.00000000000E+00  0.23260824948E+04  0.23260824948E+04  0.00000000000E+00 0. -1.
         -2   -1    0    0    0  501 -0.00000000000E+00 -0.00000000000E+00 -0.48193603904E+00  0.48193603904E+00  0.00000000000E+00 0.  1.
         21    1    1    2  502  501  0.10482420441E+02  0.30285026767E+02  0.82601971393E+03  0.82664117475E+03  0.00000000000E+00 0.  1.
         21    1    1    2  503  502 -0.10482420441E+02 -0.30285026767E+02  0.14995808448E+04  0.14999232561E+04  0.00000000000E+00 0. -1.
</event>
<event>
 4    1  0.5967370E+002  0.3664403E+02  0.7546771E-02  0.1369359E+00
          2   -1    0    0  503    0  0.00000000000E+00  0.00000000000E+00  0.11803609812E+01  0.11803609812E+01  0.00000000000E+00 0. -1.
         -2   -1    0    0    0  501 -0.00000000000E+00 -0.00000000000E+00 -0.13029853884E+04  0.13029853884E+04  0.00000000000E+00 0.  1.
         21    1    1    2  502  501 -0.32999516388E+02  0.15931634862E+02 -0.41858901235E+03  0.42018989318E+03  0.00000000000E+00 0. -1.
         21    1    1    2  503  502  0.32999516388E+02 -0.15931634862E+02 -0.88321601504E+03  0.88397585617E+03  0.00000000000E+00 0.  1.
</event>
<event>
 4    1  0.5967370E+002  0.3241114E+02  0.7546771E-02  0.1399738E+00
          2   -1    0    0  503    0  0.00000000000E+00  0.00000000000E+00  0.55148042722E+02  0.55148042722E+02  0.00000000000E+00 0.  1.
         -2   -1    0    0    0  501 -0.00000000000E+00 -0.00000000000E+00 -0.22550371684E+02  0.22550371684E+02  0.00000000000E+00 0. -1.
         21    1    1    2  502  501  0.13635131890E+02 -0.29403487848E+02  0.98931150615E+00  0.32426234079E+02  0.00000000000E+00 0. -1.
         21    1    1    2  503  502 -0.13635131890E+02  0.29403487848E+02  0.31608359532E+02  0.45272180327E+02  0.00000000000E+00 0.  1.
</event>
<event>
 4    1  0.5967370E+002  0.2098244E+02  0.7546771E-02  0.1519516E+00
          2   -1    0    0  503    0  0.00000000000E+00  0.00000000000E+00  0.50017137307E+03  0.50017137307E+03  0.00000000000E+00 0.  1.
         -2   -1    0    0    0  501 -0.00000000000E+00 -0.00000000000E+00 -0.88143666454E+00  0.88143666454E+00  0.00000000000E+00 0. -1.
         21    1    1    2  502  501 -0.18181473938E+02  0.10473621833E+02  0.25893812601E+03  0.25978686620E+03  0.00000000000E+00 0. -1.
         21    1    1    2  503  502  0.18181473938E+02 -0.10473621833E+02  0.24035181039E+03  0.24126594353E+03  0.00000000000E+00 0.  1.
</event>
<event>
 4    1  0.5967370E+002  0.6189115E+02  0.7546771E-02  0.1253539E+00
          2   -1    0    0  502    0  0.00000000000E+00  0.00000000000E+00  0.27991811574E+03  0.27991811574E+03  0.00000000000E+00 0. -1.
         -2   -1    0    0    0  501 -0.00000000000E+00 -0.00000000000E+00 -0.28628855322E+02  0.28628855322E+02  0.00000000000E+00 0.  1.
         21    1    1    2  502  503  0.29716246496E+02  0.54290509965E+02  0.23710723123E+03  0.24505173715E+03  0.00000000000E+00 0. -1.
         21    1    1    2  503  501 -0.29716246496E+02 -0.54290509965E+02  0.14182029192E+02  0.63495233916E+02  0.00000000000E+00 0.  1.
</event>
<event>
 4    1  0.5967370E+002  0.2249388E+02  0.7546771E-02  0.1498953E+00
          2   -1    0    0  502    0  0.00000000000E+00  0.00000000000E+00  0.35944880147E+02  0.35944880147E+02  0.00000000000E+00 0.  1.
         -2   -1    0    0    0  501 -0.00000000000E+00 -0.00000000000E+00 -0.19150147761E+02  0.19150147761E+02  0.00000000000E+00 0. -1.
         21    1    1    2  502  503 -0.20691109177E+02 -0.88234124489E+01  0.22576858128E+02  0.31869878085E+02  0.00000000000E+00 0.  1.
         21    1    1    2  503  501  0.20691109177E+02  0.88234124489E+01 -0.57821257416E+01  0.23225149823E+02  0.00000000000E+00 0. -1.
</event>
<event>
 4    1  0.5967370E+002  0.2403710E+02  0.7546771E-02  0.1479870E+00
          2   -1    0    0  503    0  0.00000000000E+00  0.00000000000E+00  0.49774976831E+01  0.49774976831E+01  0.00000000000E+00 0. -1.
         -2   -1    0    0    0  501 -0.00000000000E+00 -0.00000000000E+00 -0.52666671297E+03  0.52666671297E+03  0.00000000000E+00 0.  1.
         21    1    1    2  502  501  0.12442069776E+02 -0.20566400874E+02 -0.49555171424E+03  0.49613434011E+03  0.00000000000E+00 0.  1.
         21    1    1    2  503  502 -0.12442069776E+02  0.20566400874E+02 -0.26137501038E+02  0.35509870539E+02  0.00000000000E+00 0. -1.
</event>
<event>
 4    1  0.5967370E+002  0.2590855E+02  0.7546771E-02  0.1458891E+00
          2   -1    0    0  503    0  0.00000000000E+00  0.00000000000E+00  0.65633784542E+01  0.65633784542E+01  0.00000000000E+00 0. -1.
         -2   -1    0    0    0  501 -0.00000000000E+00 -0.00000000000E+00 -0.14925292768E+03  0.14925292768E+03  0.00000000000E+00 0.  1.
         21    1    1    2  502  501 -0.67965450711E+01 -0.25001197629E+02 -0.27634844310E+02  0.37880569265E+02  0.00000000000E+00 0. -1.
         21    1    1    2  503  502  0.67965450711E+01  0.25001197629E+02 -0.11505470492E+03  0.11793573687E+03  0.00000000000E+00 0.  1.
</event>
<event>
 4    1  0.5967370E+002  0.2756722E+02  0.7546771E-02  0.1441992E+00
          2   -1    0    0  502    0  0.00000000000E+00  0.00000000000E+00  0.39489064503E+01  0.39489064503E+01  0.00000000000E+00 0.  1.
         -2   -1    0    0    0  501 -0.00000000000E+00 -0.00000000000E+00 -0.52268386655E+03  0.52268386655E+03  0.00000000000E+00 0. -1.
         21    1    1    2  502  503  0.22044260375E+02 -0.16553016694E+02 -0.50066295445E+02  0.57154052497E+02  0.00000000000E+00 0.  1.
         21    1    1    2  503  501 -0.22044260375E+02  0.16553016694E+02 -0.46866866465E+03  0.46947872050E+03  0.00000000000E+00 0. -1.
</event>
<event>
 4    1  0.5967370E+002  0.2588635E+02  0.7546771E-02  0.1459127E+00
          2   -1    0    0  502    0  0.00000000000E+00  0.00000000000E+00  0.49043157349E+03  0.49043157349E+03  0.00000000000E+00 0.  1.
         -2   -1    0    0    0  501 -0.00000000000E+00 -0.00000000000E+00 -0.16968854962E+01  0.16968854962E+01  0.00000000000E+00 0. -1.
         21    1    1    2  502  503  0.18471523758E+00 -0.25885691355E+02  0.35296704960E+03  0.35391501980E+03  0.00000000000E+00 0.  1.
         21    1    1    2  503  501 -0.18471523758E+00  0.25885691355E+02  0.13576763839E+03  0.13821343919E+03  0.00000000000E+00 0. -1.
</event>
<event>
 4    1  0.5967370E+002  0.2363306E+02  0.7546771E-02  0.1484698E+00
          2   -1    0    0  503    0  0.00000000000E+00  0.00000000000E+00  0.18682754940E+02  0.18682754940E+02  0.00000000000E+00 0. -1.
         -2   -1    0    0    0  501 -0.00000000000E+00 -0.00000000000E+00 -0.10578165940E+03  0.10578165940E+03  0.00000000000E+00 0.  1.
         21    1    1    2  502  501 -0.77039233422E+01 -0.22342140452E+02 -0.96259404678E+02  0.99118084444E+02  0.00000000000E+00 0.  1.
         21    1    1    2  503  502  0.77039233422E+01  0.22342140452E+02  0.91605002196E+01  0.25346329894E+02  0.00000000000E+00 0. -1.
</event>
<event>
 4    1  0.5967370E+002  0.6232444E+02  0.7546771E-02  0.1252133E+00
          2   -1    0    0  502    0  0.00000000000E+00  0.00000000000E+00  0.20607764310E+03  0.20607764310E+03  0.00000000000E+00 0.  1.
         -2   -1    0    0    0  501 -0.00000000000E+00 -0.00000000000E+00 -0.24228648633E+02  0.24228648633E+02  0.00000000000E+00 0. -1.
         21    1    1    2  502  503  0.50167501000E+02  0.36980508855E+02  0.14518606520E+03  0.15799787884E+03  0.00000000000E+00 0.  1.
         21    1    1    2  503  501 -0.50167501000E+02 -0.36980508855E+02  0.36662929269E+02  0.72308412887E+02  0.00000000000E+00 0. -1.
</event>
<event>
 4    1  0.5967370E+002  0.2611637E+02  0.7546771E-02  0.1456692E+00
          2   -1    0    0  502    0  0.00000000000E+00  0.00000000000E+00  0.22746608558E+01  0.22746608558E+01  0.00000000000E+00 0.  1.
         -2   -1    0    0    0  501 -0.00000000000E+00 -0.00000000000E+00 -0.59711134744E+03  0.59711134744E+03  0.00000000000E+00 0. -1.
         21    1    1    2  502  503  0.18933888101E+00 -0.26115686390E+02 -0.85964473566E+02  0.89844062911E+02  0.00000000000E+00 0.  1.
         21    1    1    2  503  501 -0.18933888101E+00  0.26115686390E+02 -0.50887221302E+03  0.50954194539E+03  0.00000000000E+00 0. -1.
</event>
<event>
 4    1  0.5967370E+002  0.2768442E+02  0.7546771E-02  0.1440852E+00
          2   -1    0    0  503    0  0.00000000000E+00  0.00000000000E+00  0.40291017778E+03  0.40291017778E+03  0.00000000000E+00 0.  1.
         -2   -1    0    0    0  501 -0.00000000000E+00 -0.00000000000E+00 -0.19771273436E+01  0.19771273436E+01  0.00000000000E+00 0. -1.
         21    1    1    2  502  501  0.24554953617E+02  0.12785973410E+02  0.16106373385E+03  0.16342568104E+03  0.00000000000E+00 0. -1.
         21    1    1    2  503  502 -0.24554953617E+02 -0.12785973410E+02  0.23986931658E+03  0.24146162408E+03  0.00000000000E+00 0.  1.
</event>
<event>
 4    1  0.5967370E+002  0.2637345E+02  0.7546771E-02  0.1454005E+00
          2   -1    0    0  503    0  0.00000000000E+00  0.00000000000E+00  0.16375686635E+04  0.16375686635E+04  0.00000000000E+00 0.  1.
         -2   -1    0    0    0  501 -0.00000000000E+00 -0.00000000000E+00 -0.11902788750E+01  0.11902788750E+01  0.00000000000E+00 0. -1.
         21    1    1    2  502  501 -0.12530820556E+02 -0.23206411117E+02  0.16107444896E+03  0.16321929141E+03  0.00000000000E+00 0. -1.
         21    1    1    2  503  502  0.12530820556E+02  0.23206411117E+02  0.14753039356E+04  0.14755396509E+04  0.00000000000E+00 0.  1.
</event>
<event>
 4    1  0.5967370E+002  0.2492612E+02  0.7546771E-02  0.1469632E+00
          2   -1    0    0  502    0  0.00000000000E+00  0.00000000000E+00  0.16019057106E+04  0.16019057106E+04  0.00000000000E+00 0.  1.
         -2   -1    0    0    0  501 -0.00000000000E+00 -0.00000000000E+00 -0.48314794101E+00  0.48314794101E+00  0.00000000000E+00 0. -1.
         21    1    1    2  502  503 -0.10602014787E+02  0.22559009892E+02  0.11565242807E+04  0.11567928611E+04  0.00000000000E+00 0.  1.
         21    1    1    2  503  501  0.10602014787E+02 -0.22559009892E+02  0.44489828204E+03  0.44559599752E+03  0.00000000000E+00 0. -1.
</event>
<event>
 4    1  0.5967370E+002  0.2259757E+02  0.7546771E-02  0.1497614E+00
          2   -1    0    0  502    0  0.00000000000E+00  0.00000000000E+00  0.11575721229E+02  0.11575721229E+02  0.00000000000E+00 0. -1.
         -2   -1    0    0    0  501 -0.00000000000E+00 -0.00000000000E+00 -0.10361129594E+03  0.10361129594E+03  0.00000000000E+00 0.  1.
         21    1    1    2  502  503  0.19548666085E+02  0.11335782580E+02 -0.23743518440E+01  0.22721968645E+02  0.00000000000E+00 0. -1.
         21    1    1    2  503  501 -0.19548666085E+02 -0.11335782580E+02 -0.89661222863E+02  0.92465048519E+02  0.00000000000E+00 0.  1.
</event>
<event>
 4    1  0.5967370E+002  0.2038217E+02  0.7546771E-02  0.1528271E+00
          2   -1    0    0  502    0  0.00000000000E+00  0.00000000000E+00  0.54589185293E+03  0.54589185293E+03  0.00000000000E+00 0. -1.
         -2   -1    0    0    0  501 -0.00000000000E+00 -0.00000000000E+00 -0.10144498068E+01  0.10144498068E+01  0.00000000000E+00 0.  1.
         21    1    1    2  502  503 -0.50309658490E+01 -0.19751516232E+02  0.40911682882E+03  0.40962423346E+03  0.00000000000E+00 0. -1.
         21    1    1    2  503  501  0.50309658490E+01  0.19751516232E+02  0.13576057430E+03  0.13728206928E+03  0.00000000000E+00 0.  1.
</event>
<event>
 4    1  0.5967370E+002  0.2059959E+02  0.7546771E-02  0.1525059E+00
          2   -1    0    0  503    0  0.00000000000E+00  0.00000000000E+00  0.32247502810E+03  0.32247502810E+03  0.00000000000E+00 0.  1.
         -2   -1    0    0    0  501 -0.00000000000E+00 -0.00000000000E+00 -0.20693508954E+01  0.20693508954E+01  0.00000000000E+00 0. -1.
         21    1    1    2  502  501  0.17365654620E+02  0.11080492208E+02  0.62286322619E+02  0.65604338678E+02  0.00000000000E+00 0. -1.
         21    1    1    2  503  502 -0.17365654620E+02 -0.11080492208E+02  0.25811935459E+03  0.25894004032E+03  0.00000000000E+00 0.  1.
</event>
<event>
 4    1  0.5967370E+002  0.2463561E+02  0.7546771E-02  0.1472921E+00
          2   -1    0    0  502    0  0.00000000000E+00  0.00000000000E+00  0.75191976064E+02  0.75191976064E+02  0.00000000000E+00 0. -1.
         -2   -1    0    0    0  501 -0.00000000000E+00 -0.00000000000E+00 -0.11959100088E+02  0.11959100088E+02  0.00000000000E+00 0.  1.
         21    1    1    2  502  503  0.63796916479E+00 -0.24627344497E+02  0.56461123710E+02  0.61601717445E+02  0.00000000000E+00 0. -1.
         21    1    1    2  503  501 -0.63796916479E+00  0.24627344497E+02  0.67717522666E+01  0.25549358708E+02  0.00000000000E+00 0.  1.
</event>
<event>
 4    1  0.5967370E+002  0.2952747E+02  0.7546771E-02  0.1423748E+00
          2   -1    0    0  503    0  0.00000000000E+00  0.00000000000E+00  0.14989026492E+04  0.14989026492E+04  0.00000000000E+00 0.  1.
         -2   -1    0    0    0  501 -0.00000000000E+00 -0.00000000000E+00 -0.37242635066E+01  0.37242635066E+01  0.00000000000E+00 0. -1.
         21    1    1    2  502  501  0.22698513746E+02  0.18885152389E+02  0.57437036010E+02  0.64582386241E+02  0.00000000000E+00 0. -1.
         21    1    1    2  503  502 -0.22698513746E+02 -0.18885152389E+02  0.14377413497E+04  0.14380445265E+04  0.00000000000E+00 0.  1.
</event>
<event>
 4    1  0.5967370E+002  0.2132424E+02  0.7546771E-02  0.1514686E+00
          2   -1    0    0  502    0  0.00000000000E+00  0.00000000000E+00  0.85674307992E+03  0.85674307992E+03  0.00000000000E+00 0.  1.
         -2   -1    0    0    0  501 -0.00000000000E+00 -0.00000000000E+00 -0.25384708231E+01  0.25384708231E+01  0.00000000000E+00 0. -1.
         21    1    1    2  502  503 -0.20053549530E+02 -0.72510876054E+01  0.80919630244E+03  0.80947722574E+03  0.00000000000E+00 0.  1.
         21    1    1    2  503  501  0.20053549530E+02  0.72510876054E+01  0.45008306655E+02  0.49804324995E+02  0.00000000000E+00 0. -1.
</event>
<event>
 4    1  0.5967370E+002  0.2420890E+02  0.7546771E-02  0.1477851E+00
          2   -1    0    0  503    0  0.00000000000E+00  0.00000000000E+00  0.41138440953E+02  0.41138440953E+02  0.00000000000E+00 0.  1.
         -2   -1    0    0    0  501 -0.00000000000E+00 -0.00000000000E+00 -0.14790344879E+02  0.14790344879E+02  0.00000000000E+00 0. -1.
         21    1    1    2  502  501  0.13012384034E+02  0.20414427506E+02  0.78107792851E+01  0.25437752686E+02  0.00000000000E+00 0. -1.
         21    1    1    2  503  502 -0.13012384034E+02 -0.20414427506E+02  0.18537316789E+02  0.30491033147E+02  0.00000000000E+00 0.  1.
</event>
<event>
 4    1  0.5967370E+002  0.5944211E+02  0.7546771E-02  0.1261740E+00
          2   -1    0    0  503    0  0.00000000000E+00  0.00000000000E+00  0.19708244153E+02  0.19708244153E+02  0.00000000000E+00 0. -1.
         -2   -1    0    0    0  501 -0.00000000000E+00 -0.00000000000E+00 -0.19920504976E+03  0.19920504976E+03  0.00000000000E+00 0.  1.
         21    1    1    2  502  501  0.15325618916E+02 -0.57432479929E+02 -0.12436248168E+03  0.13783827914E+03  0.00000000000E+00 0. -1.
         21    1    1    2  503  502 -0.15325618916E+02  0.57432479929E+02 -0.55134323928E+02  0.81075014776E+02  0.00000000000E+00 0.  1.
</event>
<event>
 4    1  0.5967370E+002  0.2898182E+02  0.7546771E-02  0.1428655E+00
          2   -1    0    0  502    0  0.00000000000E+00  0.00000000000E+00  0.61946742016E+02  0.61946742016E+02  0.00000000000E+00 0.  1.
         -2   -1    0    0    0  501 -0.00000000000E+00 -0.00000000000E+00 -0.13722304970E+02  0.13722304970E+02  0.00000000000E+00 0. -1.
         21    1    1    2  502  503 -0.16024055436E+02  0.24149032220E+02  0.28237509934E+02  0.40463601880E+02  0.00000000000E+00 0. -1.
         21    1    1    2  503  501  0.16024055436E+02 -0.24149032220E+02  0.19986927112E+02  0.35205445107E+02  0.00000000000E+00 0.  1.
</event>
<event>
 4    1  0.5967370E+002  0.2672258E+02  0.7546771E-02  0.1450415E+00
          2   -1    0    0  502    0  0.00000000000E+00  0.00000000000E+00  0.13220191146E+02  0.13220191146E+02  0.00000000000E+00 0. -1.
         -2   -1    0    0    0  501 -0.00000000000E+00 -0.00000000000E+00 -0.85250760918E+02  0.85250760918E+02  0.00000000000E+00 0.  1.
         21    1    1    2  502  503  0.93717382186E+01  0.25025326534E+02 -0.62129053149E+01  0.27435317345E+02  0.00000000000E+00 0.  1.
         21    1    1    2  503  501 -0.93717382186E+01 -0.25025326534E+02 -0.65817664457E+02  0.71035634719E+02  0.00000000000E+00 0. -1.
</event>
<event>
 4    1  0.5967370E+002  0.2072492E+02  0.7546771E-02  0.1523229E+00
          2   -1    0    0  502    0  0.00000000000E+00  0.00000000000E+00  0.93651427529E+02  0.93651427529E+02  0.00000000000E+00 0.  1.
         -2   -1    0    0    0  501 -0.00000000000E+00 -0.00000000000E+00 -0.13035854886E+02  0.13035854886E+02  0.00000000000E+00 0. -1.
         21    1    1    2  502  503 -0.18094886161E+02 -0.10104332494E+02  0.83254246397E+02  0.85795058036E+02  0.00000000000E+00 0.  1.
         21    1    1    2  503  501  0.18094886161E+02  0.10104332494E+02 -0.26386737536E+01  0.20892224379E+02  0.00000000000E+00 0. -1.
</event>
<event>
 4    1  0.5967370E+002  0.3297908E+02  0.7546771E-02  0.1395356E+00
          2   -1    0    0  502    0  0.00000000000E+00  0.00000000000E+00  0.30799854446E+03  0.30799854446E+03  0.00000000000E+00 0.  1.
         -2   -1    0    0    0  501 -0.00000000000E+00 -0.00000000000E+00 -0.26778778787E+02  0.26778778787E+02  0.00000000000E+00 0. -1.
         21    1    1    2  502  503 -0.19278859759E+02 -0.26757157488E+02  0.29657197365E+03  0.29839999240E+03  0.00000000000E+00 0.  1.
         21    1    1    2  503  501  0.19278859759E+02  0.26757157488E+02 -0.15352207970E+02  0.36377330853E+02  0.00000000000E+00 0. -1.
</event>
<event>
 4    1  0.5967370E+002  0.2096800E+02  0.7546771E-02  0.1519722E+00
          2   -1    0    0  503    0  0.00000000000E+00  0.00000000000E+00  0.28360938976E+01  0.28360938976E+01  0.00000000000E+00 0. -1.
         -2   -1    0    0    0  501 -0.00000000000E+00 -0.00000000000E+00 -0.79869649327E+03  0.79869649327E+03  0.00000000000E+00 0.  1.
         21    1    1    2  502  501  0.19692650136E+02 -0.72011488641E+01 -0.75770723713E+03  0.75799730488E+03  0.00000000000E+00 0.  1.
         21    1    1    2  503  502 -0.19692650136E+02  0.72011488641E+01 -0.38153162245E+02  0.43535282285E+02  0.00000000000E+00 0. -1.
</event>
<event>
 4    1  0.5967370E+002  0.4240699E+02  0.7546771E-02  0.1334930E+00
          2   -1    0    0  503    0  0.00000000000E+00  0.00000000000E+00  0.22183352281E+03  0.22183352281E+03  0.00000000000E+00 0. -1.
         -2   -1    0    0    0  501 -0.00000000000E+00 -0.00000000000E+00 -0.18775534654E+02  0.18775534654E+02  0.00000000000E+00 0.  1.
         21    1    1    2  502  501  0.26320702193E+02  0.33250160394E+02  0.10842426963E+02  0.43771117790E+02  0.00000000000E+00 0.  1.
         21    1    1    2  503  502 -0.26320702193E+02 -0.33250160394E+02  0.19221556119E+03  0.19683793968E+03  0.00000000000E+00 0. -1.
</event>
<event>
 4    1  0.5967370E+002  0.2635467E+02  0.7546771E-02  0.1454201E+00
          2   -1    0    0  503    0  0.00000000000E+00  0.00000000000E+00  0.11319901288E+04  0.11319901288E+04  0.00000000000E+00 0. -1.
         -2   -1    0    0    0  501 -0.00000000000E+00 -0.00000000000E+00 -0.62730537386E+00  0.62730537386E+00  0.00000000000E+00 0.  1.
         21    1    1    2  502  501  0.81602176688E+01  0.25059517497E+02  0.48191942825E+03  0.48263951754E+03  0.00000000000E+00 0.  1.
         21    1    1    2  503  502 -0.81602176688E+01 -0.25059517497E+02  0.64944339519E+03  0.64997791664E+03  0.00000000000E+00 0. -1.
</event>
<event>
 4    1  0.5967370E+002  0.2474621E+02  0.7546771E-02  0.1471663E+00
          2   -1    0    0  503    0  0.00000000000E+00  0.00000000000E+00  0.83964519178E+03  0.83964519178E+03  0.00000000000E+00 0.  1.
         -2   -1    0    0    0  501 -0.00000000000E+00 -0.00000000000E+00 -0.37975112421E+01  0.37975112421E+01  0.00000000000E+00 0. -1.
         21    1    1    2  502  501 -0.24746156400E+02  0.52535500863E-01  0.38856080806E+02  0.46067016749E+02  0.00000000000E+00 0. -1.
         21    1    1    2  503  502  0.24746156400E+02 -0.52535500863E-01  0.79699159973E+03  0.79737568627E+03  0.00000000000E+00 0.  1.
</event>
<event>
 4    1  0.5967370E+002  0.2554077E+02  0.7546771E-02  0.1462844E+00
          2   -1    0    0  502    0  0.00000000000E+00  0.00000000000E+00  0.55462490162E+03  0.55462490162E+03  0.00000000000E+00 0.  1.
         -2   -1    0    0    0  501 -0.00000000000E+00 -0.00000000000E+00 -0.15771888433E+01  0.15771888433E+01  0.00000000000E+00 0. -1.
         21    1    1    2  502  503  0.62777029370E+01 -0.24757250708E+02  0.41675525507E+03  0.41753715241E+03  0.00000000000E+00 0.  1.
         21    1    1    2  503  501 -0.62777029370E+01  0.24757250708E+02  0.13629245771E+03  0.13866493806E+03  0.00000000000E+00 0. -1.
</event>
<event>
 4    1  0.5967370E+002  0.2132858E+02  0.7546771E-02  0.1514625E+00
          2   -1    0    0  502    0  0.00000000000E+00  0.00000000000E+00  0.63917074741E+02  0.63917074741E+02  0.00000000000E+00 0. -1.
         -2   -1    0    0    0  501 -0.00000000000E+00 -0.00000000000E+00 -0.81426023669E+01  0.81426023669E+01  0.00000000000E+00 0.  1.
         21    1    1    2  502  503  0.16555947682E+02  0.13446517533E+02  0.40673265690E+02  0.45926275478E+02  0.00000000000E+00 0. -1.
         21    1    1    2  503  501 -0.16555947682E+02 -0.13446517533E+02  0.15101206684E+02  0.26133401629E+02  0.00000000000E+00 0.  1.
</event>
<event>
 4    1  0.5967370E+002  0.2392200E+02  0.7546771E-02  0.1481234E+00
          2   -1    0    0  503    0  0.00000000000E+00  0.00000000000E+00  0.30165251924E+03  0.30165251924E+03  0.00000000000E+00 0.  1.
         -2   -1    0    0    0  501 -0.00000000000E+00 -0.00000000000E+00 -0.99531876890E+01  0.99531876890E+01  0.00000000000E+00 0. -1.
         21    1    1    2  502  501 -0.54646543808E+01  0.23289478241E+02  0.56791573557E+01  0.24586888224E+02  0.00000000000E+00 0. -1.
         21    1    1    2  503  502  0.54646543808E+01 -0.23289478241E+02  0.28602017420E+03  0.28701881871E+03  0.00000000000E+00 0.  1.
</event>
<event>
 4    1  0.5967370E+002  0.2060317E+02  0.7546771E-02  0.1525007E+00
          2   -1    0    0  503    0  0.00000000000E+00  0.00000000000E+00  0.46122924655E+03  0.46122924655E+03  0.00000000000E+00 0.  1.
         -2   -1    0    0    0  501 -0.00000000000E+00 -0.00000000000E+00 -0.10203176665E+01  0.10203176665E+01  0.00000000000E+00 0. -1.
         21    1    1    2  502  501 -0.47251352051E+01  0.20054022493E+02  0.30245074369E+03  0.30315168328E+03  0.00000000000E+00 0. -1.
         21    1    1    2  503  502  0.47251352051E+01 -0.20054022493E+02  0.15775818520E+03  0.15909788094E+03  0.00000000000E+00 0.  1.
</event>
<event>
 4    1  0.5967370E+002  0.2103791E+02  0.7546771E-02  0.1518724E+00
          2   -1    0    0  502    0  0.00000000000E+00  0.00000000000E+00  0.10515050997E+04  0.10515050997E+04  0.00000000000E+00 0.  1.
         -2   -1    0    0    0  501 -0.00000000000E+00 -0.00000000000E+00 -0.89786790286E+00  0.89786790286E+00  0.00000000000E+00 0. -1.
         21    1    1    2  502  503  0.12973247213E+02  0.16561663448E+02  0.90881987388E+03  0.90906334047E+03  0.00000000000E+00 0.  1.
         21    1    1    2  503  501 -0.12973247213E+02 -0.16561663448E+02  0.14178735787E+03  0.14333962708E+03  0.00000000000E+00 0. -1.
</event>
<event>
 4    1  0.5967370E+002  0.4028465E+02  0.7546771E-02  0.1346826E+00
          2   -1    0    0  502    0  0.00000000000E+00  0.00000000000E+00  0.19833777489E+04  0.19833777489E+04  0.00000000000E+00 0. -1.
         -2   -1    0    0    0  501 -0.00000000000E+00 -0.00000000000E+00 -0.85449482290E+00  0.85449482290E+00  0.00000000000E+00 0.  1.
         21    1    1    2  502  503  0.39278942477E+02  0.89452400378E+01  0.78686661422E+03  0.78789715142E+03  0.00000000000E+00 0. -1.
         21    1    1    2  503  501 -0.39278942477E+02 -0.89452400378E+01  0.11956566399E+04  0.11963350923E+04  0.00000000000E+00 0.  1.
</event>
<event>
 4    1  0.5967370E+002  0.2015561E+02  0.7546771E-02  0.1531670E+00
          2   -1    0    0  502    0  0.00000000000E+00  0.00000000000E+00  0.20600930671E+01  0.20600930671E+01  0.00000000000E+00 0.  1.
         -2   -1    0    0    0  501 -0.00000000000E+00 -0.00000000000E+00 -0.63162294499E+03  0.63162294499E+03  0.00000000000E+00 0. -1.
         21    1    1    2  502  503 -0.44001748929E+01 -0.19669444405E+02 -0.52014957096E+02  0.55783549044E+02  0.00000000000E+00 0.  1.
         21    1    1    2  503  501  0.44001748929E+01  0.19669444405E+02 -0.57754789482E+03  0.57789948901E+03  0.00000000000E+00 0. -1.
</event>
<event>
 4    1  0.5967370E+002  0.2677149E+02  0.7546771E-02  0.1449917E+00
          2   -1    0    0  503    0  0.00000000000E+00  0.00000000000E+00  0.18901542744E+04  0.18901542744E+04  0.00000000000E+00 0. -1.
         -2   -1    0    0    0  501 -0.00000000000E+00 -0.00000000000E+00 -0.38041298101E+00  0.38041298101E+00  0.00000000000E+00 0.  1.
         21    1    1    2  502  501  0.54215582136E+01 -0.26216777846E+02  0.89111832528E+03  0.89152037688E+03  0.00000000000E+00 0.  1.
         21    1    1    2  503  502 -0.54215582136E+01  0.26216777846E+02  0.99865553614E+03  0.99901431050E+03  0.00000000000E+00 0. -1.
</event>
<event>
 4    1  0.5967370E+002  0.2388211E+02  0.7546771E-02  0.1481709E+00
          2   -1    0    0  503    0  0.00000000000E+00  0.00000000000E+00  0.68183382300E+01  0.68183382300E+01  0.00000000000E+00 0. -1.
         -2   -1    0    0    0  501 -0.00000000000E+00 -0.00000000000E+00 -0.88199325469E+02  0.88199325469E+02  0.00000000000E+00 0.  1.
         21    1    1    2  502  501 -0.20917284400E+02  0.11524854846E+02 -0.51480152467E+02  0.56749988228E+02  0.00000000000E+00 0. -1.
         21    1    1    2  503  502  0.20917284400E+02 -0.11524854846E+02 -0.29900834772E+02  0.38267675471E+02  0.00000000000E+00 0.  1.
</event>
<event>
 4    1  0.5967370E+002  0.2092863E+02  0.7546771E-02  0.1520286E+00
          2   -1    0    0  503    0  0.00000000000E+00  0.00000000000E+00  0.39564403838E+03  0.39564403838E+03  0.00000000000E+00 0. -1.
         -2   -1    0    0    0  501 -0.00000000000E+00 -0.00000000000E+00 -0.18900417693E+01  0.18900417693E+01  0.00000000000E+00 0.  1.
         21    1    1    2  502  501  0.15750902057E+02 -0.13781024875E+02  0.68944648263E+02  0.72051176855E+02  0.00000000000E+00 0.  1.
         21    1    1    2  503  502 -0.15750902057E+02  0.13781024875E+02  0.32480934835E+03  0.32548290329E+03  0.00000000000E+00 0. -1.
</event>
<event>
 4    1  0.5967370E+002  0.2495371E+02  0.7546771E-02  0.1469322E+00
          2   -1    0    0  502    0  0.00000000000E+00  0.00000000000E+00  0.46075570073E+01  0.46075570073E+01  0.00000000000E+00 0. -1.
         -2   -1    0    0    0  501 -0.00000000000E+00 -0.00000000000E+00 -0.22062721883E+03  0.22062721883E+03  0.00000000000E+00 0.  1.
         21    1    1    2  502  503 -0.21985510548E+02 -0.11803603150E+02 -0.37910461301E+02  0.45386019845E+02  0.00000000000E+00 0. -1.
         21    1    1    2  503  501  0.21985510548E+02  0.11803603150E+02 -0.17810920053E+03  0.17984875600E+03  0.00000000000E+00 0.  1.
</event>
<event>
 4    1  0.5967370E+002  0.2697225E+02  0.7546771E-02  0.1447887E+00
          2   -1    0    0  502    0  0.00000000000E+00  0.00000000000E+00  0.13669389219E+02  0.13669389219E+02  0.00000000000E+00 0. -1.
         -2   -1    0    0    0  501 -0.00000000000E+00 -0.00000000000E+00 -0.54226257086E+02  0.54226257086E+02  0.00000000000E+00 0.  1.
         21    1    1    2  502  503  0.10116232377E+02  0.25003277676E+02 -0.15656853081E+02  0.31187162431E+02  0.00000000000E+00 0. -1.
         21    1    1    2  503  501 -0.10116232377E+02 -0.25003277676E+02 -0.24900014785E+02  0.36708483874E+02  0.00000000000E+00 0.  1.
</event>
<event>
 4    1  0.5967370E+002  0.2091645E+02  0.7546771E-02  0.1520461E+00
          2   -1    0    0  502    0  0.00000000000E+00  0.00000000000E+00  0.43721841968E+03  0.43721841968E+03  0.00000000000E+00 0. -1.
         -2   -1    0    0    0  501 -0.00000000000E+00 -0.00000000000E+00 -0.10020970417E+01  0.10020970417E+01  0.00000000000E+00 0.  1.
         21    1    1    2  502  503  0.25126255471E+01 -0.20764984725E+02  0.20975084061E+03  0.21079115971E+03  0.00000000000E+00 0.  1.
         21    1    1    2  503  501 -0.25126255471E+01  0.20764984725E+02  0.22646548203E+03  0.22742935701E+03  0.00000000000E+00 0. -1.
</event>
<event>
 4    1  0.5967370E+002  0.2320541E+02  0.7546771E-02  0.1489935E+00
          2   -1    0    0  502    0  0.00000000000E+00  0.00000000000E+00  0.97265103036E+02  0.97265103036E+02  0.00000000000E+00 0.  1.
         -2   -1    0    0    0  501 -0.00000000000E+00 -0.00000000000E+00 -0.12095869194E+02  0.12095869194E+02  0.00000000000E+00 0. -1.
         21    1    1    2  502  503 -0.20571989943E+02 -0.10737058850E+02  0.82851745692E+02  0.86040124170E+02  0.00000000000E+00 0.  1.
         21    1    1    2  503  501  0.20571989943E+02  0.10737058850E+02  0.23174881499E+01  0.23320848061E+02  0.00000000000E+00 0. -1.
</event>
<event>
 4    1  0.5967370E+002  0.2042606E+02  0.7546771E-02  0.1527619E+00
          2   -1    0    0  502    0  0.00000000000E+00  0.00000000000E+00  0.43105637125E+03  0.43105637125E+03  0.00000000000E+00 0. -1.
         -2   -1    0    0    0  501 -0.00000000000E+00 -0.00000000000E+00 -0.11421979745E+01  0.11421979745E+01  0.00000000000E+00 0.  1.
         21    1    1    2  502  503 -0.14711693215E+02 -0.14170039059E+02  0.29937136432E+03  0.30006738860E+03  0.00000000000E+00 0.  1.
         21    1    1    2  503  501  0.14711693215E+02  0.14170039059E+02  0.13054280896E+03  0.13213118063E+03  0.00000000000E+00 0. -1.
</event>
<event>
 4    1  0.5967370E+002  0.2394985E+02  0.7546771E-02  0.1480903E+00
          2   -1    0    0  502    0  0.00000000000E+00  0.00000000000E+00  0.42843863757E+03  0.42843863757E+03  0.00000000000E+00 0.  1.
         -2   -1    0    0    0  501 -0.00000000000E+00 -0.00000000000E+00 -0.25594915313E+01  0.25594915313E+01  0.00000000000E+00 0. -1.
         21    1    1    2  502  503 -0.18010493240E+02  0.15786624400E+02  0.36176282454E+03  0.36255473600E+03  0.00000000000E+00 0.  1.
         21    1    1    2  503  501  0.18010493240E+02 -0.15786624400E+02  0.64116321499E+02  0.68443393101E+02  0.00000000000E+00 0. -1.
</event>
<event>
 4    1  0.5967370E+002  0.2504529E+02  0.7546771E-02  0.1468297E+00
          2   -1    0    0  503    0  0.00000000000E+00  0.00000000000E+00  0.17908862059E+04  0.17908862059E+04  0.00000000000E+00 0. -1.
         -2   -1    0    0    0  501 -0.00000000000E+00 -0.00000000000E+00 -0.73340065613E+00  0.73340065613E+00  0.00000000000E+00 0.  1.
         21    1    1    2  502  501 -0.62941050839E+01  0.24241510980E+02  0.15425576446E+04  0.15427609515E+04  0.00000000000E+00 0. -1.
         21    1    1    2  503  502  0.62941050839E+01 -0.24241510980E+02  0.24759516067E+03  0.24885865506E+03  0.00000000000E+00 0.  1.
</event>
<event>
 4    1  0.5967370E+002  0.5141072E+02  0.7546771E-02  0.1292169E+00
          2   -1    0    0  503    0  0.00000000000E+00  0.00000000000E+00  0.25689013588E+04  0.25689013588E+04  0.00000000000E+00 0.  1.
         -2   -1    0    0    0  501 -0.00000000000E+00 -0.00000000000E+00 -0.30439372173E+01  0.30439372173E+01  0.00000000000E+00 0. -1.
         21    1    1    2  502  501 -0.16480815383E+02  0.48697484506E+02  0.23662252703E+03  0.24214310350E+03  0.00000000000E+00 0. -1.
         21    1    1    2  503  502  0.16480815383E+02 -0.48697484506E+02  0.23292348945E+04  0.23298021925E+04  0.00000000000E+00 0.  1.
</event>
<event>
 4    1  0.5967370E+002  0.4362884E+02  0.7546771E-02  0.1328440E+00
          2   -1    0    0  503    0  0.00000000000E+00  0.00000000000E+00  0.21081720052E+03  0.21081720052E+03  0.00000000000E+00 0. -1.
         -2   -1    0    0    0  501 -0.00000000000E+00 -0.00000000000E+00 -0.18522117017E+02  0.18522117017E+02  0.00000000000E+00 0.  1.
         21    1    1    2  502  501 -0.16504614522E+02  0.40386549099E+02  0.14054405008E+02  0.45836687804E+02  0.00000000000E+00 0.  1.
         21    1    1    2  503  502  0.16504614522E+02 -0.40386549099E+02  0.17824067849E+03  0.18350262973E+03  0.00000000000E+00 0. -1.
</event>
<event>
 4    1  0.5967370E+002  0.2253811E+02  0.7546771E-02  0.1498381E+00
          2   -1    0    0  503    0  0.00000000000E+00  0.00000000000E+00  0.16569829441E+03  0.16569829441E+03  0.00000000000E+00 0. -1.
         -2   -1    0    0    0  501 -0.00000000000E+00 -0.00000000000E+00 -0.42704990615E+01  0.42704990615E+01  0.00000000000E+00 0.  1.
         21    1    1    2  502  501  0.15007728746E+02 -0.16814715629E+02  0.35572691915E+02  0.42111554161E+02  0.00000000000E+00 0.  1.
         21    1    1    2  503  502 -0.15007728746E+02  0.16814715629E+02  0.12585510344E+03  0.12785723931E+03  0.00000000000E+00 0. -1.
</event>
<event>
 4    1  0.5967370E+002  0.2141455E+02  0.7546771E-02  0.1513428E+00
          2   -1    0    0  502    0  0.00000000000E+00  0.00000000000E+00  0.46909752588E+02  0.46909752588E+02  0.00000000000E+00 0.  1.
         -2   -1    0    0    0  501 -0.00000000000E+00 -0.00000000000E+00 -0.98959081163E+01  0.98959081163E+01  0.00000000000E+00 0. -1.
         21    1    1    2  502  503 -0.11209199343E+02 -0.18246557222E+02  0.21635292579E+02  0.30441236594E+02  0.00000000000E+00 0.  1.
         21    1    1    2  503  501  0.11209199343E+02  0.18246557222E+02  0.15378551892E+02  0.26364424110E+02  0.00000000000E+00 0. -1.
</event>
<event>
 4    1  0.5967370E+002  0.2170079E+02  0.7546771E-02  0.1509490E+00
          2   -1    0    0  502    0  0.00000000000E+00  0.00000000000E+00  0.19534737392E+03  0.19534737392E+03  0.00000000000E+00 0.  1.
         -2   -1    0    0    0  501 -0.00000000000E+00 -0.00000000000E+00 -0.26492176329E+01  0.26492176329E+01  0.00000000000E+00 0. -1.
         21    1    1    2  502  503  0.63726275495E+01 -0.20744006904E+02  0.66644198731E+02  0.70088325910E+02  0.00000000000E+00 0. -1.
         21    1    1    2  503  501 -0.63726275495E+01  0.20744006904E+02  0.12605395756E+03  0.12790826565E+03  0.00000000000E+00 0.  1.
</event>
<event>
 4    1  0.5967370E+002  0.2918673E+02  0.7546771E-02  0.1426798E+00
          2   -1    0    0  503    0  0.00000000000E+00  0.00000000000E+00  0.21562498412E+01  0.21562498412E+01  0.00000000000E+00 0.  1.
         -2   -1    0    0    0  501 -0.00000000000E+00 -0.00000000000E+00 -0.75549814213E+03  0.75549814213E+03  0.00000000000E+00 0. -1.
         21    1    1    2  502  501 -0.28413229500E+02 -0.66748404706E+01 -0.63832957320E+03  0.63899648600E+03  0.00000000000E+00 0. -1.
         21    1    1    2  503  502  0.28413229500E+02  0.66748404706E+01 -0.11501231909E+03  0.11865790597E+03  0.00000000000E+00 0.  1.
</event>
<event>
 4    1  0.5967370E+002  0.2460708E+02  0.7546771E-02  0.1473247E+00
          2   -1    0    0  502    0  0.00000000000E+00  0.00000000000E+00  0.43400260302E+03  0.43400260302E+03  0.00000000000E+00 0.  1.
         -2   -1    0    0    0  501 -0.00000000000E+00 -0.00000000000E+00 -0.21542367770E+01  0.21542367770E+01  0.00000000000E+00 0. -1.
         21    1    1    2  502  503  0.11889153523E+02 -0.21544287852E+02  0.34537517223E+03  0.34625065762E+03  0.00000000000E+00 0.  1.
         21    1    1    2  503  501 -0.11889153523E+02  0.21544287852E+02  0.86473194013E+02  0.89906182175E+02  0.00000000000E+00 0. -1.
</event>
<event>
 4    1  0.5967370E+002  0.4501893E+02  0.7546771E-02  0.1321345E+00
          2   -1    0    0  502    0  0.00000000000E+00  0.00000000000E+00  0.53097206910E+03  0.53097206910E+03  0.00000000000E+00 0. -1.
         -2   -1    0    0    0  501 -0.00000000000E+00 -0.00000000000E+00 -0.82692193047E+01  0.82692193047E+01  0.00000000000E+00 0.  1.
         21    1    1    2  502  503 -0.18012928493E+02  0.41258193804E+02  0.45918985308E+03  0.46139140144E+03  0.00000000000E+00 0. -1.
         21    1    1    2  503  501  0.18012928493E+02 -0.41258193804E+02  0.63512996709E+02  0.77849886961E+02  0.00000000000E+00 0.  1.
</event>
<event>
 4    1  0.5967370E+002  0.5939459E+02  0.7546771E-02  0.1261904E+00
          2   -1    0    0  502    0  0.00000000000E+00  0.00000000000E+00  0.30793775473E+03  0.30793775473E+03  0.00000000000E+00 0.  1.
         -2   -1    0    0    0  501 -0.00000000000E+00 -0.00000000000E+00 -0.15196216255E+02  0.15196216255E+02  0.00000000000E+00 0. -1.
         21    1    1    2  502  503  0.40335167471E+02  0.43598071585E+02  0.22652685748E+03  0.23418397627E+03  0.00000000000E+00 0.  1.
         21    1    1    2  503  501 -0.40335167471E+02 -0.43598071585E+02  0.66214680996E+02  0.88949994718E+02  0.00000000000E+00 0. -1.
</event>
<event>
 4    1  0.5967370E+002  0.2411875E+02  0.7546771E-02  0.1478908E+00
          2   -1    0    0  502    0  0.00000000000E+00  0.00000000000E+00  0.74543340201E+02  0.74543340201E+02  0.00000000000E+00 0. -1.
         -2   -1    0    0    0  501 -0.00000000000E+00 -0.00000000000E+00 -0.26481453171E+02  0.26481453171E+02  0.00000000000E+00 0.  1.
         21    1    1    2  502  503 -0.34608285496E+01  0.23869162229E+02  0.66452766341E+02  0.70694302416E+02  0.00000000000E+00 0. -1.
         21    1    1    2  503  501  0.34608285496E+01 -0.23869162229E+02 -0.18390879311E+02  0.30330490955E+02  0.00000000000E+00 0.  1.
</event>
<event>
 4    1  0.5967370E+002  0.5770549E+02  0.7546771E-02  0.1267834E+00
          2   -1    0    0  502    0  0.00000000000E+00  0.00000000000E+00  0.29951448973E+02  0.29951448973E+02  0.00000000000E+00 0.  1.
         -2   -1    0    0    0  501 -0.00000000000E+00 -0.00000000000E+00 -0.11141648696E+03  0.11141648696E+03  0.00000000000E+00 0. -1.
         21    1    1    2  502  503  0.39491425576E+02 -0.42075532593E+02 -0.44007110012E+02  0.72570991922E+02  0.00000000000E+00 0.  1.
         21    1    1    2  503  501 -0.39491425576E+02  0.42075532593E+02 -0.37457927974E+02  0.68796944010E+02  0.00000000000E+00 0. -1.
</event>
<event>
 4    1  0.5967370E+002  0.2490471E+02  0.7546771E-02  0.1469872E+00
          2   -1    0    0  502    0  0.00000000000E+00  0.00000000000E+00  0.25053603207E+03  0.25053603207E+03  0.00000000000E+00 0. -1.
         -2   -1    0    0    0  501 -0.00000000000E+00 -0.00000000000E+00 -0.32623120459E+01  0.32623120459E+01  0.00000000000E+00 0.  1.
         21    1    1    2  502  503 -0.24709431956E+02 -0.31126742456E+01  0.18595067825E+03  0.18761103248E+03  0.00000000000E+00 0. -1.
         21    1    1    2  503  501  0.24709431956E+02  0.31126742456E+01  0.61323041780E+02  0.66187311636E+02  0.00000000000E+00 0.  1.
</event>
<event>
 4    1  0.5967370E+002  0.2457054E+02  0.7546771E-02  0.1473665E+00
          2   -1    0    0  503    0  0.00000000000E+00  0.00000000000E+00  0.56383663897E+03  0.56383663897E+03  0.00000000000E+00 0. -1.
         -2   -1    0    0    0  501 -0.00000000000E+00 -0.00000000000E+00 -0.45603191378E+01  0.45603191378E+01  0.00000000000E+00 0.  1.
         21    1    1    2  502  501 -0.19001097050E+02  0.15577858247E+02  0.31032002654E+02  0.39581517725E+02  0.00000000000E+00 0.  1.
         21    1    1    2  503  502  0.19001097050E+02 -0.15577858247E+02  0.52824431718E+03  0.52881544038E+03  0.00000000000E+00 0. -1.
</event>
<event>
 4    1  0.5967370E+002  0.2676285E+02  0.7546771E-02  0.1450005E+00
          2   -1    0    0  502    0  0.00000000000E+00  0.00000000000E+00  0.12446458528E+03  0.12446458528E+03  0.00000000000E+00 0.  1.
         -2   -1    0    0    0  501 -0.00000000000E+00 -0.00000000000E+00 -0.34126661313E+02  0.34126661313E+02  0.00000000000E+00 0. -1.
         21    1    1    2  502  503 -0.86235084975E+01 -0.25335454497E+02  0.11747047347E+03  0.12048054736E+03  0.00000000000E+00 0.  1.
         21    1    1    2  503  501  0.86235084975E+01  0.25335454497E+02 -0.27132549508E+02  0.38110699235E+02  0.00000000000E+00 0. -1.
</event>
<event>
 4    1  0.5967370E+002  0.2381785E+02  0.7546771E-02  0.1482476E+00
          2   -1    0    0  502    0  0.00000000000E+00  0.00000000000E+00  0.23783127215E+04  0.23783127215E+04  0.00000000000E+00 0.  1.
         -2   -1    0    0    0  501 -0.00000000000E+00 -0.00000000000E+00 -0.25762222624E+00  0.25762222624E+00  0.00000000000E+00 0. -1.
         21    1    1    2  502  503  0.14990502653E+02 -0.18508777641E+02  0.15128189050E+04  0.15130063878E+04  0.00000000000E+00 0.  1.
         21    1    1    2  503  501 -0.14990502653E+02  0.18508777641E+02  0.86523619428E+03  0.86556395599E+03  0.00000000000E+00 0. -1.
</event>
<event>
 4    1  0.5967370E+002  0.3091635E+02  0.7546771E-02  0.1411797E+00
          2   -1    0    0  503    0  0.00000000000E+00  0.00000000000E+00  0.40399012721E+02  0.40399012721E+02  0.00000000000E+00 0. -1.
         -2   -1    0    0    0  501 -0.00000000000E+00 -0.00000000000E+00 -0.34906986384E+02  0.34906986384E+02  0.00000000000E+00 0.  1.
         21    1    1    2  502  501  0.30789797189E+02 -0.27944684321E+01 -0.18627259790E+02  0.36094258159E+02  0.00000000000E+00 0.  1.
         21    1    1    2  503  502 -0.30789797189E+02  0.27944684321E+01  0.24119286127E+02  0.39211740946E+02  0.00000000000E+00 0. -1.
</event>
<event>
 4    1  0.5967370E+002  0.2072773E+02  0.7546771E-02  0.1523188E+00
          2   -1    0    0  502    0  0.00000000000E+00  0.00000000000E+00  0.26285335523E+03  0.26285335523E+03  0.00000000000E+00 0. -1.
         -2   -1    0    0    0  501 -0.00000000000E+00 -0.00000000000E+00 -0.21881320510E+01  0.21881320510E+01  0.00000000000E+00 0.  1.
         21    1    1    2  502  503 -0.23283328338E+01  0.20596540650E+02  0.19699034363E+03  0.19807784860E+03  0.00000000000E+00 0. -1.
         21    1    1    2  503  501  0.23283328338E+01 -0.20596540650E+02  0.63674879552E+02  0.66963638689E+02  0.00000000000E+00 0.  1.
</event>
<event>
 4    1  0.5967370E+002  0.2259556E+02  0.7546771E-02  0.1497640E+00
          2   -1    0    0  503    0  0.00000000000E+00  0.00000000000E+00  0.10192284563E+02  0.10192284563E+02  0.00000000000E+00 0.  1.
         -2   -1    0    0    0  501 -0.00000000000E+00 -0.00000000000E+00 -0.64024025431E+02  0.64024025431E+02  0.00000000000E+00 0. -1.
         21    1    1    2  502  501 -0.13961494061E+02  0.17766150527E+02 -0.44225729405E+02  0.49663614068E+02  0.00000000000E+00 0. -1.
         21    1    1    2  503  502  0.13961494061E+02 -0.17766150527E+02 -0.96060114635E+01  0.24552695925E+02  0.00000000000E+00 0.  1.
</event>
<event>
 4    1  0.5967370E+002  0.2051482E+02  0.7546771E-02  0.1526306E+00
          2   -1    0    0  502    0  0.00000000000E+00  0.00000000000E+00  0.13304816260E+02  0.13304816260E+02  0.00000000000E+00 0.  1.
         -2   -1    0    0    0  501 -0.00000000000E+00 -0.00000000000E+00 -0.34879121666E+02  0.34879121666E+02  0.00000000000E+00 0. -1.
         21    1    1    2  502  503 -0.19906172532E+02 -0.49600391606E+01 -0.34362599706E+01  0.20800614797E+02  0.00000000000E+00 0.  1.
         21    1    1    2  503  501  0.19906172532E+02  0.49600391606E+01 -0.18138045436E+02  0.27383323129E+02  0.00000000000E+00 0. -1.
</event>
<event>
 4    1  0.5967370E+002  0.2224134E+02  0.7546771E-02  0.1502251E+00
          2   -1    0    0  502    0  0.00000000000E+00  0.00000000000E+00  0.15323133218E+03  0.15323133218E+03  0.00000000000E+00 0. -1.
         -2   -1    0    0    0  501 -0.00000000000E+00 -0.00000000000E+00 -0.40584130924E+01  0.40584130924E+01  0.00000000000E+00 0.  1.
         21    1    1    2  502  503  0.11709229042E+02 -0.18909551028E+02  0.11015451668E+03  0.11237746531E+03  0.00000000000E+00 0. -1.
         21    1    1    2  503  501 -0.11709229042E+02  0.18909551028E+02  0.39018402407E+02  0.44912279961E+02  0.00000000000E+00 0.  1.
</event>
<event>
 4    1  0.5967370E+002  0.4529720E+02  0.7546771E-02  0.1319960E+00
          2   -1    0    0  503    0  0.00000000000E+00  0.00000000000E+00  0.19012597176E+04  0.19012597176E+04  0.00000000000E+00 0. -1.
         -2   -1    0    0    0  501 -0.00000000000E+00 -0.00000000000E+00 -0.13706713721E+01  0.13706713721E+01  0.00000000000E+00 0.  1.
         21    1    1    2  502  501 -0.36020362793E+02 -0.27465798777E+02  0.51125543560E+03  0.51325817779E+03  0.00000000000E+00 0.  1.
         21    1    1    2  503  502  0.36020362793E+02  0.27465798777E+02  0.13886336106E+04  0.13893722112E+04  0.00000000000E+00 0. -1.
</event>
<event>
 4    1  0.5967370E+002  0.2556778E+02  0.7546771E-02  0.1462551E+00
          2   -1    0    0  502    0  0.00000000000E+00  0.00000000000E+00  0.12082066933E+02  0.12082066933E+02  0.00000000000E+00 0. -1.
         -2   -1    0    0    0  501 -0.00000000000E+00 -0.00000000000E+00 -0.10721788149E+03  0.10721788149E+03  0.00000000000E+00 0.  1.
         21    1    1    2  502  503 -0.70836970489E+01  0.24566903705E+02 -0.55849757516E+01  0.26170660589E+02  0.00000000000E+00 0. -1.
         21    1    1    2  503  501  0.70836970489E+01 -0.24566903705E+02 -0.89550838801E+02  0.93129287829E+02  0.00000000000E+00 0.  1.
</event>
<event>
 4    1  0.5967370E+002  0.3074892E+02  0.7546771E-02  0.1413198E+00
          2   -1    0    0  502    0  0.00000000000E+00  0.00000000000E+00  0.15476787441E+04  0.15476787441E+04  0.00000000000E+00 0.  1.
         -2   -1    0    0    0  501 -0.00000000000E+00 -0.00000000000E+00 -0.21662979194E+01  0.21662979194E+01  0.00000000000E+00 0. -1.
         21    1    1    2  502  503  0.30739011102E+02  0.78057916639E+00  0.14293824414E+04  0.14297131390E+04  0.00000000000E+00 0.  1.
         21    1    1    2  503  501 -0.30739011102E+02 -0.78057916639E+00  0.11613000475E+03  0.12013190297E+03  0.00000000000E+00 0. -1.
</event>
<event>
 4    1  0.5967370E+002  0.2212419E+02  0.7546771E-02  0.1503799E+00
          2   -1    0    0  503    0  0.00000000000E+00  0.00000000000E+00  0.68585414186E+03  0.68585414186E+03  0.00000000000E+00 0. -1.
         -2   -1    0    0    0  501 -0.00000000000E+00 -0.00000000000E+00 -0.13054824997E+02  0.13054824997E+02  0.00000000000E+00 0.  1.
         21    1    1    2  502  501 -0.19995139186E+02 -0.94696387022E+01 -0.33686248685E+01  0.22379170711E+02  0.00000000000E+00 0.  1.
         21    1    1    2  503  502  0.19995139186E+02  0.94696387022E+01  0.67616794173E+03  0.67652979614E+03  0.00000000000E+00 0. -1.
</event>
<event>
 4    1  0.5967370E+002  0.3673641E+02  0.7546771E-02  0.1368750E+00
          2   -1    0    0  502    0  0.00000000000E+00  0.00000000000E+00  0.25567492358E+02  0.25567492358E+02  0.00000000000E+00 0.  1.
         -2   -1    0    0    0  501 -0.00000000000E+00 -0.00000000000E+00 -0.13450970217E+03  0.13450970217E+03  0.00000000000E+00 0. -1.
         21    1    1    2  502  503 -0.31219967073E+02 -0.19361745473E+02  0.79168941051E+01  0.37579791698E+02  0.00000000000E+00 0.  1.
         21    1    1    2  503  501  0.31219967073E+02  0.19361745473E+02 -0.11685910391E+03  0.12249740283E+03  0.00000000000E+00 0. -1.
</event>
<event>
 4    1  0.5967370E+002  0.4482273E+02  0.7546771E-02  0.1322328E+00
          2   -1    0    0  502    0  0.00000000000E+00  0.00000000000E+00  0.64067473482E+03  0.64067473482E+03  0.00000000000E+00 0. -1.
         -2   -1    0    0    0  501 -0.00000000000E+00 -0.00000000000E+00 -0.32955424753E+02  0.32955424753E+02  0.00000000000E+00 0.  1.
         21    1    1    2  502  503  0.19831180442E+01 -0.44778835852E+02  0.62424939500E+03  0.62585652034E+03  0.00000000000E+00 0. -1.
         21    1    1    2  503  501 -0.19831180442E+01  0.44778835852E+02 -0.16530084933E+02  0.47773639231E+02  0.00000000000E+00 0.  1.
</event>
<event>
 4    1  0.5967370E+002  0.2159578E+02  0.7546771E-02  0.1510926E+00
          2   -1    0    0  503    0  0.00000000000E+00  0.00000000000E+00  0.79758675509E+03  0.79758675509E+03  0.00000000000E+00 0. -1.
         -2   -1    0    0    0  501 -0.00000000000E+00 -0.00000000000E+00 -0.58484252437E+00  0.58484252437E+00  0.00000000000E+00 0.  1.
         21    1    1    2  502  501 -0.20536921799E+02 -0.66792749779E+01  0.40388123289E+03  0.40445819086E+03  0.00000000000E+00 0.  1.
         21    1    1    2  503  502  0.20536921799E+02  0.66792749779E+01  0.39312067967E+03  0.39371340675E+03  0.00000000000E+00 0. -1.
</event>
<event>
 4    1  0.5967370E+002  0.2083485E+02  0.7546771E-02  0.1521636E+00
          2   -1    0    0  502    0  0.00000000000E+00  0.00000000000E+00  0.34752877009E+03  0.34752877009E+03  0.00000000000E+00 0. -1.
         -2   -1    0    0    0  501 -0.00000000000E+00 -0.00000000000E+00 -0.26912619784E+01  0.26912619784E+01  0.00000000000E+00 0.  1.
         21    1    1    2  502  503  0.48247499690E+01  0.20268517721E+02  0.30060550042E+03  0.30132666312E+03  0.00000000000E+00 0. -1.
         21    1    1    2  503  501 -0.48247499690E+01 -0.20268517721E+02  0.44232007688E+02  0.48893368947E+02  0.00000000000E+00 0.  1.
</event>
<event>
 4    1  0.5967370E+002  0.2120433E+02  0.7546771E-02  0.1516367E+00
          2   -1    0    0  503    0  0.00000000000E+00  0.00000000000E+00  0.47712656468E+03  0.47712656468E+03  0.00000000000E+00 0. -1.
         -2   -1    0    0    0  501 -0.00000000000E+00 -0.00000000000E+00 -0.18057778581E+01  0.18057778581E+01  0.00000000000E+00 0.  1.
         21    1    1    2  502  501  0.19454866637E+02 -0.84339648842E+01  0.72074530789E+02  0.75128966371E+02  0.00000000000E+00 0.  1.
         21    1    1    2  503  502 -0.19454866637E+02  0.84339648842E+01  0.40324625604E+03  0.40380337617E+03  0.00000000000E+00 0. -1.
</event>
<event>
 4    1  0.5967370E+002  0.3723405E+02  0.7546771E-02  0.1365504E+00
          2   -1    0    0  502    0  0.00000000000E+00  0.00000000000E+00  0.33075671683E+02  0.33075671683E+02  0.00000000000E+00 0. -1.
         -2   -1    0    0    0  501 -0.00000000000E+00 -0.00000000000E+00 -0.42932317901E+02  0.42932317901E+02  0.00000000000E+00 0.  1.
         21    1    1    2  502  503  0.37311290647E+01 -0.37046637320E+02  0.92112040556E+00  0.37245444334E+02  0.00000000000E+00 0. -1.
         21    1    1    2  503  501 -0.37311290647E+01  0.37046637320E+02 -0.10777766623E+02  0.38762545250E+02  0.00000000000E+00 0.  1.
</event>
<event>
 4    1  0.5967370E+002  0.3237698E+02  0.7546771E-02  0.1400005E+00
          2   -1    0    0  503    0  0.00000000000E+00  0.00000000000E+00  0.36516799725E+01  0.36516799725E+01  0.00000000000E+00 0.  1.
         -2   -1    0    0    0  501 -0.00000000000E+00 -0.00000000000E+00 -0.30004500545E+03  0.30004500545E+03  0.00000000000E+00 0. -1.
         21    1    1    2  502  501 -0.25244204741E+02 -0.20273108391E+02 -0.17977996711E+03  0.18267212533E+03  0.00000000000E+00 0. -1.
         21    1    1    2  503  502  0.25244204741E+02  0.20273108391E+02 -0.11661335836E+03  0.12102456009E+03  0.00000000000E+00 0.  1.
</event>
<event>
 4    1  0.5967370E+002  0.2405493E+02  0.7546771E-02  0.1479660E+00
          2   -1    0    0  502    0  0.00000000000E+00  0.00000000000E+00  0.48734226237E+01  0.48734226237E+01  0.00000000000E+00 0. -1.
         -2   -1    0    0    0  501 -0.00000000000E+00 -0.00000000000E+00 -0.14021456812E+03  0.14021456812E+03  0.00000000000E+00 0.  1.
         21    1    1    2  502  503 -0.51435214914E+01 -0.23498591903E+02 -0.39276313985E+02  0.46057230431E+02  0.00000000000E+00 0.  1.
         21    1    1    2  503  501  0.51435214914E+01  0.23498591903E+02 -0.96064831515E+02  0.99030760316E+02  0.00000000000E+00 0. -1.
</event>
<event>
 4    1  0.5967370E+002  0.2036431E+02  0.7546771E-02  0.1528538E+00
          2   -1    0    0  503    0  0.00000000000E+00  0.00000000000E+00  0.15811770159E+03  0.15811770159E+03  0.00000000000E+00 0.  1.
         -2   -1    0    0    0  501 -0.00000000000E+00 -0.00000000000E+00 -0.31548707770E+01  0.31548707770E+01  0.00000000000E+00 0. -1.
         21    1    1    2  502  501  0.20359837928E+02  0.42665025710E+00  0.11059758649E+03  0.11245679689E+03  0.00000000000E+00 0.  1.
         21    1    1    2  503  502 -0.20359837928E+02 -0.42665025710E+00  0.44365244322E+02  0.48815775469E+02  0.00000000000E+00 0. -1.
</event>
<event>
 4    1  0.5967370E+002  0.4194469E+02  0.7546771E-02  0.1337452E+00
          2   -1    0    0  502    0  0.00000000000E+00  0.00000000000E+00  0.26588149149E+02  0.26588149149E+02  0.00000000000E+00 0. -1.
         -2   -1    0    0    0  501 -0.00000000000E+00 -0.00000000000E+00 -0.20872396720E+03  0.20872396720E+03  0.00000000000E+00 0.  1.
         21    1    1    2  502  503  0.40801662564E+02  0.97253015399E+01  0.61657614804E+01  0.42395445187E+02  0.00000000000E+00 0. -1.
         21    1    1    2  503  501 -0.40801662564E+02 -0.97253015399E+01 -0.18830157953E+03  0.19291667116E+03  0.00000000000E+00 0.  1.
</event>
<event>
 4    1  0.5967370E+002  0.3646449E+02  0.7546771E-02  0.1370550E+00
          2   -1    0    0  502    0  0.00000000000E+00  0.00000000000E+00  0.86357043164E+03  0.86357043164E+03  0.00000000000E+00 0.  1.
         -2   -1    0    0    0  501 -0.00000000000E+00 -0.00000000000E+00 -0.11541233194E+02  0.11541233194E+02  0.00000000000E+00 0. -1.
         21    1    1    2  502  503 -0.71430305312E+01 -0.35758025098E+02  0.83333874964E+03  0.83413615849E+03  0.00000000000E+00 0.  1.
         21    1    1    2  503  501  0.71430305312E+01  0.35758025098E+02  0.18690448811E+02  0.40975506352E+02  0.00000000000E+00 0. -1.
</event>
<event>
 4    1  0.5967370E+002  0.4357544E+02  0.7546771E-02  0.1328718E+00
          2   -1    0    0  502    0  0.00000000000E+00  0.00000000000E+00  0.30955923116E+03  0.30955923116E+03  0.00000000000E+00 0.  1.
         -2   -1    0    0    0  501 -0.00000000000E+00 -0.00000000000E+00 -0.61372248883E+01  0.61372248883E+01  0.00000000000E+00 0. -1.
         21    1    1    2  502  503 -0.43574652100E+02 -0.26150291614E+00  0.14806083077E+03  0.15433997634E+03  0.00000000000E+00 0. -1.
         21    1    1    2  503  501  0.43574652100E+02  0.26150291614E+00  0.15536117551E+03  0.16135647971E+03  0.00000000000E+00 0.  1.
</event>
<event>
 4    1  0.5967370E+002  0.2172092E+02  0.7546771E-02  0.1509216E+00
          2   -1    0    0  502    0  0.00000000000E+00  0.00000000000E+00  0.16464485187E+04  0.16464485187E+04  0.00000000000E+00 0.  1.
         -2   -1    0    0    0  501 -0.00000000000E+00 -0.00000000000E+00 -0.29946875172E+00  0.29946875172E+00  0.00000000000E+00 0. -1.
         21    1    1    2  502  503 -0.20207478147E+02 -0.79659446193E+01  0.99405385370E+03  0.99429113569E+03  0.00000000000E+00 0.  1.
         21    1    1    2  503  501  0.20207478147E+02  0.79659446193E+01  0.65209519624E+03  0.65245685176E+03  0.00000000000E+00 0. -1.
</event>
<event>
 4    1  0.5967370E+002  0.3630473E+02  0.7546771E-02  0.1371615E+00
          2   -1    0    0  502    0  0.00000000000E+00  0.00000000000E+00  0.18885373652E+02  0.18885373652E+02  0.00000000000E+00 0.  1.
         -2   -1    0    0    0  501 -0.00000000000E+00 -0.00000000000E+00 -0.10091560921E+03  0.10091560921E+03  0.00000000000E+00 0. -1.
         21    1    1    2  502  503 -0.10602870127E+01  0.36289242299E+02 -0.77490388714E+01  0.37122512289E+02  0.00000000000E+00 0.  1.
         21    1    1    2  503  501  0.10602870127E+01 -0.36289242299E+02 -0.74281196690E+02  0.82678470577E+02  0.00000000000E+00 0. -1.
</event>
<event>
 4    1  0.5967370E+002  0.3663076E+02  0.7546771E-02  0.1369447E+00
          2   -1    0    0  502    0  0.00000000000E+00  0.00000000000E+00  0.10211533948E+02  0.10211533948E+02  0.00000000000E+00 0. -1.
         -2   -1    0    0    0  501 -0.00000000000E+00 -0.00000000000E+00 -0.19062845509E+03  0.19062845509E+03  0.00000000000E+00 0.  1.
         21    1    1    2  502  503  0.20079855557E+02  0.30636771310E+02 -0.34234569067E+02  0.50137990334E+02  0.00000000000E+00 0. -1.
         21    1    1    2  503  501 -0.20079855557E+02 -0.30636771310E+02 -0.14618235207E+03  0.15070199870E+03  0.00000000000E+00 0.  1.
</event>
<event>
 4    1  0.5967370E+002  0.2526103E+02  0.7546771E-02  0.1465904E+00
          2   -1    0    0  502    0  0.00000000000E+00  0.00000000000E+00  0.57333630995E+03  0.57333630995E+03  0.00000000000E+00 0.  1.
         -2   -1    0    0    0  501 -0.00000000000E+00 -0.00000000000E+00 -0.33221915145E+01  0.33221915145E+01  0.00000000000E+00 0. -1.
         21    1    1    2  502  503  0.53219457065E+01 -0.24694061238E+02  0.52012927307E+03  0.52074233597E+03  0.00000000000E+00 0.  1.
         21    1    1    2  503  501 -0.53219457065E+01  0.24694061238E+02  0.49884845364E+02  0.55916165493E+02  0.00000000000E+00 0. -1.
</event>
<event>
 4    1  0.5967370E+002  0.2019027E+02  0.7546771E-02  0.1531147E+00
          2   -1    0    0  502    0  0.00000000000E+00  0.00000000000E+00  0.86022795821E+03  0.86022795821E+03  0.00000000000E+00 0.  1.
         -2   -1    0    0    0  501 -0.00000000000E+00 -0.00000000000E+00 -0.87691041047E+00  0.87691041047E+00  0.00000000000E+00 0. -1.
         21    1    1    2  502  503 -0.17383687312E+01 -0.20115293274E+02  0.72156337139E+03  0.72184579093E+03  0.00000000000E+00 0.  1.
         21    1    1    2  503  501  0.17383687312E+01  0.20115293274E+02  0.13778767641E+03  0.13925907770E+03  0.00000000000E+00 0. -1.
</event>
<event>
 4    1  0.5967370E+002  0.3153288E+02  0.7546771E-02  0.1406727E+00
          2   -1    0    0  502    0  0.00000000000E+00  0.00000000000E+00  0.11213700774E+04  0.11213700774E+04  0.00000000000E+00 0.  1.
         -2   -1    0    0    0  501 -0.00000000000E+00 -0.00000000000E+00 -0.20655898692E+01  0.20655898692E+01  0.00000000000E+00 0. -1.
         21    1    1    2  502  503  0.24521490771E+02  0.19824709322E+02  0.98401001980E+03  0.98451513025E+03  0.00000000000E+00 0.  1.
         21    1    1    2  503  501 -0.24521490771E+02 -0.19824709322E+02  0.13529446774E+03  0.13892053703E+03  0.00000000000E+00 0. -1.
</event>
<event>
 4    1  0.5967370E+002  0.2420250E+02  0.7546771E-02  0.1477926E+00
          2   -1    0    0  502    0  0.00000000000E+00  0.00000000000E+00  0.88869525931E+03  0.88869525931E+03  0.00000000000E+00 0. -1.
         -2   -1    0    0    0  501 -0.00000000000E+00 -0.00000000000E+00 -0.69813516449E+00  0.69813516449E+00  0.00000000000E+00 0.  1.
         21    1    1    2  502  503  0.24268055145E+01  0.24080526517E+02  0.54911818454E+03  0.54965129103E+03  0.00000000000E+00 0. -1.
         21    1    1    2  503  501 -0.24268055145E+01 -0.24080526517E+02  0.33887893961E+03  0.33974210344E+03  0.00000000000E+00 0.  1.
</event>
<event>
 4    1  0.5967370E+002  0.2279666E+02  0.7546771E-02  0.1495067E+00
          2   -1    0    0  503    0  0.00000000000E+00  0.00000000000E+00  0.20188333318E+03  0.20188333318E+03  0.00000000000E+00 0.  1.
         -2   -1    0    0    0  501 -0.00000000000E+00 -0.00000000000E+00 -0.35841922839E+01  0.35841922839E+01  0.00000000000E+00 0. -1.
         21    1    1    2  502  501 -0.60428955390E+01 -0.21981153132E+02  0.44614359782E+02  0.50101185398E+02  0.00000000000E+00 0. -1.
         21    1    1    2  503  502  0.60428955390E+01  0.21981153132E+02  0.15368478111E+03  0.15536634006E+03  0.00000000000E+00 0.  1.
</event>
<event>
 4    1  0.5967370E+002  0.2951554E+02  0.7546771E-02  0.1423854E+00
          2   -1    0    0  503    0  0.00000000000E+00  0.00000000000E+00  0.19664099920E+02  0.19664099920E+02  0.00000000000E+00 0.  1.
         -2   -1    0    0    0  501 -0.00000000000E+00 -0.00000000000E+00 -0.46154441063E+02  0.46154441063E+02  0.00000000000E+00 0. -1.
         21    1    1    2  502  501 -0.27154792794E+02 -0.11566515743E+02 -0.66528943669E+01  0.30256041737E+02  0.00000000000E+00 0.  1.
         21    1    1    2  503  502  0.27154792794E+02  0.11566515743E+02 -0.19837446776E+02  0.35562499247E+02  0.00000000000E+00 0. -1.
</event>
<event>
 4    1  0.5967370E+002  0.2549531E+02  0.7546771E-02  0.1463338E+00
          2   -1    0    0  502    0  0.00000000000E+00  0.00000000000E+00  0.72353257009E+03  0.72353257009E+03  0.00000000000E+00 0.  1.
         -2   -1    0    0    0  501 -0.00000000000E+00 -0.00000000000E+00 -0.12721731952E+01  0.12721731952E+01  0.00000000000E+00 0. -1.
         21    1    1    2  502  503  0.18439810612E+02  0.17606368258E+02  0.55757054563E+03  0.55815313685E+03  0.00000000000E+00 0.  1.
         21    1    1    2  503  501 -0.18439810612E+02 -0.17606368258E+02  0.16468985126E+03  0.16665160644E+03  0.00000000000E+00 0. -1.
</event>
<event>
 4    1  0.5967370E+002  0.2152719E+02  0.7546771E-02  0.1511869E+00
          2   -1    0    0  503    0  0.00000000000E+00  0.00000000000E+00  0.42917544921E+03  0.42917544921E+03  0.00000000000E+00 0. -1.
         -2   -1    0    0    0  501 -0.00000000000E+00 -0.00000000000E+00 -0.23867563431E+01  0.23867563431E+01  0.00000000000E+00 0.  1.
         21    1    1    2  502  501  0.20460927469E+02  0.66910643969E+01  0.53717715970E+02  0.57870656681E+02  0.00000000000E+00 0.  1.
         21    1    1    2  503  502 -0.20460927469E+02 -0.66910643969E+01  0.37307097690E+03  0.37369154887E+03  0.00000000000E+00 0. -1.
</event>
<event>
 4    1  0.5967370E+002  0.2071029E+02  0.7546771E-02  0.1523442E+00
          2   -1    0    0  502    0  0.00000000000E+00  0.00000000000E+00  0.49612505259E+03  0.49612505259E+03  0.00000000000E+00 0.  1.
         -2   -1    0    0    0  501 -0.00000000000E+00 -0.00000000000E+00 -0.87559159485E+00  0.87559159485E+00  0.00000000000E+00 0. -1.
         21    1    1    2  502  503  0.16414793911E+02 -0.12628164956E+02  0.21969641316E+03  0.22067041026E+03  0.00000000000E+00 0. -1.
         21    1    1    2  503  501 -0.16414793911E+02  0.12628164956E+02  0.27555304784E+03  0.27633023393E+03  0.00000000000E+00 0.  1.
</event>
<event>
 4    1  0.5967370E+002  0.2081678E+02  0.7546771E-02  0.1521897E+00
          2   -1    0    0  502    0  0.00000000000E+00  0.00000000000E+00  0.62624389297E+03  0.62624389297E+03  0.00000000000E+00 0. -1.
         -2   -1    0    0    0  501 -0.00000000000E+00 -0.00000000000E+00 -0.85622180612E+00  0.85622180612E+00  0.00000000000E+00 0.  1.
         21    1    1    2  502  503  0.20232081199E+02  0.48991062416E+01  0.45002733705E+03  0.45050853759E+03  0.00000000000E+00 0. -1.
         21    1    1    2  503  501 -0.20232081199E+02 -0.48991062416E+01  0.17536033412E+03  0.17659157719E+03  0.00000000000E+00 0.  1.
</event>
<event>
 4    1  0.5967370E+002  0.2487495E+02  0.7546771E-02  0.1470207E+00
          2   -1    0    0  503    0  0.00000000000E+00  0.00000000000E+00  0.11665506958E+04  0.11665506958E+04  0.00000000000E+00 0.  1.
         -2   -1    0    0    0  501 -0.00000000000E+00 -0.00000000000E+00 -0.13872688747E+01  0.13872688747E+01  0.00000000000E+00 0. -1.
         21    1    1    2  502  501  0.24867347325E+02 -0.61497065310E+00  0.12363603489E+03  0.12611356896E+03  0.00000000000E+00 0. -1.
         21    1    1    2  503  502 -0.24867347325E+02  0.61497065310E+00  0.10415273921E+04  0.10418243958E+04  0.00000000000E+00 0.  1.
</event>
<event>
 4    1  0.5967370E+002  0.5580368E+02  0.7546771E-02  0.1274798E+00
          2   -1    0    0  502    0  0.00000000000E+00  0.00000000000E+00  0.42349354399E+02  0.42349354399E+02  0.00000000000E+00 0.  1.
         -2   -1    0    0    0  501 -0.00000000000E+00 -0.00000000000E+00 -0.14875875624E+03  0.14875875624E+03  0.00000000000E+00 0. -1.
         21    1    1    2  502  503  0.55795895985E+02 -0.93181425367E+00  0.14745825389E+02  0.57719057971E+02  0.00000000000E+00 0.  1.
         21    1    1    2  503  501 -0.55795895985E+02  0.93181425367E+00 -0.12115522723E+03  0.13338905267E+03  0.00000000000E+00 0. -1.
</event>
<event>
 4    1  0.5967370E+002  0.2790596E+02  0.7546771E-02  0.1438714E+00
          2   -1    0    0  502    0  0.00000000000E+00  0.00000000000E+00  0.80144695676E+02  0.80144695676E+02  0.00000000000E+00 0.  1.
         -2   -1    0    0    0  501 -0.00000000000E+00 -0.00000000000E+00 -0.34741792917E+02  0.34741792917E+02  0.00000000000E+00 0. -1.
         21    1    1    2  502  503  0.27792092485E+02  0.25183706813E+01  0.71454370831E+02  0.76710297265E+02  0.00000000000E+00 0.  1.
         21    1    1    2  503  501 -0.27792092485E+02 -0.25183706813E+01 -0.26051468072E+02  0.38176191328E+02  0.00000000000E+00 0. -1.
</event>
<event>
 4    1  0.5967370E+002  0.2499695E+02  0.7546771E-02  0.1468838E+00
          2   -1    0    0  502    0  0.00000000000E+00  0.00000000000E+00  0.17893364120E+04  0.17893364120E+04  0.00000000000E+00 0.  1.
         -2   -1    0    0    0  501 -0.00000000000E+00 -0.00000000000E+00 -0.83225977295E+00  0.83225977295E+00  0.00000000000E+00 0. -1.
         21    1    1    2  502  503 -0.24123912476E+01 -0.24880268816E+02  0.15761700611E+04  0.15763682657E+04  0.00000000000E+00 0.  1.
         21    1    1    2  503  501  0.24123912476E+01  0.24880268816E+02  0.21233409108E+03  0.21380040609E+03  0.00000000000E+00 0. -1.
</event>
<event>
 4    1  0.5967370E+002  0.3763855E+02  0.7546771E-02  0.1362909E+00
          2   -1    0    0  503    0  0.00000000000E+00  0.00000000000E+00  0.16321260359E+02  0.16321260359E+02  0.00000000000E+00 0. -1.
         -2   -1    0    0    0  501 -0.00000000000E+00 -0.00000000000E+00 -0.19060366713E+03  0.19060366713E+03  0.00000000000E+00 0.  1.
         21    1    1    2  502  501 -0.20450922187E+02 -0.31597783246E+02 -0.16349432153E+03  0.16777083565E+03  0.00000000000E+00 0.  1.
         21    1    1    2  503  502  0.20450922187E+02  0.31597783246E+02 -0.10788085247E+02  0.39154091838E+02  0.00000000000E+00 0. -1.
</event>
<event>
 4    1  0.5967370E+002  0.2348219E+02  0.7546771E-02  0.1486530E+00
          2   -1    0    0  502    0  0.00000000000E+00  0.00000000000E+00  0.45471554868E+02  0.45471554868E+02  0.00000000000E+00 0. -1.
         -2   -1    0    0    0  501 -0.00000000000E+00 -0.00000000000E+00 -0.12327720271E+02  0.12327720271E+02  0.00000000000E+00 0.  1.
         21    1    1    2  502  503 -0.18754793521E+02 -0.14130502333E+02  0.12880220987E+02  0.26782708393E+02  0.00000000000E+00 0.  1.
         21    1    1    2  503  501  0.18754793521E+02  0.14130502333E+02  0.20263613610E+02  0.31016566747E+02  0.00000000000E+00 0. -1.
</event>
<event>
 4    1  0.5967370E+002  0.2176178E+02  0.7546771E-02  0.1508661E+00
          2   -1    0    0  503    0  0.00000000000E+00  0.00000000000E+00  0.45511494915E+03  0.45511494915E+03  0.00000000000E+00 0. -1.
         -2   -1    0    0    0  501 -0.00000000000E+00 -0.00000000000E+00 -0.17987354042E+01  0.17987354042E+01  0.00000000000E+00 0.  1.
         21    1    1    2  502  501 -0.20571721753E+02 -0.70978367319E+01  0.78336306070E+02  0.81302840485E+02  0.00000000000E+00 0.  1.
         21    1    1    2  503  502  0.20571721753E+02  0.70978367319E+01  0.37497990767E+03  0.37561084407E+03  0.00000000000E+00 0. -1.
</event>
<event>
 4    1  0.5967370E+002  0.2125882E+02  0.7546771E-02  0.1515601E+00
          2   -1    0    0  503    0  0.00000000000E+00  0.00000000000E+00  0.82173931797E+02  0.82173931797E+02  0.00000000000E+00 0. -1.
         -2   -1    0    0    0  501 -0.00000000000E+00 -0.00000000000E+00 -0.15234659530E+02  0.15234659530E+02  0.00000000000E+00 0.  1.
         21    1    1    2  502  501 -0.59625977829E+00  0.21250457251E+02 -0.54632389810E+01  0.21949588590E+02  0.00000000000E+00 0.  1.
         21    1    1    2  503  502  0.59625977829E+00 -0.21250457251E+02  0.72402511248E+02  0.75459002737E+02  0.00000000000E+00 0. -1.
</event>
<event>
 4    1  0.5967370E+002  0.4199121E+02  0.7546771E-02  0.1337196E+00
          2   -1    0    0  502    0  0.00000000000E+00  0.00000000000E+00  0.16233094868E+03  0.16233094868E+03  0.00000000000E+00 0. -1.
         -2   -1    0    0    0  501 -0.00000000000E+00 -0.00000000000E+00 -0.10863634868E+02  0.10863634868E+02  0.00000000000E+00 0.  1.
         21    1    1    2  502  503  0.28367667306E+01 -0.41895281358E+02  0.76748737387E+02  0.87485030354E+02  0.00000000000E+00 0. -1.
         21    1    1    2  503  501 -0.28367667306E+01  0.41895281358E+02  0.74718576422E+02  0.85709553190E+02  0.00000000000E+00 0.  1.
</event>
<event>
 4    1  0.5967370E+002  0.6936543E+02  0.7546771E-02  0.1230953E+00
          2   -1    0    0  503    0  0.00000000000E+00  0.00000000000E+00  0.25809377015E+02  0.25809377015E+02  0.00000000000E+00 0.  1.
         -2   -1    0    0    0  501 -0.00000000000E+00 -0.00000000000E+00 -0.19709001827E+03  0.19709001827E+03  0.00000000000E+00 0. -1.
         21    1    1    2  502  501  0.65523907149E+02  0.22763580397E+02 -0.11156348539E+03  0.13136960939E+03  0.00000000000E+00 0.  1.
         21    1    1    2  503  502 -0.65523907149E+02 -0.22763580397E+02 -0.59717155873E+02  0.91529785895E+02  0.00000000000E+00 0. -1.
</event>
<event>
 4    1  0.5967370E+002  0.2051516E+02  0.7546771E-02  0.1526301E+00
          2   -1    0    0  503    0  0.00000000000E+00  0.00000000000E+00  0.44572584380E+03  0.44572584380E+03  0.00000000000E+00 0.  1.
         -2   -1    0    0    0  501 -0.00000000000E+00 -0.00000000000E+00 -0.10819657074E+01  0.10819657074E+01  0.00000000000E+00 0. -1.
         21    1    1    2  502  501  0.14805924444E+02 -0.14200577318E+02  0.14261560276E+03  0.14408359360E+03  0.00000000000E+00 0. -1.
         21    1    1    2  503  502 -0.14805924444E+02  0.14200577318E+02  0.30202827533E+03  0.30272421591E+03  0.00000000000E+00 0.  1.
</event>
<event>
 4    1  0.5967370E+002  0.2237071E+02  0.7546771E-02  0.1500555E+00
          2   -1    0    0  503    0  0.00000000000E+00  0.00000000000E+00  0.17201126506E+01  0.17201126506E+01  0.00000000000E+00 0.  1.
         -2   -1    0    0    0  501 -0.00000000000E+00 -0.00000000000E+00 -0.39295087435E+03  0.39295087435E+03  0.00000000000E+00 0. -1.
         21    1    1    2  502  501 -0.52262074546E+01  0.21751676742E+02 -0.29616036540E+03  0.29700405842E+03  0.00000000000E+00 0. -1.
         21    1    1    2  503  502  0.52262074546E+01 -0.21751676742E+02 -0.95070396309E+02  0.97666928588E+02  0.00000000000E+00 0.  1.
</event>
<event>
 4    1  0.5967370E+002  0.2019892E+02  0.7546771E-02  0.1531016E+00
          2   -1    0    0  503    0  0.00000000000E+00  0.00000000000E+00  0.16918181768E+02  0.16918181768E+02  0.00000000000E+00 0. -1.
         -2   -1    0    0    0  501 -0.00000000000E+00 -0.00000000000E+00 -0.43120358515E+02  0.43120358515E+02  0.00000000000E+00 0.  1.
         21    1    1    2  502  501 -0.20064243810E+02 -0.23286430735E+01 -0.33030165356E+02  0.38716770031E+02  0.00000000000E+00 0.  1.
         21    1    1    2  503  502  0.20064243810E+02  0.23286430735E+01  0.68279886079E+01  0.21321770252E+02  0.00000000000E+00 0. -1.
</event>
<event>
 4    1  0.5967370E+002  0.2559374E+02  0.7546771E-02  0.1462270E+00
          2   -1    0    0  502    0  0.00000000000E+00  0.00000000000E+00  0.25428997399E+03  0.25428997399E+03  0.00000000000E+00 0. -1.
         -2   -1    0    0    0  501 -0.00000000000E+00 -0.00000000000E+00 -0.30711130408E+01  0.30711130408E+01  0.00000000000E+00 0.  1.
         21    1    1    2  502  503  0.24794198360E+02  0.63472157953E+01  0.73939593422E+02  0.78243868106E+02  0.00000000000E+00 0.  1.
         21    1    1    2  503  501 -0.24794198360E+02 -0.63472157953E+01  0.17727926753E+03  0.17911721893E+03  0.00000000000E+00 0. -1.
</event>
<event>
 4    1  0.5967370E+002  0.2488045E+02  0.7546771E-02  0.1470145E+00
          2   -1    0    0  502    0  0.00000000000E+00  0.00000000000E+00  0.63670122634E+03  0.63670122634E+03  0.00000000000E+00 0. -1.
         -2   -1    0    0    0  501 -0.00000000000E+00 -0.00000000000E+00 -0.16205675556E+01  0.16205675556E+01  0.00000000000E+00 0.  1.
         21    1    1    2  502  503  0.21456273202E+02  0.12596232274E+02  0.51940853135E+03  0.52000409533E+03  0.00000000000E+00 0. -1.
         21    1    1    2  503  501 -0.21456273202E+02 -0.12596232274E+02  0.11567212744E+03  0.11831769856E+03  0.00000000000E+00 0.  1.
</event>
<event>
 4    1  0.5967370E+002  0.2103197E+02  0.7546771E-02  0.1518809E+00
          2   -1    0    0  502    0  0.00000000000E+00  0.00000000000E+00  0.35658819081E+03  0.35658819081E+03  0.00000000000E+00 0.  1.
         -2   -1    0    0    0  501 -0.00000000000E+00 -0.00000000000E+00 -0.22109167596E+02  0.22109167596E+02  0.00000000000E+00 0. -1.
         21    1    1    2  502  503 -0.54382428886E+00 -0.21024935442E+02  0.35119957963E+03  0.35182877709E+03  0.00000000000E+00 0.  1.
         21    1    1    2  503  501  0.54382428886E+00  0.21024935442E+02 -0.16720556416E+02  0.26868581318E+02  0.00000000000E+00 0. -1.
</event>
<event>
 4    1  0.5967370E+002  0.2111572E+02  0.7546771E-02  0.1517619E+00
          2   -1    0    0  502    0  0.00000000000E+00  0.00000000000E+00  0.27058102957E+03  0.27058102957E+03  0.00000000000E+00 0. -1.
         -2   -1    0    0    0  501 -0.00000000000E+00 -0.00000000000E+00 -0.21120686855E+01  0.21120686855E+01  0.00000000000E+00 0.  1.
         21    1    1    2  502  503  0.18759133152E+02 -0.96937357339E+01  0.19815749532E+03  0.19927936807E+03  0.00000000000E+00 0. -1.
         21    1    1    2  503  501 -0.18759133152E+02  0.96937357339E+01  0.70311465569E+02  0.73413730184E+02  0.00000000000E+00 0.  1.
</event>
<event>
 4    1  0.5967370E+002  0.2403729E+02  0.7546771E-02  0.1479868E+00
          2   -1    0    0  503    0  0.00000000000E+00  0.00000000000E+00  0.87614015596E+01  0.87614015596E+01  0.00000000000E+00 0.  1.
         -2   -1    0    0    0  501 -0.00000000000E+00 -0.00000000000E+00 -0.78010898949E+02  0.78010898949E+02  0.00000000000E+00 0. -1.
         21    1    1    2  502  501  0.20676910096E+02 -0.12257923430E+02 -0.51685998821E+02  0.57002050596E+02  0.00000000000E+00 0. -1.
         21    1    1    2  503  502 -0.20676910096E+02  0.12257923430E+02 -0.17563498568E+02  0.29770249913E+02  0.00000000000E+00 0.  1.
</event>
<event>
 4    1  0.5967370E+002  0.2228263E+02  0.7546771E-02  0.1501708E+00
          2   -1    0    0  502    0  0.00000000000E+00  0.00000000000E+00  0.11954647499E+04  0.11954647499E+04  0.00000000000E+00 0. -1.
         -2   -1    0    0    0  501 -0.00000000000E+00 -0.00000000000E+00 -0.64529697119E+00  0.64529697119E+00  0.00000000000E+00 0.  1.
         21    1    1    2  502  503  0.22238292407E+02 -0.14050124796E+01  0.95442880764E+03  0.95468888365E+03  0.00000000000E+00 0. -1.
         21    1    1    2  503  501 -0.22238292407E+02  0.14050124796E+01  0.24039064525E+03  0.24142116318E+03  0.00000000000E+00 0.  1.
</event>
<event>
 4    1  0.5967370E+002  0.3217230E+02  0.7546771E-02  0.1401613E+00
          2   -1    0    0  503    0  0.00000000000E+00  0.00000000000E+00  0.16653573101E+04  0.16653573101E+04  0.00000000000E+00 0.  1.
         -2   -1    0    0    0  501 -0.00000000000E+00 -0.00000000000E+00 -0.11639722044E+01  0.11639722044E+01  0.00000000000E+00 0. -1.
         21    1    1    2  502  501  0.24580956919E+02 -0.20756525502E+02  0.26325767319E+03  0.26521625004E+03  0.00000000000E+00 0. -1.
         21    1    1    2  503  502 -0.24580956919E+02  0.20756525502E+02  0.14009356647E+04  0.14013050323E+04  0.00000000000E+00 0.  1.
</event>
<event>
 4    1  0.5967370E+002  0.2253340E+02  0.7546771E-02  0.1498442E+00
          2   -1    0    0  503    0  0.00000000000E+00  0.00000000000E+00  0.64508467597E+03  0.64508467597E+03  0.00000000000E+00 0.  1.
         -2   -1    0    0    0  501 -0.00000000000E+00 -0.00000000000E+00 -0.82767890845E+00  0.82767890845E+00  0.00000000000E+00 0. -1.
         21    1    1    2  502  501 -0.91268677592E+01 -0.20602295201E+02  0.39362673753E+03  0.39427117925E+03  0.00000000000E+00 0.  1.
         21    1    1    2  503  502  0.91268677592E+01  0.20602295201E+02  0.25063025953E+03  0.25164117563E+03  0.00000000000E+00 0. -1.
</event>
<event>
 4    1  0.5967370E+002  0.2297983E+02  0.7546771E-02  0.1492752E+00
          2   -1    0    0  503    0  0.00000000000E+00  0.00000000000E+00  0.44109917320E+03  0.44109917320E+03  0.00000000000E+00 0. -1.
         -2   -1    0    0    0  501 -0.00000000000E+00 -0.00000000000E+00 -0.12042020545E+01  0.12042020545E+01  0.00000000000E+00 0.  1.
         21    1    1    2  502  501 -0.34626162948E+01 -0.22717456602E+02  0.20305271815E+03  0.20434891459E+03  0.00000000000E+00 0. -1.
         21    1    1    2  503  502  0.34626162948E+01  0.22717456602E+02  0.23684225299E+03  0.23795446066E+03  0.00000000000E+00 0.  1.
</event>
<event>
 4    1  0.5967370E+002  0.3622359E+02  0.7546771E-02  0.1372159E+00
          2   -1    0    0  503    0  0.00000000000E+00  0.00000000000E+00  0.26527450401E+04  0.26527450401E+04  0.00000000000E+00 0. -1.
         -2   -1    0    0    0  501 -0.00000000000E+00 -0.00000000000E+00 -0.51447631112E+00  0.51447631112E+00  0.00000000000E+00 0.  1.
         21    1    1    2  502  501  0.32464224833E+02  0.16069304354E+02  0.10656081250E+04  0.10662236278E+04  0.00000000000E+00 0. -1.
         21    1    1    2  503  502 -0.32464224833E+02 -0.16069304354E+02  0.15866224388E+04  0.15870358886E+04  0.00000000000E+00 0.  1.
</event>
<event>
 4    1  0.5967370E+002  0.2040541E+02  0.7546771E-02  0.1527926E+00
          2   -1    0    0  502    0  0.00000000000E+00  0.00000000000E+00  0.10162962765E+03  0.10162962765E+03  0.00000000000E+00 0. -1.
         -2   -1    0    0    0  501 -0.00000000000E+00 -0.00000000000E+00 -0.68504885409E+01  0.68504885409E+01  0.00000000000E+00 0.  1.
         21    1    1    2  502  503  0.90155888275E+01  0.18305739789E+02  0.81776833500E+02  0.84284230129E+02  0.00000000000E+00 0. -1.
         21    1    1    2  503  501 -0.90155888275E+01 -0.18305739789E+02  0.13002305606E+02  0.24195886059E+02  0.00000000000E+00 0.  1.
</event>
<event>
 4    1  0.5967370E+002  0.2383491E+02  0.7546771E-02  0.1482272E+00
          2   -1    0    0  503    0  0.00000000000E+00  0.00000000000E+00  0.57723845764E+02  0.57723845764E+02  0.00000000000E+00 0. -1.
         -2   -1    0    0    0  501 -0.00000000000E+00 -0.00000000000E+00 -0.94072308416E+02  0.94072308416E+02  0.00000000000E+00 0.  1.
         21    1    1    2  502  501  0.16122388867E+02 -0.17554814409E+02 -0.89992469155E+02  0.93095367427E+02  0.00000000000E+00 0.  1.
         21    1    1    2  503  502 -0.16122388867E+02  0.17554814409E+02  0.53644006503E+02  0.58700786753E+02  0.00000000000E+00 0. -1.
</event>
<event>
 4    1  0.5967370E+002  0.2832406E+02  0.7546771E-02  0.1434743E+00
          2   -1    0    0  502    0  0.00000000000E+00  0.00000000000E+00  0.15955936918E+02  0.15955936918E+02  0.00000000000E+00 0.  1.
         -2   -1    0    0    0  501 -0.00000000000E+00 -0.00000000000E+00 -0.89538655573E+02  0.89538655573E+02  0.00000000000E+00 0. -1.
         21    1    1    2  502  503  0.24780349609E+02  0.13718118161E+02 -0.18639161059E+01  0.28385325009E+02  0.00000000000E+00 0.  1.
         21    1    1    2  503  501 -0.24780349609E+02 -0.13718118161E+02 -0.71718802549E+02  0.77109267482E+02  0.00000000000E+00 0. -1.
</event>
<event>
 4    1  0.5967370E+002  0.2209686E+02  0.7546771E-02  0.1504161E+00
          2   -1    0    0  503    0  0.00000000000E+00  0.00000000000E+00  0.14254710281E+04  0.14254710281E+04  0.00000000000E+00 0.  1.
         -2   -1    0    0    0  501 -0.00000000000E+00 -0.00000000000E+00 -0.47596069222E+01  0.47596069222E+01  0.00000000000E+00 0. -1.
         21    1    1    2  502  501 -0.21765941063E+02  0.38098543457E+01  0.21453053562E+02  0.30797803292E+02  0.00000000000E+00 0. -1.
         21    1    1    2  503  502  0.21765941063E+02 -0.38098543457E+01  0.13992583676E+04  0.13994328318E+04  0.00000000000E+00 0.  1.
</event>
<event>
 4    1  0.5967370E+002  0.3809381E+02  0.7546771E-02  0.1360033E+00
          2   -1    0    0  503    0  0.00000000000E+00  0.00000000000E+00  0.78758129450E+03  0.78758129450E+03  0.00000000000E+00 0.  1.
         -2   -1    0    0    0  501 -0.00000000000E+00 -0.00000000000E+00 -0.21927153339E+01  0.21927153339E+01  0.00000000000E+00 0. -1.
         21    1    1    2  502  501  0.20114928680E+02  0.32350085562E+02  0.23488460170E+03  0.23795359739E+03  0.00000000000E+00 0. -1.
         21    1    1    2  503  502 -0.20114928680E+02 -0.32350085562E+02  0.55050397746E+03  0.55182041245E+03  0.00000000000E+00 0.  1.
</event>
<event>
 4    1  0.5967370E+002  0.2419676E+02  0.7546771E-02  0.1477993E+00
          2   -1    0    0  503    0  0.00000000000E+00  0.00000000000E+00  0.12088003263E+03  0.12088003263E+03  0.00000000000E+00 0. -1.
         -2   -1    0    0    0  501 -0.00000000000E+00 -0.00000000000E+00 -0.53311886773E+01  0.53311886773E+01  0.00000000000E+00 0.  1.
         21    1    1    2  502  501  0.11753762986E+02 -0.21150231971E+02  0.38688011141E+02  0.45631627878E+02  0.00000000000E+00 0.  1.
         21    1    1    2  503  502 -0.11753762986E+02  0.21150231971E+02  0.76860832809E+02  0.80579593427E+02  0.00000000000E+00 0. -1.
</event>
<event>
 4    1  0.5967370E+002  0.2051230E+02  0.7546771E-02  0.1526343E+00
          2   -1    0    0  503    0  0.00000000000E+00  0.00000000000E+00  0.24447175792E+03  0.24447175792E+03  0.00000000000E+00 0. -1.
         -2   -1    0    0    0  501 -0.00000000000E+00 -0.00000000000E+00 -0.47325770905E+02  0.47325770905E+02  0.00000000000E+00 0.  1.
         21    1    1    2  502  501  0.83468376914E+01  0.18737255068E+02 -0.44648284151E+02  0.49134750478E+02  0.00000000000E+00 0.  1.
         21    1    1    2  503  502 -0.83468376914E+01 -0.18737255068E+02  0.24179427116E+03  0.24266277835E+03  0.00000000000E+00 0. -1.
</event>
<event>
 4    1  0.5967370E+002  0.2186757E+02  0.7546771E-02  0.1507230E+00
          2   -1    0    0  502    0  0.00000000000E+00  0.00000000000E+00  0.98468269266E+02  0.98468269266E+02  0.00000000000E+00 0. -1.
         -2   -1    0    0    0  501 -0.00000000000E+00 -0.00000000000E+00 -0.14996640996E+02  0.14996640996E+02  0.00000000000E+00 0.  1.
         21    1    1    2  502  503 -0.18953033977E+02  0.10907472193E+02  0.88386827293E+02  0.91051752787E+02  0.00000000000E+00 0. -1.
         21    1    1    2  503  501  0.18953033977E+02 -0.10907472193E+02 -0.49151990232E+01  0.22413157475E+02  0.00000000000E+00 0.  1.
</event>
<event>
 4    1  0.5967370E+002  0.2530145E+02  0.7546771E-02  0.1465459E+00
          2   -1    0    0  502    0  0.00000000000E+00  0.00000000000E+00  0.18280448140E+02  0.18280448140E+02  0.00000000000E+00 0.  1.
         -2   -1    0    0    0  501 -0.00000000000E+00 -0.00000000000E+00 -0.18543082277E+03  0.18543082277E+03  0.00000000000E+00 0. -1.
         21    1    1    2  502  503  0.13223021269E+02  0.21571166028E+02  0.81598092483E+01  0.26584694511E+02  0.00000000000E+00 0.  1.
         21    1    1    2  503  501 -0.13223021269E+02 -0.21571166028E+02 -0.17531018388E+03  0.17712657640E+03  0.00000000000E+00 0. -1.
</event>
<event>
 4    1  0.5967370E+002  0.4086682E+02  0.7546771E-02  0.1343480E+00
          2   -1    0    0  502    0  0.00000000000E+00  0.00000000000E+00  0.20599444482E+03  0.20599444482E+03  0.00000000000E+00 0.  1.
         -2   -1    0    0    0  501 -0.00000000000E+00 -0.00000000000E+00 -0.81741779596E+01  0.81741779596E+01  0.00000000000E+00 0. -1.
         21    1    1    2  502  503 -0.25389822520E+02 -0.32022714679E+02  0.10858258014E+03  0.11601842118E+03  0.00000000000E+00 0. -1.
         21    1    1    2  503  501  0.25389822520E+02  0.32022714679E+02  0.89237686714E+02  0.98150201595E+02  0.00000000000E+00 0.  1.
</event>
<event>
 4    1  0.5967370E+002  0.3147447E+02  0.7546771E-02  0.1407202E+00
          2   -1    0    0  502    0  0.00000000000E+00  0.00000000000E+00  0.11517111721E+04  0.11517111721E+04  0.00000000000E+00 0. -1.
         -2   -1    0    0    0  501 -0.00000000000E+00 -0.00000000000E+00 -0.87986552768E+00  0.87986552768E+00  0.00000000000E+00 0.  1.
         21    1    1    2  502  503  0.14057495835E+01 -0.31443065380E+02  0.66168553412E+03  0.66243368616E+03  0.00000000000E+00 0. -1.
         21    1    1    2  503  501 -0.14057495835E+01  0.31443065380E+02  0.48914577245E+03  0.49015735147E+03  0.00000000000E+00 0.  1.
</event>
<event>
 4    1  0.5967370E+002  0.5211443E+02  0.7546771E-02  0.1289256E+00
          2   -1    0    0  502    0  0.00000000000E+00  0.00000000000E+00  0.68856459054E+03  0.68856459054E+03  0.00000000000E+00 0. -1.
         -2   -1    0    0    0  501 -0.00000000000E+00 -0.00000000000E+00 -0.62289744336E+01  0.62289744336E+01  0.00000000000E+00 0.  1.
         21    1    1    2  502  503 -0.41333174430E+02 -0.31740861734E+02  0.55155947431E+03  0.55401603525E+03  0.00000000000E+00 0. -1.
         21    1    1    2  503  501  0.41333174430E+02  0.31740861734E+02  0.13077614179E+03  0.14077752972E+03  0.00000000000E+00 0.  1.
</event>
<event>
 4    1  0.5967370E+002  0.2154484E+02  0.7546771E-02  0.1511626E+00
          2   -1    0    0  502    0  0.00000000000E+00  0.00000000000E+00  0.21165418968E+03  0.21165418968E+03  0.00000000000E+00 0.  1.
         -2   -1    0    0    0  501 -0.00000000000E+00 -0.00000000000E+00 -0.32350962488E+01  0.32350962488E+01  0.00000000000E+00 0. -1.
         21    1    1    2  502  503 -0.10631233341E+02 -0.18739181555E+02  0.16518752434E+03  0.16658660885E+03  0.00000000000E+00 0.  1.
         21    1    1    2  503  501  0.10631233341E+02  0.18739181555E+02  0.43231569089E+02  0.48302677085E+02  0.00000000000E+00 0. -1.
</event>
<event>
 4    1  0.5967370E+002  0.2330572E+02  0.7546771E-02  0.1488694E+00
          2   -1    0    0  502    0  0.00000000000E+00  0.00000000000E+00  0.69652667096E+03  0.69652667096E+03  0.00000000000E+00 0. -1.
         -2   -1    0    0    0  501 -0.00000000000E+00 -0.00000000000E+00 -0.83496874316E+00  0.83496874316E+00  0.00000000000E+00 0.  1.
         21    1    1    2  502  503 -0.47619219706E+01  0.22814049383E+02  0.25822484542E+03  0.25927442516E+03  0.00000000000E+00 0.  1.
         21    1    1    2  503  501  0.47619219706E+01 -0.22814049383E+02  0.43746685680E+03  0.43808721454E+03  0.00000000000E+00 0. -1.
</event>
<event>
 4    1  0.5967370E+002  0.2104495E+02  0.7546771E-02  0.1518624E+00
          2   -1    0    0  502    0  0.00000000000E+00  0.00000000000E+00  0.11525895736E+03  0.11525895736E+03  0.00000000000E+00 0. -1.
         -2   -1    0    0    0  501 -0.00000000000E+00 -0.00000000000E+00 -0.97037866004E+01  0.97037866004E+01  0.00000000000E+00 0.  1.
         21    1    1    2  502  503 -0.23119464894E+00 -0.21043682976E+02  0.10133706305E+03  0.10349922894E+03  0.00000000000E+00 0. -1.
         21    1    1    2  503  501  0.23119464894E+00  0.21043682976E+02  0.42181077074E+01  0.21463515015E+02  0.00000000000E+00 0.  1.
</event>
<event>
 4    1  0.5967370E+002  0.2970902E+02  0.7546771E-02  0.1422142E+00
          2   -1    0    0  503    0  0.00000000000E+00  0.00000000000E+00  0.20804830020E+04  0.20804830020E+04  0.00000000000E+00 0.  1.
         -2   -1    0    0    0  501 -0.00000000000E+00 -0.00000000000E+00 -0.68785709633E+00  0.68785709633E+00  0.00000000000E+00 0. -1.
         21    1    1    2  502  501  0.28871402432E+02  0.70048506821E+01  0.16840887036E+04  0.16843507318E+04  0.00000000000E+00 0.  1.
         21    1    1    2  503  502 -0.28871402432E+02 -0.70048506821E+01  0.39570644130E+03  0.39682012739E+03  0.00000000000E+00 0. -1.
</event>
<event>
 4    1  0.5967370E+002  0.2597666E+02  0.7546771E-02  0.1458168E+00
          2   -1    0    0  503    0  0.00000000000E+00  0.00000000000E+00  0.36053901180E+01  0.36053901180E+01  0.00000000000E+00 0.  1.
         -2   -1    0    0    0  501 -0.00000000000E+00 -0.00000000000E+00 -0.18716612252E+03  0.18716612252E+03  0.00000000000E+00 0. -1.
         21    1    1    2  502  501 -0.15688070004E+02  0.20704375907E+02 -0.91258922002E+02  0.94884021664E+02  0.00000000000E+00 0.  1.
         21    1    1    2  503  502  0.15688070004E+02 -0.20704375907E+02 -0.92301810400E+02  0.95887490974E+02  0.00000000000E+00 0. -1.
</event>
<event>
 4    1  0.5967370E+002  0.2011656E+02  0.7546771E-02  0.1532261E+00
          2   -1    0    0  502    0  0.00000000000E+00  0.00000000000E+00  0.20262095927E+03  0.20262095927E+03  0.00000000000E+00 0.  1.
         -2   -1    0    0    0  501 -0.00000000000E+00 -0.00000000000E+00 -0.26828891941E+01  0.26828891941E+01  0.00000000000E+00 0. -1.
         21    1    1    2  502  503 -0.20096666297E+02 -0.89431373322E+00  0.15186427001E+03  0.15319083621E+03  0.00000000000E+00 0.  1.
         21    1    1    2  503  501  0.20096666297E+02  0.89431373322E+00  0.48073800064E+02  0.52113012252E+02  0.00000000000E+00 0. -1.
</event>
<event>
 4    1  0.5967370E+002  0.2921352E+02  0.7546771E-02  0.1426556E+00
          2   -1    0    0  503    0  0.00000000000E+00  0.00000000000E+00  0.16324678889E+04  0.16324678889E+04  0.00000000000E+00 0. -1.
         -2   -1    0    0    0  501 -0.00000000000E+00 -0.00000000000E+00 -0.17130801844E+01  0.17130801844E+01  0.00000000000E+00 0.  1.
         21    1    1    2  502  501 -0.16627241738E+02 -0.24020088211E+02  0.13428092325E+03  0.13742196388E+03  0.00000000000E+00 0.  1.
         21    1    1    2  503  502  0.16627241738E+02  0.24020088211E+02  0.14964738854E+04  0.14967590052E+04  0.00000000000E+00 0. -1.
</event>
<event>
 4    1  0.5967370E+002  0.2838504E+02  0.7546771E-02  0.1434170E+00
          2   -1    0    0  503    0  0.00000000000E+00  0.00000000000E+00  0.33867352816E+03  0.33867352816E+03  0.00000000000E+00 0. -1.
         -2   -1    0    0    0  501 -0.00000000000E+00 -0.00000000000E+00 -0.23887710808E+01  0.23887710808E+01  0.00000000000E+00 0.  1.
         21    1    1    2  502  501  0.68027052505E+01  0.27557826736E+02  0.17903856793E+03  0.18127470706E+03  0.00000000000E+00 0. -1.
         21    1    1    2  503  502 -0.68027052505E+01 -0.27557826736E+02  0.15724618915E+03  0.15978759218E+03  0.00000000000E+00 0.  1.
</event>
<event>
 4    1  0.5967370E+002  0.2553448E+02  0.7546771E-02  0.1462912E+00
          2   -1    0    0  503    0  0.00000000000E+00  0.00000000000E+00  0.50980014916E+03  0.50980014916E+03  0.00000000000E+00 0.  1.
         -2   -1    0    0    0  501 -0.00000000000E+00 -0.00000000000E+00 -0.23340908268E+01  0.23340908268E+01  0.00000000000E+00 0. -1.
         21    1    1    2  502  501 -0.68979718399E-01 -0.25534390517E+02  0.81566085950E+02  0.85469504704E+02  0.00000000000E+00 0. -1.
         21    1    1    2  503  502  0.68979718399E-01  0.25534390517E+02  0.42589997239E+03  0.42666473529E+03  0.00000000000E+00 0.  1.
</event>
<event>
 4    1  0.5967370E+002  0.2303473E+02  0.7546771E-02  0.1492063E+00
          2   -1    0    0  502    0  0.00000000000E+00  0.00000000000E+00  0.98694529955E+01  0.98694529955E+01  0.00000000000E+00 0.  1.
         -2   -1    0    0    0  501 -0.00000000000E+00 -0.00000000000E+00 -0.54143362897E+02  0.54143362897E+02  0.00000000000E+00 0. -1.
         21    1    1    2  502  503  0.32354937241E+01  0.22806366482E+02 -0.24824110000E+02  0.33864955471E+02  0.00000000000E+00 0. -1.
         21    1    1    2  503  501 -0.32354937241E+01 -0.22806366482E+02 -0.19449799902E+02  0.30147860421E+02  0.00000000000E+00 0.  1.
</event>
<event>
 4    1  0.5967370E+002  0.3539740E+02  0.7546771E-02  0.1377791E+00
          2   -1    0    0  503    0  0.00000000000E+00  0.00000000000E+00  0.16649695001E+02  0.16649695001E+02  0.00000000000E+00 0. -1.
         -2   -1    0    0    0  501 -0.00000000000E+00 -0.00000000000E+00 -0.44132636784E+03  0.44132636784E+03  0.00000000000E+00 0.  1.
         21    1    1    2  502  501  0.11273797973E+02 -0.33554098686E+02 -0.42089093731E+03  0.42237679525E+03  0.00000000000E+00 0.  1.
         21    1    1    2  503  502 -0.11273797973E+02  0.33554098686E+02 -0.37857355298E+01  0.35599267589E+02  0.00000000000E+00 0. -1.
</event>
<event>
 4    1  0.5967370E+002  0.2231663E+02  0.7546771E-02  0.1501262E+00
          2   -1    0    0  502    0  0.00000000000E+00  0.00000000000E+00  0.22471105142E+03  0.22471105142E+03  0.00000000000E+00 0.  1.
         -2   -1    0    0    0  501 -0.00000000000E+00 -0.00000000000E+00 -0.32002176925E+01  0.32002176925E+01  0.00000000000E+00 0. -1.
         21    1    1    2  502  503  0.22316618253E+02 -0.24162349739E-01  0.17394137642E+03  0.17536714192E+03  0.00000000000E+00 0.  1.
         21    1    1    2  503  501 -0.22316618253E+02  0.24162349739E-01  0.47569457316E+02  0.52544127201E+02  0.00000000000E+00 0. -1.
</event>
<event>
 4    1  0.5967370E+002  0.3678912E+02  0.7546771E-02  0.1368403E+00
          2   -1    0    0  503    0  0.00000000000E+00  0.00000000000E+00  0.21546908080E+03  0.21546908080E+03  0.00000000000E+00 0. -1.
         -2   -1    0    0    0  501 -0.00000000000E+00 -0.00000000000E+00 -0.69305316625E+01  0.69305316625E+01  0.00000000000E+00 0.  1.
         21    1    1    2  502  501 -0.28784996226E+02  0.22909899010E+02  0.13830222307E+03  0.14311165008E+03  0.00000000000E+00 0. -1.
         21    1    1    2  503  502  0.28784996226E+02 -0.22909899010E+02  0.70236326060E+02  0.79287962383E+02  0.00000000000E+00 0.  1.
</event>
<event>
 4    1  0.5967370E+002  0.5393252E+02  0.7546771E-02  0.1281967E+00
          2   -1    0    0  503    0  0.00000000000E+00  0.00000000000E+00  0.22317148200E+04  0.22317148200E+04  0.00000000000E+00 0. -1.
         -2   -1    0    0    0  501 -0.00000000000E+00 -0.00000000000E+00 -0.14421789786E+01  0.14421789786E+01  0.00000000000E+00 0.  1.
         21    1    1    2  502  501  0.35891329958E+02  0.40255791744E+02  0.76870898140E+03  0.77059860785E+03  0.00000000000E+00 0.  1.
         21    1    1    2  503  502 -0.35891329958E+02 -0.40255791744E+02  0.14615636596E+04  0.14625583911E+04  0.00000000000E+00 0. -1.
</event>
<event>
 4    1  0.5967370E+002  0.3184004E+02  0.7546771E-02  0.1404253E+00
          2   -1    0    0  502    0  0.00000000000E+00  0.00000000000E+00  0.58434924886E+03  0.58434924886E+03  0.00000000000E+00 0.  1.
         -2   -1    0    0    0  501 -0.00000000000E+00 -0.00000000000E+00 -0.83533627716E+01  0.83533627716E+01  0.00000000000E+00 0. -1.
         21    1    1    2  502  503 -0.31837187211E+02  0.42584935309E+00  0.55178575218E+03  0.55270363138E+03  0.00000000000E+00 0.  1.
         21    1    1    2  503  501  0.31837187211E+02 -0.42584935309E+00  0.24210133916E+02  0.39998980254E+02  0.00000000000E+00 0. -1.
</event>
<event>
 4    1  0.5967370E+002  0.2027682E+02  0.7546771E-02  0.1529845E+00
          2   -1    0    0  502    0  0.00000000000E+00  0.00000000000E+00  0.27954836502E+03  0.27954836502E+03  0.00000000000E+00 0.  1.
         -2   -1    0    0    0  501 -0.00000000000E+00 -0.00000000000E+00 -0.14729260460E+01  0.14729260460E+01  0.00000000000E+00 0. -1.
         21    1    1    2  502  503  0.15040105553E+02 -0.13599440742E+02  0.14442153313E+03  0.14583802247E+03  0.00000000000E+00 0.  1.
         21    1    1    2  503  501 -0.15040105553E+02  0.13599440742E+02  0.13365390584E+03  0.13518326860E+03  0.00000000000E+00 0. -1.
</event>
<event>
 4    1  0.5967370E+002  0.2557718E+02  0.7546771E-02  0.1462449E+00
          2   -1    0    0  503    0  0.00000000000E+00  0.00000000000E+00  0.49855969584E+03  0.49855969584E+03  0.00000000000E+00 0.  1.
         -2   -1    0    0    0  501 -0.00000000000E+00 -0.00000000000E+00 -0.34124936769E+01  0.34124936769E+01  0.00000000000E+00 0. -1.
         21    1    1    2  502  501 -0.89420914452E+01 -0.23963119794E+02  0.50668275341E+02  0.56757961871E+02  0.00000000000E+00 0. -1.
         21    1    1    2  503  502  0.89420914452E+01  0.23963119794E+02  0.44447892682E+03  0.44521422765E+03  0.00000000000E+00 0.  1.
</event>
<event>
 4    1  0.5967370E+002  0.2425763E+02  0.7546771E-02  0.1477282E+00
          2   -1    0    0  503    0  0.00000000000E+00  0.00000000000E+00  0.12913003019E+03  0.12913003019E+03  0.00000000000E+00 0. -1.
         -2   -1    0    0    0  501 -0.00000000000E+00 -0.00000000000E+00 -0.75399697092E+01  0.75399697092E+01  0.00000000000E+00 0.  1.
         21    1    1    2  502  501  0.64506937863E+01  0.23384204641E+02  0.17812677120E+02  0.30095247850E+02  0.00000000000E+00 0.  1.
         21    1    1    2  503  502 -0.64506937863E+01 -0.23384204641E+02  0.10377738336E+03  0.10657475205E+03  0.00000000000E+00 0. -1.
</event>
<event>
 4    1  0.5967370E+002  0.3291492E+02  0.7546771E-02  0.1395846E+00
          2   -1    0    0  503    0  0.00000000000E+00  0.00000000000E+00  0.15349529765E+04  0.15349529765E+04  0.00000000000E+00 0. -1.
         -2   -1    0    0    0  501 -0.00000000000E+00 -0.00000000000E+00 -0.45635068535E+01  0.45635068535E+01  0.00000000000E+00 0.  1.
         21    1    1    2  502  501 -0.62697103567E+00 -0.32908949500E+02  0.57462804706E+02  0.66222095818E+02  0.00000000000E+00 0.  1.
         21    1    1    2  503  502  0.62697103567E+00  0.32908949500E+02  0.14729266649E+04  0.14732943875E+04  0.00000000000E+00 0. -1.
</event>
<event>
 4    1  0.5967370E+002  0.2660977E+02  0.7546771E-02  0.1451568E+00
          2   -1    0    0  502    0  0.00000000000E+00  0.00000000000E+00  0.13454696678E+03  0.13454696678E+03  0.00000000000E+00 0.  1.
         -2   -1    0    0    0  501 -0.00000000000E+00 -0.00000000000E+00 -0.13453810516E+02  0.13453810516E+02  0.00000000000E+00 0. -1.
         21    1    1    2  502  503 -0.20850966285E+02  0.16532310600E+02  0.11828737670E+03  0.12124348880E+03  0.00000000000E+00 0.  1.
         21    1    1    2  503  501  0.20850966285E+02 -0.16532310600E+02  0.28057795604E+01  0.26757288497E+02  0.00000000000E+00 0. -1.
</event>
<event>
 4    1  0.5967370E+002  0.2297800E+02  0.7546771E-02  0.1492775E+00
          2   -1    0    0  503    0  0.00000000000E+00  0.00000000000E+00  0.52867181777E+02  0.52867181777E+02  0.00000000000E+00 0. -1.
         -2   -1    0    0    0  501 -0.00000000000E+00 -0.00000000000E+00 -0.42501280855E+02  0.42501280855E+02  0.00000000000E+00 0.  1.
         21    1    1    2  502  501 -0.22312353099E+02 -0.54906626134E+01 -0.36524184414E+02  0.43150950440E+02  0.00000000000E+00 0.  1.
         21    1    1    2  503  502  0.22312353099E+02  0.54906626134E+01  0.46890085336E+02  0.52217512193E+02  0.00000000000E+00 0. -1.
</event>
<event>
 4    1  0.5967370E+002  0.2276959E+02  0.7546771E-02  0.1495412E+00
          2   -1    0    0  503    0  0.00000000000E+00  0.00000000000E+00  0.57204789116E+03  0.57204789116E+03  0.00000000000E+00 0. -1.
         -2   -1    0    0    0  501 -0.00000000000E+00 -0.00000000000E+00 -0.14539926897E+01  0.14539926897E+01  0.00000000000E+00 0.  1.
         21    1    1    2  502  501 -0.17410112093E+02  0.14674548993E+02  0.10930731302E+03  0.11165367468E+03  0.00000000000E+00 0.  1.
         21    1    1    2  503  502  0.17410112093E+02 -0.14674548993E+02  0.46128658546E+03  0.46184820917E+03  0.00000000000E+00 0. -1.
</event>
<event>
 4    1  0.5967370E+002  0.2384460E+02  0.7546771E-02  0.1482156E+00
          2   -1    0    0  502    0  0.00000000000E+00  0.00000000000E+00  0.11043495481E+02  0.11043495481E+02  0.00000000000E+00 0.  1.
         -2   -1    0    0    0  501 -0.00000000000E+00 -0.00000000000E+00 -0.56798600207E+02  0.56798600207E+02  0.00000000000E+00 0. -1.
         21    1    1    2  502  503  0.22509403020E+02 -0.78671147265E+01 -0.12501537763E+02  0.26923097238E+02  0.00000000000E+00 0.  1.
         21    1    1    2  503  501 -0.22509403020E+02  0.78671147265E+01 -0.33253566962E+02  0.40918998450E+02  0.00000000000E+00 0. -1.
</event>
<event>
 4    1  0.5967370E+002  0.2560763E+02  0.7546771E-02  0.1462119E+00
          2   -1    0    0  502    0  0.00000000000E+00  0.00000000000E+00  0.61365705863E+02  0.61365705863E+02  0.00000000000E+00 0. -1.
         -2   -1    0    0    0  501 -0.00000000000E+00 -0.00000000000E+00 -0.21965867034E+02  0.21965867034E+02  0.00000000000E+00 0.  1.
         21    1    1    2  502  503  0.53806541251E+00 -0.25601979449E+02  0.49557757640E+02  0.55782812840E+02  0.00000000000E+00 0. -1.
         21    1    1    2  503  501 -0.53806541251E+00  0.25601979449E+02 -0.10157918811E+02  0.27548760057E+02  0.00000000000E+00 0.  1.
</event>
<event>
 4    1  0.5967370E+002  0.2617226E+02  0.7546771E-02  0.1456105E+00
          2   -1    0    0  502    0  0.00000000000E+00  0.00000000000E+00  0.28245022393E+03  0.28245022393E+03  0.00000000000E+00 0. -1.
         -2   -1    0    0    0  501 -0.00000000000E+00 -0.00000000000E+00 -0.12261989756E+02  0.12261989756E+02  0.00000000000E+00 0.  1.
         21    1    1    2  502  503 -0.23265422260E+02  0.11987809483E+02  0.26707626921E+03  0.26835558691E+03  0.00000000000E+00 0. -1.
         21    1    1    2  503  501  0.23265422260E+02 -0.11987809483E+02  0.31119649610E+01  0.26356626776E+02  0.00000000000E+00 0.  1.
</event>
<event>
 4    1  0.5967370E+002  0.3184868E+02  0.7546771E-02  0.1404184E+00
          2   -1    0    0  503    0  0.00000000000E+00  0.00000000000E+00  0.82870629727E+01  0.82870629727E+01  0.00000000000E+00 0.  1.
         -2   -1    0    0    0  501 -0.00000000000E+00 -0.00000000000E+00 -0.22703810288E+03  0.22703810288E+03  0.00000000000E+00 0. -1.
         21    1    1    2  502  501  0.21190212155E+02  0.23776314948E+02 -0.18925468140E+03  0.19191579580E+03  0.00000000000E+00 0. -1.
         21    1    1    2  503  502 -0.21190212155E+02 -0.23776314948E+02 -0.29496358509E+02  0.43409370060E+02  0.00000000000E+00 0.  1.
</event>
<event>
 4    1  0.5967370E+002  0.3892548E+02  0.7546771E-02  0.1354900E+00
          2   -1    0    0  502    0  0.00000000000E+00  0.00000000000E+00  0.24199882181E+03  0.24199882181E+03  0.00000000000E+00 0. -1.
         -2   -1    0    0    0  501 -0.00000000000E+00 -0.00000000000E+00 -0.11490825337E+02  0.11490825337E+02  0.00000000000E+00 0.  1.
         21    1    1    2  502  503 -0.12897811246E+02  0.36726555031E+02  0.20075900827E+03  0.20449785520E+03  0.00000000000E+00 0. -1.
         21    1    1    2  503  501  0.12897811246E+02 -0.36726555031E+02  0.29748988209E+02  0.48991791954E+02  0.00000000000E+00 0.  1.
</event>
<event>
 4    1  0.5967370E+002  0.2314849E+02  0.7546771E-02  0.1490642E+00
          2   -1    0    0  502    0  0.00000000000E+00  0.00000000000E+00  0.18463327489E+02  0.18463327489E+02  0.00000000000E+00 0.  1.
         -2   -1    0    0    0  501 -0.00000000000E+00 -0.00000000000E+00 -0.47163006050E+02  0.47163006050E+02  0.00000000000E+00 0. -1.
         21    1    1    2  502  503 -0.22721098715E+02 -0.44276453844E+01  0.60005075355E+01  0.23913562285E+02  0.00000000000E+00 0.  1.
         21    1    1    2  503  501  0.22721098715E+02  0.44276453844E+01 -0.34700186097E+02  0.41712771253E+02  0.00000000000E+00 0. -1.
</event>
<event>
 4    1  0.5967370E+002  0.8058682E+02  0.7546771E-02  0.1202492E+00
          2   -1    0    0  503    0  0.00000000000E+00  0.00000000000E+00  0.96138681984E+03  0.96138681984E+03  0.00000000000E+00 0. -1.
         -2   -1    0    0    0  501 -0.00000000000E+00 -0.00000000000E+00 -0.20817093653E+02  0.20817093653E+02  0.00000000000E+00 0.  1.
         21    1    1    2  502  501 -0.76208725768E+02  0.26200491404E+02  0.66652925545E+02  0.10457938667E+03  0.00000000000E+00 0.  1.
         21    1    1    2  503  502  0.76208725768E+02 -0.26200491404E+02  0.87391680064E+03  0.87762452682E+03  0.00000000000E+00 0. -1.
</event>
<event>
 4    1  0.5967370E+002  0.7297594E+02  0.7546771E-02  0.1221166E+00
          2   -1    0    0  502    0  0.00000000000E+00  0.00000000000E+00  0.34313534320E+04  0.34313534320E+04  0.00000000000E+00 0.  1.
         -2   -1    0    0    0  501 -0.00000000000E+00 -0.00000000000E+00 -0.19373805696E+01  0.19373805696E+01  0.00000000000E+00 0. -1.
         21    1    1    2  502  503 -0.63484132571E+02  0.35989615411E+02  0.24803286124E+04  0.24814019249E+04  0.00000000000E+00 0.  1.
         21    1    1    2  503  501  0.63484132571E+02 -0.35989615411E+02  0.94908743900E+03  0.95188888762E+03  0.00000000000E+00 0. -1.
</event>
<event>
 4    1  0.5967370E+002  0.2678927E+02  0.7546771E-02  0.1449737E+00
          2   -1    0    0  502    0  0.00000000000E+00  0.00000000000E+00  0.20860751953E+03  0.20860751953E+03  0.00000000000E+00 0. -1.
         -2   -1    0    0    0  501 -0.00000000000E+00 -0.00000000000E+00 -0.36344283535E+02  0.36344283535E+02  0.00000000000E+00 0.  1.
         21    1    1    2  502  503 -0.18890773932E+02  0.18994828754E+02  0.20266680266E+03  0.20442968904E+03  0.00000000000E+00 0. -1.
         21    1    1    2  503  501  0.18890773932E+02 -0.18994828754E+02 -0.30403566667E+02  0.40522114027E+02  0.00000000000E+00 0.  1.
</event>
<event>
 4    1  0.5967370E+002  0.4289553E+02  0.7546771E-02  0.1332305E+00
          2   -1    0    0  503    0  0.00000000000E+00  0.00000000000E+00  0.55675985248E+02  0.55675985248E+02  0.00000000000E+00 0. -1.
         -2   -1    0    0    0  501 -0.00000000000E+00 -0.00000000000E+00 -0.45330520716E+02  0.45330520716E+02  0.00000000000E+00 0.  1.
         21    1    1    2  502  501 -0.31165638480E+02  0.29474210752E+02 -0.21114998177E+02  0.47810765203E+02  0.00000000000E+00 0.  1.
         21    1    1    2  503  502  0.31165638480E+02 -0.29474210752E+02  0.31460462708E+02  0.53195740761E+02  0.00000000000E+00 0. -1.
</event>
<event>
 4    1  0.5967370E+002  0.2214951E+02  0.7546771E-02  0.1503463E+00
          2   -1    0    0  502    0  0.00000000000E+00  0.00000000000E+00  0.10969378395E+04  0.10969378395E+04  0.00000000000E+00 0.  1.
         -2   -1    0    0    0  501 -0.00000000000E+00 -0.00000000000E+00 -0.12879751359E+01  0.12879751359E+01  0.00000000000E+00 0. -1.
         21    1    1    2  502  503  0.54550495099E+01 -0.21467257650E+02  0.99147039374E+03  0.99171777355E+03  0.00000000000E+00 0.  1.
         21    1    1    2  503  501 -0.54550495099E+01  0.21467257650E+02  0.10417947066E+03  0.10650804112E+03  0.00000000000E+00 0. -1.
</event>
<event>
 4    1  0.5967370E+002  0.2057565E+02  0.7546771E-02  0.1525410E+00
          2   -1    0    0  503    0  0.00000000000E+00  0.00000000000E+00  0.78913612322E+03  0.78913612322E+03  0.00000000000E+00 0.  1.
         -2   -1    0    0    0  501 -0.00000000000E+00 -0.00000000000E+00 -0.73366833486E+00  0.73366833486E+00  0.00000000000E+00 0. -1.
         21    1    1    2  502  501 -0.12965655862E+02 -0.15976524826E+02  0.18945605183E+03  0.19057007413E+03  0.00000000000E+00 0. -1.
         21    1    1    2  503  502  0.12965655862E+02  0.15976524826E+02  0.59894640305E+03  0.59929971743E+03  0.00000000000E+00 0.  1.
</event>
<event>
 4    1  0.5967370E+002  0.2373280E+02  0.7546771E-02  0.1483496E+00
          2   -1    0    0  503    0  0.00000000000E+00  0.00000000000E+00  0.23792890292E+01  0.23792890292E+01  0.00000000000E+00 0.  1.
         -2   -1    0    0    0  501 -0.00000000000E+00 -0.00000000000E+00 -0.44673916740E+03  0.44673916740E+03  0.00000000000E+00 0. -1.
         21    1    1    2  502  501 -0.20897261029E+02  0.11249465827E+02 -0.37614577434E+03  0.37689373775E+03  0.00000000000E+00 0. -1.
         21    1    1    2  503  502  0.20897261029E+02 -0.11249465827E+02 -0.68214104037E+02  0.72224718688E+02  0.00000000000E+00 0.  1.
</event>
<event>
 4    1  0.5967370E+002  0.2013951E+02  0.7546771E-02  0.1531914E+00
          2   -1    0    0  503    0  0.00000000000E+00  0.00000000000E+00  0.28994192810E+03  0.28994192810E+03  0.00000000000E+00 0. -1.
         -2   -1    0    0    0  501 -0.00000000000E+00 -0.00000000000E+00 -0.20639837663E+02  0.20639837663E+02  0.00000000000E+00 0.  1.
         21    1    1    2  502  501  0.14245438297E+02  0.14236130927E+02 -0.15284958068E+02  0.25282995851E+02  0.00000000000E+00 0.  1.
         21    1    1    2  503  502 -0.14245438297E+02 -0.14236130927E+02  0.28458704850E+03  0.28529876991E+03  0.00000000000E+00 0. -1.
</event>
<event>
 4    1  0.5967370E+002  0.2345668E+02  0.7546771E-02  0.1486842E+00
          2   -1    0    0  503    0  0.00000000000E+00  0.00000000000E+00  0.12526626010E+04  0.12526626010E+04  0.00000000000E+00 0.  1.
         -2   -1    0    0    0  501 -0.00000000000E+00 -0.00000000000E+00 -0.15557389758E+01  0.15557389758E+01  0.00000000000E+00 0. -1.
         21    1    1    2  502  501 -0.17495842994E+02 -0.15624054664E+02  0.94296563042E+02  0.97170249602E+02  0.00000000000E+00 0. -1.
         21    1    1    2  503  502  0.17495842994E+02  0.15624054664E+02  0.11568102990E+04  0.11570480904E+04  0.00000000000E+00 0.  1.
</event>
<event>
 4    1  0.5967370E+002  0.3438719E+02  0.7546771E-02  0.1384923E+00
          2   -1    0    0  502    0  0.00000000000E+00  0.00000000000E+00  0.51961794102E+02  0.51961794102E+02  0.00000000000E+00 0. -1.
         -2   -1    0    0    0  501 -0.00000000000E+00 -0.00000000000E+00 -0.43980672685E+02  0.43980672685E+02  0.00000000000E+00 0.  1.
         21    1    1    2  502  503  0.76032957797E+00  0.34378787293E+02  0.37315031329E+02  0.50743380651E+02  0.00000000000E+00 0. -1.
         21    1    1    2  503  501 -0.76032957797E+00 -0.34378787293E+02 -0.29333909912E+02  0.45199086136E+02  0.00000000000E+00 0.  1.
</event>
<event>
 4    1  0.5967370E+002  0.9995309E+02  0.7546771E-02  0.1163889E+00
          2   -1    0    0  502    0  0.00000000000E+00  0.00000000000E+00  0.17271857406E+04  0.17271857406E+04  0.00000000000E+00 0. -1.
         -2   -1    0    0    0  501 -0.00000000000E+00 -0.00000000000E+00 -0.60169465673E+01  0.60169465673E+01  0.00000000000E+00 0.  1.
         21    1    1    2  502  503 -0.21282510930E+02 -0.97661022462E+02  0.10309755824E+04  0.10358094768E+04  0.00000000000E+00 0. -1.
         21    1    1    2  503  501  0.21282510930E+02  0.97661022462E+02  0.69019321163E+03  0.69739321043E+03  0.00000000000E+00 0.  1.
</event>
<event>
 4    1  0.5967370E+002  0.2012161E+02  0.7546771E-02  0.1532185E+00
          2   -1    0    0  503    0  0.00000000000E+00  0.00000000000E+00  0.78384482880E+01  0.78384482880E+01  0.00000000000E+00 0. -1.
         -2   -1    0    0    0  501 -0.00000000000E+00 -0.00000000000E+00 -0.61940955076E+02  0.61940955076E+02  0.00000000000E+00 0.  1.
         21    1    1    2  502  501  0.51183610920E+01  0.19459741089E+02 -0.41270397159E+02  0.45914320481E+02  0.00000000000E+00 0.  1.
         21    1    1    2  503  502 -0.51183610920E+01 -0.19459741089E+02 -0.12832109629E+02  0.23865082884E+02  0.00000000000E+00 0. -1.
</event>
<event>
 4    1  0.5967370E+002  0.2551035E+02  0.7546771E-02  0.1463174E+00
          2   -1    0    0  503    0  0.00000000000E+00  0.00000000000E+00  0.10455672294E+02  0.10455672294E+02  0.00000000000E+00 0.  1.
         -2   -1    0    0    0  501 -0.00000000000E+00 -0.00000000000E+00 -0.20613614095E+03  0.20613614095E+03  0.00000000000E+00 0. -1.
         21    1    1    2  502  501  0.24513854614E+02 -0.70603814089E+01 -0.18832117128E+03  0.19004115766E+03  0.00000000000E+00 0. -1.
         21    1    1    2  503  502 -0.24513854614E+02  0.70603814089E+01 -0.73592973700E+01  0.26550655574E+02  0.00000000000E+00 0.  1.
</event>
<event>
 4    1  0.5967370E+002  0.3343664E+02  0.7546771E-02  0.1391900E+00
          2   -1    0    0  502    0  0.00000000000E+00  0.00000000000E+00  0.13757636586E+04  0.13757636586E+04  0.00000000000E+00 0.  1.
         -2   -1    0    0    0  501 -0.00000000000E+00 -0.00000000000E+00 -0.18156043540E+01  0.18156043540E+01  0.00000000000E+00 0. -1.
         21    1    1    2  502  503 -0.21748931972E+02 -0.25396703748E+02  0.11989121593E+04  0.11993783282E+04  0.00000000000E+00 0.  1.
         21    1    1    2  503  501  0.21748931972E+02  0.25396703748E+02  0.17503589495E+03  0.17820093469E+03  0.00000000000E+00 0. -1.
</event>
<event>
 4    1  0.5967370E+002  0.2990668E+02  0.7546771E-02  0.1420409E+00
          2   -1    0    0  502    0  0.00000000000E+00  0.00000000000E+00  0.19620392623E+04  0.19620392623E+04  0.00000000000E+00 0.  1.
         -2   -1    0    0    0  501 -0.00000000000E+00 -0.00000000000E+00 -0.12623010249E+01  0.12623010249E+01  0.00000000000E+00 0. -1.
         21    1    1    2  502  503 -0.10056268636E+01 -0.29889768676E+02  0.17650143678E+04  0.17652677213E+04  0.00000000000E+00 0.  1.
         21    1    1    2  503  501  0.10056268636E+01  0.29889768676E+02  0.19576259349E+03  0.19803384197E+03  0.00000000000E+00 0. -1.
</event>
<event>
 4    1  0.5967370E+002  0.2919056E+02  0.7546771E-02  0.1426763E+00
          2   -1    0    0  503    0  0.00000000000E+00  0.00000000000E+00  0.75661197973E+03  0.75661197973E+03  0.00000000000E+00 0.  1.
         -2   -1    0    0    0  501 -0.00000000000E+00 -0.00000000000E+00 -0.16989569313E+01  0.16989569313E+01  0.00000000000E+00 0. -1.
         21    1    1    2  502  501 -0.23290215923E+02  0.17597006259E+02  0.15730831265E+03  0.15999373118E+03  0.00000000000E+00 0. -1.
         21    1    1    2  503  502  0.23290215923E+02 -0.17597006259E+02  0.59760471014E+03  0.59831720548E+03  0.00000000000E+00 0.  1.
</event>
<event>
 4    1  0.5967370E+002  0.2590189E+02  0.7546771E-02  0.1458962E+00
          2   -1    0    0  503    0  0.00000000000E+00  0.00000000000E+00  0.89970848858E+02  0.89970848858E+02  0.00000000000E+00 0. -1.
         -2   -1    0    0    0  501 -0.00000000000E+00 -0.00000000000E+00 -0.77966907420E+01  0.77966907420E+01  0.00000000000E+00 0.  1.
         21    1    1    2  502  501  0.78518256632E+01 -0.24683129749E+02  0.30882765743E+02  0.40306987985E+02  0.00000000000E+00 0.  1.
         21    1    1    2  503  502 -0.78518256632E+01  0.24683129749E+02  0.51291392373E+02  0.57460551616E+02  0.00000000000E+00 0. -1.
</event>
<event>
 4    1  0.5967370E+002  0.3746182E+02  0.7546771E-02  0.1364038E+00
          2   -1    0    0  502    0  0.00000000000E+00  0.00000000000E+00  0.17312705367E+04  0.17312705367E+04  0.00000000000E+00 0.  1.
         -2   -1    0    0    0  501 -0.00000000000E+00 -0.00000000000E+00 -0.13644393658E+01  0.13644393658E+01  0.00000000000E+00 0. -1.
         21    1    1    2  502  503  0.24115371188E+02  0.28667698785E+02  0.14168872424E+04  0.14173823922E+04  0.00000000000E+00 0.  1.
         21    1    1    2  503  501 -0.24115371188E+02 -0.28667698785E+02  0.31301885492E+03  0.31525258384E+03  0.00000000000E+00 0. -1.
</event>
<event>
 4    1  0.5967370E+002  0.2131743E+02  0.7546771E-02  0.1514781E+00
          2   -1    0    0  503    0  0.00000000000E+00  0.00000000000E+00  0.17241517699E+03  0.17241517699E+03  0.00000000000E+00 0.  1.
         -2   -1    0    0    0  501 -0.00000000000E+00 -0.00000000000E+00 -0.48099452951E+01  0.48099452951E+01  0.00000000000E+00 0. -1.
         21    1    1    2  502  501  0.76525585202E+01 -0.19896514258E+02  0.24225358849E+02  0.32269194953E+02  0.00000000000E+00 0. -1.
         21    1    1    2  503  502 -0.76525585202E+01  0.19896514258E+02  0.14337987284E+03  0.14495592733E+03  0.00000000000E+00 0.  1.
</event>
<event>
 4    1  0.5967370E+002  0.2413578E+02  0.7546771E-02  0.1478708E+00
          2   -1    0    0  503    0  0.00000000000E+00  0.00000000000E+00  0.65303572076E+02  0.65303572076E+02  0.00000000000E+00 0.  1.
         -2   -1    0    0    0  501 -0.00000000000E+00 -0.00000000000E+00 -0.17960871893E+02  0.17960871893E+02  0.00000000000E+00 0. -1.
         21    1    1    2  502  501  0.10342946721E+02 -0.21807320945E+02 -0.58652679985E+01  0.24838219791E+02  0.00000000000E+00 0. -1.
         21    1    1    2  503  502 -0.10342946721E+02  0.21807320945E+02  0.53207968181E+02  0.58426224178E+02  0.00000000000E+00 0.  1.
</event>
<event>
 4    1  0.5967370E+002  0.2689536E+02  0.7546771E-02  0.1448662E+00
          2   -1    0    0  503    0  0.00000000000E+00  0.00000000000E+00  0.48642236101E+03  0.48642236101E+03  0.00000000000E+00 0.  1.
         -2   -1    0    0    0  501 -0.00000000000E+00 -0.00000000000E+00 -0.22980749721E+01  0.22980749721E+01  0.00000000000E+00 0. -1.
         21    1    1    2  502  501  0.24346672781E+02 -0.11428040159E+02  0.96900760465E+02  0.10056399930E+03  0.00000000000E+00 0.  1.
         21    1    1    2  503  502 -0.24346672781E+02  0.11428040159E+02  0.38722352558E+03  0.38815643668E+03  0.00000000000E+00 0. -1.
</event>
<event>
 4    1  0.5967370E+002  0.3836876E+02  0.7546771E-02  0.1358319E+00
          2   -1    0    0  503    0  0.00000000000E+00  0.00000000000E+00  0.24482177704E+04  0.24482177704E+04  0.00000000000E+00 0. -1.
         -2   -1    0    0    0  501 -0.00000000000E+00 -0.00000000000E+00 -0.68298287357E+00  0.68298287357E+00  0.00000000000E+00 0.  1.
         21    1    1    2  502  501  0.37773739648E+02 -0.67309751377E+01  0.80036865186E+03  0.80128780118E+03  0.00000000000E+00 0. -1.
         21    1    1    2  503  502 -0.37773739648E+02  0.67309751377E+01  0.16471661356E+04  0.16476129521E+04  0.00000000000E+00 0.  1.
</event>
<event>
 4    1  0.5967370E+002  0.2303583E+02  0.7546771E-02  0.1492049E+00
          2   -1    0    0  503    0  0.00000000000E+00  0.00000000000E+00  0.43044782742E+03  0.43044782742E+03  0.00000000000E+00 0.  1.
         -2   -1    0    0    0  501 -0.00000000000E+00 -0.00000000000E+00 -0.22926825689E+01  0.22926825689E+01  0.00000000000E+00 0. -1.
         21    1    1    2  502  501 -0.16027147402E+02  0.16546295860E+02  0.66962331883E+02  0.70813863414E+02  0.00000000000E+00 0. -1.
         21    1    1    2  503  502  0.16027147402E+02 -0.16546295860E+02  0.36119281297E+03  0.36192664658E+03  0.00000000000E+00 0.  1.
</event>
<event>
 4    1  0.5967370E+002  0.2126143E+02  0.7546771E-02  0.1515565E+00
          2   -1    0    0  502    0  0.00000000000E+00  0.00000000000E+00  0.16222005776E+03  0.16222005776E+03  0.00000000000E+00 0. -1.
         -2   -1    0    0    0  501 -0.00000000000E+00 -0.00000000000E+00 -0.48684511479E+01  0.48684511479E+01  0.00000000000E+00 0.  1.
         21    1    1    2  502  503 -0.21226618102E+02  0.12162480479E+01  0.13330716862E+03  0.13499203599E+03  0.00000000000E+00 0. -1.
         21    1    1    2  503  501  0.21226618102E+02 -0.12162480479E+01  0.24044437990E+02  0.32096472915E+02  0.00000000000E+00 0.  1.
</event>
<event>
 4    1  0.5967370E+002  0.2237773E+02  0.7546771E-02  0.1500463E+00
          2   -1    0    0  502    0  0.00000000000E+00  0.00000000000E+00  0.91806697478E+02  0.91806697478E+02  0.00000000000E+00 0. -1.
         -2   -1    0    0    0  501 -0.00000000000E+00 -0.00000000000E+00 -0.17161500387E+02  0.17161500387E+02  0.00000000000E+00 0.  1.
         21    1    1    2  502  503 -0.15945188322E+02 -0.15700750295E+02  0.82322790274E+02  0.85310048581E+02  0.00000000000E+00 0. -1.
         21    1    1    2  503  501  0.15945188322E+02  0.15700750295E+02 -0.76775931826E+01  0.23658149283E+02  0.00000000000E+00 0.  1.
</event>
<event>
 4    1  0.5967370E+002  0.2770966E+02  0.7546771E-02  0.1440607E+00
          2   -1    0    0  503    0  0.00000000000E+00  0.00000000000E+00  0.51672433367E+02  0.51672433367E+02  0.00000000000E+00 0. -1.
         -2   -1    0    0    0  501 -0.00000000000E+00 -0.00000000000E+00 -0.17455682838E+02  0.17455682838E+02  0.00000000000E+00 0.  1.
         21    1    1    2  502  501 -0.16782400589E+02 -0.22049409996E+02  0.37785124663E+01  0.27966097460E+02  0.00000000000E+00 0.  1.
         21    1    1    2  503  502  0.16782400589E+02  0.22049409996E+02  0.30438238063E+02  0.41162018744E+02  0.00000000000E+00 0. -1.
</event>
<event>
 4    1  0.5967370E+002  0.2036507E+02  0.7546771E-02  0.1528526E+00
          2   -1    0    0  503    0  0.00000000000E+00  0.00000000000E+00  0.13688064039E+04  0.13688064039E+04  0.00000000000E+00 0.  1.
         -2   -1    0    0    0  501 -0.00000000000E+00 -0.00000000000E+00 -0.63489963061E+00  0.63489963061E+00  0.00000000000E+00 0. -1.
         21    1    1    2  502  501 -0.10815025241E+02  0.17256050760E+02  0.18901172319E+03  0.19010567473E+03  0.00000000000E+00 0. -1.
         21    1    1    2  503  502  0.10815025241E+02 -0.17256050760E+02  0.11791597811E+04  0.11793356288E+04  0.00000000000E+00 0.  1.
</event>
<event>
 4    1  0.5967370E+002  0.4049278E+02  0.7546771E-02  0.1345622E+00
          2   -1    0    0  503    0  0.00000000000E+00  0.00000000000E+00  0.80054648591E+01  0.80054648591E+01  0.00000000000E+00 0. -1.
         -2   -1    0    0    0  501 -0.00000000000E+00 -0.00000000000E+00 -0.30143667256E+03  0.30143667256E+03  0.00000000000E+00 0.  1.
         21    1    1    2  502  501 -0.26460701031E+02  0.30651207938E+02 -0.23431102399E+03  0.23778419041E+03  0.00000000000E+00 0.  1.
         21    1    1    2  503  502  0.26460701031E+02 -0.30651207938E+02 -0.59120183710E+02  0.71657947005E+02  0.00000000000E+00 0. -1.
</event>
<event>
 4    1  0.5967370E+002  0.2289660E+02  0.7546771E-02  0.1493801E+00
          2   -1    0    0  502    0  0.00000000000E+00  0.00000000000E+00  0.99317906595E+03  0.99317906595E+03  0.00000000000E+00 0. -1.
         -2   -1    0    0    0  501 -0.00000000000E+00 -0.00000000000E+00 -0.12027253898E+01  0.12027253898E+01  0.00000000000E+00 0.  1.
         21    1    1    2  502  503  0.63634116235E+01  0.21994571937E+02  0.86842294328E+03  0.86872473351E+03  0.00000000000E+00 0. -1.
         21    1    1    2  503  501 -0.63634116235E+01 -0.21994571937E+02  0.12355339728E+03  0.12565705782E+03  0.00000000000E+00 0.  1.
</event>
<event>
 4    1  0.5967370E+002  0.3025296E+02  0.7546771E-02  0.1417411E+00
          2   -1    0    0  502    0  0.00000000000E+00  0.00000000000E+00  0.14326453007E+03  0.14326453007E+03  0.00000000000E+00 0.  1.
         -2   -1    0    0    0  501 -0.00000000000E+00 -0.00000000000E+00 -0.72662378240E+01  0.72662378240E+01  0.00000000000E+00 0. -1.
         21    1    1    2  502  503 -0.29529225673E+02 -0.65777325352E+01  0.94158637843E+02  0.98899397443E+02  0.00000000000E+00 0.  1.
         21    1    1    2  503  501  0.29529225673E+02  0.65777325352E+01  0.41839654408E+02  0.51631370456E+02  0.00000000000E+00 0. -1.
</event>
<event>
 4    1  0.5967370E+002  0.2386219E+02  0.7546771E-02  0.1481946E+00
          2   -1    0    0  502    0  0.00000000000E+00  0.00000000000E+00  0.17075983425E+04  0.17075983425E+04  0.00000000000E+00 0.  1.
         -2   -1    0    0    0  501 -0.00000000000E+00 -0.00000000000E+00 -0.37109945994E+00  0.37109945994E+00  0.00000000000E+00 0. -1.
         21    1    1    2  502  503 -0.11591618708E+02  0.20857573000E+02  0.11256120435E+04  0.11258649459E+04  0.00000000000E+00 0.  1.
         21    1    1    2  503  501  0.11591618708E+02 -0.20857573000E+02  0.58161519961E+03  0.58210449611E+03  0.00000000000E+00 0. -1.
</event>
<event>
 4    1  0.5967370E+002  0.2038952E+02  0.7546771E-02  0.1528162E+00
          2   -1    0    0  503    0  0.00000000000E+00  0.00000000000E+00  0.76295009859E+01  0.76295009859E+01  0.00000000000E+00 0. -1.
         -2   -1    0    0    0  501 -0.00000000000E+00 -0.00000000000E+00 -0.10556392940E+03  0.10556392940E+03  0.00000000000E+00 0.  1.
         21    1    1    2  502  501  0.12909588138E+02  0.15782114231E+02 -0.88334228917E+02  0.90656872845E+02  0.00000000000E+00 0.  1.
         21    1    1    2  503  502 -0.12909588138E+02 -0.15782114231E+02 -0.96001994993E+01  0.22536557544E+02  0.00000000000E+00 0. -1.
</event>
<event>
 4    1  0.5967370E+002  0.2178387E+02  0.7546771E-02  0.1508361E+00
          2   -1    0    0  502    0  0.00000000000E+00  0.00000000000E+00  0.14995339598E+03  0.14995339598E+03  0.00000000000E+00 0.  1.
         -2   -1    0    0    0  501 -0.00000000000E+00 -0.00000000000E+00 -0.57974774649E+01  0.57974774649E+01  0.00000000000E+00 0. -1.
         21    1    1    2  502  503 -0.46627950267E+01 -0.21278993165E+02  0.12455860914E+03  0.12644913728E+03  0.00000000000E+00 0.  1.
         21    1    1    2  503  501  0.46627950267E+01  0.21278993165E+02  0.19597309372E+02  0.29301736164E+02  0.00000000000E+00 0. -1.
</event>
<event>
 4    1  0.5967370E+002  0.3119071E+02  0.7546771E-02  0.1409524E+00
          2   -1    0    0  502    0  0.00000000000E+00  0.00000000000E+00  0.15032867207E+04  0.15032867207E+04  0.00000000000E+00 0.  1.
         -2   -1    0    0    0  501 -0.00000000000E+00 -0.00000000000E+00 -0.71736195767E+00  0.71736195767E+00  0.00000000000E+00 0. -1.
         21    1    1    2  502  503 -0.12365879345E+02 -0.28634687135E+02  0.98653940639E+03  0.98703235035E+03  0.00000000000E+00 0.  1.
         21    1    1    2  503  501  0.12365879345E+02  0.28634687135E+02  0.51602995234E+03  0.51697173229E+03  0.00000000000E+00 0. -1.
</event>
<event>
 4    1  0.5967370E+002  0.2326837E+02  0.7546771E-02  0.1489155E+00
          2   -1    0    0  502    0  0.00000000000E+00  0.00000000000E+00  0.15389055922E+02  0.15389055922E+02  0.00000000000E+00 0.  1.
         -2   -1    0    0    0  501 -0.00000000000E+00 -0.00000000000E+00 -0.36056486571E+02  0.36056486571E+02  0.00000000000E+00 0. -1.
         21    1    1    2  502  503 -0.13629258090E+02 -0.18858957501E+02 -0.63276713085E+01  0.24113406608E+02  0.00000000000E+00 0. -1.
         21    1    1    2  503  501  0.13629258090E+02  0.18858957501E+02 -0.14339759341E+02  0.27332135885E+02  0.00000000000E+00 0.  1.
</event>
<event>
 4    1  0.5967370E+002  0.2204409E+02  0.7546771E-02  0.1504863E+00
          2   -1    0    0  503    0  0.00000000000E+00  0.00000000000E+00  0.52346117443E+03  0.52346117443E+03  0.00000000000E+00 0.  1.
         -2   -1    0    0    0  501 -0.00000000000E+00 -0.00000000000E+00 -0.10294718621E+01  0.10294718621E+01  0.00000000000E+00 0. -1.
         21    1    1    2  502  501  0.20678489870E+02 -0.76382032619E+01  0.17901492184E+03  0.18036708218E+03  0.00000000000E+00 0.  1.
         21    1    1    2  503  502 -0.20678489870E+02  0.76382032619E+01  0.34341678073E+03  0.34412356411E+03  0.00000000000E+00 0. -1.
</event>
<event>
 4    1  0.5967370E+002  0.3371992E+02  0.7546771E-02  0.1389793E+00
          2   -1    0    0  503    0  0.00000000000E+00  0.00000000000E+00  0.16892016305E+02  0.16892016305E+02  0.00000000000E+00 0.  1.
         -2   -1    0    0    0  501 -0.00000000000E+00 -0.00000000000E+00 -0.18202591938E+03  0.18202591938E+03  0.00000000000E+00 0. -1.
         21    1    1    2  502  501  0.29874683330E+02  0.15637660672E+02 -0.16152304354E+03  0.16500523243E+03  0.00000000000E+00 0. -1.
         21    1    1    2  503  502 -0.29874683330E+02 -0.15637660672E+02 -0.36108595335E+01  0.33912703253E+02  0.00000000000E+00 0.  1.
</event>
<event>
 4    1  0.5967370E+002  0.2125595E+02  0.7546771E-02  0.1515642E+00
          2   -1    0    0  503    0  0.00000000000E+00  0.00000000000E+00  0.15783173273E+01  0.15783173273E+01  0.00000000000E+00 0.  1.
         -2   -1    0    0    0  501 -0.00000000000E+00 -0.00000000000E+00 -0.29545878531E+03  0.29545878531E+03  0.00000000000E+00 0. -1.
         21    1    1    2  502  501  0.12390760386E+02  0.17270907868E+02 -0.12073992058E+03  0.12259667052E+03  0.00000000000E+00 0. -1.
         21    1    1    2  503  502 -0.12390760386E+02 -0.17270907868E+02 -0.17314054740E+03  0.17444043211E+03  0.00000000000E+00 0.  1.
</event>
<event>
 4    1  0.5967370E+002  0.2240237E+02  0.7546771E-02  0.1500142E+00
          2   -1    0    0  502    0  0.00000000000E+00  0.00000000000E+00  0.23051491165E+04  0.23051491165E+04  0.00000000000E+00 0.  1.
         -2   -1    0    0    0  501 -0.00000000000E+00 -0.00000000000E+00 -0.23678750956E+00  0.23678750956E+00  0.00000000000E+00 0. -1.
         21    1    1    2  502  503 -0.52602190659E+01 -0.21776052494E+02  0.14795964882E+04  0.14797660741E+04  0.00000000000E+00 0. -1.
         21    1    1    2  503  501  0.52602190659E+01  0.21776052494E+02  0.82531584082E+03  0.82561982987E+03  0.00000000000E+00 0.  1.
</event>
<event>
 4    1  0.5967370E+002  0.2750137E+02  0.7546771E-02  0.1442636E+00
          2   -1    0    0  503    0  0.00000000000E+00  0.00000000000E+00  0.33048384170E+03  0.33048384170E+03  0.00000000000E+00 0. -1.
         -2   -1    0    0    0  501 -0.00000000000E+00 -0.00000000000E+00 -0.57236853442E+01  0.57236853442E+01  0.00000000000E+00 0.  1.
         21    1    1    2  502  501 -0.49451031648E+01 -0.27053115933E+02  0.32149733662E+02  0.42307570263E+02  0.00000000000E+00 0.  1.
         21    1    1    2  503  502  0.49451031648E+01  0.27053115933E+02  0.29261042269E+03  0.29389995678E+03  0.00000000000E+00 0. -1.
</event>
<event>
 4    1  0.5967370E+002  0.2732669E+02  0.7546771E-02  0.1444354E+00
          2   -1    0    0  502    0  0.00000000000E+00  0.00000000000E+00  0.11518484663E+02  0.11518484663E+02  0.00000000000E+00 0. -1.
         -2   -1    0    0    0  501 -0.00000000000E+00 -0.00000000000E+00 -0.13780026338E+03  0.13780026338E+03  0.00000000000E+00 0.  1.
         21    1    1    2  502  503 -0.22701797213E+02  0.15211064087E+02 -0.88119706638E+01  0.28712347420E+02  0.00000000000E+00 0. -1.
         21    1    1    2  503  501  0.22701797213E+02 -0.15211064087E+02 -0.11746980805E+03  0.12060640062E+03  0.00000000000E+00 0.  1.
</event>
<event>
 4    1  0.5967370E+002  0.6229455E+02  0.7546771E-02  0.1252230E+00
          2   -1    0    0  503    0  0.00000000000E+00  0.00000000000E+00  0.76220474779E+02  0.76220474779E+02  0.00000000000E+00 0.  1.
         -2   -1    0    0    0  501 -0.00000000000E+00 -0.00000000000E+00 -0.71637046468E+02  0.71637046468E+02  0.00000000000E+00 0. -1.
         21    1    1    2  502  501  0.33680162060E+02 -0.52404745867E+02 -0.37471564630E+02  0.72696140625E+02  0.00000000000E+00 0. -1.
         21    1    1    2  503  502 -0.33680162060E+02  0.52404745867E+02  0.42054992941E+02  0.75161380623E+02  0.00000000000E+00 0.  1.
</event>
<event>
 4    1  0.5967370E+002  0.2599600E+02  0.7546771E-02  0.1457963E+00
          2   -1    0    0  502    0  0.00000000000E+00  0.00000000000E+00  0.45870425320E+02  0.45870425320E+02  0.00000000000E+00 0.  1.
         -2   -1    0    0    0  501 -0.00000000000E+00 -0.00000000000E+00 -0.19593359059E+02  0.19593359059E+02  0.00000000000E+00 0. -1.
         21    1    1    2  502  503  0.11466522656E+02 -0.23330472768E+02  0.29441523637E+02  0.39275888475E+02  0.00000000000E+00 0.  1.
         21    1    1    2  503  501 -0.11466522656E+02  0.23330472768E+02 -0.31644573759E+01  0.26187895904E+02  0.00000000000E+00 0. -1.
</event>
<event>
 4    1  0.5967370E+002  0.2042599E+02  0.7546771E-02  0.1527620E+00
          2   -1    0    0  502    0  0.00000000000E+00  0.00000000000E+00  0.31492792496E+03  0.31492792496E+03  0.00000000000E+00 0. -1.
         -2   -1    0    0    0  501 -0.00000000000E+00 -0.00000000000E+00 -0.14209812679E+01  0.14209812679E+01  0.00000000000E+00 0.  1.
         21    1    1    2  502  503 -0.15866170251E+02 -0.12864124906E+02  0.19790204413E+03  0.19895336172E+03  0.00000000000E+00 0.  1.
         21    1    1    2  503  501  0.15866170251E+02  0.12864124906E+02  0.11560489957E+03  0.11739554451E+03  0.00000000000E+00 0. -1.
</event>
<event>
 4    1  0.5967370E+002  0.4009886E+02  0.7546771E-02  0.1347907E+00
          2   -1    0    0  503    0  0.00000000000E+00  0.00000000000E+00  0.58443001010E+03  0.58443001010E+03  0.00000000000E+00 0. -1.
         -2   -1    0    0    0  501 -0.00000000000E+00 -0.00000000000E+00 -0.27517632698E+01  0.27517632698E+01  0.00000000000E+00 0.  1.
         21    1    1    2  502  501  0.17812304199E+02 -0.35925479229E+02  0.28686416830E+03  0.28965318796E+03  0.00000000000E+00 0. -1.
         21    1    1    2  503  502 -0.17812304199E+02  0.35925479229E+02  0.29481407853E+03  0.29752858542E+03  0.00000000000E+00 0.  1.
</event>
<event>
 4    1  0.5967370E+002  0.2026734E+02  0.7546771E-02  0.1529987E+00
          2   -1    0    0  503    0  0.00000000000E+00  0.00000000000E+00  0.33193626832E+03  0.33193626832E+03  0.00000000000E+00 0. -1.
         -2   -1    0    0    0  501 -0.00000000000E+00 -0.00000000000E+00 -0.20006707618E+01  0.20006707618E+01  0.00000000000E+00 0.  1.
         21    1    1    2  502  501 -0.45319882424E+01  0.19754145952E+02  0.61843121951E+02  0.65079466288E+02  0.00000000000E+00 0.  1.
         21    1    1    2  503  502  0.45319882424E+01 -0.19754145952E+02  0.26809247560E+03  0.26885747279E+03  0.00000000000E+00 0. -1.
</event>
<event>
 4    1  0.5967370E+002  0.2348379E+02  0.7546771E-02  0.1486511E+00
          2   -1    0    0  503    0  0.00000000000E+00  0.00000000000E+00  0.10495084788E+02  0.10495084788E+02  0.00000000000E+00 0. -1.
         -2   -1    0    0    0  501 -0.00000000000E+00 -0.00000000000E+00 -0.93360500938E+02  0.93360500938E+02  0.00000000000E+00 0.  1.
         21    1    1    2  502  501 -0.53127286842E+01  0.22874947095E+02 -0.75766252917E+02  0.79322212348E+02  0.00000000000E+00 0.  1.
         21    1    1    2  503  502  0.53127286842E+01 -0.22874947095E+02 -0.70991632326E+01  0.24533373378E+02  0.00000000000E+00 0. -1.
</event>
<event>
 4    1  0.5967370E+002  0.2081941E+02  0.7546771E-02  0.1521859E+00
          2   -1    0    0  503    0  0.00000000000E+00  0.00000000000E+00  0.95741833948E+01  0.95741833948E+01  0.00000000000E+00 0.  1.
         -2   -1    0    0    0  501 -0.00000000000E+00 -0.00000000000E+00 -0.49214174277E+02  0.49214174277E+02  0.00000000000E+00 0. -1.
         21    1    1    2  502  501  0.16665872316E+02  0.12477838205E+02 -0.11501331965E+02  0.23785045371E+02  0.00000000000E+00 0. -1.
         21    1    1    2  503  502 -0.16665872316E+02 -0.12477838205E+02 -0.28138658918E+02  0.35003312301E+02  0.00000000000E+00 0.  1.
</event>
<event>
 4    1  0.5967370E+002  0.2545203E+02  0.7546771E-02  0.1463810E+00
          2   -1    0    0  503    0  0.00000000000E+00  0.00000000000E+00  0.47266934590E+02  0.47266934590E+02  0.00000000000E+00 0.  1.
         -2   -1    0    0    0  501 -0.00000000000E+00 -0.00000000000E+00 -0.13827775520E+02  0.13827775520E+02  0.00000000000E+00 0. -1.
         21    1    1    2  502  501  0.24901255797E+02  0.52662268685E+01  0.19594930359E+02  0.32121129829E+02  0.00000000000E+00 0. -1.
         21    1    1    2  503  502 -0.24901255797E+02 -0.52662268685E+01  0.13844228710E+02  0.28973580281E+02  0.00000000000E+00 0.  1.
</event>
<event>
 4    1  0.5967370E+002  0.2063614E+02  0.7546771E-02  0.1524524E+00
          2   -1    0    0  502    0  0.00000000000E+00  0.00000000000E+00  0.11061216747E+02  0.11061216747E+02  0.00000000000E+00 0.  1.
         -2   -1    0    0    0  501 -0.00000000000E+00 -0.00000000000E+00 -0.58009460843E+02  0.58009460843E+02  0.00000000000E+00 0. -1.
         21    1    1    2  502  503  0.20037993385E+02  0.49324569055E+01 -0.34458484454E+01  0.20921858940E+02  0.00000000000E+00 0.  1.
         21    1    1    2  503  501 -0.20037993385E+02 -0.49324569055E+01 -0.43502395651E+02  0.48148818650E+02  0.00000000000E+00 0. -1.
</event>
<event>
 4    1  0.5967370E+002  0.2290070E+02  0.7546771E-02  0.1493749E+00
          2   -1    0    0  503    0  0.00000000000E+00  0.00000000000E+00  0.23655207897E+03  0.23655207897E+03  0.00000000000E+00 0. -1.
         -2   -1    0    0    0  501 -0.00000000000E+00 -0.00000000000E+00 -0.10976534987E+02  0.10976534987E+02  0.00000000000E+00 0.  1.
         21    1    1    2  502  501 -0.16302938332E+02 -0.16082796224E+02  0.22265932752E+01  0.23008690755E+02  0.00000000000E+00 0.  1.
         21    1    1    2  503  502  0.16302938332E+02  0.16082796224E+02  0.22334895070E+03  0.22451992320E+03  0.00000000000E+00 0. -1.
</event>
<event>
 4    1  0.5967370E+002  0.2556669E+02  0.7546771E-02  0.1462563E+00
          2   -1    0    0  502    0  0.00000000000E+00  0.00000000000E+00  0.14662339749E+04  0.14662339749E+04  0.00000000000E+00 0. -1.
         -2   -1    0    0    0  501 -0.00000000000E+00 -0.00000000000E+00 -0.69548000878E+01  0.69548000878E+01  0.00000000000E+00 0.  1.
         21    1    1    2  502  503  0.18817823025E+02  0.17307376533E+02  0.14422349998E+04  0.14424615940E+04  0.00000000000E+00 0. -1.
         21    1    1    2  503  501 -0.18817823025E+02 -0.17307376533E+02  0.17044175053E+02  0.30727180949E+02  0.00000000000E+00 0.  1.
</event>
<event>
 4    1  0.5967370E+002  0.2970489E+02  0.7546771E-02  0.1422179E+00
          2   -1    0    0  503    0  0.00000000000E+00  0.00000000000E+00  0.78126477664E+03  0.78126477664E+03  0.00000000000E+00 0. -1.
         -2   -1    0    0    0  501 -0.00000000000E+00 -0.00000000000E+00 -0.12362887037E+01  0.12362887037E+01  0.00000000000E+00 0.  1.
         21    1    1    2  502  501 -0.13218796379E+02 -0.26601580803E+02  0.27498500162E+03  0.27658476422E+03  0.00000000000E+00 0.  1.
         21    1    1    2  503  502  0.13218796379E+02  0.26601580803E+02  0.50504348632E+03  0.50591630113E+03  0.00000000000E+00 0. -1.
</event>
<event>
 4    1  0.5967370E+002  0.2269575E+02  0.7546771E-02  0.1496354E+00
          2   -1    0    0  503    0  0.00000000000E+00  0.00000000000E+00  0.14523700807E+04  0.14523700807E+04  0.00000000000E+00 0. -1.
         -2   -1    0    0    0  501 -0.00000000000E+00 -0.00000000000E+00 -0.73782084652E+00  0.73782084652E+00  0.00000000000E+00 0.  1.
         21    1    1    2  502  501 -0.18590830878E+02  0.13018371148E+02  0.20223594623E+03  0.20350546658E+03  0.00000000000E+00 0.  1.
         21    1    1    2  503  502  0.18590830878E+02 -0.13018371148E+02  0.12493963136E+04  0.12496024349E+04  0.00000000000E+00 0. -1.
</event>
<event>
 4    1  0.5967370E+002  0.2189531E+02  0.7546771E-02  0.1506856E+00
          2   -1    0    0  502    0  0.00000000000E+00  0.00000000000E+00  0.12630644248E+03  0.12630644248E+03  0.00000000000E+00 0.  1.
         -2   -1    0    0    0  501 -0.00000000000E+00 -0.00000000000E+00 -0.21222538875E+02  0.21222538875E+02  0.00000000000E+00 0. -1.
         21    1    1    2  502  503  0.20365155490E+02  0.80414671666E+01  0.11938552012E+03  0.12137671592E+03  0.00000000000E+00 0.  1.
         21    1    1    2  503  501 -0.20365155490E+02 -0.80414671666E+01 -0.14301616519E+02  0.26152265435E+02  0.00000000000E+00 0. -1.
</event>
<event>
 4    1  0.5967370E+002  0.2237806E+02  0.7546771E-02  0.1500459E+00
          2   -1    0    0  503    0  0.00000000000E+00  0.00000000000E+00  0.17497517611E+02  0.17497517611E+02  0.00000000000E+00 0. -1.
         -2   -1    0    0    0  501 -0.00000000000E+00 -0.00000000000E+00 -0.74818373523E+02  0.74818373523E+02  0.00000000000E+00 0.  1.
         21    1    1    2  502  501 -0.48420349489E+01  0.21847936513E+02 -0.64931136307E+02  0.68679182395E+02  0.00000000000E+00 0.  1.
         21    1    1    2  503  502  0.48420349489E+01 -0.21847936513E+02  0.76102803953E+01  0.23636708739E+02  0.00000000000E+00 0. -1.
</event>
<event>
 4    1  0.5967370E+002  0.9063251E+02  0.7546771E-02  0.1181111E+00
          2   -1    0    0  502    0  0.00000000000E+00  0.00000000000E+00  0.52266613148E+03  0.52266613148E+03  0.00000000000E+00 0. -1.
         -2   -1    0    0    0  501 -0.00000000000E+00 -0.00000000000E+00 -0.15768185415E+02  0.15768185415E+02  0.00000000000E+00 0.  1.
         21    1    1    2  502  503 -0.22678812152E+02 -0.87749211587E+02  0.23797030193E+03  0.25464508095E+03  0.00000000000E+00 0. -1.
         21    1    1    2  503  501  0.22678812152E+02  0.87749211587E+02  0.26892764414E+03  0.28378923594E+03  0.00000000000E+00 0.  1.
</event>
<event>
 4    1  0.5967370E+002  0.2284179E+02  0.7546771E-02  0.1494494E+00
          2   -1    0    0  503    0  0.00000000000E+00  0.00000000000E+00  0.66368885703E+01  0.66368885703E+01  0.00000000000E+00 0.  1.
         -2   -1    0    0    0  501 -0.00000000000E+00 -0.00000000000E+00 -0.86688496907E+02  0.86688496907E+02  0.00000000000E+00 0. -1.
         21    1    1    2  502  501  0.33985622397E+01  0.22587544792E+02 -0.54267669199E+02  0.58878920891E+02  0.00000000000E+00 0. -1.
         21    1    1    2  503  502 -0.33985622397E+01 -0.22587544792E+02 -0.25783939138E+02  0.34446464586E+02  0.00000000000E+00 0.  1.
</event>
<event>
 4    1  0.5967370E+002  0.3037409E+02  0.7546771E-02  0.1416373E+00
          2   -1    0    0  503    0  0.00000000000E+00  0.00000000000E+00  0.58319788530E+03  0.58319788530E+03  0.00000000000E+00 0. -1.
         -2   -1    0    0    0  501 -0.00000000000E+00 -0.00000000000E+00 -0.16409908680E+01  0.16409908680E+01  0.00000000000E+00 0.  1.
         21    1    1    2  502  501  0.11929643448E+02  0.27933299400E+02  0.23530865312E+03  0.23726092776E+03  0.00000000000E+00 0. -1.
         21    1    1    2  503  502 -0.11929643448E+02 -0.27933299400E+02  0.34624824131E+03  0.34757794840E+03  0.00000000000E+00 0.  1.
</event>
<event>
 4    1  0.5967370E+002  0.2531366E+02  0.7546771E-02  0.1465325E+00
          2   -1    0    0  502    0  0.00000000000E+00  0.00000000000E+00  0.97968886545E+03  0.97968886545E+03  0.00000000000E+00 0. -1.
         -2   -1    0    0    0  501 -0.00000000000E+00 -0.00000000000E+00 -0.65456416240E+00  0.65456416240E+00  0.00000000000E+00 0.  1.
         21    1    1    2  502  503 -0.22846982778E+02  0.10899392758E+02  0.47599750071E+03  0.47667011871E+03  0.00000000000E+00 0.  1.
         21    1    1    2  503  501  0.22846982778E+02 -0.10899392758E+02  0.50303680057E+03  0.50367331090E+03  0.00000000000E+00 0. -1.
</event>
<event>
 4    1  0.5967370E+002  0.2087752E+02  0.7546771E-02  0.1521021E+00
          2   -1    0    0  503    0  0.00000000000E+00  0.00000000000E+00  0.12941691687E+04  0.12941691687E+04  0.00000000000E+00 0.  1.
         -2   -1    0    0    0  501 -0.00000000000E+00 -0.00000000000E+00 -0.34208825496E+00  0.34208825496E+00  0.00000000000E+00 0. -1.
         21    1    1    2  502  501 -0.17853578954E+02 -0.10822230142E+02  0.56640743782E+03  0.56679207525E+03  0.00000000000E+00 0.  1.
         21    1    1    2  503  502  0.17853578954E+02  0.10822230142E+02  0.72741964262E+03  0.72771918171E+03  0.00000000000E+00 0. -1.
</event>
<event>
 4    1  0.5967370E+002  0.2354354E+02  0.7546771E-02  0.1485783E+00
          2   -1    0    0  502    0  0.00000000000E+00  0.00000000000E+00  0.22117067206E+02  0.22117067206E+02  0.00000000000E+00 0. -1.
         -2   -1    0    0    0  501 -0.00000000000E+00 -0.00000000000E+00 -0.66315993469E+02  0.66315993469E+02  0.00000000000E+00 0.  1.
         21    1    1    2  502  503  0.23538175905E+02  0.50275187629E+00  0.12775068870E+02  0.26786206693E+02  0.00000000000E+00 0. -1.
         21    1    1    2  503  501 -0.23538175905E+02 -0.50275187629E+00 -0.56973995133E+02  0.61646853981E+02  0.00000000000E+00 0.  1.
</event>
<event>
 4    1  0.5967370E+002  0.2087635E+02  0.7546771E-02  0.1521038E+00
          2   -1    0    0  502    0  0.00000000000E+00  0.00000000000E+00  0.13860496105E+01  0.13860496105E+01  0.00000000000E+00 0.  1.
         -2   -1    0    0    0  501 -0.00000000000E+00 -0.00000000000E+00 -0.37371184582E+03  0.37371184582E+03  0.00000000000E+00 0. -1.
         21    1    1    2  502  503  0.20427804436E+02 -0.43042719902E+01 -0.11146812418E+03  0.11340619321E+03  0.00000000000E+00 0. -1.
         21    1    1    2  503  501 -0.20427804436E+02  0.43042719902E+01 -0.26085767204E+03  0.26169170222E+03  0.00000000000E+00 0.  1.
</event>
<event>
 4    1  0.5967370E+002  0.2030969E+02  0.7546771E-02  0.1529353E+00
          2   -1    0    0  502    0  0.00000000000E+00  0.00000000000E+00  0.10090083421E+04  0.10090083421E+04  0.00000000000E+00 0.  1.
         -2   -1    0    0    0  501 -0.00000000000E+00 -0.00000000000E+00 -0.91334738293E+00  0.91334738293E+00  0.00000000000E+00 0. -1.
         21    1    1    2  502  503  0.19327616253E+02  0.62391336050E+01  0.87935763245E+03  0.87959213804E+03  0.00000000000E+00 0.  1.
         21    1    1    2  503  501 -0.19327616253E+02 -0.62391336050E+01  0.12873736227E+03  0.13032955146E+03  0.00000000000E+00 0. -1.
</event>
<event>
 4    1  0.5967370E+002  0.2880360E+02  0.7546771E-02  0.1430286E+00
          2   -1    0    0  502    0  0.00000000000E+00  0.00000000000E+00  0.48307272697E+03  0.48307272697E+03  0.00000000000E+00 0. -1.
         -2   -1    0    0    0  501 -0.00000000000E+00 -0.00000000000E+00 -0.18560654194E+01  0.18560654194E+01  0.00000000000E+00 0.  1.
         21    1    1    2  502  503 -0.52566022766E+01  0.28319883101E+02  0.17434468994E+03  0.17670800366E+03  0.00000000000E+00 0.  1.
         21    1    1    2  503  501  0.52566022766E+01 -0.28319883101E+02  0.30687197161E+03  0.30822078873E+03  0.00000000000E+00 0. -1.
</event>
<event>
 4    1  0.5967370E+002  0.1320998E+03  0.7546771E-02  0.1117522E+00
          2   -1    0    0  502    0  0.00000000000E+00  0.00000000000E+00  0.89193399584E+03  0.89193399584E+03  0.00000000000E+00 0.  1.
         -2   -1    0    0    0  501 -0.00000000000E+00 -0.00000000000E+00 -0.29638287528E+03  0.29638287528E+03  0.00000000000E+00 0. -1.
         21    1    1    2  502  503 -0.13209865560E+03 -0.54624272669E+00  0.87198863146E+03  0.88193793806E+03  0.00000000000E+00 0.  1.
         21    1    1    2  503  501  0.13209865560E+03  0.54624272669E+00 -0.27643751090E+03  0.30637893306E+03  0.00000000000E+00 0. -1.
</event>
<event>
 4    1  0.5967370E+002  0.3359688E+02  0.7546771E-02  0.1390705E+00
          2   -1    0    0  502    0  0.00000000000E+00  0.00000000000E+00  0.14281024235E+04  0.14281024235E+04  0.00000000000E+00 0. -1.
         -2   -1    0    0    0  501 -0.00000000000E+00 -0.00000000000E+00 -0.11515756209E+01  0.11515756209E+01  0.00000000000E+00 0.  1.
         21    1    1    2  502  503 -0.95861223013E+01 -0.32200258549E+02  0.31325286382E+03  0.31504937245E+03  0.00000000000E+00 0.  1.
         21    1    1    2  503  501  0.95861223013E+01  0.32200258549E+02  0.11136979840E+04  0.11142046266E+04  0.00000000000E+00 0. -1.
</event>
<event>
 4    1  0.5967370E+002  0.2262694E+02  0.7546771E-02  0.1497237E+00
          2   -1    0    0  503    0  0.00000000000E+00  0.00000000000E+00  0.63585582225E+03  0.63585582225E+03  0.00000000000E+00 0. -1.
         -2   -1    0    0    0  501 -0.00000000000E+00 -0.00000000000E+00 -0.12992381583E+01  0.12992381583E+01  0.00000000000E+00 0.  1.
         21    1    1    2  502  501 -0.21321517316E+02  0.75743874468E+01  0.12082479816E+03  0.12292522237E+03  0.00000000000E+00 0.  1.
         21    1    1    2  503  502  0.21321517316E+02 -0.75743874468E+01  0.51373178594E+03  0.51422983804E+03  0.00000000000E+00 0. -1.
</event>
<event>
 4    1  0.5967370E+002  0.2537541E+02  0.7546771E-02  0.1464647E+00
          2   -1    0    0  502    0  0.00000000000E+00  0.00000000000E+00  0.29649014090E+02  0.29649014090E+02  0.00000000000E+00 0.  1.
         -2   -1    0    0    0  501 -0.00000000000E+00 -0.00000000000E+00 -0.76521115625E+02  0.76521115625E+02  0.00000000000E+00 0. -1.
         21    1    1    2  502  503  0.57307162770E+01 -0.24719833565E+02  0.21488643815E+02  0.33251663019E+02  0.00000000000E+00 0.  1.
         21    1    1    2  503  501 -0.57307162770E+01  0.24719833565E+02 -0.68360745350E+02  0.72918466696E+02  0.00000000000E+00 0. -1.
</event>
<event>
 4    1  0.5967370E+002  0.2457652E+02  0.7546771E-02  0.1473597E+00
          2   -1    0    0  502    0  0.00000000000E+00  0.00000000000E+00  0.16055923583E+03  0.16055923583E+03  0.00000000000E+00 0. -1.
         -2   -1    0    0    0  501 -0.00000000000E+00 -0.00000000000E+00 -0.56661250234E+01  0.56661250234E+01  0.00000000000E+00 0.  1.
         21    1    1    2  502  503 -0.20915657545E+02  0.12905061745E+02  0.12562858380E+03  0.12800994655E+03  0.00000000000E+00 0. -1.
         21    1    1    2  503  501  0.20915657545E+02 -0.12905061745E+02  0.29264527009E+02  0.38215414301E+02  0.00000000000E+00 0.  1.
</event>
<event>
 4    1  0.5967370E+002  0.2081376E+02  0.7546771E-02  0.1521941E+00
          2   -1    0    0  503    0  0.00000000000E+00  0.00000000000E+00  0.45821122305E+03  0.45821122305E+03  0.00000000000E+00 0. -1.
         -2   -1    0    0    0  501 -0.00000000000E+00 -0.00000000000E+00 -0.34225578066E+01  0.34225578066E+01  0.00000000000E+00 0.  1.
         21    1    1    2  502  501  0.73133753769E+01 -0.19486585650E+02  0.31028791250E+02  0.37363061520E+02  0.00000000000E+00 0.  1.
         21    1    1    2  503  502 -0.73133753769E+01  0.19486585650E+02  0.42375987399E+03  0.42427071934E+03  0.00000000000E+00 0. -1.
</event>
<event>
 4    1  0.5967370E+002  0.2287580E+02  0.7546771E-02  0.1494064E+00
          2   -1    0    0  503    0  0.00000000000E+00  0.00000000000E+00  0.39657149927E+02  0.39657149927E+02  0.00000000000E+00 0.  1.
         -2   -1    0    0    0  501 -0.00000000000E+00 -0.00000000000E+00 -0.39391589583E+02  0.39391589583E+02  0.00000000000E+00 0. -1.
         21    1    1    2  502  501  0.14761937583E+02  0.17475337015E+02 -0.32098690373E+02  0.39416089718E+02  0.00000000000E+00 0. -1.
         21    1    1    2  503  502 -0.14761937583E+02 -0.17475337015E+02  0.32364250718E+02  0.39632649792E+02  0.00000000000E+00 0.  1.
</event>
<event>
 4    1  0.5967370E+002  0.2256884E+02  0.7546771E-02  0.1497984E+00
          2   -1    0    0  502    0  0.00000000000E+00  0.00000000000E+00  0.18050275599E+04  0.18050275599E+04  0.00000000000E+00 0. -1.
         -2   -1    0    0    0  501 -0.00000000000E+00 -0.00000000000E+00 -0.37703324655E+00  0.37703324655E+00  0.00000000000E+00 0.  1.
         21    1    1    2  502  503  0.20834513440E+02  0.86761471929E+01  0.13550856159E+04  0.13552735440E+04  0.00000000000E+00 0. -1.
         21    1    1    2  503  501 -0.20834513440E+02 -0.86761471929E+01  0.44956491072E+03  0.45013104917E+03  0.00000000000E+00 0.  1.
</event>
<event>
 4    1  0.5967370E+002  0.3501016E+02  0.7546771E-02  0.1380492E+00
          2   -1    0    0  502    0  0.00000000000E+00  0.00000000000E+00  0.17392651229E+04  0.17392651229E+04  0.00000000000E+00 0.  1.
         -2   -1    0    0    0  501 -0.00000000000E+00 -0.00000000000E+00 -0.95664704213E+00  0.95664704213E+00  0.00000000000E+00 0. -1.
         21    1    1    2  502  503 -0.13555911351E+02  0.32279229295E+02  0.13156609298E+04  0.13161266632E+04  0.00000000000E+00 0.  1.
         21    1    1    2  503  501  0.13555911351E+02 -0.32279229295E+02  0.42264754612E+03  0.42409510681E+03  0.00000000000E+00 0. -1.
</event>
<event>
 4    1  0.5967370E+002  0.2810695E+02  0.7546771E-02  0.1436795E+00
          2   -1    0    0  503    0  0.00000000000E+00  0.00000000000E+00  0.16414232519E+04  0.16414232519E+04  0.00000000000E+00 0.  1.
         -2   -1    0    0    0  501 -0.00000000000E+00 -0.00000000000E+00 -0.90489197530E+00  0.90489197530E+00  0.00000000000E+00 0. -1.
         21    1    1    2  502  501 -0.26489610511E+01  0.27981842766E+02  0.25842186005E+03  0.25994587566E+03  0.00000000000E+00 0. -1.
         21    1    1    2  503  502  0.26489610511E+01 -0.27981842766E+02  0.13820964999E+04  0.13823822682E+04  0.00000000000E+00 0.  1.
</event>
<event>
 4    1  0.5967370E+002  0.3839793E+02  0.7546771E-02  0.1358138E+00
          2   -1    0    0  503    0  0.00000000000E+00  0.00000000000E+00  0.53003890032E+01  0.53003890032E+01  0.00000000000E+00 0.  1.
         -2   -1    0    0    0  501 -0.00000000000E+00 -0.00000000000E+00 -0.28853391649E+03  0.28853391649E+03  0.00000000000E+00 0. -1.
         21    1    1    2  502  501  0.54484974096E+01  0.38009409038E+02 -0.16946305005E+03  0.17375881742E+03  0.00000000000E+00 0.  1.
         21    1    1    2  503  502 -0.54484974096E+01 -0.38009409038E+02 -0.11377047743E+03  0.12007548807E+03  0.00000000000E+00 0. -1.
</event>
<event>
 4    1  0.5967370E+002  0.2383756E+02  0.7546771E-02  0.1482240E+00
          2   -1    0    0  503    0  0.00000000000E+00  0.00000000000E+00  0.70538030130E+00  0.70538030130E+00  0.00000000000E+00 0.  1.
         -2   -1    0    0    0  501 -0.00000000000E+00 -0.00000000000E+00 -0.84283598109E+03  0.84283598109E+03  0.00000000000E+00 0. -1.
         21    1    1    2  502  501 -0.16796216146E+01  0.23778314149E+02 -0.50975904476E+03  0.51031609133E+03  0.00000000000E+00 0.  1.
         21    1    1    2  503  502  0.16796216146E+01 -0.23778314149E+02 -0.33237155603E+03  0.33322527007E+03  0.00000000000E+00 0. -1.
</event>
<event>
 4    1  0.5967370E+002  0.2012354E+02  0.7546771E-02  0.1532155E+00
          2   -1    0    0  503    0  0.00000000000E+00  0.00000000000E+00  0.74320771699E+03  0.74320771699E+03  0.00000000000E+00 0.  1.
         -2   -1    0    0    0  501 -0.00000000000E+00 -0.00000000000E+00 -0.86531094821E+01  0.86531094821E+01  0.00000000000E+00 0. -1.
         21    1    1    2  502  501 -0.17680080285E+02  0.96110257490E+01  0.33752978428E+01  0.20404648744E+02  0.00000000000E+00 0. -1.
         21    1    1    2  503  502  0.17680080285E+02 -0.96110257490E+01  0.73117930967E+03  0.73145617773E+03  0.00000000000E+00 0.  1.
</event>
<event>
 4    1  0.5967370E+002  0.2704375E+02  0.7546771E-02  0.1447169E+00
          2   -1    0    0  503    0  0.00000000000E+00  0.00000000000E+00  0.80855542133E+02  0.80855542133E+02  0.00000000000E+00 0. -1.
         -2   -1    0    0    0  501 -0.00000000000E+00 -0.00000000000E+00 -0.47886333570E+02  0.47886333570E+02  0.00000000000E+00 0.  1.
         21    1    1    2  502  501 -0.26934795828E+02 -0.24251075243E+01 -0.41488867918E+02  0.49524645722E+02  0.00000000000E+00 0.  1.
         21    1    1    2  503  502  0.26934795828E+02  0.24251075243E+01  0.74458076481E+02  0.79217229982E+02  0.00000000000E+00 0. -1.
</event>
<event>
 4    1  0.5967370E+002  0.4355061E+02  0.7546771E-02  0.1328848E+00
          2   -1    0    0  503    0  0.00000000000E+00  0.00000000000E+00  0.60062549726E+03  0.60062549726E+03  0.00000000000E+00 0. -1.
         -2   -1    0    0    0  501 -0.00000000000E+00 -0.00000000000E+00 -0.31842053647E+01  0.31842053647E+01  0.00000000000E+00 0.  1.
         21    1    1    2  502  501  0.10634133206E+02  0.42232339027E+02  0.27122810319E+03  0.27470227376E+03  0.00000000000E+00 0.  1.
         21    1    1    2  503  502 -0.10634133206E+02 -0.42232339027E+02  0.32621318870E+03  0.32910742886E+03  0.00000000000E+00 0. -1.
</event>
<event>
 4    1  0.5967370E+002  0.2585403E+02  0.7546771E-02  0.1459472E+00
          2   -1    0    0  503    0  0.00000000000E+00  0.00000000000E+00  0.19207126278E+03  0.19207126278E+03  0.00000000000E+00 0.  1.
         -2   -1    0    0    0  501 -0.00000000000E+00 -0.00000000000E+00 -0.12901109782E+02  0.12901109782E+02  0.00000000000E+00 0. -1.
         21    1    1    2  502  501  0.20679880672E+02  0.15516879393E+02  0.20060593019E+01  0.25931742800E+02  0.00000000000E+00 0. -1.
         21    1    1    2  503  502 -0.20679880672E+02 -0.15516879393E+02  0.17716409369E+03  0.17904062976E+03  0.00000000000E+00 0.  1.
</event>
<event>
 4    1  0.5967370E+002  0.2495852E+02  0.7546771E-02  0.1469268E+00
          2   -1    0    0  502    0  0.00000000000E+00  0.00000000000E+00  0.42338409574E+03  0.42338409574E+03  0.00000000000E+00 0. -1.
         -2   -1    0    0    0  501 -0.00000000000E+00 -0.00000000000E+00 -0.19649126430E+01  0.19649126430E+01  0.00000000000E+00 0.  1.
         21    1    1    2  502  503  0.24578606399E+02  0.43381628014E+01  0.10411520976E+03  0.10706495436E+03  0.00000000000E+00 0.  1.
         21    1    1    2  503  501 -0.24578606399E+02 -0.43381628014E+01  0.31730397334E+03  0.31828405402E+03  0.00000000000E+00 0. -1.
</event>
<event>
 4    1  0.5967370E+002  0.3206723E+02  0.7546771E-02  0.1402444E+00
          2   -1    0    0  503    0  0.00000000000E+00  0.00000000000E+00  0.23846072411E+02  0.23846072411E+02  0.00000000000E+00 0.  1.
         -2   -1    0    0    0  501 -0.00000000000E+00 -0.00000000000E+00 -0.48437598781E+02  0.48437598781E+02  0.00000000000E+00 0. -1.
         21    1    1    2  502  501  0.16320975569E+02 -0.27603129130E+02 -0.32376947029E+00  0.32068860410E+02  0.00000000000E+00 0.  1.
         21    1    1    2  503  502 -0.16320975569E+02  0.27603129130E+02 -0.24267756900E+02  0.40214810782E+02  0.00000000000E+00 0. -1.
</event>
<event>
 4    1  0.5967370E+002  0.2005696E+02  0.7546771E-02  0.1533167E+00
          2   -1    0    0  502    0  0.00000000000E+00  0.00000000000E+00  0.31700784900E+03  0.31700784900E+03  0.00000000000E+00 0. -1.
         -2   -1    0    0    0  501 -0.00000000000E+00 -0.00000000000E+00 -0.16225868825E+01  0.16225868825E+01  0.00000000000E+00 0.  1.
         21    1    1    2  502  503 -0.19700853977E+02  0.37627369878E+01  0.23206361551E+03  0.23292875194E+03  0.00000000000E+00 0. -1.
         21    1    1    2  503  501  0.19700853977E+02 -0.37627369878E+01  0.83321646604E+02  0.85701683939E+02  0.00000000000E+00 0.  1.
</event>
<event>
 4    1  0.5967370E+002  0.2269131E+02  0.7546771E-02  0.1496411E+00
          2   -1    0    0  502    0  0.00000000000E+00  0.00000000000E+00  0.64283206007E+03  0.64283206007E+03  0.00000000000E+00 0. -1.
         -2   -1    0    0    0  501 -0.00000000000E+00 -0.00000000000E+00 -0.14625295365E+02  0.14625295365E+02  0.00000000000E+00 0.  1.
         21    1    1    2  502  503  0.21819124547E+02 -0.62306902734E+01  0.63370361330E+03  0.63410974224E+03  0.00000000000E+00 0. -1.
         21    1    1    2  503  501 -0.21819124547E+02  0.62306902734E+01 -0.54968485956E+01  0.23347613192E+02  0.00000000000E+00 0.  1.
</event>
<event>
 4    1  0.5967370E+002  0.2855740E+02  0.7546771E-02  0.1432561E+00
          2   -1    0    0  502    0  0.00000000000E+00  0.00000000000E+00  0.44250842070E+01  0.44250842070E+01  0.00000000000E+00 0. -1.
         -2   -1    0    0    0  501 -0.00000000000E+00 -0.00000000000E+00 -0.18685794001E+03  0.18685794001E+03  0.00000000000E+00 0.  1.
         21    1    1    2  502  503  0.19294031281E+02 -0.21053867563E+02 -0.80017367652E+02  0.84960603272E+02  0.00000000000E+00 0.  1.
         21    1    1    2  503  501 -0.19294031281E+02  0.21053867563E+02 -0.10241548815E+03  0.10632242095E+03  0.00000000000E+00 0. -1.
</event>
<event>
 4    1  0.5967370E+002  0.5808596E+02  0.7546771E-02  0.1266478E+00
          2   -1    0    0  503    0  0.00000000000E+00  0.00000000000E+00  0.64891783236E+03  0.64891783236E+03  0.00000000000E+00 0. -1.
         -2   -1    0    0    0  501 -0.00000000000E+00 -0.00000000000E+00 -0.70407420803E+02  0.70407420803E+02  0.00000000000E+00 0.  1.
         21    1    1    2  502  501 -0.43681956974E+02 -0.38286617722E+02 -0.56872710960E+02  0.81292580926E+02  0.00000000000E+00 0.  1.
         21    1    1    2  503  502  0.43681956974E+02  0.38286617722E+02  0.63538312252E+03  0.63803267224E+03  0.00000000000E+00 0. -1.
</event>
<event>
 4    1  0.5967370E+002  0.2023175E+02  0.7546771E-02  0.1530522E+00
          2   -1    0    0  502    0  0.00000000000E+00  0.00000000000E+00  0.17901939578E+03  0.17901939578E+03  0.00000000000E+00 0.  1.
         -2   -1    0    0    0  501 -0.00000000000E+00 -0.00000000000E+00 -0.38001992220E+01  0.38001992220E+01  0.00000000000E+00 0. -1.
         21    1    1    2  502  503  0.19337926291E+02 -0.59471206616E+01  0.14530121808E+03  0.14670299115E+03  0.00000000000E+00 0.  1.
         21    1    1    2  503  501 -0.19337926291E+02  0.59471206616E+01  0.29917978474E+02  0.36116603846E+02  0.00000000000E+00 0. -1.
</event>
<event>
 4    1  0.5967370E+002  0.2595154E+02  0.7546771E-02  0.1458434E+00
          2   -1    0    0  503    0  0.00000000000E+00  0.00000000000E+00  0.21560816772E+02  0.21560816772E+02  0.00000000000E+00 0.  1.
         -2   -1    0    0    0  501 -0.00000000000E+00 -0.00000000000E+00 -0.43243078439E+02  0.43243078439E+02  0.00000000000E+00 0. -1.
         21    1    1    2  502  501 -0.23124176518E+02  0.11779427529E+02 -0.27914692325E+02  0.38114465760E+02  0.00000000000E+00 0. -1.
         21    1    1    2  503  502  0.23124176518E+02 -0.11779427529E+02  0.62324306576E+01  0.26689429452E+02  0.00000000000E+00 0.  1.
</event>
<event>
 4    1  0.5967370E+002  0.3203228E+02  0.7546771E-02  0.1402721E+00
          2   -1    0    0  503    0  0.00000000000E+00  0.00000000000E+00  0.22882451113E+04  0.22882451113E+04  0.00000000000E+00 0. -1.
         -2   -1    0    0    0  501 -0.00000000000E+00 -0.00000000000E+00 -0.61909668549E+00  0.61909668549E+00  0.00000000000E+00 0.  1.
         21    1    1    2  502  501  0.29412448652E+02  0.12687597011E+02  0.54289772525E+03  0.54384189553E+03  0.00000000000E+00 0.  1.
         21    1    1    2  503  502 -0.29412448652E+02 -0.12687597011E+02  0.17447282893E+04  0.17450223124E+04  0.00000000000E+00 0. -1.
</event>
<event>
 4    1  0.5967370E+002  0.2204159E+02  0.7546771E-02  0.1504897E+00
          2   -1    0    0  503    0  0.00000000000E+00  0.00000000000E+00  0.96341388011E+01  0.96341388011E+01  0.00000000000E+00 0.  1.
         -2   -1    0    0    0  501 -0.00000000000E+00 -0.00000000000E+00 -0.91102141294E+02  0.91102141294E+02  0.00000000000E+00 0. -1.
         21    1    1    2  502  501  0.71510683060E+01 -0.20849317373E+02 -0.74389033267E+02  0.77585823984E+02  0.00000000000E+00 0. -1.
         21    1    1    2  503  502 -0.71510683060E+01  0.20849317373E+02 -0.70789692259E+01  0.23150456111E+02  0.00000000000E+00 0.  1.
</event>
<event>
 4    1  0.5967370E+002  0.2852211E+02  0.7546771E-02  0.1432890E+00
          2   -1    0    0  503    0  0.00000000000E+00  0.00000000000E+00  0.13316166764E+01  0.13316166764E+01  0.00000000000E+00 0. -1.
         -2   -1    0    0    0  501 -0.00000000000E+00 -0.00000000000E+00 -0.80279273567E+03  0.80279273567E+03  0.00000000000E+00 0.  1.
         21    1    1    2  502  501 -0.11155217398E+02 -0.26250180955E+02 -0.20416905725E+03  0.20615167915E+03  0.00000000000E+00 0. -1.
         21    1    1    2  503  502  0.11155217398E+02  0.26250180955E+02 -0.59729206174E+03  0.59797267320E+03  0.00000000000E+00 0.  1.
</event>
<event>
 4    1  0.5967370E+002  0.2063604E+02  0.7546771E-02  0.1524525E+00
          2   -1    0    0  503    0  0.00000000000E+00  0.00000000000E+00  0.92116848691E+03  0.92116848691E+03  0.00000000000E+00 0.  1.
         -2   -1    0    0    0  501 -0.00000000000E+00 -0.00000000000E+00 -0.47321341740E+00  0.47321341740E+00  0.00000000000E+00 0. -1.
         21    1    1    2  502  501  0.19951062119E+01 -0.20539364503E+02  0.53036491653E+03  0.53076622973E+03  0.00000000000E+00 0. -1.
         21    1    1    2  503  502 -0.19951062119E+01  0.20539364503E+02  0.39033035696E+03  0.39087547059E+03  0.00000000000E+00 0.  1.
</event>
<event>
 4    1  0.5967370E+002  0.2226779E+02  0.7546771E-02  0.1501903E+00
          2   -1    0    0  503    0  0.00000000000E+00  0.00000000000E+00  0.52179134217E+03  0.52179134217E+03  0.00000000000E+00 0.  1.
         -2   -1    0    0    0  501 -0.00000000000E+00 -0.00000000000E+00 -0.12907755468E+01  0.12907755468E+01  0.00000000000E+00 0. -1.
         21    1    1    2  502  501  0.92735191777E+01 -0.20244908467E+02  0.12592363939E+03  0.12787735309E+03  0.00000000000E+00 0. -1.
         21    1    1    2  503  502 -0.92735191777E+01  0.20244908467E+02  0.39457692724E+03  0.39520476463E+03  0.00000000000E+00 0.  1.
</event>
<event>
 4    1  0.5967370E+002  0.2252950E+02  0.7546771E-02  0.1498492E+00
          2   -1    0    0  503    0  0.00000000000E+00  0.00000000000E+00  0.54358333376E+03  0.54358333376E+03  0.00000000000E+00 0. -1.
         -2   -1    0    0    0  501 -0.00000000000E+00 -0.00000000000E+00 -0.26033878019E+01  0.26033878019E+01  0.00000000000E+00 0.  1.
         21    1    1    2  502  501 -0.22528047152E+02 -0.25616390404E+00  0.51788842668E+02  0.56477099371E+02  0.00000000000E+00 0.  1.
         21    1    1    2  503  502  0.22528047152E+02  0.25616390404E+00  0.48919110329E+03  0.48970962219E+03  0.00000000000E+00 0. -1.
</event>
<event>
 4    1  0.5967370E+002  0.2388753E+02  0.7546771E-02  0.1481644E+00
          2   -1    0    0  503    0  0.00000000000E+00  0.00000000000E+00  0.21306487526E+02  0.21306487526E+02  0.00000000000E+00 0.  1.
         -2   -1    0    0    0  501 -0.00000000000E+00 -0.00000000000E+00 -0.76008312665E+02  0.76008312665E+02  0.00000000000E+00 0. -1.
         21    1    1    2  502  501 -0.22901571175E+02  0.67920633290E+01 -0.66508900988E+02  0.70668578570E+02  0.00000000000E+00 0. -1.
         21    1    1    2  503  502  0.22901571175E+02 -0.67920633290E+01  0.11807075849E+02  0.26646221621E+02  0.00000000000E+00 0.  1.
</event>
<event>
 4    1  0.5967370E+002  0.3181216E+02  0.7546771E-02  0.1404476E+00
          2   -1    0    0  502    0  0.00000000000E+00  0.00000000000E+00  0.54868897057E+03  0.54868897057E+03  0.00000000000E+00 0. -1.
         -2   -1    0    0    0  501 -0.00000000000E+00 -0.00000000000E+00 -0.16459618050E+02  0.16459618050E+02  0.00000000000E+00 0.  1.
         21    1    1    2  502  503  0.30745792239E+02  0.81676199791E+01  0.53238643368E+03  0.53333603715E+03  0.00000000000E+00 0. -1.
         21    1    1    2  503  501 -0.30745792239E+02 -0.81676199791E+01 -0.15708115983E+00  0.31812551470E+02  0.00000000000E+00 0.  1.
</event>
<event>
 4    1  0.5967370E+002  0.2302953E+02  0.7546771E-02  0.1492128E+00
          2   -1    0    0  503    0  0.00000000000E+00  0.00000000000E+00  0.15403945909E+03  0.15403945909E+03  0.00000000000E+00 0.  1.
         -2   -1    0    0    0  501 -0.00000000000E+00 -0.00000000000E+00 -0.46003753097E+01  0.46003753097E+01  0.00000000000E+00 0. -1.
         21    1    1    2  502  501  0.21100348304E+02 -0.92268269497E+01  0.34934364944E+02  0.41842190289E+02  0.00000000000E+00 0. -1.
         21    1    1    2  503  502 -0.21100348304E+02  0.92268269497E+01  0.11450471884E+03  0.11679764411E+03  0.00000000000E+00 0.  1.
</event>
<event>
 4    1  0.5967370E+002  0.3360416E+02  0.7546771E-02  0.1390651E+00
          2   -1    0    0  503    0  0.00000000000E+00  0.00000000000E+00  0.17114679022E+04  0.17114679022E+04  0.00000000000E+00 0. -1.
         -2   -1    0    0    0  501 -0.00000000000E+00 -0.00000000000E+00 -0.18094679155E+01  0.18094679155E+01  0.00000000000E+00 0.  1.
         21    1    1    2  502  501 -0.27527376824E+02 -0.19273891360E+02  0.17200796759E+03  0.17525975088E+03  0.00000000000E+00 0.  1.
         21    1    1    2  503  502  0.27527376824E+02  0.19273891360E+02  0.15376504667E+04  0.15380176192E+04  0.00000000000E+00 0. -1.
</event>
<event>
 4    1  0.5967370E+002  0.2633573E+02  0.7546771E-02  0.1454397E+00
          2   -1    0    0  503    0  0.00000000000E+00  0.00000000000E+00  0.12734303761E+04  0.12734303761E+04  0.00000000000E+00 0.  1.
         -2   -1    0    0    0  501 -0.00000000000E+00 -0.00000000000E+00 -0.27530687567E+01  0.27530687567E+01  0.00000000000E+00 0. -1.
         21    1    1    2  502  501 -0.14973424171E+02  0.21664880737E+02  0.63839547746E+02  0.69058369118E+02  0.00000000000E+00 0. -1.
         21    1    1    2  503  502  0.14973424171E+02 -0.21664880737E+02  0.12068377596E+04  0.12071250757E+04  0.00000000000E+00 0.  1.
</event>
<event>
 4    1  0.5967370E+002  0.2182874E+02  0.7546771E-02  0.1507754E+00
          2   -1    0    0  503    0  0.00000000000E+00  0.00000000000E+00  0.21558589891E+01  0.21558589891E+01  0.00000000000E+00 0.  1.
         -2   -1    0    0    0  501 -0.00000000000E+00 -0.00000000000E+00 -0.45014152260E+03  0.45014152260E+03  0.00000000000E+00 0. -1.
         21    1    1    2  502  501 -0.16054315534E+02  0.14790302631E+02 -0.38533570323E+03  0.38595349238E+03  0.00000000000E+00 0. -1.
         21    1    1    2  503  502  0.16054315534E+02 -0.14790302631E+02 -0.62649960377E+02  0.66343889202E+02  0.00000000000E+00 0.  1.
</event>
<event>
 4    1  0.5967370E+002  0.3379764E+02  0.7546771E-02  0.1389219E+00
          2   -1    0    0  502    0  0.00000000000E+00  0.00000000000E+00  0.49957719636E+02  0.49957719636E+02  0.00000000000E+00 0. -1.
         -2   -1    0    0    0  501 -0.00000000000E+00 -0.00000000000E+00 -0.27226867774E+02  0.27226867774E+02  0.00000000000E+00 0.  1.
         21    1    1    2  502  503  0.16514202246E+01 -0.33757272443E+02  0.26812300394E+02  0.43141396407E+02  0.00000000000E+00 0. -1.
         21    1    1    2  503  501 -0.16514202246E+01  0.33757272443E+02 -0.40814485311E+01  0.34043191003E+02  0.00000000000E+00 0.  1.
</event>
<event>
 4    1  0.5967370E+002  0.2674292E+02  0.7546771E-02  0.1450208E+00
          2   -1    0    0  503    0  0.00000000000E+00  0.00000000000E+00  0.25285092200E+04  0.25285092200E+04  0.00000000000E+00 0. -1.
         -2   -1    0    0    0  501 -0.00000000000E+00 -0.00000000000E+00 -0.28288538067E+00  0.28288538067E+00  0.00000000000E+00 0.  1.
         21    1    1    2  502  501  0.92368875955E+01  0.25097081674E+02  0.12495651819E+04  0.12498513221E+04  0.00000000000E+00 0.  1.
         21    1    1    2  503  502 -0.92368875955E+01 -0.25097081674E+02  0.12786611528E+04  0.12789407833E+04  0.00000000000E+00 0. -1.
</event>
<event>
 4    1  0.5967370E+002  0.2158784E+02  0.7546771E-02  0.1511035E+00
          2   -1    0    0  502    0  0.00000000000E+00  0.00000000000E+00  0.17633201618E+03  0.17633201618E+03  0.00000000000E+00 0. -1.
         -2   -1    0    0    0  501 -0.00000000000E+00 -0.00000000000E+00 -0.31944223941E+01  0.31944223941E+01  0.00000000000E+00 0.  1.
         21    1    1    2  502  503 -0.21063782491E+02 -0.47277890139E+01  0.49272293911E+02  0.53793994730E+02  0.00000000000E+00 0.  1.
         21    1    1    2  503  501  0.21063782491E+02  0.47277890139E+01  0.12386529988E+03  0.12573244385E+03  0.00000000000E+00 0. -1.
</event>
<event>
 4    1  0.5967370E+002  0.3760203E+02  0.7546771E-02  0.1363141E+00
          2   -1    0    0  502    0  0.00000000000E+00  0.00000000000E+00  0.44402648789E+03  0.44402648789E+03  0.00000000000E+00 0. -1.
         -2   -1    0    0    0  501 -0.00000000000E+00 -0.00000000000E+00 -0.34025542471E+01  0.34025542471E+01  0.00000000000E+00 0.  1.
         21    1    1    2  502  503  0.13418841200E+02  0.35126167263E+02  0.27697168185E+03  0.27951247821E+03  0.00000000000E+00 0. -1.
         21    1    1    2  503  501 -0.13418841200E+02 -0.35126167263E+02  0.16365225180E+03  0.16791656393E+03  0.00000000000E+00 0.  1.
</event>
<event>
 4    1  0.5967370E+002  0.2277121E+02  0.7546771E-02  0.1495391E+00
          2   -1    0    0  502    0  0.00000000000E+00  0.00000000000E+00  0.76806738688E+03  0.76806738688E+03  0.00000000000E+00 0. -1.
         -2   -1    0    0    0  501 -0.00000000000E+00 -0.00000000000E+00 -0.23494594226E+01  0.23494594226E+01  0.00000000000E+00 0.  1.
         21    1    1    2  502  503  0.22067755875E+02 -0.56162368215E+01  0.70804747074E+03  0.70841354362E+03  0.00000000000E+00 0. -1.
         21    1    1    2  503  501 -0.22067755875E+02  0.56162368215E+01  0.57670456720E+02  0.62003302684E+02  0.00000000000E+00 0.  1.
</event>
<event>
 4    1  0.5967370E+002  0.2038781E+02  0.7546771E-02  0.1528188E+00
          2   -1    0    0  503    0  0.00000000000E+00  0.00000000000E+00  0.14699758882E+04  0.14699758882E+04  0.00000000000E+00 0. -1.
         -2   -1    0    0    0  501 -0.00000000000E+00 -0.00000000000E+00 -0.14471915253E+01  0.14471915253E+01  0.00000000000E+00 0.  1.
         21    1    1    2  502  501  0.20348083585E+02 -0.12721401234E+01  0.74331176333E+02  0.77076498501E+02  0.00000000000E+00 0.  1.
         21    1    1    2  503  502 -0.20348083585E+02  0.12721401234E+01  0.13941975203E+04  0.13943465812E+04  0.00000000000E+00 0. -1.
</event>
<event>
 4    1  0.5967370E+002  0.2397879E+02  0.7546771E-02  0.1480560E+00
          2   -1    0    0  503    0  0.00000000000E+00  0.00000000000E+00  0.69936298662E+03  0.69936298662E+03  0.00000000000E+00 0.  1.
         -2   -1    0    0    0  501 -0.00000000000E+00 -0.00000000000E+00 -0.24417171405E+01  0.24417171405E+01  0.00000000000E+00 0. -1.
         21    1    1    2  502  501  0.22613879526E+02 -0.79746229257E+01  0.62676633129E+02  0.67106948213E+02  0.00000000000E+00 0. -1.
         21    1    1    2  503  502 -0.22613879526E+02  0.79746229257E+01  0.63424463635E+03  0.63469775554E+03  0.00000000000E+00 0.  1.
</event>
<event>
 4    1  0.5967370E+002  0.2040132E+02  0.7546771E-02  0.1527987E+00
          2   -1    0    0  502    0  0.00000000000E+00  0.00000000000E+00  0.15405101256E+04  0.15405101256E+04  0.00000000000E+00 0.  1.
         -2   -1    0    0    0  501 -0.00000000000E+00 -0.00000000000E+00 -0.27119583016E+00  0.27119583016E+00  0.00000000000E+00 0. -1.
         21    1    1    2  502  503  0.16562099800E+02 -0.11912620466E+02  0.81728961347E+03  0.81754420428E+03  0.00000000000E+00 0.  1.
         21    1    1    2  503  501 -0.16562099800E+02  0.11912620466E+02  0.72294931631E+03  0.72323711715E+03  0.00000000000E+00 0. -1.
</event>
<event>
 4    1  0.5967370E+002  0.4548405E+02  0.7546771E-02  0.1319037E+00
          2   -1    0    0  503    0  0.00000000000E+00  0.00000000000E+00  0.17669323828E+04  0.17669323828E+04  0.00000000000E+00 0.  1.
         -2   -1    0    0    0  501 -0.00000000000E+00 -0.00000000000E+00 -0.11877720449E+01  0.11877720449E+01  0.00000000000E+00 0. -1.
         21    1    1    2  502  501  0.45477134630E+02  0.79295166115E+00  0.98841908809E+03  0.98946505358E+03  0.00000000000E+00 0.  1.
         21    1    1    2  503  502 -0.45477134630E+02 -0.79295166115E+00  0.77732552270E+03  0.77865510130E+03  0.00000000000E+00 0. -1.
</event>
<event>
 4    1  0.5967370E+002  0.2397289E+02  0.7546771E-02  0.1480630E+00
          2   -1    0    0  502    0  0.00000000000E+00  0.00000000000E+00  0.59705950715E+01  0.59705950715E+01  0.00000000000E+00 0. -1.
         -2   -1    0    0    0  501 -0.00000000000E+00 -0.00000000000E+00 -0.10320302837E+03  0.10320302837E+03  0.00000000000E+00 0.  1.
         21    1    1    2  502  503  0.15964812422E+02 -0.17883625817E+02 -0.34452606057E+02  0.41972388211E+02  0.00000000000E+00 0. -1.
         21    1    1    2  503  501 -0.15964812422E+02  0.17883625817E+02 -0.62779827239E+02  0.67201235228E+02  0.00000000000E+00 0.  1.
</event>
<event>
 4    1  0.5967370E+002  0.6661634E+02  0.7546771E-02  0.1238871E+00
          2   -1    0    0  503    0  0.00000000000E+00  0.00000000000E+00  0.13967612428E+04  0.13967612428E+04  0.00000000000E+00 0. -1.
         -2   -1    0    0    0  501 -0.00000000000E+00 -0.00000000000E+00 -0.36653450259E+01  0.36653450259E+01  0.00000000000E+00 0.  1.
         21    1    1    2  502  501  0.44003729734E+02  0.50014082330E+02  0.44100477505E+03  0.44600778949E+03  0.00000000000E+00 0.  1.
         21    1    1    2  503  502 -0.44003729734E+02 -0.50014082330E+02  0.95209112272E+03  0.95441879834E+03  0.00000000000E+00 0. -1.
</event>
<event>
 4    1  0.5967370E+002  0.2511568E+02  0.7546771E-02  0.1467513E+00
          2   -1    0    0  503    0  0.00000000000E+00  0.00000000000E+00  0.51420125707E+02  0.51420125707E+02  0.00000000000E+00 0. -1.
         -2   -1    0    0    0  501 -0.00000000000E+00 -0.00000000000E+00 -0.12507876490E+02  0.12507876490E+02  0.00000000000E+00 0.  1.
         21    1    1    2  502  501  0.20637021863E+02  0.14314697301E+02  0.15025136176E+02  0.29266908741E+02  0.00000000000E+00 0.  1.
         21    1    1    2  503  502 -0.20637021863E+02 -0.14314697301E+02  0.23887113041E+02  0.34661093457E+02  0.00000000000E+00 0. -1.
</event>
<event>
 4    1  0.5967370E+002  0.2402988E+02  0.7546771E-02  0.1479956E+00
          2   -1    0    0  502    0  0.00000000000E+00  0.00000000000E+00  0.27792018404E+02  0.27792018404E+02  0.00000000000E+00 0.  1.
         -2   -1    0    0    0  501 -0.00000000000E+00 -0.00000000000E+00 -0.31078129931E+03  0.31078129931E+03  0.00000000000E+00 0. -1.
         21    1    1    2  502  503  0.23795213846E+02  0.33500734298E+01  0.22035383820E+02  0.32603578547E+02  0.00000000000E+00 0.  1.
         21    1    1    2  503  501 -0.23795213846E+02 -0.33500734298E+01 -0.30502466472E+03  0.30596973916E+03  0.00000000000E+00 0. -1.
</event>
<event>
 4    1  0.5967370E+002  0.3696320E+02  0.7546771E-02  0.1367263E+00
          2   -1    0    0  503    0  0.00000000000E+00  0.00000000000E+00  0.82974874264E+03  0.82974874264E+03  0.00000000000E+00 0. -1.
         -2   -1    0    0    0  501 -0.00000000000E+00 -0.00000000000E+00 -0.50290996751E+01  0.50290996751E+01  0.00000000000E+00 0.  1.
         21    1    1    2  502  501 -0.14333651440E+02  0.34070876133E+02  0.70054537457E+02  0.79208057560E+02  0.00000000000E+00 0.  1.
         21    1    1    2  503  502  0.14333651440E+02 -0.34070876133E+02  0.75466510550E+03  0.75556978475E+03  0.00000000000E+00 0. -1.
</event>
<event>
 4    1  0.5967370E+002  0.4495559E+02  0.7546771E-02  0.1321662E+00
          2   -1    0    0  503    0  0.00000000000E+00  0.00000000000E+00  0.22783582802E+04  0.22783582802E+04  0.00000000000E+00 0.  1.
         -2   -1    0    0    0  501 -0.00000000000E+00 -0.00000000000E+00 -0.40500158170E+01  0.40500158170E+01  0.00000000000E+00 0. -1.
         21    1    1    2  502  501  0.38189403894E+02  0.23718647676E+02  0.12863853390E+03  0.13626766755E+03  0.00000000000E+00 0. -1.
         21    1    1    2  503  502 -0.38189403894E+02 -0.23718647676E+02  0.21456697305E+04  0.21461406285E+04  0.00000000000E+00 0.  1.
</event>
<event>
 4    1  0.5967370E+002  0.2191294E+02  0.7546771E-02  0.1506619E+00
          2   -1    0    0  502    0  0.00000000000E+00  0.00000000000E+00  0.12769361138E+04  0.12769361138E+04  0.00000000000E+00 0. -1.
         -2   -1    0    0    0  501 -0.00000000000E+00 -0.00000000000E+00 -0.67366423899E+00  0.67366423899E+00  0.00000000000E+00 0.  1.
         21    1    1    2  502  503  0.56728474625E+01  0.21165907168E+02  0.10627331006E+04  0.10629589926E+04  0.00000000000E+00 0. -1.
         21    1    1    2  503  501 -0.56728474625E+01 -0.21165907168E+02  0.21352934893E+03  0.21465078541E+03  0.00000000000E+00 0.  1.
</event>
<event>
 4    1  0.5967370E+002  0.2004726E+02  0.7546771E-02  0.1533314E+00
          2   -1    0    0  502    0  0.00000000000E+00  0.00000000000E+00  0.89486259723E+02  0.89486259723E+02  0.00000000000E+00 0. -1.
         -2   -1    0    0    0  501 -0.00000000000E+00 -0.00000000000E+00 -0.48698425761E+01  0.48698425761E+01  0.00000000000E+00 0.  1.
         21    1    1    2  502  503  0.17071224557E+02  0.10510282511E+02  0.55464944537E+02  0.58976714209E+02  0.00000000000E+00 0. -1.
         21    1    1    2  503  501 -0.17071224557E+02 -0.10510282511E+02  0.29151472609E+02  0.35379388090E+02  0.00000000000E+00 0.  1.
</event>
<event>
 4    1  0.5967370E+002  0.3524786E+02  0.7546771E-02  0.1378829E+00
          2   -1    0    0  502    0  0.00000000000E+00  0.00000000000E+00  0.24946483426E+03  0.24946483426E+03  0.00000000000E+00 0. -1.
         -2   -1    0    0    0  501 -0.00000000000E+00 -0.00000000000E+00 -0.15905349096E+02  0.15905349096E+02  0.00000000000E+00 0.  1.
         21    1    1    2  502  503  0.45003422547E+01  0.34959388362E+02  0.22674665955E+03  0.22946995344E+03  0.00000000000E+00 0. -1.
         21    1    1    2  503  501 -0.45003422547E+01 -0.34959388362E+02  0.68128256124E+01  0.35900229914E+02  0.00000000000E+00 0.  1.
</event>
<event>
 4    1  0.5967370E+002  0.2264568E+02  0.7546771E-02  0.1496996E+00
          2   -1    0    0  502    0  0.00000000000E+00  0.00000000000E+00  0.62231216250E+00  0.62231216250E+00  0.00000000000E+00 0. -1.
         -2   -1    0    0    0  501 -0.00000000000E+00 -0.00000000000E+00 -0.91779247146E+03  0.91779247146E+03  0.00000000000E+00 0.  1.
         21    1    1    2  502  503  0.11452581435E+02  0.19536258702E+02 -0.31183949711E+03  0.31266067706E+03  0.00000000000E+00 0.  1.
         21    1    1    2  503  501 -0.11452581435E+02 -0.19536258702E+02 -0.60533066219E+03  0.60575410656E+03  0.00000000000E+00 0. -1.
</event>
<event>
 4    1  0.5967370E+002  0.2390404E+02  0.7546771E-02  0.1481448E+00
          2   -1    0    0  502    0  0.00000000000E+00  0.00000000000E+00  0.15033347896E+03  0.15033347896E+03  0.00000000000E+00 0.  1.
         -2   -1    0    0    0  501 -0.00000000000E+00 -0.00000000000E+00 -0.17302823901E+02  0.17302823901E+02  0.00000000000E+00 0. -1.
         21    1    1    2  502  503 -0.23844229320E+02 -0.16898734117E+01  0.14055719556E+03  0.14257534207E+03  0.00000000000E+00 0.  1.
         21    1    1    2  503  501  0.23844229320E+02  0.16898734117E+01 -0.75265404952E+01  0.25060960792E+02  0.00000000000E+00 0. -1.
</event>
<event>
 4    1  0.5967370E+002  0.2166224E+02  0.7546771E-02  0.1510016E+00
          2   -1    0    0  503    0  0.00000000000E+00  0.00000000000E+00  0.11508070896E+03  0.11508070896E+03  0.00000000000E+00 0. -1.
         -2   -1    0    0    0  501 -0.00000000000E+00 -0.00000000000E+00 -0.83414295016E+02  0.83414295016E+02  0.00000000000E+00 0.  1.
         21    1    1    2  502  501 -0.99872539497E+01  0.19222575676E+02 -0.80958111477E+02  0.83806136237E+02  0.00000000000E+00 0.  1.
         21    1    1    2  503  502  0.99872539497E+01 -0.19222575676E+02  0.11262452542E+03  0.11468886774E+03  0.00000000000E+00 0. -1.
</event>
<event>
 4    1  0.5967370E+002  0.3629241E+02  0.7546771E-02  0.1371698E+00
          2   -1    0    0  503    0  0.00000000000E+00  0.00000000000E+00  0.64917086417E+02  0.64917086417E+02  0.00000000000E+00 0. -1.
         -2   -1    0    0    0  501 -0.00000000000E+00 -0.00000000000E+00 -0.10744879959E+03  0.10744879959E+03  0.00000000000E+00 0.  1.
         21    1    1    2  502  501 -0.26508349122E+02 -0.24788031925E+02 -0.98886502714E+02  0.10533603144E+03  0.00000000000E+00 0.  1.
         21    1    1    2  503  502  0.26508349122E+02  0.24788031925E+02  0.56354789539E+02  0.67029854572E+02  0.00000000000E+00 0. -1.
</event>
<event>
 4    1  0.5967370E+002  0.2434237E+02  0.7546771E-02  0.1476296E+00
          2   -1    0    0  502    0  0.00000000000E+00  0.00000000000E+00  0.13507462138E+03  0.13507462138E+03  0.00000000000E+00 0.  1.
         -2   -1    0    0    0  501 -0.00000000000E+00 -0.00000000000E+00 -0.11796415551E+02  0.11796415551E+02  0.00000000000E+00 0. -1.
         21    1    1    2  502  503  0.24237147767E+02 -0.22608912937E+01  0.11983974204E+03  0.12228701784E+03  0.00000000000E+00 0.  1.
         21    1    1    2  503  501 -0.24237147767E+02  0.22608912937E+01  0.34384637930E+01  0.24584019089E+02  0.00000000000E+00 0. -1.
</event>
<event>
 4    1  0.5967370E+002  0.2347841E+02  0.7546771E-02  0.1486577E+00
          2   -1    0    0  503    0  0.00000000000E+00  0.00000000000E+00  0.11548319254E+04  0.11548319254E+04  0.00000000000E+00 0. -1.
         -2   -1    0    0    0  501 -0.00000000000E+00 -0.00000000000E+00 -0.41439790288E+01  0.41439790288E+01  0.00000000000E+00 0.  1.
         21    1    1    2  502  501 -0.11988013161E+02  0.20187205100E+02  0.30251332810E+02  0.38293326391E+02  0.00000000000E+00 0.  1.
         21    1    1    2  503  502  0.11988013161E+02 -0.20187205100E+02  0.11204366135E+04  0.11206825780E+04  0.00000000000E+00 0. -1.
</event>
<event>
 4    1  0.5967370E+002  0.1647204E+03  0.7546771E-02  0.1083418E+00
          2   -1    0    0  502    0  0.00000000000E+00  0.00000000000E+00  0.13234383752E+04  0.13234383752E+04  0.00000000000E+00 0.  1.
         -2   -1    0    0    0  501 -0.00000000000E+00 -0.00000000000E+00 -0.98033347974E+02  0.98033347974E+02  0.00000000000E+00 0. -1.
         21    1    1    2  502  503 -0.92685081368E+02  0.13617007218E+03  0.12447659354E+04  0.12556173967E+04  0.00000000000E+00 0.  1.
         21    1    1    2  503  501  0.92685081368E+02 -0.13617007218E+03 -0.19360908152E+02  0.16585432653E+03  0.00000000000E+00 0. -1.
</event>
<event>
 4    1  0.5967370E+002  0.4824544E+02  0.7546771E-02  0.1305964E+00
          2   -1    0    0  502    0  0.00000000000E+00  0.00000000000E+00  0.13991426507E+03  0.13991426507E+03  0.00000000000E+00 0.  1.
         -2   -1    0    0    0  501 -0.00000000000E+00 -0.00000000000E+00 -0.74447233614E+02  0.74447233614E+02  0.00000000000E+00 0. -1.
         21    1    1    2  502  503  0.27736832664E+02 -0.39475186950E+02  0.12718274003E+03  0.13602599616E+03  0.00000000000E+00 0.  1.
         21    1    1    2  503  501 -0.27736832664E+02  0.39475186950E+02 -0.61715708571E+02  0.78335502522E+02  0.00000000000E+00 0. -1.
</event>
<event>
 4    1  0.5967370E+002  0.3334708E+02  0.7546771E-02  0.1392571E+00
          2   -1    0    0  502    0  0.00000000000E+00  0.00000000000E+00  0.76679238657E+01  0.76679238657E+01  0.00000000000E+00 0.  1.
         -2   -1    0    0    0  501 -0.00000000000E+00 -0.00000000000E+00 -0.36076618935E+03  0.36076618935E+03  0.00000000000E+00 0. -1.
         21    1    1    2  502  503 -0.23897940446E+02  0.23257609983E+02 -0.34091696923E+02  0.47689325627E+02  0.00000000000E+00 0.  1.
         21    1    1    2  503  501  0.23897940446E+02 -0.23257609983E+02 -0.31900656857E+03  0.32074478759E+03  0.00000000000E+00 0. -1.
</event>
<event>
 4    1  0.5967370E+002  0.2698906E+02  0.7546771E-02  0.1447718E+00
          2   -1    0    0  502    0  0.00000000000E+00  0.00000000000E+00  0.31197078715E+03  0.31197078715E+03  0.00000000000E+00 0. -1.
         -2   -1    0    0    0  501 -0.00000000000E+00 -0.00000000000E+00 -0.55441182840E+01  0.55441182840E+01  0.00000000000E+00 0.  1.
         21    1    1    2  502  503  0.15824860131E+02 -0.21862822389E+02  0.27400027402E+03  0.27532627802E+03  0.00000000000E+00 0. -1.
         21    1    1    2  503  501 -0.15824860131E+02  0.21862822389E+02  0.32426394845E+02  0.42188627421E+02  0.00000000000E+00 0.  1.
</event>
<event>
 4    1  0.5967370E+002  0.2626467E+02  0.7546771E-02  0.1455138E+00
          2   -1    0    0  502    0  0.00000000000E+00  0.00000000000E+00  0.28869898948E+03  0.28869898948E+03  0.00000000000E+00 0. -1.
         -2   -1    0    0    0  501 -0.00000000000E+00 -0.00000000000E+00 -0.25729317002E+01  0.25729317002E+01  0.00000000000E+00 0.  1.
         21    1    1    2  502  503 -0.24652352199E+02 -0.90605839093E+01  0.18195387502E+03  0.18383972717E+03  0.00000000000E+00 0. -1.
         21    1    1    2  503  501  0.24652352199E+02  0.90605839093E+01  0.10417218276E+03  0.10743219402E+03  0.00000000000E+00 0.  1.
</event>
<event>
 4    1  0.5967370E+002  0.2655269E+02  0.7546771E-02  0.1452154E+00
          2   -1    0    0  502    0  0.00000000000E+00  0.00000000000E+00  0.46067857803E+03  0.46067857803E+03  0.00000000000E+00 0. -1.
         -2   -1    0    0    0  501 -0.00000000000E+00 -0.00000000000E+00 -0.33724124966E+01  0.33724124966E+01  0.00000000000E+00 0.  1.
         21    1    1    2  502  503 -0.10921923157E+02  0.24202416019E+02  0.40013005319E+03  0.40101010562E+03  0.00000000000E+00 0. -1.
         21    1    1    2  503  501  0.10921923157E+02 -0.24202416019E+02  0.57176112341E+02  0.63040884901E+02  0.00000000000E+00 0.  1.
</event>
<event>
 4    1  0.5967370E+002  0.3079364E+02  0.7546771E-02  0.1412823E+00
          2   -1    0    0  503    0  0.00000000000E+00  0.00000000000E+00  0.66424330621E+03  0.66424330621E+03  0.00000000000E+00 0. -1.
         -2   -1    0    0    0  501 -0.00000000000E+00 -0.00000000000E+00 -0.47519232343E+01  0.47519232343E+01  0.00000000000E+00 0.  1.
         21    1    1    2  502  501 -0.27035823443E+02 -0.14741526318E+02  0.49968415736E+02  0.58694896871E+02  0.00000000000E+00 0.  1.
         21    1    1    2  503  502  0.27035823443E+02  0.14741526318E+02  0.60952296724E+03  0.61030033257E+03  0.00000000000E+00 0. -1.
</event>
<event>
 4    1  0.5967370E+002  0.2072481E+02  0.7546771E-02  0.1523230E+00
          2   -1    0    0  503    0  0.00000000000E+00  0.00000000000E+00  0.59692452843E+03  0.59692452843E+03  0.00000000000E+00 0. -1.
         -2   -1    0    0    0  501 -0.00000000000E+00 -0.00000000000E+00 -0.96508154244E+00  0.96508154244E+00  0.00000000000E+00 0.  1.
         21    1    1    2  502  501  0.20468549027E+02  0.32490592753E+01  0.14719358964E+03  0.14864545307E+03  0.00000000000E+00 0.  1.
         21    1    1    2  503  502 -0.20468549027E+02 -0.32490592753E+01  0.44876585725E+03  0.44924415691E+03  0.00000000000E+00 0. -1.
</event>
<event>
 4    1  0.5967370E+002  0.2890535E+02  0.7546771E-02  0.1429353E+00
          2   -1    0    0  502    0  0.00000000000E+00  0.00000000000E+00  0.41504449967E+03  0.41504449967E+03  0.00000000000E+00 0. -1.
         -2   -1    0    0    0  501 -0.00000000000E+00 -0.00000000000E+00 -0.11635223248E+02  0.11635223248E+02  0.00000000000E+00 0.  1.
         21    1    1    2  502  503  0.13893255389E+02  0.25347520536E+02  0.39571301076E+03  0.39676732001E+03  0.00000000000E+00 0. -1.
         21    1    1    2  503  501 -0.13893255389E+02 -0.25347520536E+02  0.76962656621E+01  0.29912402909E+02  0.00000000000E+00 0.  1.
</event>
<event>
 4    1  0.5967370E+002  0.2992405E+02  0.7546771E-02  0.1420258E+00
          2   -1    0    0  502    0  0.00000000000E+00  0.00000000000E+00  0.78101327498E+01  0.78101327498E+01  0.00000000000E+00 0. -1.
         -2   -1    0    0    0  501 -0.00000000000E+00 -0.00000000000E+00 -0.17671991291E+03  0.17671991291E+03  0.00000000000E+00 0.  1.
         21    1    1    2  502  503  0.68039293495E+01 -0.29140274430E+02 -0.29775060180E+02  0.42213780418E+02  0.00000000000E+00 0. -1.
         21    1    1    2  503  501 -0.68039293495E+01  0.29140274430E+02 -0.13913471998E+03  0.14231626524E+03  0.00000000000E+00 0.  1.
</event>
<event>
 4    1  0.5967370E+002  0.2667166E+02  0.7546771E-02  0.1450935E+00
          2   -1    0    0  503    0  0.00000000000E+00  0.00000000000E+00  0.12075116567E+03  0.12075116567E+03  0.00000000000E+00 0.  1.
         -2   -1    0    0    0  501 -0.00000000000E+00 -0.00000000000E+00 -0.65917758009E+01  0.65917758009E+01  0.00000000000E+00 0. -1.
         21    1    1    2  502  501  0.82595005452E+00 -0.26658865980E+02  0.36323366241E+02  0.45064001862E+02  0.00000000000E+00 0.  1.
         21    1    1    2  503  502 -0.82595005452E+00  0.26658865980E+02  0.77836023632E+02  0.82278939612E+02  0.00000000000E+00 0. -1.
</event>
<event>
 4    1  0.5967370E+002  0.2906150E+02  0.7546771E-02  0.1427931E+00
          2   -1    0    0  502    0  0.00000000000E+00  0.00000000000E+00  0.56830817627E+03  0.56830817627E+03  0.00000000000E+00 0.  1.
         -2   -1    0    0    0  501 -0.00000000000E+00 -0.00000000000E+00 -0.21831373702E+02  0.21831373702E+02  0.00000000000E+00 0. -1.
         21    1    1    2  502  503 -0.13873874725E+02  0.25535979384E+02  0.55808813270E+03  0.55884428466E+03  0.00000000000E+00 0.  1.
         21    1    1    2  503  501  0.13873874725E+02 -0.25535979384E+02 -0.11611330134E+02  0.31295265304E+02  0.00000000000E+00 0. -1.
</event>
<event>
 4    1  0.5967370E+002  0.2495843E+02  0.7546771E-02  0.1469269E+00
          2   -1    0    0  502    0  0.00000000000E+00  0.00000000000E+00  0.18367728189E+03  0.18367728189E+03  0.00000000000E+00 0.  1.
         -2   -1    0    0    0  501 -0.00000000000E+00 -0.00000000000E+00 -0.48817150519E+01  0.48817150519E+01  0.00000000000E+00 0. -1.
         21    1    1    2  502  503 -0.24924569970E+02  0.12995946363E+01  0.14148967093E+03  0.14367411080E+03  0.00000000000E+00 0.  1.
         21    1    1    2  503  501  0.24924569970E+02 -0.12995946363E+01  0.37305895908E+02  0.44884886141E+02  0.00000000000E+00 0. -1.
</event>
<event>
 4    1  0.5967370E+002  0.8173196E+02  0.7546771E-02  0.1199883E+00
          2   -1    0    0  503    0  0.00000000000E+00  0.00000000000E+00  0.27814531099E+03  0.27814531099E+03  0.00000000000E+00 0. -1.
         -2   -1    0    0    0  501 -0.00000000000E+00 -0.00000000000E+00 -0.60173649584E+02  0.60173649584E+02  0.00000000000E+00 0.  1.
         21    1    1    2  502  501  0.77464285528E+02  0.26065260754E+02 -0.22140367882E+02  0.84677678525E+02  0.00000000000E+00 0.  1.
         21    1    1    2  503  502 -0.77464285528E+02 -0.26065260754E+02  0.24011202928E+03  0.25364128205E+03  0.00000000000E+00 0. -1.
</event>
<event>
 4    1  0.5967370E+002  0.2401962E+02  0.7546771E-02  0.1480077E+00
          2   -1    0    0  503    0  0.00000000000E+00  0.00000000000E+00  0.20836497549E+04  0.20836497549E+04  0.00000000000E+00 0. -1.
         -2   -1    0    0    0  501 -0.00000000000E+00 -0.00000000000E+00 -0.39657216269E+00  0.39657216269E+00  0.00000000000E+00 0.  1.
         21    1    1    2  502  501  0.79051552409E+01  0.22681505643E+02  0.46918572695E+03  0.46980015810E+03  0.00000000000E+00 0.  1.
         21    1    1    2  503  502 -0.79051552409E+01 -0.22681505643E+02  0.16140674558E+04  0.16142461690E+04  0.00000000000E+00 0. -1.
</event>
<event>
 4    1  0.5967370E+002  0.3119306E+02  0.7546771E-02  0.1409504E+00
          2   -1    0    0  503    0  0.00000000000E+00  0.00000000000E+00  0.16017825150E+03  0.16017825150E+03  0.00000000000E+00 0.  1.
         -2   -1    0    0    0  501 -0.00000000000E+00 -0.00000000000E+00 -0.10336609359E+02  0.10336609359E+02  0.00000000000E+00 0. -1.
         21    1    1    2  502  501 -0.65272905555E+00 -0.31186232220E+02  0.20174605984E+02  0.37148645492E+02  0.00000000000E+00 0. -1.
         21    1    1    2  503  502  0.65272905555E+00  0.31186232220E+02  0.12966703615E+03  0.13336621536E+03  0.00000000000E+00 0.  1.
</event>
<event>
 4    1  0.5967370E+002  0.5014595E+02  0.7546771E-02  0.1297541E+00
          2   -1    0    0  502    0  0.00000000000E+00  0.00000000000E+00  0.12618446169E+03  0.12618446169E+03  0.00000000000E+00 0. -1.
         -2   -1    0    0    0  501 -0.00000000000E+00 -0.00000000000E+00 -0.48173240486E+02  0.48173240486E+02  0.00000000000E+00 0.  1.
         21    1    1    2  502  503  0.49663823921E+02 -0.69369537385E+01  0.10576003728E+03  0.11704615423E+03  0.00000000000E+00 0. -1.
         21    1    1    2  503  501 -0.49663823921E+02  0.69369537385E+01 -0.27748816083E+02  0.57311547943E+02  0.00000000000E+00 0.  1.
</event>
<event>
 4    1  0.5967370E+002  0.2446001E+02  0.7546771E-02  0.1474936E+00
          2   -1    0    0  503    0  0.00000000000E+00  0.00000000000E+00  0.36692437681E+03  0.36692437681E+03  0.00000000000E+00 0.  1.
         -2   -1    0    0    0  501 -0.00000000000E+00 -0.00000000000E+00 -0.18945260590E+01  0.18945260590E+01  0.00000000000E+00 0. -1.
         21    1    1    2  502  501 -0.10266794422E+02 -0.22201011198E+02  0.11368021651E+03  0.11628191430E+03  0.00000000000E+00 0. -1.
         21    1    1    2  503  502  0.10266794422E+02  0.22201011198E+02  0.25134963424E+03  0.25253698858E+03  0.00000000000E+00 0.  1.
</event>
<event>
 4    1  0.5967370E+002  0.2082593E+02  0.7546771E-02  0.1521765E+00
          2   -1    0    0  503    0  0.00000000000E+00  0.00000000000E+00  0.14444814331E+03  0.14444814331E+03  0.00000000000E+00 0. -1.
         -2   -1    0    0    0  501 -0.00000000000E+00 -0.00000000000E+00 -0.39436549172E+01  0.39436549172E+01  0.00000000000E+00 0.  1.
         21    1    1    2  502  501  0.17564119263E+02 -0.11190229515E+02  0.34008029949E+02  0.39878134649E+02  0.00000000000E+00 0. -1.
         21    1    1    2  503  502 -0.17564119263E+02  0.11190229515E+02  0.10649645845E+03  0.10851366358E+03  0.00000000000E+00 0.  1.
</event>
<event>
 4    1  0.5967370E+002  0.2162765E+02  0.7546771E-02  0.1510489E+00
          2   -1    0    0  503    0  0.00000000000E+00  0.00000000000E+00  0.92223001177E+01  0.92223001177E+01  0.00000000000E+00 0.  1.
         -2   -1    0    0    0  501 -0.00000000000E+00 -0.00000000000E+00 -0.10595096037E+03  0.10595096037E+03  0.00000000000E+00 0. -1.
         21    1    1    2  502  501 -0.21623120406E+02 -0.44250217256E+00 -0.89942031866E+02  0.92505806523E+02  0.00000000000E+00 0. -1.
         21    1    1    2  503  502  0.21623120406E+02  0.44250217256E+00 -0.67866283820E+01  0.22667453961E+02  0.00000000000E+00 0.  1.
</event>
<event>
 4    1  0.5967370E+002  0.1068476E+03  0.7546771E-02  0.1152443E+00
          2   -1    0    0  503    0  0.00000000000E+00  0.00000000000E+00  0.67968792544E+03  0.67968792544E+03  0.00000000000E+00 0. -1.
         -2   -1    0    0    0  501 -0.00000000000E+00 -0.00000000000E+00 -0.17018777272E+02  0.17018777272E+02  0.00000000000E+00 0.  1.
         21    1    1    2  502  501  0.94598922139E+02 -0.49673477526E+02  0.29152779314E+03  0.31049132776E+03  0.00000000000E+00 0. -1.
         21    1    1    2  503  502 -0.94598922139E+02  0.49673477526E+02  0.37114135502E+03  0.38621537495E+03  0.00000000000E+00 0.  1.
</event>
<event>
 4    1  0.5967370E+002  0.3804936E+02  0.7546771E-02  0.1360312E+00
          2   -1    0    0  503    0  0.00000000000E+00  0.00000000000E+00  0.46330674675E+03  0.46330674675E+03  0.00000000000E+00 0.  1.
         -2   -1    0    0    0  501 -0.00000000000E+00 -0.00000000000E+00 -0.24032300414E+02  0.24032300414E+02  0.00000000000E+00 0. -1.
         21    1    1    2  502  501  0.10989070207E+02  0.36427933680E+02 -0.76391579426E+01  0.38808642726E+02  0.00000000000E+00 0. -1.
         21    1    1    2  503  502 -0.10989070207E+02 -0.36427933680E+02  0.44691360428E+03  0.44853040444E+03  0.00000000000E+00 0.  1.
</event>
<event>
 4    1  0.5967370E+002  0.2257341E+02  0.7546771E-02  0.1497926E+00
          2   -1    0    0  503    0  0.00000000000E+00  0.00000000000E+00  0.57507668413E+02  0.57507668413E+02  0.00000000000E+00 0. -1.
         -2   -1    0    0    0  501 -0.00000000000E+00 -0.00000000000E+00 -0.88950885046E+01  0.88950885046E+01  0.00000000000E+00 0.  1.
         21    1    1    2  502  501  0.17226120713E+02 -0.14588330408E+02  0.22242139512E+02  0.31690241226E+02  0.00000000000E+00 0.  1.
         21    1    1    2  503  502 -0.17226120713E+02  0.14588330408E+02  0.26370440397E+02  0.34712515691E+02  0.00000000000E+00 0. -1.
</event>
<event>
 4    1  0.5967370E+002  0.3396666E+02  0.7546771E-02  0.1387977E+00
          2   -1    0    0  503    0  0.00000000000E+00  0.00000000000E+00  0.16983508855E+01  0.16983508855E+01  0.00000000000E+00 0.  1.
         -2   -1    0    0    0  501 -0.00000000000E+00 -0.00000000000E+00 -0.75596283954E+03  0.75596283954E+03  0.00000000000E+00 0. -1.
         21    1    1    2  502  501  0.60866036094E+01 -0.33416868525E+02 -0.49775069045E+03  0.49890829186E+03  0.00000000000E+00 0.  1.
         21    1    1    2  503  502 -0.60866036094E+01  0.33416868525E+02 -0.25651379821E+03  0.25875289857E+03  0.00000000000E+00 0. -1.
</event>
<event>
 4    1  0.5967370E+002  0.2590987E+02  0.7546771E-02  0.1458877E+00
          2   -1    0    0  503    0  0.00000000000E+00  0.00000000000E+00  0.15247633562E+04  0.15247633562E+04  0.00000000000E+00 0.  1.
         -2   -1    0    0    0  501 -0.00000000000E+00 -0.00000000000E+00 -0.18821317985E+01  0.18821317985E+01  0.00000000000E+00 0. -1.
         21    1    1    2  502  501 -0.99273851747E+01  0.23932583585E+02  0.93337300285E+02  0.96866780466E+02  0.00000000000E+00 0. -1.
         21    1    1    2  503  502  0.99273851747E+01 -0.23932583585E+02  0.14295439241E+04  0.14297787075E+04  0.00000000000E+00 0.  1.
</event>
<event>
 4    1  0.5967370E+002  0.3143795E+02  0.7546771E-02  0.1407499E+00
          2   -1    0    0  502    0  0.00000000000E+00  0.00000000000E+00  0.84009816033E+02  0.84009816033E+02  0.00000000000E+00 0. -1.
         -2   -1    0    0    0  501 -0.00000000000E+00 -0.00000000000E+00 -0.14610905899E+02  0.14610905899E+02  0.00000000000E+00 0.  1.
         21    1    1    2  502  503  0.21697465310E+02 -0.22750053842E+02  0.56463399542E+02  0.64625540141E+02  0.00000000000E+00 0. -1.
         21    1    1    2  503  501 -0.21697465310E+02  0.22750053842E+02  0.12935510592E+02  0.33995181791E+02  0.00000000000E+00 0.  1.
</event>
<event>
 4    1  0.5967370E+002  0.2801621E+02  0.7546771E-02  0.1437659E+00
          2   -1    0    0  502    0  0.00000000000E+00  0.00000000000E+00  0.39057926652E+03  0.39057926652E+03  0.00000000000E+00 0.  1.
         -2   -1    0    0    0  501 -0.00000000000E+00 -0.00000000000E+00 -0.83176434274E+01  0.83176434274E+01  0.00000000000E+00 0. -1.
         21    1    1    2  502  503  0.18756496346E+02  0.20811100923E+02  0.36482203167E+03  0.36589619138E+03  0.00000000000E+00 0.  1.
         21    1    1    2  503  501 -0.18756496346E+02 -0.20811100923E+02  0.17439591424E+02  0.33000718565E+02  0.00000000000E+00 0. -1.
</event>
<event>
 4    1  0.5967370E+002  0.3038748E+02  0.7546771E-02  0.1416259E+00
          2   -1    0    0  503    0  0.00000000000E+00  0.00000000000E+00  0.33125993785E+02  0.33125993785E+02  0.00000000000E+00 0.  1.
         -2   -1    0    0    0  501 -0.00000000000E+00 -0.00000000000E+00 -0.42104807227E+02  0.42104807227E+02  0.00000000000E+00 0. -1.
         21    1    1    2  502  501 -0.27180202480E+02  0.13588065619E+02 -0.26356642850E+02  0.40225260179E+02  0.00000000000E+00 0. -1.
         21    1    1    2  503  502  0.27180202480E+02 -0.13588065619E+02  0.17377829408E+02  0.35005540833E+02  0.00000000000E+00 0.  1.
</event>
<event>
 4    1  0.5967370E+002  0.2236653E+02  0.7546771E-02  0.1500610E+00
          2   -1    0    0  502    0  0.00000000000E+00  0.00000000000E+00  0.28389268197E+02  0.28389268197E+02  0.00000000000E+00 0.  1.
         -2   -1    0    0    0  501 -0.00000000000E+00 -0.00000000000E+00 -0.56843946112E+02  0.56843946112E+02  0.00000000000E+00 0. -1.
         21    1    1    2  502  503 -0.39065481433E+01 -0.22022732081E+02  0.21172723599E+02  0.30798475146E+02  0.00000000000E+00 0.  1.
         21    1    1    2  503  501  0.39065481433E+01  0.22022732081E+02 -0.49627401514E+02  0.54434739163E+02  0.00000000000E+00 0. -1.
</event>
<event>
 4    1  0.5967370E+002  0.2230918E+02  0.7546771E-02  0.1501360E+00
          2   -1    0    0  502    0  0.00000000000E+00  0.00000000000E+00  0.95423290575E+02  0.95423290575E+02  0.00000000000E+00 0.  1.
         -2   -1    0    0    0  501 -0.00000000000E+00 -0.00000000000E+00 -0.53129936491E+01  0.53129936491E+01  0.00000000000E+00 0. -1.
         21    1    1    2  502  503 -0.20768255123E+02 -0.81473307495E+01  0.51871072286E+02  0.56465100365E+02  0.00000000000E+00 0. -1.
         21    1    1    2  503  501  0.20768255123E+02  0.81473307495E+01  0.38239224640E+02  0.44271183859E+02  0.00000000000E+00 0.  1.
</event>
<event>
 4    1  0.5967370E+002  0.2039620E+02  0.7546771E-02  0.1528063E+00
          2   -1    0    0  502    0  0.00000000000E+00  0.00000000000E+00  0.79398249972E+03  0.79398249972E+03  0.00000000000E+00 0.  1.
         -2   -1    0    0    0  501 -0.00000000000E+00 -0.00000000000E+00 -0.72568645325E+00  0.72568645325E+00  0.00000000000E+00 0. -1.
         21    1    1    2  502  503  0.18899506792E+02 -0.76690061175E+01  0.18712154746E+03  0.18822985559E+03  0.00000000000E+00 0. -1.
         21    1    1    2  503  501 -0.18899506792E+02  0.76690061175E+01  0.60613526581E+03  0.60647833059E+03  0.00000000000E+00 0.  1.
</event>
<event>
 4    1  0.5967370E+002  0.2078731E+02  0.7546771E-02  0.1522323E+00
          2   -1    0    0  503    0  0.00000000000E+00  0.00000000000E+00  0.81912340292E+03  0.81912340292E+03  0.00000000000E+00 0. -1.
         -2   -1    0    0    0  501 -0.00000000000E+00 -0.00000000000E+00 -0.17989121663E+01  0.17989121663E+01  0.00000000000E+00 0.  1.
         21    1    1    2  502  501 -0.11258880684E+02 -0.17474262824E+02  0.63593896642E+02  0.66905126453E+02  0.00000000000E+00 0.  1.
         21    1    1    2  503  502  0.11258880684E+02  0.17474262824E+02  0.75373059411E+03  0.75401718863E+03  0.00000000000E+00 0. -1.
</event>
<event>
 4    1  0.5967370E+002  0.2119066E+02  0.7546771E-02  0.1516560E+00
          2   -1    0    0  502    0  0.00000000000E+00  0.00000000000E+00  0.86011704925E+03  0.86011704925E+03  0.00000000000E+00 0.  1.
         -2   -1    0    0    0  501 -0.00000000000E+00 -0.00000000000E+00 -0.59353273996E+00  0.59353273996E+00  0.00000000000E+00 0. -1.
         21    1    1    2  502  503 -0.36807449953E+01 -0.20868550458E+02  0.57908731120E+03  0.57947489875E+03  0.00000000000E+00 0.  1.
         21    1    1    2  503  501  0.36807449953E+01  0.20868550458E+02  0.28043620531E+03  0.28123568325E+03  0.00000000000E+00 0. -1.
</event>
<event>
 4    1  0.5967370E+002  0.7001448E+02  0.7546771E-02  0.1229144E+00
          2   -1    0    0  503    0  0.00000000000E+00  0.00000000000E+00  0.15068348532E+04  0.15068348532E+04  0.00000000000E+00 0.  1.
         -2   -1    0    0    0  501 -0.00000000000E+00 -0.00000000000E+00 -0.33490730505E+01  0.33490730505E+01  0.00000000000E+00 0. -1.
         21    1    1    2  502  501 -0.66856705379E+02 -0.20789607642E+02  0.62398189295E+03  0.62789762666E+03  0.00000000000E+00 0. -1.
         21    1    1    2  503  502  0.66856705379E+02  0.20789607642E+02  0.87950388721E+03  0.88228629960E+03  0.00000000000E+00 0.  1.
</event>
<event>
 4    1  0.5967370E+002  0.2095084E+02  0.7546771E-02  0.1519968E+00
          2   -1    0    0  502    0  0.00000000000E+00  0.00000000000E+00  0.34476456306E+03  0.34476456306E+03  0.00000000000E+00 0.  1.
         -2   -1    0    0    0  501 -0.00000000000E+00 -0.00000000000E+00 -0.14700953889E+01  0.14700953889E+01  0.00000000000E+00 0. -1.
         21    1    1    2  502  503 -0.12857305892E+02  0.16541691124E+02  0.23501055824E+03  0.23594257849E+03  0.00000000000E+00 0.  1.
         21    1    1    2  503  501  0.12857305892E+02 -0.16541691124E+02  0.10828390943E+03  0.11029207996E+03  0.00000000000E+00 0. -1.
</event>
<event>
 4    1  0.5967370E+002  0.3105468E+02  0.7546771E-02  0.1410647E+00
          2   -1    0    0  502    0  0.00000000000E+00  0.00000000000E+00  0.13740234714E+04  0.13740234714E+04  0.00000000000E+00 0.  1.
         -2   -1    0    0    0  501 -0.00000000000E+00 -0.00000000000E+00 -0.71202901382E+00  0.71202901382E+00  0.00000000000E+00 0. -1.
         21    1    1    2  502  503  0.20917728792E+02 -0.22953038412E+02  0.60457343664E+03  0.60537049287E+03  0.00000000000E+00 0. -1.
         21    1    1    2  503  501 -0.20917728792E+02  0.22953038412E+02  0.76873800577E+03  0.76936500757E+03  0.00000000000E+00 0.  1.
</event>
<event>
 4    1  0.5967370E+002  0.2271113E+02  0.7546771E-02  0.1496158E+00
          2   -1    0    0  502    0  0.00000000000E+00  0.00000000000E+00  0.14572637296E+02  0.14572637296E+02  0.00000000000E+00 0.  1.
         -2   -1    0    0    0  501 -0.00000000000E+00 -0.00000000000E+00 -0.81346179536E+02  0.81346179536E+02  0.00000000000E+00 0. -1.
         21    1    1    2  502  503  0.16392163062E+02 -0.15719173486E+02  0.26590202848E+01  0.22866259288E+02  0.00000000000E+00 0.  1.
         21    1    1    2  503  501 -0.16392163062E+02  0.15719173486E+02 -0.69432562525E+02  0.73052557544E+02  0.00000000000E+00 0. -1.
</event>
<event>
 4    1  0.5967370E+002  0.3833808E+02  0.7546771E-02  0.1358510E+00
          2   -1    0    0  502    0  0.00000000000E+00  0.00000000000E+00  0.24445285304E+04  0.24445285304E+04  0.00000000000E+00 0. -1.
         -2   -1    0    0    0  501 -0.00000000000E+00 -0.00000000000E+00 -0.20454314557E+01  0.20454314557E+01  0.00000000000E+00 0.  1.
         21    1    1    2  502  503  0.27224086694E+02 -0.26993657251E+02  0.22491266662E+04  0.22494533933E+04  0.00000000000E+00 0. -1.
         21    1    1    2  503  501 -0.27224086694E+02  0.26993657251E+02  0.19335643275E+03  0.19712056847E+03  0.00000000000E+00 0.  1.
</event>
<event>
 4    1  0.5967370E+002  0.2267329E+02  0.7546771E-02  0.1496642E+00
          2   -1    0    0  502    0  0.00000000000E+00  0.00000000000E+00  0.11939104459E+02  0.11939104459E+02  0.00000000000E+00 0.  1.
         -2   -1    0    0    0  501 -0.00000000000E+00 -0.00000000000E+00 -0.10301903493E+03  0.10301903493E+03  0.00000000000E+00 0. -1.
         21    1    1    2  502  503  0.10480347718E+02  0.20105729778E+02 -0.16884798581E+01  0.22736073154E+02  0.00000000000E+00 0.  1.
         21    1    1    2  503  501 -0.10480347718E+02 -0.20105729778E+02 -0.89391450616E+02  0.92222066239E+02  0.00000000000E+00 0. -1.
</event>
<event>
 4    1  0.5967370E+002  0.2092630E+02  0.7546771E-02  0.1520320E+00
          2   -1    0    0  502    0  0.00000000000E+00  0.00000000000E+00  0.86744065596E+02  0.86744065596E+02  0.00000000000E+00 0.  1.
         -2   -1    0    0    0  501 -0.00000000000E+00 -0.00000000000E+00 -0.59179013807E+01  0.59179013807E+01  0.00000000000E+00 0. -1.
         21    1    1    2  502  503  0.13830859978E+02  0.15704048534E+02  0.58173306708E+02  0.61822677405E+02  0.00000000000E+00 0.  1.
         21    1    1    2  503  501 -0.13830859978E+02 -0.15704048534E+02  0.22652857506E+02  0.30839289572E+02  0.00000000000E+00 0. -1.
</event>
<event>
 4    1  0.5967370E+002  0.2636230E+02  0.7546771E-02  0.1454121E+00
          2   -1    0    0  502    0  0.00000000000E+00  0.00000000000E+00  0.51715246624E+02  0.51715246624E+02  0.00000000000E+00 0. -1.
         -2   -1    0    0    0  501 -0.00000000000E+00 -0.00000000000E+00 -0.52755880464E+02  0.52755880464E+02  0.00000000000E+00 0.  1.
         21    1    1    2  502  503  0.17589963145E+02  0.19635788828E+02  0.44574185294E+02  0.51786378527E+02  0.00000000000E+00 0. -1.
         21    1    1    2  503  501 -0.17589963145E+02 -0.19635788828E+02 -0.45614819134E+02  0.52684748561E+02  0.00000000000E+00 0.  1.
</event>
<event>
 4    1  0.5967370E+002  0.2297217E+02  0.7546771E-02  0.1492848E+00
          2   -1    0    0  503    0  0.00000000000E+00  0.00000000000E+00  0.64857421082E+03  0.64857421082E+03  0.00000000000E+00 0. -1.
         -2   -1    0    0    0  501 -0.00000000000E+00 -0.00000000000E+00 -0.11516618103E+01  0.11516618103E+01  0.00000000000E+00 0.  1.
         21    1    1    2  502  501  0.20462440603E+02  0.10440748893E+02  0.14771827530E+03  0.14949384459E+03  0.00000000000E+00 0.  1.
         21    1    1    2  503  502 -0.20462440603E+02 -0.10440748893E+02  0.49970427372E+03  0.50023202805E+03  0.00000000000E+00 0. -1.
</event>
<event>
 4    1  0.5967370E+002  0.4378979E+02  0.7546771E-02  0.1327603E+00
          2   -1    0    0  502    0  0.00000000000E+00  0.00000000000E+00  0.13264169947E+02  0.13264169947E+02  0.00000000000E+00 0.  1.
         -2   -1    0    0    0  501 -0.00000000000E+00 -0.00000000000E+00 -0.14490286099E+03  0.14490286099E+03  0.00000000000E+00 0. -1.
         21    1    1    2  502  503  0.36916028547E+02 -0.23553181011E+02 -0.62005228831E+02  0.75909116065E+02  0.00000000000E+00 0.  1.
         21    1    1    2  503  501 -0.36916028547E+02  0.23553181011E+02 -0.69633462209E+02  0.82257914869E+02  0.00000000000E+00 0. -1.
</event>
<event>
 4    1  0.5967370E+002  0.4598713E+02  0.7546771E-02  0.1316576E+00
          2   -1    0    0  503    0  0.00000000000E+00  0.00000000000E+00  0.10155378821E+03  0.10155378821E+03  0.00000000000E+00 0.  1.
         -2   -1    0    0    0  501 -0.00000000000E+00 -0.00000000000E+00 -0.27415920037E+02  0.27415920037E+02  0.00000000000E+00 0. -1.
         21    1    1    2  502  501 -0.43722133792E+02  0.14254505710E+02  0.54503173589E+01  0.46308982667E+02  0.00000000000E+00 0. -1.
         21    1    1    2  503  502  0.43722133792E+02 -0.14254505710E+02  0.68687550810E+02  0.82660725575E+02  0.00000000000E+00 0.  1.
</event>
<event>
 4    1  0.5967370E+002  0.2039305E+02  0.7546771E-02  0.1528110E+00
          2   -1    0    0  502    0  0.00000000000E+00  0.00000000000E+00  0.20318272387E+01  0.20318272387E+01  0.00000000000E+00 0.  1.
         -2   -1    0    0    0  501 -0.00000000000E+00 -0.00000000000E+00 -0.21457460024E+03  0.21457460024E+03  0.00000000000E+00 0. -1.
         21    1    1    2  502  503  0.19553242406E+02  0.57920040404E+01 -0.12952698645E+03  0.13112252598E+03  0.00000000000E+00 0.  1.
         21    1    1    2  503  501 -0.19553242406E+02 -0.57920040404E+01 -0.83015786543E+02  0.85483901495E+02  0.00000000000E+00 0. -1.
</event>
<event>
 4    1  0.5967370E+002  0.2049887E+02  0.7546771E-02  0.1526541E+00
          2   -1    0    0  503    0  0.00000000000E+00  0.00000000000E+00  0.97569831682E+01  0.97569831682E+01  0.00000000000E+00 0.  1.
         -2   -1    0    0    0  501 -0.00000000000E+00 -0.00000000000E+00 -0.58344057171E+02  0.58344057171E+02  0.00000000000E+00 0. -1.
         21    1    1    2  502  501 -0.18190809184E+02 -0.94497781641E+01 -0.41717442430E+02  0.46481704455E+02  0.00000000000E+00 0. -1.
         21    1    1    2  503  502  0.18190809184E+02  0.94497781641E+01 -0.68696315719E+01  0.21619335884E+02  0.00000000000E+00 0.  1.
</event>
<event>
 4    1  0.5967370E+002  0.2308193E+02  0.7546771E-02  0.1491472E+00
          2   -1    0    0  503    0  0.00000000000E+00  0.00000000000E+00  0.13849673641E+02  0.13849673641E+02  0.00000000000E+00 0.  1.
         -2   -1    0    0    0  501 -0.00000000000E+00 -0.00000000000E+00 -0.81543879988E+02  0.81543879988E+02  0.00000000000E+00 0. -1.
         21    1    1    2  502  501  0.20146106573E+02  0.11265428285E+02 -0.68513456106E+02  0.72297089513E+02  0.00000000000E+00 0. -1.
         21    1    1    2  503  502 -0.20146106573E+02 -0.11265428285E+02  0.81924975970E+00  0.23096464116E+02  0.00000000000E+00 0.  1.
</event>
<event>
 4    1  0.5967370E+002  0.2915407E+02  0.7546771E-02  0.1427093E+00
          2   -1    0    0  502    0  0.00000000000E+00  0.00000000000E+00  0.10766418080E+04  0.10766418080E+04  0.00000000000E+00 0. -1.
         -2   -1    0    0    0  501 -0.00000000000E+00 -0.00000000000E+00 -0.17872258879E+01  0.17872258879E+01  0.00000000000E+00 0.  1.
         21    1    1    2  502  503  0.29138626705E+02 -0.94891136404E+00  0.94031806213E+03  0.94076990703E+03  0.00000000000E+00 0. -1.
         21    1    1    2  503  501 -0.29138626705E+02  0.94891136404E+00  0.13453651994E+03  0.13765912682E+03  0.00000000000E+00 0.  1.
</event>
<event>
 4    1  0.5967370E+002  0.2564632E+02  0.7546771E-02  0.1461701E+00
          2   -1    0    0  503    0  0.00000000000E+00  0.00000000000E+00  0.22209952816E+04  0.22209952816E+04  0.00000000000E+00 0. -1.
         -2   -1    0    0    0  501 -0.00000000000E+00 -0.00000000000E+00 -0.55396826168E+00  0.55396826168E+00  0.00000000000E+00 0.  1.
         21    1    1    2  502  501 -0.95676135603E+00 -0.25628464156E+02  0.35243614335E+03  0.35336803578E+03  0.00000000000E+00 0.  1.
         21    1    1    2  503  502  0.95676135603E+00  0.25628464156E+02  0.18680051700E+04  0.18681812141E+04  0.00000000000E+00 0. -1.
</event>
<event>
 4    1  0.5967370E+002  0.2214175E+02  0.7546771E-02  0.1503566E+00
          2   -1    0    0  502    0  0.00000000000E+00  0.00000000000E+00  0.24280555542E+02  0.24280555542E+02  0.00000000000E+00 0.  1.
         -2   -1    0    0    0  501 -0.00000000000E+00 -0.00000000000E+00 -0.17744629083E+03  0.17744629083E+03  0.00000000000E+00 0. -1.
         21    1    1    2  502  503  0.10099658817E+02  0.19704156746E+02  0.18368758559E+02  0.28769223005E+02  0.00000000000E+00 0.  1.
         21    1    1    2  503  501 -0.10099658817E+02 -0.19704156746E+02 -0.17153449384E+03  0.17295762336E+03  0.00000000000E+00 0. -1.
</event>
<event>
 4    1  0.5967370E+002  0.3362411E+02  0.7546771E-02  0.1390503E+00
          2   -1    0    0  502    0  0.00000000000E+00  0.00000000000E+00  0.71367110717E+03  0.71367110717E+03  0.00000000000E+00 0. -1.
         -2   -1    0    0    0  501 -0.00000000000E+00 -0.00000000000E+00 -0.51740058692E+01  0.51740058692E+01  0.00000000000E+00 0.  1.
         21    1    1    2  502  503 -0.30722821154E+02  0.13663409073E+02  0.65363270932E+03  0.65449698180E+03  0.00000000000E+00 0. -1.
         21    1    1    2  503  501  0.30722821154E+02 -0.13663409073E+02  0.54864391983E+02  0.64348131245E+02  0.00000000000E+00 0.  1.
</event>
<event>
 4    1  0.5967370E+002  0.3495139E+02  0.7546771E-02  0.1380905E+00
          2   -1    0    0  502    0  0.00000000000E+00  0.00000000000E+00  0.18807637423E+01  0.18807637423E+01  0.00000000000E+00 0.  1.
         -2   -1    0    0    0  501 -0.00000000000E+00 -0.00000000000E+00 -0.64998377291E+03  0.64998377291E+03  0.00000000000E+00 0. -1.
         21    1    1    2  502  503  0.34438832528E+02 -0.59637533458E+01 -0.33272834299E+03  0.33455903780E+03  0.00000000000E+00 0. -1.
         21    1    1    2  503  501 -0.34438832528E+02  0.59637533458E+01 -0.31537466618E+03  0.31730549886E+03  0.00000000000E+00 0.  1.
</event>
<event>
 4    1  0.5967370E+002  0.3462935E+02  0.7546771E-02  0.1383188E+00
          2   -1    0    0  502    0  0.00000000000E+00  0.00000000000E+00  0.29645181943E+02  0.29645181943E+02  0.00000000000E+00 0.  1.
         -2   -1    0    0    0  501 -0.00000000000E+00 -0.00000000000E+00 -0.13522149716E+03  0.13522149716E+03  0.00000000000E+00 0. -1.
         21    1    1    2  502  503  0.13382738601E+02  0.31938917808E+02  0.16222386491E+02  0.38240789567E+02  0.00000000000E+00 0.  1.
         21    1    1    2  503  501 -0.13382738601E+02 -0.31938917808E+02 -0.12179870171E+03  0.12662588954E+03  0.00000000000E+00 0. -1.
</event>
<event>
 4    1  0.5967370E+002  0.2216785E+02  0.7546771E-02  0.1503220E+00
          2   -1    0    0  502    0  0.00000000000E+00  0.00000000000E+00  0.35458523030E+02  0.35458523030E+02  0.00000000000E+00 0.  1.
         -2   -1    0    0    0  501 -0.00000000000E+00 -0.00000000000E+00 -0.13862940352E+02  0.13862940352E+02  0.00000000000E+00 0. -1.
         21    1    1    2  502  503 -0.33807914781E+01  0.21908528573E+02  0.11222817744E+02  0.24846831053E+02  0.00000000000E+00 0. -1.
         21    1    1    2  503  501  0.33807914781E+01 -0.21908528573E+02  0.10372764933E+02  0.24474632329E+02  0.00000000000E+00 0.  1.
</event>
<event>
 4    1  0.5967370E+002  0.2048117E+02  0.7546771E-02  0.1526803E+00
          2   -1    0    0  503    0  0.00000000000E+00  0.00000000000E+00  0.13973220055E+03  0.13973220055E+03  0.00000000000E+00 0.  1.
         -2   -1    0    0    0  501 -0.00000000000E+00 -0.00000000000E+00 -0.30043148103E+01  0.30043148103E+01  0.00000000000E+00 0. -1.
         21    1    1    2  502  501  0.86443715929E+01  0.18567532393E+02  0.70337748603E+02  0.73258974180E+02  0.00000000000E+00 0.  1.
         21    1    1    2  503  502 -0.86443715929E+01 -0.18567532393E+02  0.66390137138E+02  0.69477541181E+02  0.00000000000E+00 0. -1.
</event>
<event>
 4    1  0.5967370E+002  0.3564491E+02  0.7546771E-02  0.1376085E+00
          2   -1    0    0  503    0  0.00000000000E+00  0.00000000000E+00  0.21171632006E+01  0.21171632006E+01  0.00000000000E+00 0. -1.
         -2   -1    0    0    0  501 -0.00000000000E+00 -0.00000000000E+00 -0.77565463472E+03  0.77565463472E+03  0.00000000000E+00 0.  1.
         21    1    1    2  502  501  0.52553331772E+01 -0.35255373030E+02 -0.57176578818E+03  0.57287579491E+03  0.00000000000E+00 0.  1.
         21    1    1    2  503  502 -0.52553331772E+01  0.35255373030E+02 -0.20177168333E+03  0.20489600301E+03  0.00000000000E+00 0. -1.
</event>
<event>
 4    1  0.5967370E+002  0.2291297E+02  0.7546771E-02  0.1493594E+00
          2   -1    0    0  502    0  0.00000000000E+00  0.00000000000E+00  0.13275201650E+01  0.13275201650E+01  0.00000000000E+00 0. -1.
         -2   -1    0    0    0  501 -0.00000000000E+00 -0.00000000000E+00 -0.39769383845E+03  0.39769383845E+03  0.00000000000E+00 0.  1.
         21    1    1    2  502  503  0.90072524357E+01  0.21068310356E+02 -0.18328906607E+03  0.18471568974E+03  0.00000000000E+00 0. -1.
         21    1    1    2  503  501 -0.90072524357E+01 -0.21068310356E+02 -0.21307725222E+03  0.21430566887E+03  0.00000000000E+00 0.  1.
</event>
<event>
 4    1  0.5967370E+002  0.2339640E+02  0.7546771E-02  0.1487580E+00
          2   -1    0    0  502    0  0.00000000000E+00  0.00000000000E+00  0.30903769713E+01  0.30903769713E+01  0.00000000000E+00 0.  1.
         -2   -1    0    0    0  501 -0.00000000000E+00 -0.00000000000E+00 -0.22934291906E+03  0.22934291906E+03  0.00000000000E+00 0. -1.
         21    1    1    2  502  503 -0.21016156881E+02 -0.10281660764E+02 -0.57673381047E+02  0.62238334486E+02  0.00000000000E+00 0.  1.
         21    1    1    2  503  501  0.21016156881E+02  0.10281660764E+02 -0.16857916104E+03  0.17019496155E+03  0.00000000000E+00 0. -1.
</event>
<event>
 4    1  0.5967370E+002  0.2092517E+02  0.7546771E-02  0.1520336E+00
          2   -1    0    0  503    0  0.00000000000E+00  0.00000000000E+00  0.23825423940E+04  0.23825423940E+04  0.00000000000E+00 0.  1.
         -2   -1    0    0    0  501 -0.00000000000E+00 -0.00000000000E+00 -0.18799157519E+00  0.18799157519E+00  0.00000000000E+00 0. -1.
         21    1    1    2  502  501 -0.46366098460E+01  0.20405014731E+02  0.13695040325E+04  0.13696638850E+04  0.00000000000E+00 0.  1.
         21    1    1    2  503  502  0.46366098460E+01 -0.20405014731E+02  0.10128503699E+04  0.10130665006E+04  0.00000000000E+00 0. -1.
</event>
<event>
 4    1  0.5967370E+002  0.2080767E+02  0.7546771E-02  0.1522029E+00
          2   -1    0    0  502    0  0.00000000000E+00  0.00000000000E+00  0.21741628049E+03  0.21741628049E+03  0.00000000000E+00 0. -1.
         -2   -1    0    0    0  501 -0.00000000000E+00 -0.00000000000E+00 -0.28551676523E+02  0.28551676523E+02  0.00000000000E+00 0.  1.
         21    1    1    2  502  503 -0.17131406079E+01  0.20737028535E+02  0.21304990989E+03  0.21406359640E+03  0.00000000000E+00 0. -1.
         21    1    1    2  503  501  0.17131406079E+01 -0.20737028535E+02 -0.24185305921E+02  0.31904360606E+02  0.00000000000E+00 0.  1.
</event>
<event>
 4    1  0.5967370E+002  0.2234767E+02  0.7546771E-02  0.1500856E+00
          2   -1    0    0  503    0  0.00000000000E+00  0.00000000000E+00  0.32156713444E+03  0.32156713444E+03  0.00000000000E+00 0.  1.
         -2   -1    0    0    0  501 -0.00000000000E+00 -0.00000000000E+00 -0.16002243673E+01  0.16002243673E+01  0.00000000000E+00 0. -1.
         21    1    1    2  502  501  0.16085571226E+02 -0.15513634051E+02  0.13224789852E+03  0.13412279861E+03  0.00000000000E+00 0. -1.
         21    1    1    2  503  502 -0.16085571226E+02  0.15513634051E+02  0.18771901155E+03  0.18904456020E+03  0.00000000000E+00 0.  1.
</event>
<event>
 4    1  0.5967370E+002  0.2021537E+02  0.7546771E-02  0.1530768E+00
          2   -1    0    0  502    0  0.00000000000E+00  0.00000000000E+00  0.35011201754E+03  0.35011201754E+03  0.00000000000E+00 0. -1.
         -2   -1    0    0    0  501 -0.00000000000E+00 -0.00000000000E+00 -0.10750847013E+02  0.10750847013E+02  0.00000000000E+00 0.  1.
         21    1    1    2  502  503 -0.10915225532E+02  0.17015262206E+02  0.34003585701E+03  0.34063623611E+03  0.00000000000E+00 0. -1.
         21    1    1    2  503  501  0.10915225532E+02 -0.17015262206E+02 -0.67468648404E+00  0.20226628444E+02  0.00000000000E+00 0.  1.
</event>
<event>
 4    1  0.5967370E+002  0.2163126E+02  0.7546771E-02  0.1510440E+00
          2   -1    0    0  503    0  0.00000000000E+00  0.00000000000E+00  0.11152016255E+02  0.11152016255E+02  0.00000000000E+00 0.  1.
         -2   -1    0    0    0  501 -0.00000000000E+00 -0.00000000000E+00 -0.46161790282E+02  0.46161790282E+02  0.00000000000E+00 0. -1.
         21    1    1    2  502  501  0.17989102654E+02 -0.12012637296E+02 -0.88565670461E+01  0.23374132047E+02  0.00000000000E+00 0. -1.
         21    1    1    2  503  502 -0.17989102654E+02  0.12012637296E+02 -0.26153206981E+02  0.33939674490E+02  0.00000000000E+00 0.  1.
</event>
<event>
 4    1  0.5967370E+002  0.3278405E+02  0.7546771E-02  0.1396849E+00
          2   -1    0    0  503    0  0.00000000000E+00  0.00000000000E+00  0.18684405595E+04  0.18684405595E+04  0.00000000000E+00 0.  1.
         -2   -1    0    0    0  501 -0.00000000000E+00 -0.00000000000E+00 -0.67908356019E+00  0.67908356019E+00  0.00000000000E+00 0. -1.
         21    1    1    2  502  501 -0.29573421845E+02  0.14149435500E+02  0.56841710146E+03  0.56936174357E+03  0.00000000000E+00 0. -1.
         21    1    1    2  503  502  0.29573421845E+02 -0.14149435500E+02  0.12993443745E+04  0.12997578995E+04  0.00000000000E+00 0.  1.
</event>
<event>
 4    1  0.5967370E+002  0.2215502E+02  0.7546771E-02  0.1503390E+00
          2   -1    0    0  502    0  0.00000000000E+00  0.00000000000E+00  0.13264111893E+03  0.13264111893E+03  0.00000000000E+00 0.  1.
         -2   -1    0    0    0  501 -0.00000000000E+00 -0.00000000000E+00 -0.16277082504E+02  0.16277082504E+02  0.00000000000E+00 0. -1.
         21    1    1    2  502  503  0.15478801296E+02 -0.15850925623E+02  0.12363206448E+03  0.12560148287E+03  0.00000000000E+00 0.  1.
         21    1    1    2  503  501 -0.15478801296E+02  0.15850925623E+02 -0.72680280524E+01  0.23316718561E+02  0.00000000000E+00 0. -1.
</event>
<event>
 4    1  0.5967370E+002  0.2619413E+02  0.7546771E-02  0.1455876E+00
          2   -1    0    0  503    0  0.00000000000E+00  0.00000000000E+00  0.56654332646E+02  0.56654332646E+02  0.00000000000E+00 0. -1.
         -2   -1    0    0    0  501 -0.00000000000E+00 -0.00000000000E+00 -0.30875060003E+02  0.30875060003E+02  0.00000000000E+00 0.  1.
         21    1    1    2  502  501 -0.26138589662E+02 -0.17048134592E+01 -0.21228486575E+02  0.33716181585E+02  0.00000000000E+00 0.  1.
         21    1    1    2  503  502  0.26138589662E+02  0.17048134592E+01  0.47007759217E+02  0.53813211065E+02  0.00000000000E+00 0. -1.
</event>
<event>
 4    1  0.5967370E+002  0.2031957E+02  0.7546771E-02  0.1529205E+00
          2   -1    0    0  503    0  0.00000000000E+00  0.00000000000E+00  0.66534788604E+03  0.66534788604E+03  0.00000000000E+00 0. -1.
         -2   -1    0    0    0  501 -0.00000000000E+00 -0.00000000000E+00 -0.73821993356E+00  0.73821993356E+00  0.00000000000E+00 0.  1.
         21    1    1    2  502  501  0.13584044454E+02 -0.15111539128E+02  0.19934169976E+03  0.20037464446E+03  0.00000000000E+00 0. -1.
         21    1    1    2  503  502 -0.13584044454E+02  0.15111539128E+02  0.46526796635E+03  0.46571146152E+03  0.00000000000E+00 0.  1.
</event>
<event>
 4    1  0.5967370E+002  0.2560493E+02  0.7546771E-02  0.1462149E+00
          2   -1    0    0  503    0  0.00000000000E+00  0.00000000000E+00  0.16925781783E+02  0.16925781783E+02  0.00000000000E+00 0. -1.
         -2   -1    0    0    0  501 -0.00000000000E+00 -0.00000000000E+00 -0.42065748963E+02  0.42065748963E+02  0.00000000000E+00 0.  1.
         21    1    1    2  502  501  0.19931180987E+02  0.16073591145E+02 -0.20870336167E+02  0.33033062825E+02  0.00000000000E+00 0.  1.
         21    1    1    2  503  502 -0.19931180987E+02 -0.16073591145E+02 -0.42696310130E+01  0.25958467922E+02  0.00000000000E+00 0. -1.
</event>
<event>
 4    1  0.5967370E+002  0.2332233E+02  0.7546771E-02  0.1488490E+00
          2   -1    0    0  502    0  0.00000000000E+00  0.00000000000E+00  0.41682067267E+02  0.41682067267E+02  0.00000000000E+00 0. -1.
         -2   -1    0    0    0  501 -0.00000000000E+00 -0.00000000000E+00 -0.13374011124E+02  0.13374011124E+02  0.00000000000E+00 0.  1.
         21    1    1    2  502  503  0.22612081007E+02  0.57118254011E+01  0.18441910372E+02  0.29732729694E+02  0.00000000000E+00 0. -1.
         21    1    1    2  503  501 -0.22612081007E+02 -0.57118254011E+01  0.98661457713E+01  0.25323348697E+02  0.00000000000E+00 0.  1.
</event>
<event>
 4    1  0.5967370E+002  0.2429347E+02  0.7546771E-02  0.1476865E+00
          2   -1    0    0  503    0  0.00000000000E+00  0.00000000000E+00  0.25941979579E+03  0.25941979579E+03  0.00000000000E+00 0. -1.
         -2   -1    0    0    0  501 -0.00000000000E+00 -0.00000000000E+00 -0.57743049902E+01  0.57743049902E+01  0.00000000000E+00 0.  1.
         21    1    1    2  502  501  0.14520183412E+02  0.19476569362E+02  0.23599690224E+02  0.33869128408E+02  0.00000000000E+00 0.  1.
         21    1    1    2  503  502 -0.14520183412E+02 -0.19476569362E+02  0.23004580058E+03  0.23132497237E+03  0.00000000000E+00 0. -1.
</event>
<event>
 4    1  0.5967370E+002  0.2020594E+02  0.7546771E-02  0.1530911E+00
          2   -1    0    0  502    0  0.00000000000E+00  0.00000000000E+00  0.36492619894E+01  0.36492619894E+01  0.00000000000E+00 0.  1.
         -2   -1    0    0    0  501 -0.00000000000E+00 -0.00000000000E+00 -0.26114395316E+03  0.26114395316E+03  0.00000000000E+00 0. -1.
         21    1    1    2  502  503  0.17723397214E+02  0.97036595768E+01 -0.28651930294E+02  0.35060133023E+02  0.00000000000E+00 0.  1.
         21    1    1    2  503  501 -0.17723397214E+02 -0.97036595768E+01 -0.22884276088E+03  0.22973308213E+03  0.00000000000E+00 0. -1.
</event>
<event>
 4    1  0.5967370E+002  0.3209711E+02  0.7546771E-02  0.1402207E+00
          2   -1    0    0  502    0  0.00000000000E+00  0.00000000000E+00  0.24735183450E+04  0.24735183450E+04  0.00000000000E+00 0.  1.
         -2   -1    0    0    0  501 -0.00000000000E+00 -0.00000000000E+00 -0.71654903203E+00  0.71654903203E+00  0.00000000000E+00 0. -1.
         21    1    1    2  502  503 -0.13362597311E+01  0.32069284393E+02  0.20369405736E+04  0.20371934432E+04  0.00000000000E+00 0.  1.
         21    1    1    2  503  501  0.13362597311E+01 -0.32069284393E+02  0.43586122239E+03  0.43704145087E+03  0.00000000000E+00 0. -1.
</event>
<event>
 4    1  0.5967370E+002  0.2955736E+02  0.7546771E-02  0.1423482E+00
          2   -1    0    0  503    0  0.00000000000E+00  0.00000000000E+00  0.23167679322E+03  0.23167679322E+03  0.00000000000E+00 0.  1.
         -2   -1    0    0    0  501 -0.00000000000E+00 -0.00000000000E+00 -0.38684571959E+01  0.38684571959E+01  0.00000000000E+00 0. -1.
         21    1    1    2  502  501  0.59198743130E+01  0.28958467902E+02  0.13260369357E+03  0.13585793066E+03  0.00000000000E+00 0. -1.
         21    1    1    2  503  502 -0.59198743130E+01 -0.28958467902E+02  0.95204642454E+02  0.99687319754E+02  0.00000000000E+00 0.  1.
</event>
<event>
 4    1  0.5967370E+002  0.2415155E+02  0.7546771E-02  0.1478523E+00
          2   -1    0    0  503    0  0.00000000000E+00  0.00000000000E+00  0.89195065573E+03  0.89195065573E+03  0.00000000000E+00 0.  1.
         -2   -1    0    0    0  501 -0.00000000000E+00 -0.00000000000E+00 -0.74797121377E+00  0.74797121377E+00  0.00000000000E+00 0. -1.
         21    1    1    2  502  501  0.24108625887E+02 -0.14393052681E+01  0.28735669988E+03  0.28836985003E+03  0.00000000000E+00 0. -1.
         21    1    1    2  503  502 -0.24108625887E+02  0.14393052681E+01  0.60384598464E+03  0.60432877691E+03  0.00000000000E+00 0.  1.
</event>
<event>
 4    1  0.5967370E+002  0.2306118E+02  0.7546771E-02  0.1491731E+00
          2   -1    0    0  503    0  0.00000000000E+00  0.00000000000E+00  0.12183883380E+01  0.12183883380E+01  0.00000000000E+00 0. -1.
         -2   -1    0    0    0  501 -0.00000000000E+00 -0.00000000000E+00 -0.53301879488E+03  0.53301879488E+03  0.00000000000E+00 0.  1.
         21    1    1    2  502  501 -0.20948729680E+02  0.96420289995E+01 -0.37957246874E+03  0.38027237215E+03  0.00000000000E+00 0.  1.
         21    1    1    2  503  502  0.20948729680E+02 -0.96420289995E+01 -0.15222793780E+03  0.15396481107E+03  0.00000000000E+00 0. -1.
</event>
<event>
 4    1  0.5967370E+002  0.2617098E+02  0.7546771E-02  0.1456118E+00
          2   -1    0    0  502    0  0.00000000000E+00  0.00000000000E+00  0.16021954546E+04  0.16021954546E+04  0.00000000000E+00 0. -1.
         -2   -1    0    0    0  501 -0.00000000000E+00 -0.00000000000E+00 -0.12140306118E+01  0.12140306118E+01  0.00000000000E+00 0.  1.
         21    1    1    2  502  503  0.12182582688E+02 -0.23162575672E+02  0.14457891390E+04  0.14460259868E+04  0.00000000000E+00 0. -1.
         21    1    1    2  503  501 -0.12182582688E+02  0.23162575672E+02  0.15519228501E+03  0.15738349837E+03  0.00000000000E+00 0.  1.
</event>
<event>
 4    1  0.5967370E+002  0.5148130E+02  0.7546771E-02  0.1291875E+00
          2   -1    0    0  503    0  0.00000000000E+00  0.00000000000E+00  0.24146222927E+04  0.24146222927E+04  0.00000000000E+00 0.  1.
         -2   -1    0    0    0  501 -0.00000000000E+00 -0.00000000000E+00 -0.11453521856E+01  0.11453521856E+01  0.00000000000E+00 0. -1.
         21    1    1    2  502  501  0.49313516335E+02 -0.14781775686E+02  0.14533353367E+04  0.14542468582E+04  0.00000000000E+00 0. -1.
         21    1    1    2  503  502 -0.49313516335E+02  0.14781775686E+02  0.96014160386E+03  0.96152078669E+03  0.00000000000E+00 0.  1.
</event>
<event>
 4    1  0.5967370E+002  0.6226396E+02  0.7546771E-02  0.1252329E+00
          2   -1    0    0  503    0  0.00000000000E+00  0.00000000000E+00  0.99145448735E+03  0.99145448735E+03  0.00000000000E+00 0.  1.
         -2   -1    0    0    0  501 -0.00000000000E+00 -0.00000000000E+00 -0.10270872509E+02  0.10270872509E+02  0.00000000000E+00 0. -1.
         21    1    1    2  502  501 -0.47408652464E+02  0.40363598779E+02  0.96437749877E+02  0.11479128903E+03  0.00000000000E+00 0. -1.
         21    1    1    2  503  502  0.47408652464E+02 -0.40363598779E+02  0.88474586496E+03  0.88693407083E+03  0.00000000000E+00 0.  1.
</event>
<event>
 4    1  0.5967370E+002  0.2083336E+02  0.7546771E-02  0.1521657E+00
          2   -1    0    0  503    0  0.00000000000E+00  0.00000000000E+00  0.21687050227E+02  0.21687050227E+02  0.00000000000E+00 0. -1.
         -2   -1    0    0    0  501 -0.00000000000E+00 -0.00000000000E+00 -0.50625893186E+02  0.50625893186E+02  0.00000000000E+00 0.  1.
         21    1    1    2  502  501  0.10859896104E+02  0.17778958292E+02 -0.42585192446E+02  0.47408093370E+02  0.00000000000E+00 0.  1.
         21    1    1    2  503  502 -0.10859896104E+02 -0.17778958292E+02  0.13646349487E+02  0.24904850043E+02  0.00000000000E+00 0. -1.
</event>
<event>
 4    1  0.5967370E+002  0.2956040E+02  0.7546771E-02  0.1423455E+00
          2   -1    0    0  502    0  0.00000000000E+00  0.00000000000E+00  0.96987637840E+02  0.96987637840E+02  0.00000000000E+00 0. -1.
         -2   -1    0    0    0  501 -0.00000000000E+00 -0.00000000000E+00 -0.10870975843E+02  0.10870975843E+02  0.00000000000E+00 0.  1.
         21    1    1    2  502  503  0.13130322464E+02 -0.26484185310E+02  0.65374028984E+02  0.71746645254E+02  0.00000000000E+00 0. -1.
         21    1    1    2  503  501 -0.13130322464E+02  0.26484185310E+02  0.20742633013E+02  0.36111968430E+02  0.00000000000E+00 0.  1.
</event>
<event>
 4    1  0.5967370E+002  0.8443179E+02  0.7546771E-02  0.1193916E+00
          2   -1    0    0  502    0  0.00000000000E+00  0.00000000000E+00  0.26569987625E+04  0.26569987625E+04  0.00000000000E+00 0.  1.
         -2   -1    0    0    0  501 -0.00000000000E+00 -0.00000000000E+00 -0.32206116619E+01  0.32206116619E+01  0.00000000000E+00 0. -1.
         21    1    1    2  502  503  0.38709415327E+02 -0.75035383444E+02  0.18703303596E+04  0.18722351299E+04  0.00000000000E+00 0.  1.
         21    1    1    2  503  501 -0.38709415327E+02  0.75035383444E+02  0.78344779123E+03  0.78798424425E+03  0.00000000000E+00 0. -1.
</event>
<event>
 4    1  0.5967370E+002  0.5349762E+02  0.7546771E-02  0.1283681E+00
          2   -1    0    0  503    0  0.00000000000E+00  0.00000000000E+00  0.22578630678E+04  0.22578630678E+04  0.00000000000E+00 0.  1.
         -2   -1    0    0    0  501 -0.00000000000E+00 -0.00000000000E+00 -0.45058197424E+01  0.45058197424E+01  0.00000000000E+00 0. -1.
         21    1    1    2  502  501  0.17368581624E+02 -0.50599681296E+02  0.16771571617E+03  0.17604134976E+03  0.00000000000E+00 0. -1.
         21    1    1    2  503  502 -0.17368581624E+02  0.50599681296E+02  0.20856415318E+04  0.20863275377E+04  0.00000000000E+00 0.  1.
</event>
<event>
 4    1  0.5967370E+002  0.2137044E+02  0.7546771E-02  0.1514041E+00
          2   -1    0    0  503    0  0.00000000000E+00  0.00000000000E+00  0.13267411152E+04  0.13267411152E+04  0.00000000000E+00 0.  1.
         -2   -1    0    0    0  501 -0.00000000000E+00 -0.00000000000E+00 -0.36804094882E+00  0.36804094882E+00  0.00000000000E+00 0. -1.
         21    1    1    2  502  501 -0.85613595126E+01  0.19580574119E+02  0.83198722487E+03  0.83226164041E+03  0.00000000000E+00 0.  1.
         21    1    1    2  503  502  0.85613595126E+01 -0.19580574119E+02  0.49438584941E+03  0.49484751576E+03  0.00000000000E+00 0. -1.
</event>
<event>
 4    1  0.5967370E+002  0.2200034E+02  0.7546771E-02  0.1505447E+00
          2   -1    0    0  503    0  0.00000000000E+00  0.00000000000E+00  0.32760854749E+01  0.32760854749E+01  0.00000000000E+00 0.  1.
         -2   -1    0    0    0  501 -0.00000000000E+00 -0.00000000000E+00 -0.32605536133E+03  0.32605536133E+03  0.00000000000E+00 0. -1.
         21    1    1    2  502  501  0.14384919078E+02  0.16645992943E+02 -0.28316225546E+03  0.28401562966E+03  0.00000000000E+00 0. -1.
         21    1    1    2  503  502 -0.14384919078E+02 -0.16645992943E+02 -0.39617020400E+02  0.45315817143E+02  0.00000000000E+00 0.  1.
</event>
<event>
 4    1  0.5967370E+002  0.2620166E+02  0.7546771E-02  0.1455797E+00
          2   -1    0    0  503    0  0.00000000000E+00  0.00000000000E+00  0.47298954450E+01  0.47298954450E+01  0.00000000000E+00 0. -1.
         -2   -1    0    0    0  501 -0.00000000000E+00 -0.00000000000E+00 -0.23448662290E+03  0.23448662290E+03  0.00000000000E+00 0.  1.
         21    1    1    2  502  501  0.18520793800E+02 -0.18533941844E+02 -0.18870717957E+03  0.19051752262E+03  0.00000000000E+00 0.  1.
         21    1    1    2  503  502 -0.18520793800E+02  0.18533941844E+02 -0.41049547887E+02  0.48698995729E+02  0.00000000000E+00 0. -1.
</event>
<event>
 4    1  0.5967370E+002  0.2321663E+02  0.7546771E-02  0.1489796E+00
          2   -1    0    0  503    0  0.00000000000E+00  0.00000000000E+00  0.18462886440E+04  0.18462886440E+04  0.00000000000E+00 0. -1.
         -2   -1    0    0    0  501 -0.00000000000E+00 -0.00000000000E+00 -0.97388247806E+00  0.97388247806E+00  0.00000000000E+00 0.  1.
         21    1    1    2  502  501 -0.16538086547E+01 -0.23157656307E+02  0.14976668690E+03  0.15155551007E+03  0.00000000000E+00 0.  1.
         21    1    1    2  503  502  0.16538086547E+01  0.23157656307E+02  0.16955480747E+04  0.16957070164E+04  0.00000000000E+00 0. -1.
</event>
<event>
 4    1  0.5967370E+002  0.3444687E+02  0.7546771E-02  0.1384494E+00
          2   -1    0    0  503    0  0.00000000000E+00  0.00000000000E+00  0.65584952111E+01  0.65584952111E+01  0.00000000000E+00 0.  1.
         -2   -1    0    0    0  501 -0.00000000000E+00 -0.00000000000E+00 -0.18852531732E+03  0.18852531732E+03  0.00000000000E+00 0. -1.
         21    1    1    2  502  501 -0.18856463630E+02  0.28827429282E+02 -0.71396732541E+02  0.79272191323E+02  0.00000000000E+00 0. -1.
         21    1    1    2  503  502  0.18856463630E+02 -0.28827429282E+02 -0.11057008957E+03  0.11581162120E+03  0.00000000000E+00 0.  1.
</event>
<event>
 4    1  0.5967370E+002  0.2104340E+02  0.7546771E-02  0.1518646E+00
          2   -1    0    0  502    0  0.00000000000E+00  0.00000000000E+00  0.11166245278E+04  0.11166245278E+04  0.00000000000E+00 0. -1.
         -2   -1    0    0    0  501 -0.00000000000E+00 -0.00000000000E+00 -0.73967818151E+01  0.73967818151E+01  0.00000000000E+00 0.  1.
         21    1    1    2  502  503  0.17183563424E+02 -0.12147016133E+02  0.11013510360E+04  0.11015520548E+04  0.00000000000E+00 0. -1.
         21    1    1    2  503  501 -0.17183563424E+02  0.12147016133E+02  0.78767099650E+01  0.22469254833E+02  0.00000000000E+00 0.  1.
</event>
<event>
 4    1  0.5967370E+002  0.3858489E+02  0.7546771E-02  0.1356984E+00
          2   -1    0    0  502    0  0.00000000000E+00  0.00000000000E+00  0.21885035545E+04  0.21885035545E+04  0.00000000000E+00 0. -1.
         -2   -1    0    0    0  501 -0.00000000000E+00 -0.00000000000E+00 -0.94404698512E+00  0.94404698512E+00  0.00000000000E+00 0.  1.
         21    1    1    2  502  503  0.35438057615E+02 -0.15262307699E+02  0.16724330580E+04  0.16728780970E+04  0.00000000000E+00 0. -1.
         21    1    1    2  503  501 -0.35438057615E+02  0.15262307699E+02  0.51512644943E+03  0.51656950439E+03  0.00000000000E+00 0.  1.
</event>
<event>
 4    1  0.5967370E+002  0.2250081E+02  0.7546771E-02  0.1498863E+00
          2   -1    0    0  502    0  0.00000000000E+00  0.00000000000E+00  0.12547969705E+02  0.12547969705E+02  0.00000000000E+00 0. -1.
         -2   -1    0    0    0  501 -0.00000000000E+00 -0.00000000000E+00 -0.57695994254E+02  0.57695994254E+02  0.00000000000E+00 0.  1.
         21    1    1    2  502  503 -0.71412231398E+01 -0.21337516182E+02 -0.33151938105E+01  0.22743728251E+02  0.00000000000E+00 0. -1.
         21    1    1    2  503  501  0.71412231398E+01  0.21337516182E+02 -0.41832830738E+02  0.47500235708E+02  0.00000000000E+00 0.  1.
</event>
<event>
 4    1  0.5967370E+002  0.2108928E+02  0.7546771E-02  0.1517994E+00
          2   -1    0    0  502    0  0.00000000000E+00  0.00000000000E+00  0.12284315393E+02  0.12284315393E+02  0.00000000000E+00 0. -1.
         -2   -1    0    0    0  501 -0.00000000000E+00 -0.00000000000E+00 -0.38238193685E+02  0.38238193685E+02  0.00000000000E+00 0.  1.
         21    1    1    2  502  503 -0.11038400446E+02  0.17969733885E+02 -0.71524077793E+01  0.22269139125E+02  0.00000000000E+00 0. -1.
         21    1    1    2  503  501  0.11038400446E+02 -0.17969733885E+02 -0.18801470513E+02  0.28253369954E+02  0.00000000000E+00 0.  1.
</event>
<event>
 4    1  0.5967370E+002  0.2240717E+02  0.7546771E-02  0.1500080E+00
          2   -1    0    0  502    0  0.00000000000E+00  0.00000000000E+00  0.20393234009E+04  0.20393234009E+04  0.00000000000E+00 0. -1.
         -2   -1    0    0    0  501 -0.00000000000E+00 -0.00000000000E+00 -0.25857939726E+00  0.25857939726E+00  0.00000000000E+00 0.  1.
         21    1    1    2  502  503  0.16231800994E+01  0.22348301733E+02  0.12426660097E+04  0.12428680111E+04  0.00000000000E+00 0. -1.
         21    1    1    2  503  501 -0.16231800994E+01 -0.22348301733E+02  0.79639881178E+03  0.79671396919E+03  0.00000000000E+00 0.  1.
</event>
<event>
 4    1  0.5967370E+002  0.2076480E+02  0.7546771E-02  0.1522650E+00
          2   -1    0    0  503    0  0.00000000000E+00  0.00000000000E+00  0.11214584160E+04  0.11214584160E+04  0.00000000000E+00 0. -1.
         -2   -1    0    0    0  501 -0.00000000000E+00 -0.00000000000E+00 -0.45304070414E+00  0.45304070414E+00  0.00000000000E+00 0.  1.
         21    1    1    2  502  501 -0.19664082555E+02 -0.66708888777E+01  0.34227912055E+03  0.34290840360E+03  0.00000000000E+00 0.  1.
         21    1    1    2  503  502  0.19664082555E+02  0.66708888777E+01  0.77872625478E+03  0.77900305313E+03  0.00000000000E+00 0. -1.
</event>
<event>
 4    1  0.5967370E+002  0.3775817E+02  0.7546771E-02  0.1362148E+00
          2   -1    0    0  503    0  0.00000000000E+00  0.00000000000E+00  0.18439874665E+04  0.18439874665E+04  0.00000000000E+00 0. -1.
         -2   -1    0    0    0  501 -0.00000000000E+00 -0.00000000000E+00 -0.89884084351E+00  0.89884084351E+00  0.00000000000E+00 0.  1.
         21    1    1    2  502  501  0.47424359008E+01 -0.37459161446E+02  0.57659959114E+03  0.57783455069E+03  0.00000000000E+00 0. -1.
         21    1    1    2  503  502 -0.47424359008E+01  0.37459161446E+02  0.12664890345E+04  0.12670517566E+04  0.00000000000E+00 0.  1.
</event>
<event>
 4    1  0.5967370E+002  0.2830971E+02  0.7546771E-02  0.1434878E+00
          2   -1    0    0  502    0  0.00000000000E+00  0.00000000000E+00  0.10277678524E+02  0.10277678524E+02  0.00000000000E+00 0.  1.
         -2   -1    0    0    0  501 -0.00000000000E+00 -0.00000000000E+00 -0.54555150315E+03  0.54555150315E+03  0.00000000000E+00 0. -1.
         21    1    1    2  502  503 -0.40402959721E+00  0.28306831180E+02 -0.10349763316E+02  0.30142288102E+02  0.00000000000E+00 0.  1.
         21    1    1    2  503  501  0.40402959721E+00 -0.28306831180E+02 -0.52492406131E+03  0.52568689357E+03  0.00000000000E+00 0. -1.
</event>
<event>
 4    1  0.5967370E+002  0.2002790E+02  0.7546771E-02  0.1533610E+00
          2   -1    0    0  502    0  0.00000000000E+00  0.00000000000E+00  0.16894272782E+03  0.16894272782E+03  0.00000000000E+00 0. -1.
         -2   -1    0    0    0  501 -0.00000000000E+00 -0.00000000000E+00 -0.53386842846E+01  0.53386842846E+01  0.00000000000E+00 0.  1.
         21    1    1    2  502  503 -0.19867058836E+02  0.25330918008E+01  0.14673614791E+03  0.14809663631E+03  0.00000000000E+00 0. -1.
         21    1    1    2  503  501  0.19867058836E+02 -0.25330918008E+01  0.16867895621E+02  0.26184775798E+02  0.00000000000E+00 0.  1.
</event>
<event>
 4    1  0.5967370E+002  0.2873645E+02  0.7546771E-02  0.1430904E+00
          2   -1    0    0  502    0  0.00000000000E+00  0.00000000000E+00  0.25146439799E+02  0.25146439799E+02  0.00000000000E+00 0.  1.
         -2   -1    0    0    0  501 -0.00000000000E+00 -0.00000000000E+00 -0.20298207373E+03  0.20298207373E+03  0.00000000000E+00 0. -1.
         21    1    1    2  502  503 -0.23098413284E+02  0.17095235805E+02  0.15512808078E+02  0.32656255112E+02  0.00000000000E+00 0.  1.
         21    1    1    2  503  501  0.23098413284E+02 -0.17095235805E+02 -0.19334844201E+03  0.19547225842E+03  0.00000000000E+00 0. -1.
</event>
<event>
 4    1  0.5967370E+002  0.2844973E+02  0.7546771E-02  0.1433565E+00
          2   -1    0    0  502    0  0.00000000000E+00  0.00000000000E+00  0.12137988013E+03  0.12137988013E+03  0.00000000000E+00 0. -1.
         -2   -1    0    0    0  501 -0.00000000000E+00 -0.00000000000E+00 -0.86088795544E+01  0.86088795544E+01  0.00000000000E+00 0.  1.
         21    1    1    2  502  503 -0.25989425415E+02 -0.11573100103E+02  0.87244224205E+02  0.91765688231E+02  0.00000000000E+00 0. -1.
         21    1    1    2  503  501  0.25989425415E+02  0.11573100103E+02  0.25526776368E+02  0.38223071451E+02  0.00000000000E+00 0.  1.
</event>
<event>
 4    1  0.5967370E+002  0.2482805E+02  0.7546771E-02  0.1470736E+00
          2   -1    0    0  503    0  0.00000000000E+00  0.00000000000E+00  0.43662420894E+03  0.43662420894E+03  0.00000000000E+00 0. -1.
         -2   -1    0    0    0  501 -0.00000000000E+00 -0.00000000000E+00 -0.16642113036E+01  0.16642113036E+01  0.00000000000E+00 0.  1.
         21    1    1    2  502  501 -0.17526907519E+02  0.17585209560E+02  0.13213692184E+03  0.13444924022E+03  0.00000000000E+00 0.  1.
         21    1    1    2  503  502  0.17526907519E+02 -0.17585209560E+02  0.30282307580E+03  0.30383918002E+03  0.00000000000E+00 0. -1.
</event>
<event>
 4    1  0.5967370E+002  0.2761731E+02  0.7546771E-02  0.1441504E+00
          2   -1    0    0  503    0  0.00000000000E+00  0.00000000000E+00  0.53000891533E+01  0.53000891533E+01  0.00000000000E+00 0.  1.
         -2   -1    0    0    0  501 -0.00000000000E+00 -0.00000000000E+00 -0.20243079768E+03  0.20243079768E+03  0.00000000000E+00 0. -1.
         21    1    1    2  502  501 -0.23649341608E+02  0.14262684900E+02 -0.15441264509E+03  0.15686293540E+03  0.00000000000E+00 0. -1.
         21    1    1    2  503  502  0.23649341608E+02 -0.14262684900E+02 -0.42718063432E+02  0.50867951428E+02  0.00000000000E+00 0.  1.
</event>
<event>
 4    1  0.5967370E+002  0.3468406E+02  0.7546771E-02  0.1382798E+00
          2   -1    0    0  503    0  0.00000000000E+00  0.00000000000E+00  0.10316868675E+03  0.10316868675E+03  0.00000000000E+00 0. -1.
         -2   -1    0    0    0  501 -0.00000000000E+00 -0.00000000000E+00 -0.27881545275E+02  0.27881545275E+02  0.00000000000E+00 0.  1.
         21    1    1    2  502  501  0.29682983046E+02  0.17941691739E+02 -0.12335790638E+02  0.36812436970E+02  0.00000000000E+00 0.  1.
         21    1    1    2  503  502 -0.29682983046E+02 -0.17941691739E+02  0.87622932117E+02  0.94237795060E+02  0.00000000000E+00 0. -1.
</event>
<event>
 4    1  0.5967370E+002  0.2449079E+02  0.7546771E-02  0.1474581E+00
          2   -1    0    0  503    0  0.00000000000E+00  0.00000000000E+00  0.64578437686E+01  0.64578437686E+01  0.00000000000E+00 0.  1.
         -2   -1    0    0    0  501 -0.00000000000E+00 -0.00000000000E+00 -0.50494011173E+03  0.50494011173E+03  0.00000000000E+00 0. -1.
         21    1    1    2  502  501 -0.16122144870E+02  0.18435707896E+02 -0.48022933940E+03  0.48085342600E+03  0.00000000000E+00 0. -1.
         21    1    1    2  503  502  0.16122144870E+02 -0.18435707896E+02 -0.18252928560E+02  0.30544529491E+02  0.00000000000E+00 0.  1.
</event>
<event>
 4    1  0.5967370E+002  0.2417682E+02  0.7546771E-02  0.1478227E+00
          2   -1    0    0  503    0  0.00000000000E+00  0.00000000000E+00  0.10102846308E+03  0.10102846308E+03  0.00000000000E+00 0. -1.
         -2   -1    0    0    0  501 -0.00000000000E+00 -0.00000000000E+00 -0.28967460320E+02  0.28967460320E+02  0.00000000000E+00 0.  1.
         21    1    1    2  502  501 -0.53994176215E+01  0.23566179904E+02 -0.22115238732E+02  0.32765871423E+02  0.00000000000E+00 0.  1.
         21    1    1    2  503  502  0.53994176215E+01 -0.23566179904E+02  0.94176241491E+02  0.97230051976E+02  0.00000000000E+00 0. -1.
</event>
<event>
 4    1  0.5967370E+002  0.2557961E+02  0.7546771E-02  0.1462423E+00
          2   -1    0    0  503    0  0.00000000000E+00  0.00000000000E+00  0.62576802011E+02  0.62576802011E+02  0.00000000000E+00 0.  1.
         -2   -1    0    0    0  501 -0.00000000000E+00 -0.00000000000E+00 -0.10709662459E+02  0.10709662459E+02  0.00000000000E+00 0. -1.
         21    1    1    2  502  501  0.24887118303E+02 -0.59116531313E+01  0.20296511389E+02  0.32653708438E+02  0.00000000000E+00 0.  1.
         21    1    1    2  503  502 -0.24887118303E+02  0.59116531313E+01  0.31570628162E+02  0.40632756032E+02  0.00000000000E+00 0. -1.
</event>
<event>
 4    1  0.5967370E+002  0.2071132E+02  0.7546771E-02  0.1523427E+00
          2   -1    0    0  503    0  0.00000000000E+00  0.00000000000E+00  0.13773658870E+04  0.13773658870E+04  0.00000000000E+00 0. -1.
         -2   -1    0    0    0  501 -0.00000000000E+00 -0.00000000000E+00 -0.55512208637E+00  0.55512208637E+00  0.00000000000E+00 0.  1.
         21    1    1    2  502  501  0.48534321112E+01 -0.20134622645E+02  0.11448804383E+04  0.11450677608E+04  0.00000000000E+00 0. -1.
         21    1    1    2  503  502 -0.48534321112E+01  0.20134622645E+02  0.23193032666E+03  0.23285324833E+03  0.00000000000E+00 0.  1.
</event>
<event>
 4    1  0.5967370E+002  0.2976706E+02  0.7546771E-02  0.1421632E+00
          2   -1    0    0  502    0  0.00000000000E+00  0.00000000000E+00  0.18662595261E+04  0.18662595261E+04  0.00000000000E+00 0. -1.
         -2   -1    0    0    0  501 -0.00000000000E+00 -0.00000000000E+00 -0.56971911867E+00  0.56971911867E+00  0.00000000000E+00 0.  1.
         21    1    1    2  502  503 -0.14916894432E+02  0.25759736483E+02  0.13138653984E+04  0.13142025578E+04  0.00000000000E+00 0.  1.
         21    1    1    2  503  501  0.14916894432E+02 -0.25759736483E+02  0.55182440860E+03  0.55262668746E+03  0.00000000000E+00 0. -1.
</event>
<event>
 4    1  0.5967370E+002  0.2058407E+02  0.7546771E-02  0.1525287E+00
          2   -1    0    0  503    0  0.00000000000E+00  0.00000000000E+00  0.62200998611E+03  0.62200998611E+03  0.00000000000E+00 0.  1.
         -2   -1    0    0    0  501 -0.00000000000E+00 -0.00000000000E+00 -0.69876952987E+00  0.69876952987E+00  0.00000000000E+00 0. -1.
         21    1    1    2  502  501 -0.20232500920E+02  0.37881301040E+01  0.36004690000E+03  0.36063482114E+03  0.00000000000E+00 0.  1.
         21    1    1    2  503  502  0.20232500920E+02 -0.37881301040E+01  0.26126431658E+03  0.26207393450E+03  0.00000000000E+00 0. -1.
</event>
<event>
 4    1  0.5967370E+002  0.2901220E+02  0.7546771E-02  0.1428379E+00
          2   -1    0    0  503    0  0.00000000000E+00  0.00000000000E+00  0.63360153652E+03  0.63360153652E+03  0.00000000000E+00 0. -1.
         -2   -1    0    0    0  501 -0.00000000000E+00 -0.00000000000E+00 -0.14410354198E+01  0.14410354198E+01  0.00000000000E+00 0.  1.
         21    1    1    2  502  501 -0.28539865326E+02 -0.52137976334E+01  0.22732834292E+03  0.22917216911E+03  0.00000000000E+00 0. -1.
         21    1    1    2  503  502  0.28539865326E+02  0.52137976334E+01  0.40483215818E+03  0.40587040283E+03  0.00000000000E+00 0.  1.
</event>
<event>
 4    1  0.5967370E+002  0.2299889E+02  0.7546771E-02  0.1492512E+00
          2   -1    0    0  502    0  0.00000000000E+00  0.00000000000E+00  0.86849515417E+03  0.86849515417E+03  0.00000000000E+00 0. -1.
         -2   -1    0    0    0  501 -0.00000000000E+00 -0.00000000000E+00 -0.12295647692E+01  0.12295647692E+01  0.00000000000E+00 0.  1.
         21    1    1    2  502  503  0.21169543584E+02 -0.89888427038E+01  0.74255949072E+03  0.74291557134E+03  0.00000000000E+00 0. -1.
         21    1    1    2  503  501 -0.21169543584E+02  0.89888427038E+01  0.12470609868E+03  0.12680914760E+03  0.00000000000E+00 0.  1.
</event>
<event>
 4    1  0.5967370E+002  0.2606613E+02  0.7546771E-02  0.1457221E+00
          2   -1    0    0  503    0  0.00000000000E+00  0.00000000000E+00  0.24250512250E+02  0.24250512250E+02  0.00000000000E+00 0.  1.
         -2   -1    0    0    0  501 -0.00000000000E+00 -0.00000000000E+00 -0.36131451386E+02  0.36131451386E+02  0.00000000000E+00 0. -1.
         21    1    1    2  502  501  0.24184058476E+02 -0.97249384916E+01 -0.20247381150E+02  0.33006053331E+02  0.00000000000E+00 0. -1.
         21    1    1    2  503  502 -0.24184058476E+02  0.97249384916E+01  0.83664420143E+01  0.27375910305E+02  0.00000000000E+00 0.  1.
</event>
<event>
 4    1  0.5967370E+002  0.2129223E+02  0.7546771E-02  0.1515133E+00
          2   -1    0    0  502    0  0.00000000000E+00  0.00000000000E+00  0.87278054555E+03  0.87278054555E+03  0.00000000000E+00 0. -1.
         -2   -1    0    0    0  501 -0.00000000000E+00 -0.00000000000E+00 -0.23868943425E+02  0.23868943425E+02  0.00000000000E+00 0.  1.
         21    1    1    2  502  503 -0.20135175619E+02 -0.69234216086E+01  0.86787543171E+03  0.86813658144E+03  0.00000000000E+00 0. -1.
         21    1    1    2  503  501  0.20135175619E+02  0.69234216086E+01 -0.18963829582E+02  0.28512907541E+02  0.00000000000E+00 0.  1.
</event>
<event>
 4    1  0.5967370E+002  0.2115823E+02  0.7546771E-02  0.1517018E+00
          2   -1    0    0  503    0  0.00000000000E+00  0.00000000000E+00  0.86163032890E+01  0.86163032890E+01  0.00000000000E+00 0.  1.
         -2   -1    0    0    0  501 -0.00000000000E+00 -0.00000000000E+00 -0.51982672570E+02  0.51982672570E+02  0.00000000000E+00 0. -1.
         21    1    1    2  502  501 -0.19026113224E+02  0.92562343864E+01 -0.22366221622E+02  0.30788288830E+02  0.00000000000E+00 0.  1.
         21    1    1    2  503  502  0.19026113224E+02 -0.92562343864E+01 -0.21000147659E+02  0.29810687029E+02  0.00000000000E+00 0. -1.
</event>
<event>
 4    1  0.5967370E+002  0.4817764E+02  0.7546771E-02  0.1306273E+00
          2   -1    0    0  502    0  0.00000000000E+00  0.00000000000E+00  0.85585921594E+03  0.85585921594E+03  0.00000000000E+00 0. -1.
         -2   -1    0    0    0  501 -0.00000000000E+00 -0.00000000000E+00 -0.42119313712E+01  0.42119313712E+01  0.00000000000E+00 0.  1.
         21    1    1    2  502  503 -0.31469330614E+02  0.36479671707E+02  0.68244941849E+03  0.68414785976E+03  0.00000000000E+00 0. -1.
         21    1    1    2  503  501  0.31469330614E+02 -0.36479671707E+02  0.16919786608E+03  0.17592328755E+03  0.00000000000E+00 0.  1.
</event>
<event>
 4    1  0.5967370E+002  0.2139461E+02  0.7546771E-02  0.1513705E+00
          2   -1    0    0  502    0  0.00000000000E+00  0.00000000000E+00  0.85625871018E+02  0.85625871018E+02  0.00000000000E+00 0.  1.
         -2   -1    0    0    0  501 -0.00000000000E+00 -0.00000000000E+00 -0.77571314080E+01  0.77571314080E+01  0.00000000000E+00 0. -1.
         21    1    1    2  502  503  0.17817741412E+02 -0.11843029709E+02  0.64967460187E+02  0.68399562461E+02  0.00000000000E+00 0.  1.
         21    1    1    2  503  501 -0.17817741412E+02  0.11843029709E+02  0.12901279424E+02  0.24983439965E+02  0.00000000000E+00 0. -1.
</event>
<event>
 4    1  0.5967370E+002  0.3920316E+02  0.7546771E-02  0.1353220E+00
          2   -1    0    0  503    0  0.00000000000E+00  0.00000000000E+00  0.23387546266E+03  0.23387546266E+03  0.00000000000E+00 0.  1.
         -2   -1    0    0    0  501 -0.00000000000E+00 -0.00000000000E+00 -0.68559283149E+01  0.68559283149E+01  0.00000000000E+00 0. -1.
         21    1    1    2  502  501  0.10927474063E+02  0.37649411806E+02  0.88988854097E+02  0.97241472902E+02  0.00000000000E+00 0. -1.
         21    1    1    2  503  502 -0.10927474063E+02 -0.37649411806E+02  0.13803068025E+03  0.14348991807E+03  0.00000000000E+00 0.  1.
</event>
<event>
 4    1  0.5967370E+002  0.2533674E+02  0.7546771E-02  0.1465071E+00
          2   -1    0    0  503    0  0.00000000000E+00  0.00000000000E+00  0.33310996739E+03  0.33310996739E+03  0.00000000000E+00 0.  1.
         -2   -1    0    0    0  501 -0.00000000000E+00 -0.00000000000E+00 -0.19535238410E+01  0.19535238410E+01  0.00000000000E+00 0. -1.
         21    1    1    2  502  501 -0.23663551560E+02 -0.90546399767E+01  0.14610933692E+03  0.14828988001E+03  0.00000000000E+00 0.  1.
         21    1    1    2  503  502  0.23663551560E+02  0.90546399767E+01  0.18504710663E+03  0.18677361122E+03  0.00000000000E+00 0. -1.
</event>
<event>
 4    1  0.5967370E+002  0.3077854E+02  0.7546771E-02  0.1412949E+00
          2   -1    0    0  502    0  0.00000000000E+00  0.00000000000E+00  0.65316388936E+03  0.65316388936E+03  0.00000000000E+00 0.  1.
         -2   -1    0    0    0  501 -0.00000000000E+00 -0.00000000000E+00 -0.14656310144E+01  0.14656310144E+01  0.00000000000E+00 0. -1.
         21    1    1    2  502  503 -0.25397141158E+02  0.17386876751E+02  0.35926751837E+03  0.36058351046E+03  0.00000000000E+00 0.  1.
         21    1    1    2  503  501  0.25397141158E+02 -0.17386876751E+02  0.29243073998E+03  0.29404600991E+03  0.00000000000E+00 0. -1.
</event>
<event>
 4    1  0.5967370E+002  0.2508148E+02  0.7546771E-02  0.1467894E+00
          2   -1    0    0  503    0  0.00000000000E+00  0.00000000000E+00  0.13279183674E+04  0.13279183674E+04  0.00000000000E+00 0. -1.
         -2   -1    0    0    0  501 -0.00000000000E+00 -0.00000000000E+00 -0.20009447872E+01  0.20009447872E+01  0.00000000000E+00 0.  1.
         21    1    1    2  502  501  0.14331496556E+02  0.20583707019E+02  0.82024222979E+02  0.85773270565E+02  0.00000000000E+00 0.  1.
         21    1    1    2  503  502 -0.14331496556E+02 -0.20583707019E+02  0.12438931996E+04  0.12441460416E+04  0.00000000000E+00 0. -1.
</event>
<event>
 4    1  0.5967370E+002  0.6761612E+02  0.7546771E-02  0.1235942E+00
          2   -1    0    0  503    0  0.00000000000E+00  0.00000000000E+00  0.10093879779E+03  0.10093879779E+03  0.00000000000E+00 0.  1.
         -2   -1    0    0    0  501 -0.00000000000E+00 -0.00000000000E+00 -0.92930228930E+02  0.92930228930E+02  0.00000000000E+00 0. -1.
         21    1    1    2  502  501  0.63609122644E+02  0.22930733811E+02 -0.65397053691E+02  0.94067601585E+02  0.00000000000E+00 0. -1.
         21    1    1    2  503  502 -0.63609122644E+02 -0.22930733811E+02  0.73405622549E+02  0.99801425133E+02  0.00000000000E+00 0.  1.
</event>
<event>
 4    1  0.5967370E+002  0.2850414E+02  0.7546771E-02  0.1433057E+00
          2   -1    0    0  502    0  0.00000000000E+00  0.00000000000E+00  0.71839473701E+03  0.71839473701E+03  0.00000000000E+00 0.  1.
         -2   -1    0    0    0  501 -0.00000000000E+00 -0.00000000000E+00 -0.16319588446E+01  0.16319588446E+01  0.00000000000E+00 0. -1.
         21    1    1    2  502  503 -0.25047901367E+02 -0.13604722512E+02  0.55785077691E+03  0.55857853086E+03  0.00000000000E+00 0.  1.
         21    1    1    2  503  501  0.25047901367E+02  0.13604722512E+02  0.15891200126E+03  0.16144816500E+03  0.00000000000E+00 0. -1.
</event>
<event>
 4    1  0.5967370E+002  0.2106446E+02  0.7546771E-02  0.1518346E+00
          2   -1    0    0  503    0  0.00000000000E+00  0.00000000000E+00  0.10891199635E+03  0.10891199635E+03  0.00000000000E+00 0.  1.
         -2   -1    0    0    0  501 -0.00000000000E+00 -0.00000000000E+00 -0.55235102135E+01  0.55235102135E+01  0.00000000000E+00 0. -1.
         21    1    1    2  502  501  0.11254093131E+02 -0.17806088279E+02  0.22383389249E+02  0.30736419868E+02  0.00000000000E+00 0. -1.
         21    1    1    2  503  502 -0.11254093131E+02  0.17806088279E+02  0.81005096889E+02  0.83699086697E+02  0.00000000000E+00 0.  1.
</event>
<event>
 4    1  0.5967370E+002  0.3306489E+02  0.7546771E-02  0.1394703E+00
          2   -1    0    0  502    0  0.00000000000E+00  0.00000000000E+00  0.17081723339E+04  0.17081723339E+04  0.00000000000E+00 0.  1.
         -2   -1    0    0    0  501 -0.00000000000E+00 -0.00000000000E+00 -0.72021840298E+00  0.72021840298E+00  0.00000000000E+00 0. -1.
         21    1    1    2  502  503 -0.18565794638E+00 -0.33064370269E+02  0.56862442851E+03  0.56958496095E+03  0.00000000000E+00 0.  1.
         21    1    1    2  503  501  0.18565794638E+00  0.33064370269E+02  0.11388276870E+04  0.11393075914E+04  0.00000000000E+00 0. -1.
</event>
<event>
 4    1  0.5967370E+002  0.2793335E+02  0.7546771E-02  0.1438451E+00
          2   -1    0    0  503    0  0.00000000000E+00  0.00000000000E+00  0.79152017158E+03  0.79152017158E+03  0.00000000000E+00 0. -1.
         -2   -1    0    0    0  501 -0.00000000000E+00 -0.00000000000E+00 -0.23409086702E+01  0.23409086702E+01  0.00000000000E+00 0.  1.
         21    1    1    2  502  501 -0.27926654127E+02 -0.61167988402E+00  0.92586777511E+02  0.96708756237E+02  0.00000000000E+00 0.  1.
         21    1    1    2  503  502  0.27926654127E+02  0.61167988402E+00  0.69659248540E+03  0.69715232401E+03  0.00000000000E+00 0. -1.
</event>
<event>
 4    1  0.5967370E+002  0.2072899E+02  0.7546771E-02  0.1523170E+00
          2   -1    0    0  503    0  0.00000000000E+00  0.00000000000E+00  0.74165977250E+03  0.74165977250E+03  0.00000000000E+00 0.  1.
         -2   -1    0    0    0  501 -0.00000000000E+00 -0.00000000000E+00 -0.13934802389E+01  0.13934802389E+01  0.00000000000E+00 0. -1.
         21    1    1    2  502  501  0.10524590592E+02 -0.17858441170E+02  0.86156411186E+02  0.88614999388E+02  0.00000000000E+00 0. -1.
         21    1    1    2  503  502 -0.10524590592E+02  0.17858441170E+02  0.65410988108E+03  0.65443825335E+03  0.00000000000E+00 0.  1.
</event>
<event>
 4    1  0.5967370E+002  0.2477082E+02  0.7546771E-02  0.1471384E+00
          2   -1    0    0  502    0  0.00000000000E+00  0.00000000000E+00  0.32858478580E+03  0.32858478580E+03  0.00000000000E+00 0. -1.
         -2   -1    0    0    0  501 -0.00000000000E+00 -0.00000000000E+00 -0.32673694026E+01  0.32673694026E+01  0.00000000000E+00 0.  1.
         21    1    1    2  502  503 -0.26370276278E+01 -0.24630054786E+02  0.27127062992E+03  0.27239924407E+03  0.00000000000E+00 0. -1.
         21    1    1    2  503  501  0.26370276278E+01  0.24630054786E+02  0.54046786477E+02  0.59452911131E+02  0.00000000000E+00 0.  1.
</event>
<event>
 4    1  0.5967370E+002  0.2073258E+02  0.7546771E-02  0.1523117E+00
          2   -1    0    0  502    0  0.00000000000E+00  0.00000000000E+00  0.24249029733E+02  0.24249029733E+02  0.00000000000E+00 0. -1.
         -2   -1    0    0    0  501 -0.00000000000E+00 -0.00000000000E+00 -0.45797648872E+02  0.45797648872E+02  0.00000000000E+00 0.  1.
         21    1    1    2  502  503 -0.16414243938E+02 -0.12665397053E+02  0.16645818539E+02  0.26588022894E+02  0.00000000000E+00 0. -1.
         21    1    1    2  503  501  0.16414243938E+02  0.12665397053E+02 -0.38194437678E+02  0.43458655710E+02  0.00000000000E+00 0.  1.
</event>
<event>
 4    1  0.5967370E+002  0.3532954E+02  0.7546771E-02  0.1378261E+00
          2   -1    0    0  502    0  0.00000000000E+00  0.00000000000E+00  0.17010167956E+04  0.17010167956E+04  0.00000000000E+00 0.  1.
         -2   -1    0    0    0  501 -0.00000000000E+00 -0.00000000000E+00 -0.81270614673E+00  0.81270614673E+00  0.00000000000E+00 0. -1.
         21    1    1    2  502  503 -0.34866361506E+02  0.57020520777E+01  0.11152709034E+04  0.11158303476E+04  0.00000000000E+00 0.  1.
         21    1    1    2  503  501  0.34866361506E+02 -0.57020520777E+01  0.58493318606E+03  0.58599915419E+03  0.00000000000E+00 0. -1.
</event>
<event>
 4    1  0.5967370E+002  0.2536096E+02  0.7546771E-02  0.1464806E+00
          2   -1    0    0  503    0  0.00000000000E+00  0.00000000000E+00  0.10920483884E+03  0.10920483884E+03  0.00000000000E+00 0. -1.
         -2   -1    0    0    0  501 -0.00000000000E+00 -0.00000000000E+00 -0.63604539087E+01  0.63604539087E+01  0.00000000000E+00 0.  1.
         21    1    1    2  502  501  0.24965166543E+02  0.44630236567E+01  0.35701413116E+02  0.43792339731E+02  0.00000000000E+00 0. -1.
         21    1    1    2  503  502 -0.24965166543E+02 -0.44630236567E+01  0.67142971818E+02  0.71772953020E+02  0.00000000000E+00 0.  1.
</event>
<event>
 4    1  0.5967370E+002  0.2047741E+02  0.7546771E-02  0.1526859E+00
          2   -1    0    0  502    0  0.00000000000E+00  0.00000000000E+00  0.19354546235E+03  0.19354546235E+03  0.00000000000E+00 0.  1.
         -2   -1    0    0    0  501 -0.00000000000E+00 -0.00000000000E+00 -0.23169709836E+01  0.23169709836E+01  0.00000000000E+00 0. -1.
         21    1    1    2  502  503  0.11969741299E+02 -0.16614737155E+02  0.70660949426E+02  0.73568294606E+02  0.00000000000E+00 0. -1.
         21    1    1    2  503  501 -0.11969741299E+02  0.16614737155E+02  0.12056754194E+03  0.12229413873E+03  0.00000000000E+00 0.  1.
</event>
<event>
 4    1  0.5967370E+002  0.2668828E+02  0.7546771E-02  0.1450765E+00
          2   -1    0    0  503    0  0.00000000000E+00  0.00000000000E+00  0.11196247352E+03  0.11196247352E+03  0.00000000000E+00 0.  1.
         -2   -1    0    0    0  501 -0.00000000000E+00 -0.00000000000E+00 -0.89224427627E+01  0.89224427627E+01  0.00000000000E+00 0. -1.
         21    1    1    2  502  501 -0.12985698878E+02  0.23316004866E+02  0.19139133651E+02  0.32841603115E+02  0.00000000000E+00 0. -1.
         21    1    1    2  503  502  0.12985698878E+02 -0.23316004866E+02  0.83900897106E+02  0.88043313167E+02  0.00000000000E+00 0.  1.
</event>
<event>
 4    1  0.5967370E+002  0.4712053E+02  0.7546771E-02  0.1311164E+00
          2   -1    0    0  503    0  0.00000000000E+00  0.00000000000E+00  0.49184896359E+03  0.49184896359E+03  0.00000000000E+00 0. -1.
         -2   -1    0    0    0  501 -0.00000000000E+00 -0.00000000000E+00 -0.56279664519E+01  0.56279664519E+01  0.00000000000E+00 0.  1.
         21    1    1    2  502  501  0.46414131642E+02  0.81285373220E+01  0.13246127961E+03  0.14059279971E+03  0.00000000000E+00 0. -1.
         21    1    1    2  503  502 -0.46414131642E+02 -0.81285373220E+01  0.35375971753E+03  0.35688413033E+03  0.00000000000E+00 0.  1.
</event>
<event>
 4    1  0.5967370E+002  0.2695766E+02  0.7546771E-02  0.1448034E+00
          2   -1    0    0  502    0  0.00000000000E+00  0.00000000000E+00  0.30364690583E+02  0.30364690583E+02  0.00000000000E+00 0. -1.
         -2   -1    0    0    0  501 -0.00000000000E+00 -0.00000000000E+00 -0.23954256086E+02  0.23954256086E+02  0.00000000000E+00 0.  1.
         21    1    1    2  502  503 -0.24146296980E+00  0.26956581744E+02  0.40158482050E+01  0.27255139708E+02  0.00000000000E+00 0. -1.
         21    1    1    2  503  501  0.24146296980E+00 -0.26956581744E+02  0.23945862924E+01  0.27063806961E+02  0.00000000000E+00 0.  1.
</event>
<event>
 4    1  0.5967370E+002  0.2050901E+02  0.7546771E-02  0.1526392E+00
          2   -1    0    0  502    0  0.00000000000E+00  0.00000000000E+00  0.24308252754E+02  0.24308252754E+02  0.00000000000E+00 0. -1.
         -2   -1    0    0    0  501 -0.00000000000E+00 -0.00000000000E+00 -0.61679171914E+02  0.61679171914E+02  0.00000000000E+00 0.  1.
         21    1    1    2  502  503 -0.50752694332E+01 -0.19871113468E+02  0.17782193629E+02  0.27144537582E+02  0.00000000000E+00 0. -1.
         21    1    1    2  503  501  0.50752694332E+01  0.19871113468E+02 -0.55153112788E+02  0.58842887085E+02  0.00000000000E+00 0.  1.
</event>
<event>
 4    1  0.5967370E+002  0.2980779E+02  0.7546771E-02  0.1421274E+00
          2   -1    0    0  502    0  0.00000000000E+00  0.00000000000E+00  0.24083294343E+03  0.24083294343E+03  0.00000000000E+00 0.  1.
         -2   -1    0    0    0  501 -0.00000000000E+00 -0.00000000000E+00 -0.37090267057E+01  0.37090267057E+01  0.00000000000E+00 0. -1.
         21    1    1    2  502  503 -0.26572471569E+02  0.13505857997E+02  0.10964441848E+03  0.11362395412E+03  0.00000000000E+00 0. -1.
         21    1    1    2  503  501  0.26572471569E+02 -0.13505857997E+02  0.12747949825E+03  0.13091801602E+03  0.00000000000E+00 0.  1.
</event>
<event>
 4    1  0.5967370E+002  0.3240917E+02  0.7546771E-02  0.1399754E+00
          2   -1    0    0  502    0  0.00000000000E+00  0.00000000000E+00  0.53011980773E+02  0.53011980773E+02  0.00000000000E+00 0. -1.
         -2   -1    0    0    0  501 -0.00000000000E+00 -0.00000000000E+00 -0.23180511483E+02  0.23180511483E+02  0.00000000000E+00 0.  1.
         21    1    1    2  502  503 -0.10638222071E+02  0.30613438008E+02  0.29434884297E+02  0.43780895024E+02  0.00000000000E+00 0. -1.
         21    1    1    2  503  501  0.10638222071E+02 -0.30613438008E+02  0.39658499236E+00  0.32411597232E+02  0.00000000000E+00 0.  1.
</event>
<event>
 4    1  0.5967370E+002  0.2607713E+02  0.7546771E-02  0.1457105E+00
          2   -1    0    0  502    0  0.00000000000E+00  0.00000000000E+00  0.29445385544E+03  0.29445385544E+03  0.00000000000E+00 0.  1.
         -2   -1    0    0    0  501 -0.00000000000E+00 -0.00000000000E+00 -0.50393661871E+01  0.50393661871E+01  0.00000000000E+00 0. -1.
         21    1    1    2  502  503  0.24057290530E+02  0.10062982654E+02  0.25492366342E+03  0.25625395806E+03  0.00000000000E+00 0.  1.
         21    1    1    2  503  501 -0.24057290530E+02 -0.10062982654E+02  0.34490825830E+02  0.43239263568E+02  0.00000000000E+00 0. -1.
</event>
<event>
 4    1  0.5967370E+002  0.2375399E+02  0.7546771E-02  0.1483241E+00
          2   -1    0    0  503    0  0.00000000000E+00  0.00000000000E+00  0.22134748451E+03  0.22134748451E+03  0.00000000000E+00 0.  1.
         -2   -1    0    0    0  501 -0.00000000000E+00 -0.00000000000E+00 -0.23199854356E+02  0.23199854356E+02  0.00000000000E+00 0. -1.
         21    1    1    2  502  501 -0.13596848023E+02  0.19477616769E+02 -0.16286800836E+02  0.28801244984E+02  0.00000000000E+00 0. -1.
         21    1    1    2  503  502  0.13596848023E+02 -0.19477616769E+02  0.21443443099E+03  0.21574609388E+03  0.00000000000E+00 0.  1.
</event>
<event>
 4    1  0.5967370E+002  0.3139188E+02  0.7546771E-02  0.1407875E+00
          2   -1    0    0  502    0  0.00000000000E+00  0.00000000000E+00  0.66747242857E+03  0.66747242857E+03  0.00000000000E+00 0. -1.
         -2   -1    0    0    0  501 -0.00000000000E+00 -0.00000000000E+00 -0.20342305001E+01  0.20342305001E+01  0.00000000000E+00 0.  1.
         21    1    1    2  502  503  0.25709740055E+02  0.18012753731E+02  0.50801816621E+03  0.50898713857E+03  0.00000000000E+00 0. -1.
         21    1    1    2  503  501 -0.25709740055E+02 -0.18012753731E+02  0.15742003186E+03  0.16051952050E+03  0.00000000000E+00 0.  1.
</event>
<event>
 4    1  0.5967370E+002  0.3405165E+02  0.7546771E-02  0.1387356E+00
          2   -1    0    0  503    0  0.00000000000E+00  0.00000000000E+00  0.55240799547E+03  0.55240799547E+03  0.00000000000E+00 0. -1.
         -2   -1    0    0    0  501 -0.00000000000E+00 -0.00000000000E+00 -0.41037181052E+01  0.41037181052E+01  0.00000000000E+00 0.  1.
         21    1    1    2  502  501 -0.10777985103E+02  0.32300923968E+02  0.79669787309E+02  0.86641731642E+02  0.00000000000E+00 0.  1.
         21    1    1    2  503  502  0.10777985103E+02 -0.32300923968E+02  0.46863449005E+03  0.46986998193E+03  0.00000000000E+00 0. -1.
</event>
<event>
 4    1  0.5967370E+002  0.3793601E+02  0.7546771E-02  0.1361024E+00
          2   -1    0    0  502    0  0.00000000000E+00  0.00000000000E+00  0.10287380291E+02  0.10287380291E+02  0.00000000000E+00 0.  1.
         -2   -1    0    0    0  501 -0.00000000000E+00 -0.00000000000E+00 -0.14489808366E+03  0.14489808366E+03  0.00000000000E+00 0. -1.
         21    1    1    2  502  503  0.15702920185E+02  0.34533452964E+02 -0.52885553416E+02  0.65084735815E+02  0.00000000000E+00 0.  1.
         21    1    1    2  503  501 -0.15702920185E+02 -0.34533452964E+02 -0.81725149951E+02  0.90100728135E+02  0.00000000000E+00 0. -1.
</event>
<event>
 4    1  0.5967370E+002  0.2445435E+02  0.7546771E-02  0.1475001E+00
          2   -1    0    0  503    0  0.00000000000E+00  0.00000000000E+00  0.30902344599E+02  0.30902344599E+02  0.00000000000E+00 0.  1.
         -2   -1    0    0    0  501 -0.00000000000E+00 -0.00000000000E+00 -0.19387901391E+02  0.19387901391E+02  0.00000000000E+00 0. -1.
         21    1    1    2  502  501  0.24424487492E+02  0.12080661474E+01  0.46716941072E+01  0.24896580868E+02  0.00000000000E+00 0.  1.
         21    1    1    2  503  502 -0.24424487492E+02 -0.12080661474E+01  0.68427491010E+01  0.25393665122E+02  0.00000000000E+00 0. -1.
</event>
<event>
 4    1  0.5967370E+002  0.2235369E+02  0.7546771E-02  0.1500777E+00
          2   -1    0    0  502    0  0.00000000000E+00  0.00000000000E+00  0.16391100535E+03  0.16391100535E+03  0.00000000000E+00 0.  1.
         -2   -1    0    0    0  501 -0.00000000000E+00 -0.00000000000E+00 -0.29199579597E+02  0.29199579597E+02  0.00000000000E+00 0. -1.
         21    1    1    2  502  503  0.45732380230E+01  0.21880884712E+02  0.15873175569E+03  0.16029802833E+03  0.00000000000E+00 0.  1.
         21    1    1    2  503  501 -0.45732380230E+01 -0.21880884712E+02 -0.24020329935E+02  0.32812556620E+02  0.00000000000E+00 0. -1.
</event>
<event>
 4    1  0.5967370E+002  0.3057873E+02  0.7546771E-02  0.1414633E+00
          2   -1    0    0  502    0  0.00000000000E+00  0.00000000000E+00  0.54114909292E+03  0.54114909292E+03  0.00000000000E+00 0.  1.
         -2   -1    0    0    0  501 -0.00000000000E+00 -0.00000000000E+00 -0.17279411837E+01  0.17279411837E+01  0.00000000000E+00 0. -1.
         21    1    1    2  502  503  0.31123387499E+01 -0.30419926492E+02  0.27080582159E+03  0.27252679058E+03  0.00000000000E+00 0.  1.
         21    1    1    2  503  501 -0.31123387499E+01  0.30419926492E+02  0.26861533015E+03  0.27035024352E+03  0.00000000000E+00 0. -1.
</event>
<event>
 4    1  0.5967370E+002  0.3272129E+02  0.7546771E-02  0.1397332E+00
          2   -1    0    0  503    0  0.00000000000E+00  0.00000000000E+00  0.13966092715E+04  0.13966092715E+04  0.00000000000E+00 0.  1.
         -2   -1    0    0    0  501 -0.00000000000E+00 -0.00000000000E+00 -0.38061376437E+01  0.38061376437E+01  0.00000000000E+00 0. -1.
         21    1    1    2  502  501  0.24154225869E+02  0.22073873933E+02  0.70672598179E+02  0.77880027421E+02  0.00000000000E+00 0. -1.
         21    1    1    2  503  502 -0.24154225869E+02 -0.22073873933E+02  0.13221305357E+04  0.13225353817E+04  0.00000000000E+00 0.  1.
</event>
<event>
 4    1  0.5967370E+002  0.2654040E+02  0.7546771E-02  0.1452280E+00
          2   -1    0    0  502    0  0.00000000000E+00  0.00000000000E+00  0.14984310696E+04  0.14984310696E+04  0.00000000000E+00 0. -1.
         -2   -1    0    0    0  501 -0.00000000000E+00 -0.00000000000E+00 -0.47235801441E+00  0.47235801441E+00  0.00000000000E+00 0.  1.
         21    1    1    2  502  503 -0.23411299748E+02  0.12502164956E+02  0.69701441816E+03  0.69751952820E+03  0.00000000000E+00 0.  1.
         21    1    1    2  503  501  0.23411299748E+02 -0.12502164956E+02  0.80094429341E+03  0.80138389941E+03  0.00000000000E+00 0. -1.
</event>
<event>
 4    1  0.5967370E+002  0.2347420E+02  0.7546771E-02  0.1486628E+00
          2   -1    0    0  502    0  0.00000000000E+00  0.00000000000E+00  0.82154051634E+03  0.82154051634E+03  0.00000000000E+00 0. -1.
         -2   -1    0    0    0  501 -0.00000000000E+00 -0.00000000000E+00 -0.15065927751E+01  0.15065927751E+01  0.00000000000E+00 0.  1.
         21    1    1    2  502  503  0.19971088274E+02  0.12336672215E+02  0.71653946243E+03  0.71692387257E+03  0.00000000000E+00 0. -1.
         21    1    1    2  503  501 -0.19971088274E+02 -0.12336672215E+02  0.10349446113E+03  0.10612323654E+03  0.00000000000E+00 0.  1.
</event>
<event>
 4    1  0.5967370E+002  0.7139799E+02  0.7546771E-02  0.1225362E+00
          2   -1    0    0  502    0  0.00000000000E+00  0.00000000000E+00  0.88430290451E+03  0.88430290451E+03  0.00000000000E+00 0.  1.
         -2   -1    0    0    0  501 -0.00000000000E+00 -0.00000000000E+00 -0.89701990353E+01  0.89701990353E+01  0.00000000000E+00 0. -1.
         21    1    1    2  502  503 -0.23219916157E+02  0.67516732406E+02  0.70466324250E+03  0.70827110558E+03  0.00000000000E+00 0.  1.
         21    1    1    2  503  501  0.23219916157E+02 -0.67516732406E+02  0.17066946297E+03  0.18500199797E+03  0.00000000000E+00 0. -1.
</event>
<event>
 4    1  0.5967370E+002  0.5202793E+02  0.7546771E-02  0.1289612E+00
          2   -1    0    0  502    0  0.00000000000E+00  0.00000000000E+00  0.33082744797E+04  0.33082744797E+04  0.00000000000E+00 0. -1.
         -2   -1    0    0    0  501 -0.00000000000E+00 -0.00000000000E+00 -0.20711634564E+01  0.20711634564E+01  0.00000000000E+00 0.  1.
         21    1    1    2  502  503  0.11800350869E+02  0.50672057041E+02  0.29404657995E+04  0.29409260487E+04  0.00000000000E+00 0. -1.
         21    1    1    2  503  501 -0.11800350869E+02 -0.50672057041E+02  0.36573751671E+03  0.36941959446E+03  0.00000000000E+00 0.  1.
</event>
<event>
 4    1  0.5967370E+002  0.2263429E+02  0.7546771E-02  0.1497142E+00
          2   -1    0    0  502    0  0.00000000000E+00  0.00000000000E+00  0.19374474504E+03  0.19374474504E+03  0.00000000000E+00 0. -1.
         -2   -1    0    0    0  501 -0.00000000000E+00 -0.00000000000E+00 -0.12891388056E+02  0.12891388056E+02  0.00000000000E+00 0.  1.
         21    1    1    2  502  503 -0.13191188431E+02 -0.18393037520E+02  0.18254107962E+03  0.18393900356E+03  0.00000000000E+00 0. -1.
         21    1    1    2  503  501  0.13191188431E+02  0.18393037520E+02 -0.16877226376E+01  0.22697129536E+02  0.00000000000E+00 0.  1.
</event>
<event>
 4    1  0.5967370E+002  0.2221095E+02  0.7546771E-02  0.1502651E+00
          2   -1    0    0  503    0  0.00000000000E+00  0.00000000000E+00  0.35972713099E+02  0.35972713099E+02  0.00000000000E+00 0.  1.
         -2   -1    0    0    0  501 -0.00000000000E+00 -0.00000000000E+00 -0.13771158320E+02  0.13771158320E+02  0.00000000000E+00 0. -1.
         21    1    1    2  502  501 -0.19275207734E+02 -0.11035980887E+02  0.12704429695E+02  0.25587673619E+02  0.00000000000E+00 0. -1.
         21    1    1    2  503  502  0.19275207734E+02  0.11035980887E+02  0.94971250838E+01  0.24156197801E+02  0.00000000000E+00 0.  1.
</event>
<event>
 4    1  0.5967370E+002  0.2336942E+02  0.7546771E-02  0.1487911E+00
          2   -1    0    0  502    0  0.00000000000E+00  0.00000000000E+00  0.26872987311E+01  0.26872987311E+01  0.00000000000E+00 0. -1.
         -2   -1    0    0    0  501 -0.00000000000E+00 -0.00000000000E+00 -0.20602985982E+03  0.20602985982E+03  0.00000000000E+00 0.  1.
         21    1    1    2  502  503 -0.23369307786E+02  0.73990826004E-01 -0.11384465512E+03  0.11621848184E+03  0.00000000000E+00 0.  1.
         21    1    1    2  503  501  0.23369307786E+02 -0.73990826004E-01 -0.89497905968E+02  0.92498676713E+02  0.00000000000E+00 0. -1.
</event>
<event>
 4    1  0.5967370E+002  0.6275572E+02  0.7546771E-02  0.1250746E+00
          2   -1    0    0  502    0  0.00000000000E+00  0.00000000000E+00  0.89538352254E+03  0.89538352254E+03  0.00000000000E+00 0. -1.
         -2   -1    0    0    0  501 -0.00000000000E+00 -0.00000000000E+00 -0.48438611723E+01  0.48438611723E+01  0.00000000000E+00 0.  1.
         21    1    1    2  502  503  0.62522275866E+02 -0.54079262561E+01  0.58176500043E+03  0.58513998015E+03  0.00000000000E+00 0. -1.
         21    1    1    2  503  501 -0.62522275866E+02  0.54079262561E+01  0.30877466094E+03  0.31508740356E+03  0.00000000000E+00 0.  1.
</event>
<event>
 4    1  0.5967370E+002  0.2779856E+02  0.7546771E-02  0.1439747E+00
          2   -1    0    0  502    0  0.00000000000E+00  0.00000000000E+00  0.21174253954E+04  0.21174253954E+04  0.00000000000E+00 0. -1.
         -2   -1    0    0    0  501 -0.00000000000E+00 -0.00000000000E+00 -0.66890252254E+00  0.66890252254E+00  0.00000000000E+00 0.  1.
         21    1    1    2  502  503  0.90003649989E+01 -0.26301204077E+02  0.17722741602E+04  0.17724921605E+04  0.00000000000E+00 0. -1.
         21    1    1    2  503  501 -0.90003649989E+01  0.26301204077E+02  0.34448233265E+03  0.34560213746E+03  0.00000000000E+00 0.  1.
</event>
<event>
 4    1  0.5967370E+002  0.2159310E+02  0.7546771E-02  0.1510963E+00
          2   -1    0    0  503    0  0.00000000000E+00  0.00000000000E+00  0.40263839750E+02  0.40263839750E+02  0.00000000000E+00 0. -1.
         -2   -1    0    0    0  501 -0.00000000000E+00 -0.00000000000E+00 -0.13957060798E+02  0.13957060798E+02  0.00000000000E+00 0.  1.
         21    1    1    2  502  501 -0.37543543310E+01  0.21264211999E+02  0.19655851712E+01  0.21682375642E+02  0.00000000000E+00 0.  1.
         21    1    1    2  503  502  0.37543543310E+01 -0.21264211999E+02  0.24341193781E+02  0.32538524906E+02  0.00000000000E+00 0. -1.
</event>
<event>
 4    1  0.5967370E+002  0.2279456E+02  0.7546771E-02  0.1495094E+00
          2   -1    0    0  502    0  0.00000000000E+00  0.00000000000E+00  0.91081462984E+01  0.91081462984E+01  0.00000000000E+00 0. -1.
         -2   -1    0    0    0  501 -0.00000000000E+00 -0.00000000000E+00 -0.95177268560E+02  0.95177268560E+02  0.00000000000E+00 0.  1.
         21    1    1    2  502  503  0.15467351989E+02 -0.16743745444E+02 -0.10030896781E+02  0.24904033394E+02  0.00000000000E+00 0. -1.
         21    1    1    2  503  501 -0.15467351989E+02  0.16743745444E+02 -0.76038225481E+02  0.79381381465E+02  0.00000000000E+00 0.  1.
</event>
<event>
 4    1  0.5967370E+002  0.3346263E+02  0.7546771E-02  0.1391706E+00
          2   -1    0    0  502    0  0.00000000000E+00  0.00000000000E+00  0.84314177153E+03  0.84314177153E+03  0.00000000000E+00 0.  1.
         -2   -1    0    0    0  501 -0.00000000000E+00 -0.00000000000E+00 -0.51601163342E+01  0.51601163342E+01  0.00000000000E+00 0. -1.
         21    1    1    2  502  503  0.33337653578E+02  0.28894080727E+01  0.78450675004E+03  0.78522008933E+03  0.00000000000E+00 0.  1.
         21    1    1    2  503  501 -0.33337653578E+02 -0.28894080727E+01  0.53474905150E+02  0.63081798531E+02  0.00000000000E+00 0. -1.
</event>
<event>
 4    1  0.5967370E+002  0.2822074E+02  0.7546771E-02  0.1435716E+00
          2   -1    0    0  503    0  0.00000000000E+00  0.00000000000E+00  0.41023124175E+01  0.41023124175E+01  0.00000000000E+00 0.  1.
         -2   -1    0    0    0  501 -0.00000000000E+00 -0.00000000000E+00 -0.31917785094E+03  0.31917785094E+03  0.00000000000E+00 0. -1.
         21    1    1    2  502  501  0.11791650298E+02  0.25639176415E+02 -0.25870940011E+03  0.26024404717E+03  0.00000000000E+00 0. -1.
         21    1    1    2  503  502 -0.11791650298E+02 -0.25639176415E+02 -0.56366138411E+02  0.63036116183E+02  0.00000000000E+00 0.  1.
</event>
<event>
 4    1  0.5967370E+002  0.3482579E+02  0.7546771E-02  0.1381792E+00
          2   -1    0    0  502    0  0.00000000000E+00  0.00000000000E+00  0.47127973259E+02  0.47127973259E+02  0.00000000000E+00 0. -1.
         -2   -1    0    0    0  501 -0.00000000000E+00 -0.00000000000E+00 -0.32067660911E+02  0.32067660911E+02  0.00000000000E+00 0.  1.
         21    1    1    2  502  503 -0.11543632137E+02  0.32856962797E+02  0.25126922353E+02  0.42944122696E+02  0.00000000000E+00 0. -1.
         21    1    1    2  503  501  0.11543632137E+02 -0.32856962797E+02 -0.10066610005E+02  0.36251511474E+02  0.00000000000E+00 0.  1.
</event>
<event>
 4    1  0.5967370E+002  0.2209879E+02  0.7546771E-02  0.1504136E+00
          2   -1    0    0  502    0  0.00000000000E+00  0.00000000000E+00  0.34035503278E+02  0.34035503278E+02  0.00000000000E+00 0. -1.
         -2   -1    0    0    0  501 -0.00000000000E+00 -0.00000000000E+00 -0.14828402353E+02  0.14828402353E+02  0.00000000000E+00 0.  1.
         21    1    1    2  502  503 -0.14123986447E+02  0.16996162413E+02  0.52080072927E+01  0.22704181771E+02  0.00000000000E+00 0. -1.
         21    1    1    2  503  501  0.14123986447E+02 -0.16996162413E+02  0.13999093632E+02  0.26159723860E+02  0.00000000000E+00 0.  1.
</event>
<event>
 4    1  0.5967370E+002  0.2082296E+02  0.7546771E-02  0.1521808E+00
          2   -1    0    0  503    0  0.00000000000E+00  0.00000000000E+00  0.38910850603E+03  0.38910850603E+03  0.00000000000E+00 0. -1.
         -2   -1    0    0    0  501 -0.00000000000E+00 -0.00000000000E+00 -0.13932094218E+02  0.13932094218E+02  0.00000000000E+00 0.  1.
         21    1    1    2  502  501  0.17997205370E+02  0.10473597008E+02 -0.57050598743E+01  0.21590353021E+02  0.00000000000E+00 0.  1.
         21    1    1    2  503  502 -0.17997205370E+02 -0.10473597008E+02  0.38088147168E+03  0.38145024722E+03  0.00000000000E+00 0. -1.
</event>
<event>
 4    1  0.5967370E+002  0.2513644E+02  0.7546771E-02  0.1467283E+00
          2   -1    0    0  502    0  0.00000000000E+00  0.00000000000E+00  0.10422971605E+03  0.10422971605E+03  0.00000000000E+00 0. -1.
         -2   -1    0    0    0  501 -0.00000000000E+00 -0.00000000000E+00 -0.66955973333E+01  0.66955973333E+01  0.00000000000E+00 0.  1.
         21    1    1    2  502  503 -0.22753269887E+02  0.10683123397E+02  0.31705721693E+02  0.40461008442E+02  0.00000000000E+00 0.  1.
         21    1    1    2  503  501  0.22753269887E+02 -0.10683123397E+02  0.65828397021E+02  0.70464304938E+02  0.00000000000E+00 0. -1.
</event>
<event>
 4    1  0.5967370E+002  0.2316384E+02  0.7546771E-02  0.1490451E+00
          2   -1    0    0  503    0  0.00000000000E+00  0.00000000000E+00  0.21193364763E+04  0.21193364763E+04  0.00000000000E+00 0. -1.
         -2   -1    0    0    0  501 -0.00000000000E+00 -0.00000000000E+00 -0.35340492284E+00  0.35340492284E+00  0.00000000000E+00 0.  1.
         21    1    1    2  502  501 -0.17355426606E+02 -0.15341206583E+02  0.49506908245E+03  0.49561069384E+03  0.00000000000E+00 0. -1.
         21    1    1    2  503  502  0.17355426606E+02  0.15341206583E+02  0.16239139889E+04  0.16240791874E+04  0.00000000000E+00 0.  1.
</event>
<event>
 4    1  0.5967370E+002  0.2372878E+02  0.7546771E-02  0.1483544E+00
          2   -1    0    0  503    0  0.00000000000E+00  0.00000000000E+00  0.20521734961E+02  0.20521734961E+02  0.00000000000E+00 0. -1.
         -2   -1    0    0    0  501 -0.00000000000E+00 -0.00000000000E+00 -0.33892432420E+02  0.33892432420E+02  0.00000000000E+00 0.  1.
         21    1    1    2  502  501  0.54061196286E+01 -0.23104737142E+02 -0.18559238723E+02  0.30124746469E+02  0.00000000000E+00 0.  1.
         21    1    1    2  503  502 -0.54061196286E+01  0.23104737142E+02  0.51885412645E+01  0.24289420913E+02  0.00000000000E+00 0. -1.
</event>
<event>
 4    1  0.5967370E+002  0.2767480E+02  0.7546771E-02  0.1440945E+00
          2   -1    0    0  503    0  0.00000000000E+00  0.00000000000E+00  0.16131815557E+04  0.16131815557E+04  0.00000000000E+00 0.  1.
         -2   -1    0    0    0  501 -0.00000000000E+00 -0.00000000000E+00 -0.78297218569E+00  0.78297218569E+00  0.00000000000E+00 0. -1.
         21    1    1    2  502  501 -0.23214438890E+02 -0.15065996235E+02  0.29990055744E+03  0.30117476449E+03  0.00000000000E+00 0. -1.
         21    1    1    2  503  502  0.23214438890E+02  0.15065996235E+02  0.13124980261E+04  0.13127897634E+04  0.00000000000E+00 0.  1.
</event>
<event>
 4    1  0.5967370E+002  0.2838587E+02  0.7546771E-02  0.1434162E+00
          2   -1    0    0  502    0  0.00000000000E+00  0.00000000000E+00  0.29896172280E+02  0.29896172280E+02  0.00000000000E+00 0. -1.
         -2   -1    0    0    0  501 -0.00000000000E+00 -0.00000000000E+00 -0.27541416374E+02  0.27541416374E+02  0.00000000000E+00 0.  1.
         21    1    1    2  502  503  0.25396983817E+02 -0.12678761007E+02 -0.30243876527E+01  0.28546535488E+02  0.00000000000E+00 0.  1.
         21    1    1    2  503  501 -0.25396983817E+02  0.12678761007E+02  0.53791435585E+01  0.28891053167E+02  0.00000000000E+00 0. -1.
</event>
<event>
 4    1  0.5967370E+002  0.3432334E+02  0.7546771E-02  0.1385384E+00
          2   -1    0    0  503    0  0.00000000000E+00  0.00000000000E+00  0.18668985369E+03  0.18668985369E+03  0.00000000000E+00 0.  1.
         -2   -1    0    0    0  501 -0.00000000000E+00 -0.00000000000E+00 -0.63465584785E+01  0.63465584785E+01  0.00000000000E+00 0. -1.
         21    1    1    2  502  501  0.18462516541E+02  0.28934873401E+02  0.97454878684E+02  0.10332252801E+03  0.00000000000E+00 0. -1.
         21    1    1    2  503  502 -0.18462516541E+02 -0.28934873401E+02  0.82888416530E+02  0.89713884157E+02  0.00000000000E+00 0.  1.
</event>
<event>
 4    1  0.5967370E+002  0.3389199E+02  0.7546771E-02  0.1388525E+00
          2   -1    0    0  503    0  0.00000000000E+00  0.00000000000E+00  0.19457947060E+04  0.19457947060E+04  0.00000000000E+00 0.  1.
         -2   -1    0    0    0  501 -0.00000000000E+00 -0.00000000000E+00 -0.99602018411E+00  0.99602018411E+00  0.00000000000E+00 0. -1.
         21    1    1    2  502  501  0.20166660221E+02 -0.27239178392E+02  0.35117167028E+03  0.35280335746E+03  0.00000000000E+00 0. -1.
         21    1    1    2  503  502 -0.20166660221E+02  0.27239178392E+02  0.15936270155E+04  0.15939873687E+04  0.00000000000E+00 0.  1.
</event>
<event>
 4    1  0.5967370E+002  0.2423720E+02  0.7546771E-02  0.1477521E+00
          2   -1    0    0  502    0  0.00000000000E+00  0.00000000000E+00  0.17896610297E+04  0.17896610297E+04  0.00000000000E+00 0.  1.
         -2   -1    0    0    0  501 -0.00000000000E+00 -0.00000000000E+00 -0.96567655175E+00  0.96567655175E+00  0.00000000000E+00 0. -1.
         21    1    1    2  502  503  0.14135236594E+02  0.19688501045E+02  0.16217538883E+04  0.16219349913E+04  0.00000000000E+00 0.  1.
         21    1    1    2  503  501 -0.14135236594E+02 -0.19688501045E+02  0.16694146486E+03  0.16869171491E+03  0.00000000000E+00 0. -1.
</event>
<event>
 4    1  0.5967370E+002  0.2747203E+02  0.7546771E-02  0.1442923E+00
          2   -1    0    0  503    0  0.00000000000E+00  0.00000000000E+00  0.21035075913E+02  0.21035075913E+02  0.00000000000E+00 0. -1.
         -2   -1    0    0    0  501 -0.00000000000E+00 -0.00000000000E+00 -0.75586676975E+02  0.75586676975E+02  0.00000000000E+00 0.  1.
         21    1    1    2  502  501  0.10823628314E+02  0.25249975096E+02 -0.62291347299E+02  0.68080277031E+02  0.00000000000E+00 0. -1.
         21    1    1    2  503  502 -0.10823628314E+02 -0.25249975096E+02  0.77397462374E+01  0.28541475856E+02  0.00000000000E+00 0.  1.
</event>
<event>
 4    1  0.5967370E+002  0.2742423E+02  0.7546771E-02  0.1443393E+00
          2   -1    0    0  502    0  0.00000000000E+00  0.00000000000E+00  0.54431503872E+03  0.54431503872E+03  0.00000000000E+00 0.  1.
         -2   -1    0    0    0  501 -0.00000000000E+00 -0.00000000000E+00 -0.18516174855E+01  0.18516174855E+01  0.00000000000E+00 0. -1.
         21    1    1    2  502  503 -0.25590606267E+02  0.98594796526E+01  0.40880155291E+03  0.40972039018E+03  0.00000000000E+00 0.  1.
         21    1    1    2  503  501  0.25590606267E+02 -0.98594796526E+01  0.13366186833E+03  0.13644626603E+03  0.00000000000E+00 0. -1.
</event>
<event>
 4    1  0.5967370E+002  0.2071932E+02  0.7546771E-02  0.1523310E+00
          2   -1    0    0  502    0  0.00000000000E+00  0.00000000000E+00  0.12825665358E+04  0.12825665358E+04  0.00000000000E+00 0. -1.
         -2   -1    0    0    0  501 -0.00000000000E+00 -0.00000000000E+00 -0.73794471373E+00  0.73794471373E+00  0.00000000000E+00 0.  1.
         21    1    1    2  502  503  0.20274971751E+02 -0.42679868743E+01  0.11152281093E+04  0.11154205601E+04  0.00000000000E+00 0. -1.
         21    1    1    2  503  501 -0.20274971751E+02  0.42679868743E+01  0.16660048179E+03  0.16788392039E+03  0.00000000000E+00 0.  1.
</event>
<event>
 4    1  0.5967370E+002  0.2149293E+02  0.7546771E-02  0.1512342E+00
          2   -1    0    0  503    0  0.00000000000E+00  0.00000000000E+00  0.94119082060E+02  0.94119082060E+02  0.00000000000E+00 0.  1.
         -2   -1    0    0    0  501 -0.00000000000E+00 -0.00000000000E+00 -0.80120144704E+01  0.80120144704E+01  0.00000000000E+00 0. -1.
         21    1    1    2  502  501  0.19278175896E+02  0.95025152940E+01  0.11269280558E+02  0.24268138517E+02  0.00000000000E+00 0. -1.
         21    1    1    2  503  502 -0.19278175896E+02 -0.95025152940E+01  0.74837787031E+02  0.77862958013E+02  0.00000000000E+00 0.  1.
</event>
<event>
 4    1  0.5967370E+002  0.2180332E+02  0.7546771E-02  0.1508098E+00
          2   -1    0    0  503    0  0.00000000000E+00  0.00000000000E+00  0.45841324526E+02  0.45841324526E+02  0.00000000000E+00 0.  1.
         -2   -1    0    0    0  501 -0.00000000000E+00 -0.00000000000E+00 -0.10629491529E+02  0.10629491529E+02  0.00000000000E+00 0. -1.
         21    1    1    2  502  501 -0.13617515454E+02 -0.17027855121E+02  0.13196145595E+02  0.25485737889E+02  0.00000000000E+00 0. -1.
         21    1    1    2  503  502  0.13617515454E+02  0.17027855121E+02  0.22015687401E+02  0.30985078166E+02  0.00000000000E+00 0.  1.
</event>
<event>
 4    1  0.5967370E+002  0.2539364E+02  0.7546771E-02  0.1464448E+00
          2   -1    0    0  503    0  0.00000000000E+00  0.00000000000E+00  0.21095642637E+03  0.21095642637E+03  0.00000000000E+00 0. -1.
         -2   -1    0    0    0  501 -0.00000000000E+00 -0.00000000000E+00 -0.44367195893E+01  0.44367195893E+01  0.00000000000E+00 0.  1.
         21    1    1    2  502  501 -0.13287906826E+02  0.21639515402E+02  0.16332307271E+03  0.16528539916E+03  0.00000000000E+00 0.  1.
         21    1    1    2  503  502  0.13287906826E+02 -0.21639515402E+02  0.43196634066E+02  0.50107746799E+02  0.00000000000E+00 0. -1.
</event>
<event>
 4    1  0.5967370E+002  0.2609174E+02  0.7546771E-02  0.1456951E+00
          2   -1    0    0  503    0  0.00000000000E+00  0.00000000000E+00  0.12948028815E+03  0.12948028815E+03  0.00000000000E+00 0.  1.
         -2   -1    0    0    0  501 -0.00000000000E+00 -0.00000000000E+00 -0.57923436247E+01  0.57923436247E+01  0.00000000000E+00 0. -1.
         21    1    1    2  502  501 -0.25687208171E+02 -0.45766787341E+01  0.41296747623E+02  0.48848746310E+02  0.00000000000E+00 0. -1.
         21    1    1    2  503  502  0.25687208171E+02  0.45766787341E+01  0.82391196907E+02  0.86423885469E+02  0.00000000000E+00 0.  1.
</event>
<event>
 4    1  0.5967370E+002  0.3268366E+02  0.7546771E-02  0.1397622E+00
          2   -1    0    0  502    0  0.00000000000E+00  0.00000000000E+00  0.21381132327E+03  0.21381132327E+03  0.00000000000E+00 0. -1.
         -2   -1    0    0    0  501 -0.00000000000E+00 -0.00000000000E+00 -0.14795616972E+02  0.14795616972E+02  0.00000000000E+00 0.  1.
         21    1    1    2  502  503  0.20043072204E+02 -0.25816605902E+02  0.19253191527E+03  0.19528635457E+03  0.00000000000E+00 0. -1.
         21    1    1    2  503  501 -0.20043072204E+02  0.25816605902E+02  0.64837910317E+01  0.33320585677E+02  0.00000000000E+00 0.  1.
</event>
<event>
 4    1  0.5967370E+002  0.4936874E+02  0.7546771E-02  0.1300933E+00
          2   -1    0    0  502    0  0.00000000000E+00  0.00000000000E+00  0.19669822371E+04  0.19669822371E+04  0.00000000000E+00 0. -1.
         -2   -1    0    0    0  501 -0.00000000000E+00 -0.00000000000E+00 -0.19550457799E+02  0.19550457799E+02  0.00000000000E+00 0.  1.
         21    1    1    2  502  503 -0.37839279588E+02 -0.31709009588E+02  0.19349908340E+04  0.19356205206E+04  0.00000000000E+00 0. -1.
         21    1    1    2  503  501  0.37839279588E+02  0.31709009588E+02  0.12440945351E+02  0.50912174281E+02  0.00000000000E+00 0.  1.
</event>
<event>
 4    1  0.5967370E+002  0.3219907E+02  0.7546771E-02  0.1401402E+00
          2   -1    0    0  503    0  0.00000000000E+00  0.00000000000E+00  0.10087374726E+03  0.10087374726E+03  0.00000000000E+00 0. -1.
         -2   -1    0    0    0  501 -0.00000000000E+00 -0.00000000000E+00 -0.13058481526E+02  0.13058481526E+02  0.00000000000E+00 0.  1.
         21    1    1    2  502  501  0.28675094640E+02 -0.14646477849E+02  0.70193981987E+02  0.77226779508E+02  0.00000000000E+00 0. -1.
         21    1    1    2  503  502 -0.28675094640E+02  0.14646477849E+02  0.17621283750E+02  0.36705449281E+02  0.00000000000E+00 0.  1.
</event>
<event>
 4    1  0.5967370E+002  0.6266486E+02  0.7546771E-02  0.1251038E+00
          2   -1    0    0  502    0  0.00000000000E+00  0.00000000000E+00  0.40534267839E+03  0.40534267839E+03  0.00000000000E+00 0.  1.
         -2   -1    0    0    0  501 -0.00000000000E+00 -0.00000000000E+00 -0.12866551861E+02  0.12866551861E+02  0.00000000000E+00 0. -1.
         21    1    1    2  502  503  0.39582903619E+02  0.48580638874E+02  0.30017259043E+03  0.30664387941E+03  0.00000000000E+00 0.  1.
         21    1    1    2  503  501 -0.39582903619E+02 -0.48580638874E+02  0.92303536094E+02  0.11156535084E+03  0.00000000000E+00 0. -1.
</event>
<event>
 4    1  0.5967370E+002  0.2628917E+02  0.7546771E-02  0.1454882E+00
          2   -1    0    0  502    0  0.00000000000E+00  0.00000000000E+00  0.11181462484E+03  0.11181462484E+03  0.00000000000E+00 0.  1.
         -2   -1    0    0    0  501 -0.00000000000E+00 -0.00000000000E+00 -0.69642373189E+01  0.69642373189E+01  0.00000000000E+00 0. -1.
         21    1    1    2  502  503  0.55972153283E+01 -0.25686412743E+02  0.32507782175E+02  0.41807613194E+02  0.00000000000E+00 0. -1.
         21    1    1    2  503  501 -0.55972153283E+01  0.25686412743E+02  0.72342605351E+02  0.76971248970E+02  0.00000000000E+00 0.  1.
</event>
<event>
 4    1  0.5967370E+002  0.3905205E+02  0.7546771E-02  0.1354132E+00
          2   -1    0    0  503    0  0.00000000000E+00  0.00000000000E+00  0.39540677761E+01  0.39540677761E+01  0.00000000000E+00 0. -1.
         -2   -1    0    0    0  501 -0.00000000000E+00 -0.00000000000E+00 -0.42818004843E+03  0.42818004843E+03  0.00000000000E+00 0.  1.
         21    1    1    2  502  501 -0.20279928812E+02  0.33373449018E+02 -0.28017353482E+03  0.28288208184E+03  0.00000000000E+00 0. -1.
         21    1    1    2  503  502  0.20279928812E+02 -0.33373449018E+02 -0.14405244583E+03  0.14925203437E+03  0.00000000000E+00 0.  1.
</event>
<event>
 4    1  0.5967370E+002  0.2158063E+02  0.7546771E-02  0.1511134E+00
          2   -1    0    0  503    0  0.00000000000E+00  0.00000000000E+00  0.10559547430E+04  0.10559547430E+04  0.00000000000E+00 0. -1.
         -2   -1    0    0    0  501 -0.00000000000E+00 -0.00000000000E+00 -0.91290050733E+01  0.91290050733E+01  0.00000000000E+00 0.  1.
         21    1    1    2  502  501  0.18688498820E+02 -0.10791837873E+02  0.38944595126E+01  0.21929217216E+02  0.00000000000E+00 0.  1.
         21    1    1    2  503  502 -0.18688498820E+02  0.10791837873E+02  0.10429312784E+04  0.10431545308E+04  0.00000000000E+00 0. -1.
</event>
<event>
 4    1  0.5967370E+002  0.2167574E+02  0.7546771E-02  0.1509832E+00
          2   -1    0    0  503    0  0.00000000000E+00  0.00000000000E+00  0.76451656856E+02  0.76451656856E+02  0.00000000000E+00 0. -1.
         -2   -1    0    0    0  501 -0.00000000000E+00 -0.00000000000E+00 -0.69484226009E+01  0.69484226009E+01  0.00000000000E+00 0.  1.
         21    1    1    2  502  501  0.15649475763E+02  0.14997720309E+02  0.20576851897E+02  0.29887196926E+02  0.00000000000E+00 0.  1.
         21    1    1    2  503  502 -0.15649475763E+02 -0.14997720309E+02  0.48926382359E+02  0.53512882532E+02  0.00000000000E+00 0. -1.
</event>
<event>
 4    1  0.5967370E+002  0.2078693E+02  0.7546771E-02  0.1522329E+00
          2   -1    0    0  502    0  0.00000000000E+00  0.00000000000E+00  0.20495672962E+03  0.20495672962E+03  0.00000000000E+00 0.  1.
         -2   -1    0    0    0  501 -0.00000000000E+00 -0.00000000000E+00 -0.66847774203E+01  0.66847774203E+01  0.00000000000E+00 0. -1.
         21    1    1    2  502  503  0.13130035898E+02  0.16115171735E+02  0.18669405027E+03  0.18784771760E+03  0.00000000000E+00 0.  1.
         21    1    1    2  503  501 -0.13130035898E+02 -0.16115171735E+02  0.11577901932E+02  0.23793789439E+02  0.00000000000E+00 0. -1.
</event>
<event>
 4    1  0.5967370E+002  0.4527834E+02  0.7546771E-02  0.1320053E+00
          2   -1    0    0  502    0  0.00000000000E+00  0.00000000000E+00  0.29697929211E+03  0.29697929211E+03  0.00000000000E+00 0. -1.
         -2   -1    0    0    0  501 -0.00000000000E+00 -0.00000000000E+00 -0.74603392879E+01  0.74603392879E+01  0.00000000000E+00 0.  1.
         21    1    1    2  502  503  0.29422800124E+00  0.45277381399E+02  0.18635504229E+03  0.19177677029E+03  0.00000000000E+00 0.  1.
         21    1    1    2  503  501 -0.29422800124E+00 -0.45277381399E+02  0.10316391054E+03  0.11266286111E+03  0.00000000000E+00 0. -1.
</event>
<event>
 4    1  0.5967370E+002  0.3315056E+02  0.7546771E-02  0.1394053E+00
          2   -1    0    0  503    0  0.00000000000E+00  0.00000000000E+00  0.30751348750E+04  0.30751348750E+04  0.00000000000E+00 0.  1.
         -2   -1    0    0    0  501 -0.00000000000E+00 -0.00000000000E+00 -0.36911847284E+00  0.36911847284E+00  0.00000000000E+00 0. -1.
         21    1    1    2  502  501 -0.32481256716E+02 -0.66277969616E+01  0.12630350985E+04  0.12634700707E+04  0.00000000000E+00 0.  1.
         21    1    1    2  503  502  0.32481256716E+02  0.66277969616E+01  0.18117306580E+04  0.18120339227E+04  0.00000000000E+00 0. -1.
</event>
<event>
 4    1  0.5967370E+002  0.3525807E+02  0.7546771E-02  0.1378758E+00
          2   -1    0    0  502    0  0.00000000000E+00  0.00000000000E+00  0.10965026441E+04  0.10965026441E+04  0.00000000000E+00 0. -1.
         -2   -1    0    0    0  501 -0.00000000000E+00 -0.00000000000E+00 -0.18920088092E+01  0.18920088092E+01  0.00000000000E+00 0.  1.
         21    1    1    2  502  503 -0.11539543914E+02 -0.33316222224E+02  0.89498788648E+03  0.89568211363E+03  0.00000000000E+00 0.  1.
         21    1    1    2  503  501  0.11539543914E+02  0.33316222224E+02  0.19962274884E+03  0.20271253931E+03  0.00000000000E+00 0. -1.
</event>
<event>
 4    1  0.5967370E+002  0.2294330E+02  0.7546771E-02  0.1493211E+00
          2   -1    0    0  503    0  0.00000000000E+00  0.00000000000E+00  0.47389547462E+03  0.47389547462E+03  0.00000000000E+00 0. -1.
         -2   -1    0    0    0  501 -0.00000000000E+00 -0.00000000000E+00 -0.23216830865E+01  0.23216830865E+01  0.00000000000E+00 0.  1.
         21    1    1    2  502  501  0.16912820195E+02  0.15503273271E+02  0.63826769637E+02  0.67825153825E+02  0.00000000000E+00 0.  1.
         21    1    1    2  503  502 -0.16912820195E+02 -0.15503273271E+02  0.40774702190E+03  0.40839200389E+03  0.00000000000E+00 0. -1.
</event>
<event>
 4    1  0.5967370E+002  0.2669317E+02  0.7546771E-02  0.1450715E+00
          2   -1    0    0  502    0  0.00000000000E+00  0.00000000000E+00  0.22699109483E+04  0.22699109483E+04  0.00000000000E+00 0. -1.
         -2   -1    0    0    0  501 -0.00000000000E+00 -0.00000000000E+00 -0.47356014041E+00  0.47356014041E+00  0.00000000000E+00 0.  1.
         21    1    1    2  502  503 -0.51565265930E+01 -0.26190374456E+02  0.17938619945E+04  0.17940605844E+04  0.00000000000E+00 0. -1.
         21    1    1    2  503  501  0.51565265930E+01  0.26190374456E+02  0.47557539369E+03  0.47632392399E+03  0.00000000000E+00 0.  1.
</event>
<event>
 4    1  0.5967370E+002  0.3439475E+02  0.7546771E-02  0.1384869E+00
          2   -1    0    0  503    0  0.00000000000E+00  0.00000000000E+00  0.65783566600E+01  0.65783566600E+01  0.00000000000E+00 0. -1.
         -2   -1    0    0    0  501 -0.00000000000E+00 -0.00000000000E+00 -0.29290170088E+03  0.29290170088E+03  0.00000000000E+00 0.  1.
         21    1    1    2  502  501 -0.31886417967E+02  0.12894000840E+02 -0.23619747802E+03  0.23868859950E+03  0.00000000000E+00 0.  1.
         21    1    1    2  503  502  0.31886417967E+02 -0.12894000840E+02 -0.50125866207E+02  0.60791458047E+02  0.00000000000E+00 0. -1.
</event>
<event>
 4    1  0.5967370E+002  0.2370872E+02  0.7546771E-02  0.1483785E+00
          2   -1    0    0  502    0  0.00000000000E+00  0.00000000000E+00  0.26493422201E+03  0.26493422201E+03  0.00000000000E+00 0.  1.
         -2   -1    0    0    0  501 -0.00000000000E+00 -0.00000000000E+00 -0.35049751801E+01  0.35049751801E+01  0.00000000000E+00 0. -1.
         21    1    1    2  502  503  0.61568749771E+01 -0.22895331804E+02  0.21503494692E+03  0.21633800342E+03  0.00000000000E+00 0.  1.
         21    1    1    2  503  501 -0.61568749771E+01  0.22895331804E+02  0.46394299913E+02  0.52101193770E+02  0.00000000000E+00 0. -1.
</event>
<event>
 4    1  0.5967370E+002  0.2169316E+02  0.7546771E-02  0.1509594E+00
          2   -1    0    0  502    0  0.00000000000E+00  0.00000000000E+00  0.11206309778E+04  0.11206309778E+04  0.00000000000E+00 0. -1.
         -2   -1    0    0    0  501 -0.00000000000E+00 -0.00000000000E+00 -0.91010201287E+00  0.91010201287E+00  0.00000000000E+00 0.  1.
         21    1    1    2  502  503  0.50809393218E+01  0.21089740280E+02  0.97140022563E+03  0.97164241954E+03  0.00000000000E+00 0. -1.
         21    1    1    2  503  501 -0.50809393218E+01 -0.21089740280E+02  0.14832065015E+03  0.14989866027E+03  0.00000000000E+00 0.  1.
</event>
<event>
 4    1  0.5967370E+002  0.2049163E+02  0.7546771E-02  0.1526648E+00
          2   -1    0    0  502    0  0.00000000000E+00  0.00000000000E+00  0.56526922457E+03  0.56526922457E+03  0.00000000000E+00 0. -1.
         -2   -1    0    0    0  501 -0.00000000000E+00 -0.00000000000E+00 -0.86766574048E+00  0.86766574048E+00  0.00000000000E+00 0.  1.
         21    1    1    2  502  503  0.19191236370E+02 -0.71835517761E+01  0.38956510225E+03  0.39010367322E+03  0.00000000000E+00 0.  1.
         21    1    1    2  503  501 -0.19191236370E+02  0.71835517761E+01  0.17483645658E+03  0.17603321709E+03  0.00000000000E+00 0. -1.
</event>
<event>
 4    1  0.5967370E+002  0.2026610E+02  0.7546771E-02  0.1530006E+00
          2   -1    0    0  503    0  0.00000000000E+00  0.00000000000E+00  0.80738629155E+00  0.80738629155E+00  0.00000000000E+00 0.  1.
         -2   -1    0    0    0  501 -0.00000000000E+00 -0.00000000000E+00 -0.51513024868E+03  0.51513024868E+03  0.00000000000E+00 0. -1.
         21    1    1    2  502  501 -0.20202365655E+02 -0.16060485087E+01 -0.22833277079E+03  0.22923038452E+03  0.00000000000E+00 0. -1.
         21    1    1    2  503  502  0.20202365655E+02  0.16060485087E+01 -0.28599009160E+03  0.28670725045E+03  0.00000000000E+00 0.  1.
</event>
<event>
 4    1  0.5967370E+002  0.2198742E+02  0.7546771E-02  0.1505620E+00
          2   -1    0    0  502    0  0.00000000000E+00  0.00000000000E+00  0.81314975539E+01  0.81314975539E+01  0.00000000000E+00 0.  1.
         -2   -1    0    0    0  501 -0.00000000000E+00 -0.00000000000E+00 -0.10635046130E+03  0.10635046130E+03  0.00000000000E+00 0. -1.
         21    1    1    2  502  503 -0.15043791453E+02  0.16035307444E+02 -0.11098482487E+02  0.24629719033E+02  0.00000000000E+00 0.  1.
         21    1    1    2  503  501  0.15043791453E+02 -0.16035307444E+02 -0.87120481262E+02  0.89852239824E+02  0.00000000000E+00 0. -1.
</event>
<event>
 4    1  0.5967370E+002  0.2707646E+02  0.7546771E-02  0.1446842E+00
          2   -1    0    0  502    0  0.00000000000E+00  0.00000000000E+00  0.16165824310E+04  0.16165824310E+04  0.00000000000E+00 0. -1.
         -2   -1    0    0    0  501 -0.00000000000E+00 -0.00000000000E+00 -0.10254055651E+01  0.10254055651E+01  0.00000000000E+00 0.  1.
         21    1    1    2  502  503  0.10019534122E+02 -0.25154398565E+02  0.14118024090E+04  0.14120620301E+04  0.00000000000E+00 0. -1.
         21    1    1    2  503  501 -0.10019534122E+02  0.25154398565E+02  0.20375461645E+03  0.20554580647E+03  0.00000000000E+00 0.  1.
</event>
<event>
 4    1  0.5967370E+002  0.3131741E+02  0.7546771E-02  0.1408483E+00
          2   -1    0    0  503    0  0.00000000000E+00  0.00000000000E+00  0.22421728471E+04  0.22421728471E+04  0.00000000000E+00 0.  1.
         -2   -1    0    0    0  501 -0.00000000000E+00 -0.00000000000E+00 -0.47051378318E+00  0.47051378318E+00  0.00000000000E+00 0. -1.
         21    1    1    2  502  501 -0.31136374646E+02 -0.33625308193E+01  0.82348582546E+03  0.82408111566E+03  0.00000000000E+00 0. -1.
         21    1    1    2  503  502  0.31136374646E+02  0.33625308193E+01  0.14182165079E+04  0.14185622453E+04  0.00000000000E+00 0.  1.
</event>
<event>
 4    1  0.5967370E+002  0.2233830E+02  0.7546771E-02  0.1500979E+00
          2   -1    0    0  502    0  0.00000000000E+00  0.00000000000E+00  0.80906912622E+01  0.80906912622E+01  0.00000000000E+00 0. -1.
         -2   -1    0    0    0  501 -0.00000000000E+00 -0.00000000000E+00 -0.13379392704E+03  0.13379392704E+03  0.00000000000E+00 0.  1.
         21    1    1    2  502  503 -0.18409073996E+02  0.12653282042E+02 -0.10767003539E+02  0.24797740160E+02  0.00000000000E+00 0. -1.
         21    1    1    2  503  501  0.18409073996E+02 -0.12653282042E+02 -0.11493623223E+03  0.11708687814E+03  0.00000000000E+00 0.  1.
</event>
<event>
 4    1  0.5967370E+002  0.2134535E+02  0.7546771E-02  0.1514391E+00
          2   -1    0    0  502    0  0.00000000000E+00  0.00000000000E+00  0.14065815981E+04  0.14065815981E+04  0.00000000000E+00 0.  1.
         -2   -1    0    0    0  501 -0.00000000000E+00 -0.00000000000E+00 -0.32491569188E+00  0.32491569188E+00  0.00000000000E+00 0. -1.
         21    1    1    2  502  503  0.18438279708E+02  0.10754247746E+02  0.66424379682E+03  0.66458667276E+03  0.00000000000E+00 0. -1.
         21    1    1    2  503  501 -0.18438279708E+02 -0.10754247746E+02  0.74201288560E+03  0.74231984104E+03  0.00000000000E+00 0.  1.
</event>
<event>
 4    1  0.5967370E+002  0.2200194E+02  0.7546771E-02  0.1505426E+00
          2   -1    0    0  502    0  0.00000000000E+00  0.00000000000E+00  0.27551058779E+03  0.27551058779E+03  0.00000000000E+00 0. -1.
         -2   -1    0    0    0  501 -0.00000000000E+00 -0.00000000000E+00 -0.18492440061E+01  0.18492440061E+01  0.00000000000E+00 0.  1.
         21    1    1    2  502  503 -0.14722146622E+01  0.21952631029E+02  0.10586562963E+03  0.10812778071E+03  0.00000000000E+00 0.  1.
         21    1    1    2  503  501  0.14722146622E+01 -0.21952631029E+02  0.16779571415E+03  0.16923205108E+03  0.00000000000E+00 0. -1.
</event>
<event>
 4    1  0.5967370E+002  0.1471839E+03  0.7546771E-02  0.1100539E+00
          2   -1    0    0  503    0  0.00000000000E+00  0.00000000000E+00  0.24504280120E+04  0.24504280120E+04  0.00000000000E+00 0. -1.
         -2   -1    0    0    0  501 -0.00000000000E+00 -0.00000000000E+00 -0.99163257477E+01  0.99163257477E+01  0.00000000000E+00 0.  1.
         21    1    1    2  502  501 -0.14167868526E+03  0.39877883615E+02  0.81506993083E+03  0.82825242987E+03  0.00000000000E+00 0.  1.
         21    1    1    2  503  502  0.14167868526E+03 -0.39877883615E+02  0.16254417555E+04  0.16320919079E+04  0.00000000000E+00 0. -1.
</event>
<event>
 4    1  0.5967370E+002  0.2158267E+02  0.7546771E-02  0.1511106E+00
          2   -1    0    0  503    0  0.00000000000E+00  0.00000000000E+00  0.96260275085E+01  0.96260275085E+01  0.00000000000E+00 0. -1.
         -2   -1    0    0    0  501 -0.00000000000E+00 -0.00000000000E+00 -0.63578489425E+02  0.63578489425E+02  0.00000000000E+00 0.  1.
         21    1    1    2  502  501 -0.26743646311E+01  0.21416338467E+02 -0.44865711588E+02  0.49786984804E+02  0.00000000000E+00 0.  1.
         21    1    1    2  503  502  0.26743646311E+01 -0.21416338467E+02 -0.90867503282E+01  0.23417532130E+02  0.00000000000E+00 0. -1.
</event>
<event>
 4    1  0.5967370E+002  0.2200635E+02  0.7546771E-02  0.1505367E+00
          2   -1    0    0  503    0  0.00000000000E+00  0.00000000000E+00  0.87691247195E+03  0.87691247195E+03  0.00000000000E+00 0.  1.
         -2   -1    0    0    0  501 -0.00000000000E+00 -0.00000000000E+00 -0.68292634658E+00  0.68292634658E+00  0.00000000000E+00 0. -1.
         21    1    1    2  502  501  0.13057426579E+01 -0.21967579402E+02  0.24617402153E+03  0.24715567642E+03  0.00000000000E+00 0. -1.
         21    1    1    2  503  502 -0.13057426579E+01  0.21967579402E+02  0.63005552408E+03  0.63043972189E+03  0.00000000000E+00 0.  1.
</event>
<event>
 4    1  0.5967370E+002  0.7386316E+02  0.7546771E-02  0.1218859E+00
          2   -1    0    0  503    0  0.00000000000E+00  0.00000000000E+00  0.26294370032E+03  0.26294370032E+03  0.00000000000E+00 0. -1.
         -2   -1    0    0    0  501 -0.00000000000E+00 -0.00000000000E+00 -0.39203872885E+02  0.39203872885E+02  0.00000000000E+00 0.  1.
         21    1    1    2  502  501  0.72678599391E+02  0.13175269144E+02  0.82167652054E+01  0.74318784683E+02  0.00000000000E+00 0.  1.
         21    1    1    2  503  502 -0.72678599391E+02 -0.13175269144E+02  0.21552306223E+03  0.22782878852E+03  0.00000000000E+00 0. -1.
</event>
<event>
 4    1  0.5967370E+002  0.2073726E+02  0.7546771E-02  0.1523049E+00
          2   -1    0    0  503    0  0.00000000000E+00  0.00000000000E+00  0.39687019304E+02  0.39687019304E+02  0.00000000000E+00 0.  1.
         -2   -1    0    0    0  501 -0.00000000000E+00 -0.00000000000E+00 -0.12632586501E+02  0.12632586501E+02  0.00000000000E+00 0. -1.
         21    1    1    2  502  501  0.17267966370E+02 -0.11482646858E+02  0.36608518840E+01  0.21057912478E+02  0.00000000000E+00 0. -1.
         21    1    1    2  503  502 -0.17267966370E+02  0.11482646858E+02  0.23393580919E+02  0.31261693326E+02  0.00000000000E+00 0.  1.
</event>
<event>
 4    1  0.5967370E+002  0.2189204E+02  0.7546771E-02  0.1506900E+00
          2   -1    0    0  502    0  0.00000000000E+00  0.00000000000E+00  0.11148319945E+03  0.11148319945E+03  0.00000000000E+00 0.  1.
         -2   -1    0    0    0  501 -0.00000000000E+00 -0.00000000000E+00 -0.31040806206E+02  0.31040806206E+02  0.00000000000E+00 0. -1.
         21    1    1    2  502  503 -0.10714173523E+02 -0.19091044591E+02  0.10636470765E+03  0.10859425644E+03  0.00000000000E+00 0.  1.
         21    1    1    2  503  501  0.10714173523E+02  0.19091044591E+02 -0.25922314406E+02  0.33929749218E+02  0.00000000000E+00 0. -1.
</event>
<event>
 4    1  0.5967370E+002  0.2602714E+02  0.7546771E-02  0.1457633E+00
          2   -1    0    0  502    0  0.00000000000E+00  0.00000000000E+00  0.24508147903E+03  0.24508147903E+03  0.00000000000E+00 0.  1.
         -2   -1    0    0    0  501 -0.00000000000E+00 -0.00000000000E+00 -0.30585968926E+01  0.30585968926E+01  0.00000000000E+00 0. -1.
         21    1    1    2  502  503  0.10578906781E+02  0.23780217541E+02  0.82508012696E+02  0.86515803030E+02  0.00000000000E+00 0. -1.
         21    1    1    2  503  501 -0.10578906781E+02 -0.23780217541E+02  0.15951486944E+03  0.16162427289E+03  0.00000000000E+00 0.  1.
</event>
<event>
 4    1  0.5967370E+002  0.2471730E+02  0.7546771E-02  0.1471991E+00
          2   -1    0    0  502    0  0.00000000000E+00  0.00000000000E+00  0.11790978572E+02  0.11790978572E+02  0.00000000000E+00 0. -1.
         -2   -1    0    0    0  501 -0.00000000000E+00 -0.00000000000E+00 -0.64437011875E+02  0.64437011875E+02  0.00000000000E+00 0.  1.
         21    1    1    2  502  503  0.20723419254E+02 -0.13471623697E+02 -0.94540655090E+01  0.26463637416E+02  0.00000000000E+00 0. -1.
         21    1    1    2  503  501 -0.20723419254E+02  0.13471623697E+02 -0.43191967795E+02  0.49764353031E+02  0.00000000000E+00 0.  1.
</event>
<event>
 4    1  0.5967370E+002  0.2034474E+02  0.7546771E-02  0.1528829E+00
          2   -1    0    0  502    0  0.00000000000E+00  0.00000000000E+00  0.35536031499E+03  0.35536031499E+03  0.00000000000E+00 0.  1.
         -2   -1    0    0    0  501 -0.00000000000E+00 -0.00000000000E+00 -0.15540729390E+01  0.15540729390E+01  0.00000000000E+00 0. -1.
         21    1    1    2  502  503  0.20030993429E+02  0.35592056886E+01  0.26622319919E+03  0.26699943901E+03  0.00000000000E+00 0.  1.
         21    1    1    2  503  501 -0.20030993429E+02 -0.35592056886E+01  0.87583042859E+02  0.89914948921E+02  0.00000000000E+00 0. -1.
</event>
<event>
 4    1  0.5967370E+002  0.2095754E+02  0.7546771E-02  0.1519872E+00
          2   -1    0    0  503    0  0.00000000000E+00  0.00000000000E+00  0.27894408676E+03  0.27894408676E+03  0.00000000000E+00 0.  1.
         -2   -1    0    0    0  501 -0.00000000000E+00 -0.00000000000E+00 -0.26768240015E+01  0.26768240015E+01  0.00000000000E+00 0. -1.
         21    1    1    2  502  501 -0.20823728179E+02 -0.23644805336E+01  0.47776002821E+02  0.52170536407E+02  0.00000000000E+00 0. -1.
         21    1    1    2  503  502  0.20823728179E+02  0.23644805336E+01  0.22849125994E+03  0.22945037435E+03  0.00000000000E+00 0.  1.
</event>
<event>
 4    1  0.5967370E+002  0.2708861E+02  0.7546771E-02  0.1446720E+00
          2   -1    0    0  503    0  0.00000000000E+00  0.00000000000E+00  0.21338815002E+04  0.21338815002E+04  0.00000000000E+00 0. -1.
         -2   -1    0    0    0  501 -0.00000000000E+00 -0.00000000000E+00 -0.44080869735E+00  0.44080869735E+00  0.00000000000E+00 0.  1.
         21    1    1    2  502  501 -0.15287669406E+02  0.22362469793E+02  0.56629682844E+03  0.56694434541E+03  0.00000000000E+00 0.  1.
         21    1    1    2  503  502  0.15287669406E+02 -0.22362469793E+02  0.15671438631E+04  0.15673779635E+04  0.00000000000E+00 0. -1.
</event>
<event>
 4    1  0.5967370E+002  0.7429061E+02  0.7546771E-02  0.1217761E+00
          2   -1    0    0  502    0  0.00000000000E+00  0.00000000000E+00  0.56626516280E+02  0.56626516280E+02  0.00000000000E+00 0. -1.
         -2   -1    0    0    0  501 -0.00000000000E+00 -0.00000000000E+00 -0.14943864436E+03  0.14943864436E+03  0.00000000000E+00 0.  1.
         21    1    1    2  502  503 -0.60590888374E+02 -0.42986505851E+02  0.14356387812E+02  0.75665060036E+02  0.00000000000E+00 0. -1.
         21    1    1    2  503  501  0.60590888374E+02  0.42986505851E+02 -0.10716851589E+03  0.13040010061E+03  0.00000000000E+00 0.  1.
</event>
<event>
 4    1  0.5967370E+002  0.4192615E+02  0.7546771E-02  0.1337554E+00
          2   -1    0    0  502    0  0.00000000000E+00  0.00000000000E+00  0.38849160249E+03  0.38849160249E+03  0.00000000000E+00 0. -1.
         -2   -1    0    0    0  501 -0.00000000000E+00 -0.00000000000E+00 -0.87700168808E+01  0.87700168808E+01  0.00000000000E+00 0.  1.
         21    1    1    2  502  503  0.21223110555E+02  0.36157733681E+02  0.32805894040E+03  0.33072718440E+03  0.00000000000E+00 0.  1.
         21    1    1    2  503  501 -0.21223110555E+02 -0.36157733681E+02  0.51662645211E+02  0.66534434970E+02  0.00000000000E+00 0. -1.
</event>
<event>
 4    1  0.5967370E+002  0.2844731E+02  0.7546771E-02  0.1433587E+00
          2   -1    0    0  503    0  0.00000000000E+00  0.00000000000E+00  0.13048443690E+02  0.13048443690E+02  0.00000000000E+00 0.  1.
         -2   -1    0    0    0  501 -0.00000000000E+00 -0.00000000000E+00 -0.33297804943E+03  0.33297804943E+03  0.00000000000E+00 0. -1.
         21    1    1    2  502  501 -0.22921715702E+02 -0.16847681443E+02 -0.31603626773E+03  0.31731399582E+03  0.00000000000E+00 0. -1.
         21    1    1    2  503  502  0.22921715702E+02  0.16847681443E+02 -0.38933380151E+01  0.28712497307E+02  0.00000000000E+00 0.  1.
</event>
<event>
 4    1  0.5967370E+002  0.3249224E+02  0.7546771E-02  0.1399106E+00
          2   -1    0    0  502    0  0.00000000000E+00  0.00000000000E+00  0.28028565697E+04  0.28028565697E+04  0.00000000000E+00 0. -1.
         -2   -1    0    0    0  501 -0.00000000000E+00 -0.00000000000E+00 -0.46206152710E+00  0.46206152710E+00  0.00000000000E+00 0.  1.
         21    1    1    2  502  503  0.30173351980E+02  0.12054646252E+02  0.20037647287E+04  0.20040281519E+04  0.00000000000E+00 0. -1.
         21    1    1    2  503  501 -0.30173351980E+02 -0.12054646252E+02  0.79862977952E+03  0.79929047937E+03  0.00000000000E+00 0.  1.
</event>
<event>
 4    1  0.5967370E+002  0.2364662E+02  0.7546771E-02  0.1484534E+00
          2   -1    0    0  503    0  0.00000000000E+00  0.00000000000E+00  0.43628146542E+03  0.43628146542E+03  0.00000000000E+00 0.  1.
         -2   -1    0    0    0  501 -0.00000000000E+00 -0.00000000000E+00 -0.94247980186E+01  0.94247980186E+01  0.00000000000E+00 0. -1.
         21    1    1    2  502  501 -0.23418882123E+02 -0.32739169362E+01  0.62812938406E+01  0.24466655356E+02  0.00000000000E+00 0. -1.
         21    1    1    2  503  502  0.23418882123E+02  0.32739169362E+01  0.42057537356E+03  0.42123960808E+03  0.00000000000E+00 0.  1.
</event>
<event>
 4    1  0.5967370E+002  0.2703449E+02  0.7546771E-02  0.1447262E+00
          2   -1    0    0  502    0  0.00000000000E+00  0.00000000000E+00  0.37114695879E+01  0.37114695879E+01  0.00000000000E+00 0.  1.
         -2   -1    0    0    0  501 -0.00000000000E+00 -0.00000000000E+00 -0.25149429513E+03  0.25149429513E+03  0.00000000000E+00 0. -1.
         21    1    1    2  502  503  0.14582811205E+02 -0.22764119481E+02 -0.64449949877E+02  0.69890339516E+02  0.00000000000E+00 0. -1.
         21    1    1    2  503  501 -0.14582811205E+02  0.22764119481E+02 -0.18333287566E+03  0.18531542520E+03  0.00000000000E+00 0.  1.
</event>
<event>
 4    1  0.5967370E+002  0.2080670E+02  0.7546771E-02  0.1522043E+00
          2   -1    0    0  503    0  0.00000000000E+00  0.00000000000E+00  0.19630422911E+02  0.19630422911E+02  0.00000000000E+00 0. -1.
         -2   -1    0    0    0  501 -0.00000000000E+00 -0.00000000000E+00 -0.32616789497E+02  0.32616789497E+02  0.00000000000E+00 0.  1.
         21    1    1    2  502  501  0.10911530816E+01  0.20778065343E+02 -0.21359831840E+02  0.29818803307E+02  0.00000000000E+00 0. -1.
         21    1    1    2  503  502 -0.10911530816E+01 -0.20778065343E+02  0.83734652536E+01  0.22428409101E+02  0.00000000000E+00 0.  1.
</event>
<event>
 4    1  0.5967370E+002  0.3668131E+02  0.7546771E-02  0.1369113E+00
          2   -1    0    0  502    0  0.00000000000E+00  0.00000000000E+00  0.17222293888E+04  0.17222293888E+04  0.00000000000E+00 0.  1.
         -2   -1    0    0    0  501 -0.00000000000E+00 -0.00000000000E+00 -0.57117754608E+01  0.57117754608E+01  0.00000000000E+00 0. -1.
         21    1    1    2  502  503 -0.28129630216E+02  0.23542360393E+02  0.16609699675E+04  0.16613749583E+04  0.00000000000E+00 0.  1.
         21    1    1    2  503  501  0.28129630216E+02 -0.23542360393E+02  0.55547645803E+02  0.66566206015E+02  0.00000000000E+00 0. -1.
</event>
<event>
 4    1  0.5967370E+002  0.2774624E+02  0.7546771E-02  0.1440253E+00
          2   -1    0    0  503    0  0.00000000000E+00  0.00000000000E+00  0.72954474802E+03  0.72954474802E+03  0.00000000000E+00 0. -1.
         -2   -1    0    0    0  501 -0.00000000000E+00 -0.00000000000E+00 -0.14253853932E+01  0.14253853932E+01  0.00000000000E+00 0.  1.
         21    1    1    2  502  501 -0.20925085772E+02  0.18220712164E+02  0.17781554446E+03  0.17996727874E+03  0.00000000000E+00 0. -1.
         21    1    1    2  503  502  0.20925085772E+02 -0.18220712164E+02  0.55030381817E+03  0.55100285467E+03  0.00000000000E+00 0.  1.
</event>
<event>
 4    1  0.5967370E+002  0.2535463E+02  0.7546771E-02  0.1464875E+00
          2   -1    0    0  502    0  0.00000000000E+00  0.00000000000E+00  0.17728926571E+03  0.17728926571E+03  0.00000000000E+00 0. -1.
         -2   -1    0    0    0  501 -0.00000000000E+00 -0.00000000000E+00 -0.40957769358E+01  0.40957769358E+01  0.00000000000E+00 0.  1.
         21    1    1    2  502  503  0.22301777326E+01 -0.25256359113E+02  0.11731045226E+03  0.12001916338E+03  0.00000000000E+00 0. -1.
         21    1    1    2  503  501 -0.22301777326E+01  0.25256359113E+02  0.55883036515E+02  0.61365879269E+02  0.00000000000E+00 0.  1.
</event>
<event>
 4    1  0.5967370E+002  0.2348671E+02  0.7546771E-02  0.1486475E+00
          2   -1    0    0  503    0  0.00000000000E+00  0.00000000000E+00  0.10141583477E+03  0.10141583477E+03  0.00000000000E+00 0. -1.
         -2   -1    0    0    0  501 -0.00000000000E+00 -0.00000000000E+00 -0.62973866279E+01  0.62973866279E+01  0.00000000000E+00 0.  1.
         21    1    1    2  502  501 -0.22969831032E+02 -0.49002314892E+01  0.27678200554E+02  0.36300250580E+02  0.00000000000E+00 0. -1.
         21    1    1    2  503  502  0.22969831032E+02  0.49002314892E+01  0.67440247593E+02  0.71412970823E+02  0.00000000000E+00 0.  1.
</event>
<event>
 4    1  0.5967370E+002  0.4582086E+02  0.7546771E-02  0.1317385E+00
          2   -1    0    0  502    0  0.00000000000E+00  0.00000000000E+00  0.13878728252E+04  0.13878728252E+04  0.00000000000E+00 0.  1.
         -2   -1    0    0    0  501 -0.00000000000E+00 -0.00000000000E+00 -0.17013347222E+01  0.17013347222E+01  0.00000000000E+00 0. -1.
         21    1    1    2  502  503  0.45073148891E+02  0.82439600941E+01  0.92438332929E+03  0.92551828242E+03  0.00000000000E+00 0.  1.
         21    1    1    2  503  501 -0.45073148891E+02 -0.82439600941E+01  0.46178816120E+03  0.46405587751E+03  0.00000000000E+00 0. -1.
</event>
<event>
 4    1  0.5967370E+002  0.2292684E+02  0.7546771E-02  0.1493419E+00
          2   -1    0    0  503    0  0.00000000000E+00  0.00000000000E+00  0.48391995707E+01  0.48391995707E+01  0.00000000000E+00 0. -1.
         -2   -1    0    0    0  501 -0.00000000000E+00 -0.00000000000E+00 -0.14190755564E+03  0.14190755564E+03  0.00000000000E+00 0.  1.
         21    1    1    2  502  501 -0.16008879903E+02 -0.16412057407E+02 -0.32998172642E+02  0.40181080893E+02  0.00000000000E+00 0. -1.
         21    1    1    2  503  502  0.16008879903E+02  0.16412057407E+02 -0.10407018343E+03  0.10656567432E+03  0.00000000000E+00 0.  1.
</event>
<event>
 4    1  0.5967370E+002  0.2075557E+02  0.7546771E-02  0.1522783E+00
          2   -1    0    0  503    0  0.00000000000E+00  0.00000000000E+00  0.17717624226E+03  0.17717624226E+03  0.00000000000E+00 0. -1.
         -2   -1    0    0    0  501 -0.00000000000E+00 -0.00000000000E+00 -0.25271296049E+01  0.25271296049E+01  0.00000000000E+00 0.  1.
         21    1    1    2  502  501 -0.16565533228E+02 -0.12505068210E+02  0.69840506295E+02  0.72859384719E+02  0.00000000000E+00 0. -1.
         21    1    1    2  503  502  0.16565533228E+02  0.12505068210E+02  0.10480860636E+03  0.10684398714E+03  0.00000000000E+00 0.  1.
</event>
<event>
 4    1  0.5967370E+002  0.2079443E+02  0.7546771E-02  0.1522220E+00
          2   -1    0    0  503    0  0.00000000000E+00  0.00000000000E+00  0.21034799521E+03  0.21034799521E+03  0.00000000000E+00 0.  1.
         -2   -1    0    0    0  501 -0.00000000000E+00 -0.00000000000E+00 -0.77352138473E+01  0.77352138473E+01  0.00000000000E+00 0. -1.
         21    1    1    2  502  501  0.84637308174E+01  0.18994041930E+02  0.78707903031E+01  0.22234156341E+02  0.00000000000E+00 0. -1.
         21    1    1    2  503  502 -0.84637308174E+01 -0.18994041930E+02  0.19474199106E+03  0.19584905272E+03  0.00000000000E+00 0.  1.
</event>
<event>
 4    1  0.5967370E+002  0.3279558E+02  0.7546771E-02  0.1396761E+00
          2   -1    0    0  503    0  0.00000000000E+00  0.00000000000E+00  0.71499261645E+02  0.71499261645E+02  0.00000000000E+00 0.  1.
         -2   -1    0    0    0  501 -0.00000000000E+00 -0.00000000000E+00 -0.55580854340E+02  0.55580854340E+02  0.00000000000E+00 0. -1.
         21    1    1    2  502  501 -0.28555540756E+02  0.16128579569E+02 -0.46305368244E+02  0.56742727419E+02  0.00000000000E+00 0. -1.
         21    1    1    2  503  502  0.28555540756E+02 -0.16128579569E+02  0.62223775548E+02  0.70337388566E+02  0.00000000000E+00 0.  1.
</event>
<event>
 4    1  0.5967370E+002  0.3618645E+02  0.7546771E-02  0.1372409E+00
          2   -1    0    0  503    0  0.00000000000E+00  0.00000000000E+00  0.18336002495E+03  0.18336002495E+03  0.00000000000E+00 0. -1.
         -2   -1    0    0    0  501 -0.00000000000E+00 -0.00000000000E+00 -0.73056532698E+01  0.73056532698E+01  0.00000000000E+00 0.  1.
         21    1    1    2  502  501  0.29765826724E+02  0.20578023123E+02  0.10231882604E+03  0.10852926628E+03  0.00000000000E+00 0.  1.
         21    1    1    2  503  502 -0.29765826724E+02 -0.20578023123E+02  0.73735545640E+02  0.82136411943E+02  0.00000000000E+00 0. -1.
</event>
<event>
 4    1  0.5967370E+002  0.2769049E+02  0.7546771E-02  0.1440793E+00
          2   -1    0    0  502    0  0.00000000000E+00  0.00000000000E+00  0.18844087778E+04  0.18844087778E+04  0.00000000000E+00 0.  1.
         -2   -1    0    0    0  501 -0.00000000000E+00 -0.00000000000E+00 -0.65695424014E+00  0.65695424014E+00  0.00000000000E+00 0. -1.
         21    1    1    2  502  503  0.10846538629E+02 -0.25477751751E+02  0.15233726694E+04  0.15236243150E+04  0.00000000000E+00 0.  1.
         21    1    1    2  503  501 -0.10846538629E+02  0.25477751751E+02  0.36037915414E+03  0.36144141707E+03  0.00000000000E+00 0. -1.
</event>
<event>
 4    1  0.5967370E+002  0.2179239E+02  0.7546771E-02  0.1508246E+00
          2   -1    0    0  503    0  0.00000000000E+00  0.00000000000E+00  0.89086620546E+01  0.89086620546E+01  0.00000000000E+00 0. -1.
         -2   -1    0    0    0  501 -0.00000000000E+00 -0.00000000000E+00 -0.84824840587E+02  0.84824840587E+02  0.00000000000E+00 0.  1.
         21    1    1    2  502  501  0.21763409175E+02 -0.11234274787E+01 -0.66525488800E+02  0.70003919378E+02  0.00000000000E+00 0.  1.
         21    1    1    2  503  502 -0.21763409175E+02  0.11234274787E+01 -0.93906897325E+01  0.23729583264E+02  0.00000000000E+00 0. -1.
</event>
<event>
 4    1  0.5967370E+002  0.2017557E+02  0.7546771E-02  0.1531369E+00
          2   -1    0    0  502    0  0.00000000000E+00  0.00000000000E+00  0.68006126914E+03  0.68006126914E+03  0.00000000000E+00 0.  1.
         -2   -1    0    0    0  501 -0.00000000000E+00 -0.00000000000E+00 -0.77435641230E+00  0.77435641230E+00  0.00000000000E+00 0. -1.
         21    1    1    2  502  503  0.18875450711E+02  0.71253807691E+01  0.17744239127E+03  0.17858571027E+03  0.00000000000E+00 0. -1.
         21    1    1    2  503  501 -0.18875450711E+02 -0.71253807691E+01  0.50184452145E+03  0.50224991528E+03  0.00000000000E+00 0.  1.
</event>
<event>
 4    1  0.5967370E+002  0.2960865E+02  0.7546771E-02  0.1423028E+00
          2   -1    0    0  503    0  0.00000000000E+00  0.00000000000E+00  0.10618230015E+04  0.10618230015E+04  0.00000000000E+00 0.  1.
         -2   -1    0    0    0  501 -0.00000000000E+00 -0.00000000000E+00 -0.35418912306E+01  0.35418912306E+01  0.00000000000E+00 0. -1.
         21    1    1    2  502  501  0.14353763855E+02 -0.25896744141E+02  0.62656696697E+02  0.69300314104E+02  0.00000000000E+00 0. -1.
         21    1    1    2  503  502 -0.14353763855E+02  0.25896744141E+02  0.99562441356E+03  0.99606457861E+03  0.00000000000E+00 0.  1.
</event>
<event>
 4    1  0.5967370E+002  0.3020728E+02  0.7546771E-02  0.1417804E+00
          2   -1    0    0  502    0  0.00000000000E+00  0.00000000000E+00  0.46247685624E+02  0.46247685624E+02  0.00000000000E+00 0. -1.
         -2   -1    0    0    0  501 -0.00000000000E+00 -0.00000000000E+00 -0.21582079788E+02  0.21582079788E+02  0.00000000000E+00 0.  1.
         21    1    1    2  502  503  0.30155770378E+02 -0.17633048492E+01  0.22267184300E+02  0.37527419678E+02  0.00000000000E+00 0. -1.
         21    1    1    2  503  501 -0.30155770378E+02  0.17633048492E+01  0.23984215361E+01  0.30302345733E+02  0.00000000000E+00 0.  1.
</event>
<event>
 4    1  0.5967370E+002  0.2716479E+02  0.7546771E-02  0.1445960E+00
          2   -1    0    0  502    0  0.00000000000E+00  0.00000000000E+00  0.36509619223E+02  0.36509619223E+02  0.00000000000E+00 0.  1.
         -2   -1    0    0    0  501 -0.00000000000E+00 -0.00000000000E+00 -0.24103378735E+02  0.24103378735E+02  0.00000000000E+00 0. -1.
         21    1    1    2  502  503 -0.74853619613E+01  0.26113120835E+02  0.18380638750E+02  0.32798987855E+02  0.00000000000E+00 0.  1.
         21    1    1    2  503  501  0.74853619613E+01 -0.26113120835E+02 -0.59743982620E+01  0.27814010103E+02  0.00000000000E+00 0. -1.
</event>
<event>
 4    1  0.5967370E+002  0.2646778E+02  0.7546771E-02  0.1453029E+00
          2   -1    0    0  503    0  0.00000000000E+00  0.00000000000E+00  0.77960457574E+01  0.77960457574E+01  0.00000000000E+00 0.  1.
         -2   -1    0    0    0  501 -0.00000000000E+00 -0.00000000000E+00 -0.13583055088E+03  0.13583055088E+03  0.00000000000E+00 0. -1.
         21    1    1    2  502  501 -0.26444755340E+02 -0.11038495248E+01 -0.10579562454E+03  0.10905621367E+03  0.00000000000E+00 0. -1.
         21    1    1    2  503  502  0.26444755340E+02  0.11038495248E+01 -0.22238880583E+02  0.34570382966E+02  0.00000000000E+00 0.  1.
</event>
<event>
 4    1  0.5967370E+002  0.2310687E+02  0.7546771E-02  0.1491161E+00
          2   -1    0    0  502    0  0.00000000000E+00  0.00000000000E+00  0.32658801851E+03  0.32658801851E+03  0.00000000000E+00 0.  1.
         -2   -1    0    0    0  501 -0.00000000000E+00 -0.00000000000E+00 -0.44175907277E+01  0.44175907277E+01  0.00000000000E+00 0. -1.
         21    1    1    2  502  503 -0.17969548431E+02  0.14526617601E+02  0.29244058265E+03  0.29335204392E+03  0.00000000000E+00 0.  1.
         21    1    1    2  503  501  0.17969548431E+02 -0.14526617601E+02  0.29729845131E+02  0.37653565319E+02  0.00000000000E+00 0. -1.
</event>
<event>
 4    1  0.5967370E+002  0.2224416E+02  0.7546771E-02  0.1502214E+00
          2   -1    0    0  502    0  0.00000000000E+00  0.00000000000E+00  0.14008472083E+02  0.14008472083E+02  0.00000000000E+00 0.  1.
         -2   -1    0    0    0  501 -0.00000000000E+00 -0.00000000000E+00 -0.89132310076E+02  0.89132310076E+02  0.00000000000E+00 0. -1.
         21    1    1    2  502  503  0.21426149678E+02 -0.59768433474E+01  0.25078599131E+01  0.22385082260E+02  0.00000000000E+00 0.  1.
         21    1    1    2  503  501 -0.21426149678E+02  0.59768433474E+01 -0.77631697906E+02  0.80755699899E+02  0.00000000000E+00 0. -1.
</event>
<event>
 4    1  0.5967370E+002  0.3219364E+02  0.7546771E-02  0.1401445E+00
          2   -1    0    0  502    0  0.00000000000E+00  0.00000000000E+00  0.59289151197E+03  0.59289151197E+03  0.00000000000E+00 0.  1.
         -2   -1    0    0    0  501 -0.00000000000E+00 -0.00000000000E+00 -0.21357052821E+01  0.21357052821E+01  0.00000000000E+00 0. -1.
         21    1    1    2  502  503 -0.22550538800E+02  0.22976157744E+02  0.42212379137E+03  0.42334964966E+03  0.00000000000E+00 0.  1.
         21    1    1    2  503  501  0.22550538800E+02 -0.22976157744E+02  0.16863201532E+03  0.17167756759E+03  0.00000000000E+00 0. -1.
</event>
<event>
 4    1  0.5967370E+002  0.2468652E+02  0.7546771E-02  0.1472341E+00
          2   -1    0    0  503    0  0.00000000000E+00  0.00000000000E+00  0.94283779462E+03  0.94283779462E+03  0.00000000000E+00 0.  1.
         -2   -1    0    0    0  501 -0.00000000000E+00 -0.00000000000E+00 -0.79918530056E+00  0.79918530056E+00  0.00000000000E+00 0. -1.
         21    1    1    2  502  501  0.23912313998E+02  0.61339491313E+01  0.26470393750E+03  0.26585258814E+03  0.00000000000E+00 0. -1.
         21    1    1    2  503  502 -0.23912313998E+02 -0.61339491313E+01  0.67733467182E+03  0.67778439178E+03  0.00000000000E+00 0.  1.
</event>
<event>
 4    1  0.5967370E+002  0.2720262E+02  0.7546771E-02  0.1445583E+00
          2   -1    0    0  502    0  0.00000000000E+00  0.00000000000E+00  0.24380115446E+04  0.24380115446E+04  0.00000000000E+00 0.  1.
         -2   -1    0    0    0  501 -0.00000000000E+00 -0.00000000000E+00 -0.34818531221E+00  0.34818531221E+00  0.00000000000E+00 0. -1.
         21    1    1    2  502  503 -0.52331982715E+01 -0.26694493865E+02  0.16555018466E+04  0.16557253234E+04  0.00000000000E+00 0.  1.
         21    1    1    2  503  501  0.52331982715E+01  0.26694493865E+02  0.78216151265E+03  0.78263440650E+03  0.00000000000E+00 0. -1.
</event>
<event>
 4    1  0.5967370E+002  0.2989209E+02  0.7546771E-02  0.1420537E+00
          2   -1    0    0  503    0  0.00000000000E+00  0.00000000000E+00  0.48112070301E+02  0.48112070301E+02  0.00000000000E+00 0.  1.
         -2   -1    0    0    0  501 -0.00000000000E+00 -0.00000000000E+00 -0.34633112709E+02  0.34633112709E+02  0.00000000000E+00 0. -1.
         21    1    1    2  502  501 -0.10740133846E+02  0.27895997736E+02 -0.21434931481E+02  0.36783059312E+02  0.00000000000E+00 0. -1.
         21    1    1    2  503  502  0.10740133846E+02 -0.27895997736E+02  0.34913889073E+02  0.45962123699E+02  0.00000000000E+00 0.  1.
</event>
<event>
 4    1  0.5967370E+002  0.2192351E+02  0.7546771E-02  0.1506477E+00
          2   -1    0    0  503    0  0.00000000000E+00  0.00000000000E+00  0.22921844541E+02  0.22921844541E+02  0.00000000000E+00 0.  1.
         -2   -1    0    0    0  501 -0.00000000000E+00 -0.00000000000E+00 -0.81874773839E+02  0.81874773839E+02  0.00000000000E+00 0. -1.
         21    1    1    2  502  501  0.21906630968E+02  0.86020171241E+00 -0.74669618674E+02  0.77821541878E+02  0.00000000000E+00 0. -1.
         21    1    1    2  503  502 -0.21906630968E+02 -0.86020171241E+00  0.15716689376E+02  0.26975076502E+02  0.00000000000E+00 0.  1.
</event>
<event>
 4    1  0.5967370E+002  0.3272085E+02  0.7546771E-02  0.1397336E+00
          2   -1    0    0  502    0  0.00000000000E+00  0.00000000000E+00  0.56248838853E+01  0.56248838853E+01  0.00000000000E+00 0. -1.
         -2   -1    0    0    0  501 -0.00000000000E+00 -0.00000000000E+00 -0.23230744048E+03  0.23230744048E+03  0.00000000000E+00 0.  1.
         21    1    1    2  502  503  0.31536813538E+02  0.87225873768E+01 -0.62777968575E+02  0.70793555336E+02  0.00000000000E+00 0. -1.
         21    1    1    2  503  501 -0.31536813538E+02 -0.87225873768E+01 -0.16390458801E+03  0.16713876902E+03  0.00000000000E+00 0.  1.
</event>
<event>
 4    1  0.5967370E+002  0.3033154E+02  0.7546771E-02  0.1416737E+00
          2   -1    0    0  503    0  0.00000000000E+00  0.00000000000E+00  0.60330732287E+03  0.60330732287E+03  0.00000000000E+00 0. -1.
         -2   -1    0    0    0  501 -0.00000000000E+00 -0.00000000000E+00 -0.24704017390E+01  0.24704017390E+01  0.00000000000E+00 0.  1.
         21    1    1    2  502  501  0.19062853323E+02 -0.23592586595E+02  0.11303839984E+03  0.11703709821E+03  0.00000000000E+00 0.  1.
         21    1    1    2  503  502 -0.19062853323E+02  0.23592586595E+02  0.48779852129E+03  0.48874062640E+03  0.00000000000E+00 0. -1.
</event>
<event>
 4    1  0.5967370E+002  0.2159627E+02  0.7546771E-02  0.1510919E+00
          2   -1    0    0  503    0  0.00000000000E+00  0.00000000000E+00  0.21200515908E+04  0.21200515908E+04  0.00000000000E+00 0. -1.
         -2   -1    0    0    0  501 -0.00000000000E+00 -0.00000000000E+00 -0.27569720328E+00  0.27569720328E+00  0.00000000000E+00 0.  1.
         21    1    1    2  502  501  0.21592297661E+02 -0.41407595110E+00  0.58335104089E+03  0.58375066226E+03  0.00000000000E+00 0.  1.
         21    1    1    2  503  502 -0.21592297661E+02  0.41407595110E+00  0.15364248527E+04  0.15365766258E+04  0.00000000000E+00 0. -1.
</event>
<event>
 4    1  0.5967370E+002  0.2015711E+02  0.7546771E-02  0.1531648E+00
          2   -1    0    0  503    0  0.00000000000E+00  0.00000000000E+00  0.10724326822E+04  0.10724326822E+04  0.00000000000E+00 0. -1.
         -2   -1    0    0    0  501 -0.00000000000E+00 -0.00000000000E+00 -0.56264121984E+00  0.56264121984E+00  0.00000000000E+00 0.  1.
         21    1    1    2  502  501 -0.82259194518E+01  0.18402259932E+02  0.22931900908E+03  0.23020320773E+03  0.00000000000E+00 0.  1.
         21    1    1    2  503  502  0.82259194518E+01 -0.18402259932E+02  0.84255103191E+03  0.84279211570E+03  0.00000000000E+00 0. -1.
</event>
<event>
 4    1  0.5967370E+002  0.3088230E+02  0.7546771E-02  0.1412081E+00
          2   -1    0    0  502    0  0.00000000000E+00  0.00000000000E+00  0.32707724962E+03  0.32707724962E+03  0.00000000000E+00 0. -1.
         -2   -1    0    0    0  501 -0.00000000000E+00 -0.00000000000E+00 -0.14112852311E+03  0.14112852311E+03  0.00000000000E+00 0.  1.
         21    1    1    2  502  503  0.19947201353E+02 -0.23575959226E+02  0.32464621098E+03  0.32611175845E+03  0.00000000000E+00 0. -1.
         21    1    1    2  503  501 -0.19947201353E+02  0.23575959226E+02 -0.13869748448E+03  0.14209401428E+03  0.00000000000E+00 0.  1.
</event>
<event>
 4    1  0.5967370E+002  0.2541506E+02  0.7546771E-02  0.1464213E+00
          2   -1    0    0  503    0  0.00000000000E+00  0.00000000000E+00  0.13688071566E+04  0.13688071566E+04  0.00000000000E+00 0.  1.
         -2   -1    0    0    0  501 -0.00000000000E+00 -0.00000000000E+00 -0.86319264215E+00  0.86319264215E+00  0.00000000000E+00 0. -1.
         21    1    1    2  502  501  0.22742789380E+02  0.11344197173E+02  0.22287843712E+03  0.22432280983E+03  0.00000000000E+00 0. -1.
         21    1    1    2  503  502 -0.22742789380E+02 -0.11344197173E+02  0.11450655268E+04  0.11453475394E+04  0.00000000000E+00 0.  1.
</event>
<event>
 4    1  0.5967370E+002  0.2441885E+02  0.7546771E-02  0.1475411E+00
          2   -1    0    0  503    0  0.00000000000E+00  0.00000000000E+00  0.90622457114E+03  0.90622457114E+03  0.00000000000E+00 0.  1.
         -2   -1    0    0    0  501 -0.00000000000E+00 -0.00000000000E+00 -0.74445420119E+00  0.74445420119E+00  0.00000000000E+00 0. -1.
         21    1    1    2  502  501  0.23863159098E+02  0.51797669860E+01  0.60729370326E+03  0.60778443742E+03  0.00000000000E+00 0.  1.
         21    1    1    2  503  502 -0.23863159098E+02 -0.51797669860E+01  0.29818641368E+03  0.29918458793E+03  0.00000000000E+00 0. -1.
</event>
<event>
 4    1  0.5967370E+002  0.2470265E+02  0.7546771E-02  0.1472157E+00
          2   -1    0    0  503    0  0.00000000000E+00  0.00000000000E+00  0.26516711191E+03  0.26516711191E+03  0.00000000000E+00 0.  1.
         -2   -1    0    0    0  501 -0.00000000000E+00 -0.00000000000E+00 -0.23775872086E+01  0.23775872086E+01  0.00000000000E+00 0. -1.
         21    1    1    2  502  501 -0.21520048175E+02 -0.12128829619E+02  0.15536160634E+03  0.15731322165E+03  0.00000000000E+00 0.  1.
         21    1    1    2  503  502  0.21520048175E+02  0.12128829619E+02  0.10742791836E+03  0.11023147747E+03  0.00000000000E+00 0. -1.
</event>
<event>
 4    1  0.5967370E+002  0.2609811E+02  0.7546771E-02  0.1456884E+00
          2   -1    0    0  503    0  0.00000000000E+00  0.00000000000E+00  0.76344263614E+02  0.76344263614E+02  0.00000000000E+00 0. -1.
         -2   -1    0    0    0  501 -0.00000000000E+00 -0.00000000000E+00 -0.90496214351E+01  0.90496214351E+01  0.00000000000E+00 0.  1.
         21    1    1    2  502  501  0.19594726145E+02 -0.17238270136E+02  0.38726124471E+02  0.46699292998E+02  0.00000000000E+00 0. -1.
         21    1    1    2  503  502 -0.19594726145E+02  0.17238270136E+02  0.28568517708E+02  0.38694592051E+02  0.00000000000E+00 0.  1.
</event>
<event>
 4    1  0.5967370E+002  0.3523714E+02  0.7546771E-02  0.1378904E+00
          2   -1    0    0  502    0  0.00000000000E+00  0.00000000000E+00  0.21125148546E+03  0.21125148546E+03  0.00000000000E+00 0.  1.
         -2   -1    0    0    0  501 -0.00000000000E+00 -0.00000000000E+00 -0.20648701528E+02  0.20648701528E+02  0.00000000000E+00 0. -1.
         21    1    1    2  502  503 -0.23969511112E+02  0.25828635065E+02  0.19337019727E+03  0.19655454470E+03  0.00000000000E+00 0.  1.
         21    1    1    2  503  501  0.23969511112E+02 -0.25828635065E+02 -0.27674133302E+01  0.35345642289E+02  0.00000000000E+00 0. -1.
</event>
<event>
 4    1  0.5967370E+002  0.2173977E+02  0.7546771E-02  0.1508960E+00
          2   -1    0    0  503    0  0.00000000000E+00  0.00000000000E+00  0.80702482562E+03  0.80702482562E+03  0.00000000000E+00 0.  1.
         -2   -1    0    0    0  501 -0.00000000000E+00 -0.00000000000E+00 -0.49981124217E+01  0.49981124217E+01  0.00000000000E+00 0. -1.
         21    1    1    2  502  501  0.16660252247E+02  0.13966164072E+02  0.19528943396E+02  0.29223233462E+02  0.00000000000E+00 0. -1.
         21    1    1    2  503  502 -0.16660252247E+02 -0.13966164072E+02  0.78249776980E+03  0.78279970458E+03  0.00000000000E+00 0.  1.
</event>
<event>
 4    1  0.5967370E+002  0.4075988E+02  0.7546771E-02  0.1344090E+00
          2   -1    0    0  503    0  0.00000000000E+00  0.00000000000E+00  0.19194718860E+03  0.19194718860E+03  0.00000000000E+00 0.  1.
         -2   -1    0    0    0  501 -0.00000000000E+00 -0.00000000000E+00 -0.92547662420E+01  0.92547662420E+01  0.00000000000E+00 0. -1.
         21    1    1    2  502  501 -0.35851807459E+02  0.19391131595E+02  0.65743407158E+02  0.77353498094E+02  0.00000000000E+00 0. -1.
         21    1    1    2  503  502  0.35851807459E+02 -0.19391131595E+02  0.11694901520E+03  0.12384845675E+03  0.00000000000E+00 0.  1.
</event>
<event>
 4    1  0.5967370E+002  0.2612953E+02  0.7546771E-02  0.1456554E+00
          2   -1    0    0  503    0  0.00000000000E+00  0.00000000000E+00  0.25971540996E+04  0.25971540996E+04  0.00000000000E+00 0. -1.
         -2   -1    0    0    0  501 -0.00000000000E+00 -0.00000000000E+00 -0.33219143826E+00  0.33219143826E+00  0.00000000000E+00 0.  1.
         21    1    1    2  502  501  0.25642545728E+02  0.50211779920E+01  0.70519009289E+03  0.70567401787E+03  0.00000000000E+00 0.  1.
         21    1    1    2  503  502 -0.25642545728E+02 -0.50211779920E+01  0.18916318153E+04  0.18918122732E+04  0.00000000000E+00 0. -1.
</event>
<event>
 4    1  0.5967370E+002  0.2200347E+02  0.7546771E-02  0.1505406E+00
          2   -1    0    0  502    0  0.00000000000E+00  0.00000000000E+00  0.48024252683E+03  0.48024252683E+03  0.00000000000E+00 0. -1.
         -2   -1    0    0    0  501 -0.00000000000E+00 -0.00000000000E+00 -0.15538239332E+01  0.15538239332E+01  0.00000000000E+00 0.  1.
         21    1    1    2  502  503 -0.17837009955E+02  0.12883858262E+02  0.38210297104E+03  0.38273598369E+03  0.00000000000E+00 0. -1.
         21    1    1    2  503  501  0.17837009955E+02 -0.12883858262E+02  0.96585731854E+02  0.99060367078E+02  0.00000000000E+00 0.  1.
</event>
<event>
 4    1  0.5967370E+002  0.3730098E+02  0.7546771E-02  0.1365072E+00
          2   -1    0    0  503    0  0.00000000000E+00  0.00000000000E+00  0.10053397196E+04  0.10053397196E+04  0.00000000000E+00 0.  1.
         -2   -1    0    0    0  501 -0.00000000000E+00 -0.00000000000E+00 -0.15354737092E+01  0.15354737092E+01  0.00000000000E+00 0. -1.
         21    1    1    2  502  501 -0.36097336536E+02 -0.93992288513E+01  0.34376583900E+03  0.34578362493E+03  0.00000000000E+00 0.  1.
         21    1    1    2  503  502  0.36097336536E+02  0.93992288513E+01  0.66003840689E+03  0.66109156838E+03  0.00000000000E+00 0. -1.
</event>
<event>
 4    1  0.5967370E+002  0.2565784E+02  0.7546771E-02  0.1461577E+00
          2   -1    0    0  503    0  0.00000000000E+00  0.00000000000E+00  0.37430830375E+03  0.37430830375E+03  0.00000000000E+00 0. -1.
         -2   -1    0    0    0  501 -0.00000000000E+00 -0.00000000000E+00 -0.34668311582E+01  0.34668311582E+01  0.00000000000E+00 0.  1.
         21    1    1    2  502  501 -0.25121982046E+02 -0.52163865845E+01  0.52837717734E+02  0.58737969715E+02  0.00000000000E+00 0.  1.
         21    1    1    2  503  502  0.25121982046E+02  0.52163865845E+01  0.31800375485E+03  0.31903716519E+03  0.00000000000E+00 0. -1.
</event>
<event>
 4    1  0.5967370E+002  0.3155862E+02  0.7546771E-02  0.1406519E+00
          2   -1    0    0  503    0  0.00000000000E+00  0.00000000000E+00  0.10421649414E+04  0.10421649414E+04  0.00000000000E+00 0.  1.
         -2   -1    0    0    0  501 -0.00000000000E+00 -0.00000000000E+00 -0.28980754483E+02  0.28980754483E+02  0.00000000000E+00 0. -1.
         21    1    1    2  502  501  0.19110690217E+02 -0.25114299749E+02 -0.20076372316E+02  0.37403305440E+02  0.00000000000E+00 0. -1.
         21    1    1    2  503  502 -0.19110690217E+02  0.25114299749E+02  0.10332605592E+04  0.10337423904E+04  0.00000000000E+00 0.  1.
</event>
<event>
 4    1  0.5967370E+002  0.3895483E+02  0.7546771E-02  0.1354722E+00
          2   -1    0    0  503    0  0.00000000000E+00  0.00000000000E+00  0.86766084124E+03  0.86766084124E+03  0.00000000000E+00 0.  1.
         -2   -1    0    0    0  501 -0.00000000000E+00 -0.00000000000E+00 -0.30377308449E+01  0.30377308449E+01  0.00000000000E+00 0. -1.
         21    1    1    2  502  501 -0.38769094771E+02 -0.37994755179E+01  0.14874437068E+03  0.15376074445E+03  0.00000000000E+00 0. -1.
         21    1    1    2  503  502  0.38769094771E+02  0.37994755179E+01  0.71587873971E+03  0.71693782764E+03  0.00000000000E+00 0.  1.
</event>
<event>
 4    1  0.5967370E+002  0.5548805E+02  0.7546771E-02  0.1275984E+00
          2   -1    0    0  503    0  0.00000000000E+00  0.00000000000E+00  0.11723944851E+04  0.11723944851E+04  0.00000000000E+00 0. -1.
         -2   -1    0    0    0  501 -0.00000000000E+00 -0.00000000000E+00 -0.61184742685E+01  0.61184742685E+01  0.00000000000E+00 0.  1.
         21    1    1    2  502  501  0.53978265658E+01 -0.55224876040E+02  0.13795561819E+03  0.14869659059E+03  0.00000000000E+00 0.  1.
         21    1    1    2  503  502 -0.53978265658E+01  0.55224876040E+02  0.10283203926E+04  0.10298163688E+04  0.00000000000E+00 0. -1.
</event>
<event>
 4    1  0.5967370E+002  0.2481541E+02  0.7546771E-02  0.1470879E+00
          2   -1    0    0  502    0  0.00000000000E+00  0.00000000000E+00  0.14258967322E+03  0.14258967322E+03  0.00000000000E+00 0. -1.
         -2   -1    0    0    0  501 -0.00000000000E+00 -0.00000000000E+00 -0.46038047437E+01  0.46038047437E+01  0.00000000000E+00 0.  1.
         21    1    1    2  502  503 -0.19393326886E+02 -0.15482363102E+02  0.50678729458E+02  0.56428169511E+02  0.00000000000E+00 0.  1.
         21    1    1    2  503  501  0.19393326886E+02  0.15482363102E+02  0.87307139023E+02  0.90765308457E+02  0.00000000000E+00 0. -1.
</event>
<event>
 4    1  0.5967370E+002  0.3099692E+02  0.7546771E-02  0.1411126E+00
          2   -1    0    0  502    0  0.00000000000E+00  0.00000000000E+00  0.15955859340E+04  0.15955859340E+04  0.00000000000E+00 0. -1.
         -2   -1    0    0    0  501 -0.00000000000E+00 -0.00000000000E+00 -0.12635897039E+01  0.12635897039E+01  0.00000000000E+00 0.  1.
         21    1    1    2  502  503 -0.30496533110E+02 -0.55471071645E+01  0.13748188658E+04  0.13751682525E+04  0.00000000000E+00 0. -1.
         21    1    1    2  503  501  0.30496533110E+02  0.55471071645E+01  0.21950347845E+03  0.22168127115E+03  0.00000000000E+00 0.  1.
</event>
<event>
 4    1  0.5967370E+002  0.2328479E+02  0.7546771E-02  0.1488953E+00
          2   -1    0    0  502    0  0.00000000000E+00  0.00000000000E+00  0.45740562698E+03  0.45740562698E+03  0.00000000000E+00 0. -1.
         -2   -1    0    0    0  501 -0.00000000000E+00 -0.00000000000E+00 -0.16065840863E+01  0.16065840863E+01  0.00000000000E+00 0.  1.
         21    1    1    2  502  503  0.80359323367E+01 -0.21854185005E+02  0.34541875295E+03  0.34620268125E+03  0.00000000000E+00 0. -1.
         21    1    1    2  503  501 -0.80359323367E+01  0.21854185005E+02  0.11038028994E+03  0.11280952982E+03  0.00000000000E+00 0.  1.
</event>
<event>
 4    1  0.5967370E+002  0.2920524E+02  0.7546771E-02  0.1426631E+00
          2   -1    0    0  503    0  0.00000000000E+00  0.00000000000E+00  0.79170108775E+03  0.79170108775E+03  0.00000000000E+00 0. -1.
         -2   -1    0    0    0  501 -0.00000000000E+00 -0.00000000000E+00 -0.17722238235E+01  0.17722238235E+01  0.00000000000E+00 0.  1.
         21    1    1    2  502  501 -0.40128671971E+01  0.28928234491E+02  0.14654052972E+03  0.14942246385E+03  0.00000000000E+00 0.  1.
         21    1    1    2  503  502  0.40128671971E+01 -0.28928234491E+02  0.64338833421E+03  0.64405084772E+03  0.00000000000E+00 0. -1.
</event>
<event>
 4    1  0.5967370E+002  0.2113663E+02  0.7546771E-02  0.1517323E+00
          2   -1    0    0  502    0  0.00000000000E+00  0.00000000000E+00  0.46623159758E+02  0.46623159758E+02  0.00000000000E+00 0.  1.
         -2   -1    0    0    0  501 -0.00000000000E+00 -0.00000000000E+00 -0.30744585844E+02  0.30744585844E+02  0.00000000000E+00 0. -1.
         21    1    1    2  502  503 -0.79572858932E+01  0.19581596448E+02  0.40033509813E+02  0.45270732556E+02  0.00000000000E+00 0.  1.
         21    1    1    2  503  501  0.79572858932E+01 -0.19581596448E+02 -0.24154935899E+02  0.32097013046E+02  0.00000000000E+00 0. -1.
</event>
<event>
 4    1  0.5967370E+002  0.2876809E+02  0.7546771E-02  0.1430612E+00
          2   -1    0    0  502    0  0.00000000000E+00  0.00000000000E+00  0.16126288968E+02  0.16126288968E+02  0.00000000000E+00 0.  1.
         -2   -1    0    0    0  501 -0.00000000000E+00 -0.00000000000E+00 -0.95929222203E+02  0.95929222203E+02  0.00000000000E+00 0. -1.
         21    1    1    2  502  503  0.86771382910E+01 -0.27428274809E+02 -0.16947660721E+01  0.28817966964E+02  0.00000000000E+00 0.  1.
         21    1    1    2  503  501 -0.86771382910E+01  0.27428274809E+02 -0.78108167163E+02  0.83237544206E+02  0.00000000000E+00 0. -1.
</event>
<event>
 4    1  0.5967370E+002  0.2349892E+02  0.7546771E-02  0.1486326E+00
          2   -1    0    0  503    0  0.00000000000E+00  0.00000000000E+00  0.10648339035E+04  0.10648339035E+04  0.00000000000E+00 0. -1.
         -2   -1    0    0    0  501 -0.00000000000E+00 -0.00000000000E+00 -0.48246250844E+01  0.48246250844E+01  0.00000000000E+00 0.  1.
         21    1    1    2  502  501 -0.13913642772E+02 -0.18936996246E+02  0.24735501734E+02  0.34118093852E+02  0.00000000000E+00 0.  1.
         21    1    1    2  503  502  0.13913642772E+02  0.18936996246E+02  0.10352737766E+04  0.10355404347E+04  0.00000000000E+00 0. -1.
</event>
<event>
 4    1  0.5967370E+002  0.2939323E+02  0.7546771E-02  0.1424944E+00
          2   -1    0    0  503    0  0.00000000000E+00  0.00000000000E+00  0.13630607057E+04  0.13630607057E+04  0.00000000000E+00 0. -1.
         -2   -1    0    0    0  501 -0.00000000000E+00 -0.00000000000E+00 -0.34989754926E+01  0.34989754926E+01  0.00000000000E+00 0.  1.
         21    1    1    2  502  501 -0.37728079498E+01 -0.29150096163E+02  0.61478722722E+02  0.68143932478E+02  0.00000000000E+00 0.  1.
         21    1    1    2  503  502  0.37728079498E+01  0.29150096163E+02  0.12980830075E+04  0.12984157487E+04  0.00000000000E+00 0. -1.
</event>
<event>
 4    1  0.5967370E+002  0.3006572E+02  0.7546771E-02  0.1419026E+00
          2   -1    0    0  502    0  0.00000000000E+00  0.00000000000E+00  0.14203377149E+03  0.14203377149E+03  0.00000000000E+00 0. -1.
         -2   -1    0    0    0  501 -0.00000000000E+00 -0.00000000000E+00 -0.13204640536E+02  0.13204640536E+02  0.00000000000E+00 0.  1.
         21    1    1    2  502  503 -0.19638798990E+02  0.22765441755E+02  0.12028013968E+03  0.12398088467E+03  0.00000000000E+00 0. -1.
         21    1    1    2  503  501  0.19638798990E+02 -0.22765441755E+02  0.85489912720E+01  0.31257527347E+02  0.00000000000E+00 0.  1.
</event>
<event>
 4    1  0.5967370E+002  0.2103268E+02  0.7546771E-02  0.1518799E+00
          2   -1    0    0  503    0  0.00000000000E+00  0.00000000000E+00  0.29815888405E+01  0.29815888405E+01  0.00000000000E+00 0.  1.
         -2   -1    0    0    0  501 -0.00000000000E+00 -0.00000000000E+00 -0.36023516149E+03  0.36023516149E+03  0.00000000000E+00 0. -1.
         21    1    1    2  502  501 -0.13684354903E+02  0.15972228600E+02 -0.31790211938E+03  0.31859712987E+03  0.00000000000E+00 0. -1.
         21    1    1    2  503  502  0.13684354903E+02 -0.15972228600E+02 -0.39351453273E+02  0.44619620463E+02  0.00000000000E+00 0.  1.
</event>
<event>
 4    1  0.5967370E+002  0.2562481E+02  0.7546771E-02  0.1461934E+00
          2   -1    0    0  502    0  0.00000000000E+00  0.00000000000E+00  0.10069243508E+03  0.10069243508E+03  0.00000000000E+00 0.  1.
         -2   -1    0    0    0  501 -0.00000000000E+00 -0.00000000000E+00 -0.16512478206E+02  0.16512478206E+02  0.00000000000E+00 0. -1.
         21    1    1    2  502  503 -0.37175921103E+01 -0.25353700772E+02  0.87674906260E+02  0.91342869572E+02  0.00000000000E+00 0.  1.
         21    1    1    2  503  501  0.37175921103E+01  0.25353700772E+02 -0.34949493850E+01  0.25862043715E+02  0.00000000000E+00 0. -1.
</event>
<event>
 4    1  0.5967370E+002  0.2132536E+02  0.7546771E-02  0.1514670E+00
          2   -1    0    0  502    0  0.00000000000E+00  0.00000000000E+00  0.15248517085E+04  0.15248517085E+04  0.00000000000E+00 0.  1.
         -2   -1    0    0    0  501 -0.00000000000E+00 -0.00000000000E+00 -0.30668878671E+00  0.30668878671E+00  0.00000000000E+00 0. -1.
         21    1    1    2  502  503  0.22189199228E+01  0.21209609943E+02  0.88884622504E+03  0.88910200929E+03  0.00000000000E+00 0. -1.
         21    1    1    2  503  501 -0.22189199228E+01 -0.21209609943E+02  0.63569879469E+03  0.63605638801E+03  0.00000000000E+00 0.  1.
</event>
<event>
 4    1  0.5967370E+002  0.5411047E+02  0.7546771E-02  0.1281271E+00
          2   -1    0    0  502    0  0.00000000000E+00  0.00000000000E+00  0.14155607248E+04  0.14155607248E+04  0.00000000000E+00 0. -1.
         -2   -1    0    0    0  501 -0.00000000000E+00 -0.00000000000E+00 -0.22526548000E+01  0.22526548000E+01  0.00000000000E+00 0.  1.
         21    1    1    2  502  503  0.49774198722E+02  0.21224325614E+02  0.90940064953E+03  0.91100904728E+03  0.00000000000E+00 0. -1.
         21    1    1    2  503  501 -0.49774198722E+02 -0.21224325614E+02  0.50390742051E+03  0.50680433236E+03  0.00000000000E+00 0.  1.
</event>
<event>
 4    1  0.5967370E+002  0.3519912E+02  0.7546771E-02  0.1379169E+00
          2   -1    0    0  502    0  0.00000000000E+00  0.00000000000E+00  0.23180671168E+03  0.23180671168E+03  0.00000000000E+00 0.  1.
         -2   -1    0    0    0  501 -0.00000000000E+00 -0.00000000000E+00 -0.69876654300E+01  0.69876654300E+01  0.00000000000E+00 0. -1.
         21    1    1    2  502  503 -0.34475321279E+02  0.71014165321E+01  0.54517445783E+02  0.64893218357E+02  0.00000000000E+00 0. -1.
         21    1    1    2  503  501  0.34475321279E+02 -0.71014165321E+01  0.17030160047E+03  0.17390115875E+03  0.00000000000E+00 0.  1.
</event>
<event>
 4    1  0.5967370E+002  0.2151223E+02  0.7546771E-02  0.1512076E+00
          2   -1    0    0  502    0  0.00000000000E+00  0.00000000000E+00  0.49100147219E+03  0.49100147219E+03  0.00000000000E+00 0. -1.
         -2   -1    0    0    0  501 -0.00000000000E+00 -0.00000000000E+00 -0.17408105048E+01  0.17408105048E+01  0.00000000000E+00 0.  1.
         21    1    1    2  502  503  0.15823205224E+02  0.14574022529E+02  0.41146875998E+03  0.41203072264E+03  0.00000000000E+00 0. -1.
         21    1    1    2  503  501 -0.15823205224E+02 -0.14574022529E+02  0.77791901703E+02  0.80711560057E+02  0.00000000000E+00 0.  1.
</event>
<event>
 4    1  0.5967370E+002  0.2220572E+02  0.7546771E-02  0.1502720E+00
          2   -1    0    0  503    0  0.00000000000E+00  0.00000000000E+00  0.22532455279E+02  0.22532455279E+02  0.00000000000E+00 0. -1.
         -2   -1    0    0    0  501 -0.00000000000E+00 -0.00000000000E+00 -0.62823187939E+02  0.62823187939E+02  0.00000000000E+00 0.  1.
         21    1    1    2  502  501 -0.19206008299E+02  0.11145538756E+02 -0.54597283274E+02  0.58940284440E+02  0.00000000000E+00 0.  1.
         21    1    1    2  503  502  0.19206008299E+02 -0.11145538756E+02  0.14306550614E+02  0.26415358779E+02  0.00000000000E+00 0. -1.
</event>
<event>
 4    1  0.5967370E+002  0.2027289E+02  0.7546771E-02  0.1529904E+00
          2   -1    0    0  503    0  0.00000000000E+00  0.00000000000E+00  0.86506091669E+01  0.86506091669E+01  0.00000000000E+00 0. -1.
         -2   -1    0    0    0  501 -0.00000000000E+00 -0.00000000000E+00 -0.11177025313E+03  0.11177025313E+03  0.00000000000E+00 0.  1.
         21    1    1    2  502  501 -0.15123870311E+02 -0.13500319791E+02 -0.97213941774E+02  0.99305289703E+02  0.00000000000E+00 0.  1.
         21    1    1    2  503  502  0.15123870311E+02  0.13500319791E+02 -0.59057021891E+01  0.21115572594E+02  0.00000000000E+00 0. -1.
</event>
<event>
 4    1  0.5967370E+002  0.4546897E+02  0.7546771E-02  0.1319111E+00
          2   -1    0    0  503    0  0.00000000000E+00  0.00000000000E+00  0.20628928843E+02  0.20628928843E+02  0.00000000000E+00 0. -1.
         -2   -1    0    0    0  501 -0.00000000000E+00 -0.00000000000E+00 -0.18095437476E+03  0.18095437476E+03  0.00000000000E+00 0.  1.
         21    1    1    2  502  501 -0.21274920546E+01 -0.45419166555E+02 -0.14748670996E+03  0.15433650420E+03  0.00000000000E+00 0. -1.
         21    1    1    2  503  502  0.21274920546E+01  0.45419166555E+02 -0.12838735955E+02  0.47246799404E+02  0.00000000000E+00 0.  1.
</event>
<event>
 4    1  0.5967370E+002  0.2004492E+02  0.7546771E-02  0.1533350E+00
          2   -1    0    0  503    0  0.00000000000E+00  0.00000000000E+00  0.45128831723E+00  0.45128831723E+00  0.00000000000E+00 0.  1.
         -2   -1    0    0    0  501 -0.00000000000E+00 -0.00000000000E+00 -0.14230446846E+04  0.14230446846E+04  0.00000000000E+00 0. -1.
         21    1    1    2  502  501  0.59913128589E+01 -0.19128589530E+02 -0.11467698518E+04  0.11469450256E+04  0.00000000000E+00 0. -1.
         21    1    1    2  503  502 -0.59913128589E+01  0.19128589530E+02 -0.27582354449E+03  0.27655094732E+03  0.00000000000E+00 0.  1.
</event>
<event>
 4    1  0.5967370E+002  0.2534563E+02  0.7546771E-02  0.1464974E+00
          2   -1    0    0  503    0  0.00000000000E+00  0.00000000000E+00  0.22386717803E+03  0.22386717803E+03  0.00000000000E+00 0.  1.
         -2   -1    0    0    0  501 -0.00000000000E+00 -0.00000000000E+00 -0.37540194932E+01  0.37540194932E+01  0.00000000000E+00 0. -1.
         21    1    1    2  502  501  0.74121356134E+01 -0.24237594095E+02  0.16529903255E+03  0.16723089093E+03  0.00000000000E+00 0.  1.
         21    1    1    2  503  502 -0.74121356134E+01  0.24237594095E+02  0.54814125993E+02  0.60390306591E+02  0.00000000000E+00 0. -1.
</event>
<event>
 4    1  0.5967370E+002  0.3146025E+02  0.7546771E-02  0.1407317E+00
          2   -1    0    0  503    0  0.00000000000E+00  0.00000000000E+00  0.14089235631E+04  0.14089235631E+04  0.00000000000E+00 0. -1.
         -2   -1    0    0    0  501 -0.00000000000E+00 -0.00000000000E+00 -0.83927429957E+00  0.83927429957E+00  0.00000000000E+00 0.  1.
         21    1    1    2  502  501 -0.38379330552E+01 -0.31225275051E+02  0.98861293302E+03  0.98911338019E+03  0.00000000000E+00 0. -1.
         21    1    1    2  503  502  0.38379330552E+01  0.31225275051E+02  0.41947135574E+03  0.42064945717E+03  0.00000000000E+00 0.  1.
</event>
<event>
 4    1  0.5967370E+002  0.2511326E+02  0.7546771E-02  0.1467540E+00
          2   -1    0    0  502    0  0.00000000000E+00  0.00000000000E+00  0.18325398921E+04  0.18325398921E+04  0.00000000000E+00 0.  1.
         -2   -1    0    0    0  501 -0.00000000000E+00 -0.00000000000E+00 -0.29664295657E+01  0.29664295657E+01  0.00000000000E+00 0. -1.
         21    1    1    2  502  503 -0.21836935500E+02  0.12402578010E+02  0.17776620432E+04  0.17778394235E+04  0.00000000000E+00 0.  1.
         21    1    1    2  503  501  0.21836935500E+02 -0.12402578010E+02  0.51911419275E+02  0.57666898170E+02  0.00000000000E+00 0. -1.
</event>
<event>
 4    1  0.5967370E+002  0.2138657E+02  0.7546771E-02  0.1513817E+00
          2   -1    0    0  503    0  0.00000000000E+00  0.00000000000E+00  0.13546969950E+04  0.13546969950E+04  0.00000000000E+00 0. -1.
         -2   -1    0    0    0  501 -0.00000000000E+00 -0.00000000000E+00 -0.42101544367E+00  0.42101544367E+00  0.00000000000E+00 0.  1.
         21    1    1    2  502  501  0.21384891812E+02 -0.26830469724E+00  0.97867782520E+03  0.97891147257E+03  0.00000000000E+00 0. -1.
         21    1    1    2  503  502 -0.21384891812E+02  0.26830469724E+00  0.37559815436E+03  0.37620653788E+03  0.00000000000E+00 0.  1.
</event>
<event>
 4    1  0.5967370E+002  0.2122652E+02  0.7546771E-02  0.1516055E+00
          2   -1    0    0  503    0  0.00000000000E+00  0.00000000000E+00  0.88794404793E+00  0.88794404793E+00  0.00000000000E+00 0.  1.
         -2   -1    0    0    0  501 -0.00000000000E+00 -0.00000000000E+00 -0.55212737937E+03  0.55212737937E+03  0.00000000000E+00 0. -1.
         21    1    1    2  502  501 -0.21103576656E+02  0.22813004548E+01 -0.35429736511E+03  0.35493265306E+03  0.00000000000E+00 0.  1.
         21    1    1    2  503  502  0.21103576656E+02 -0.22813004548E+01 -0.19694207021E+03  0.19808267036E+03  0.00000000000E+00 0. -1.
</event>
<event>
 4    1  0.5967370E+002  0.2056399E+02  0.7546771E-02  0.1525582E+00
          2   -1    0    0  502    0  0.00000000000E+00  0.00000000000E+00  0.10430125729E+03  0.10430125729E+03  0.00000000000E+00 0. -1.
         -2   -1    0    0    0  501 -0.00000000000E+00 -0.00000000000E+00 -0.45455018274E+01  0.45455018274E+01  0.00000000000E+00 0.  1.
         21    1    1    2  502  503  0.19677557213E+02  0.59725595448E+01  0.67766868555E+02  0.70818261763E+02  0.00000000000E+00 0. -1.
         21    1    1    2  503  501 -0.19677557213E+02 -0.59725595448E+01  0.31988886904E+02  0.38028497351E+02  0.00000000000E+00 0.  1.
</event>
<event>
 4    1  0.5967370E+002  0.2134322E+02  0.7546771E-02  0.1514421E+00
          2   -1    0    0  503    0  0.00000000000E+00  0.00000000000E+00  0.78804666277E+02  0.78804666277E+02  0.00000000000E+00 0.  1.
         -2   -1    0    0    0  501 -0.00000000000E+00 -0.00000000000E+00 -0.87817837172E+02  0.87817837172E+02  0.00000000000E+00 0. -1.
         21    1    1    2  502  501  0.89504533452E+01  0.19375815962E+02 -0.85029221781E+02  0.87666991598E+02  0.00000000000E+00 0. -1.
         21    1    1    2  503  502 -0.89504533452E+01 -0.19375815962E+02  0.76016050886E+02  0.78955511851E+02  0.00000000000E+00 0.  1.
</event>
<event>
 4    1  0.5967370E+002  0.2152522E+02  0.7546771E-02  0.1511897E+00
          2   -1    0    0  503    0  0.00000000000E+00  0.00000000000E+00  0.58717408869E+03  0.58717408869E+03  0.00000000000E+00 0. -1.
         -2   -1    0    0    0  501 -0.00000000000E+00 -0.00000000000E+00 -0.79824979304E+00  0.79824979304E+00  0.00000000000E+00 0.  1.
         21    1    1    2  502  501 -0.20644219292E+02  0.60951757801E+01  0.26170105597E+03  0.26258480088E+03  0.00000000000E+00 0.  1.
         21    1    1    2  503  502  0.20644219292E+02 -0.60951757801E+01  0.32467478293E+03  0.32538753761E+03  0.00000000000E+00 0. -1.
</event>
<event>
 4    1  0.5967370E+002  0.2087029E+02  0.7546771E-02  0.1521125E+00
          2   -1    0    0  503    0  0.00000000000E+00  0.00000000000E+00  0.77189111314E+03  0.77189111314E+03  0.00000000000E+00 0.  1.
         -2   -1    0    0    0  501 -0.00000000000E+00 -0.00000000000E+00 -0.72110824408E+00  0.72110824408E+00  0.00000000000E+00 0. -1.
         21    1    1    2  502  501  0.20528261106E+02 -0.37629382665E+01  0.20543600750E+03  0.20649339550E+03  0.00000000000E+00 0.  1.
         21    1    1    2  503  502 -0.20528261106E+02  0.37629382665E+01  0.56573399740E+03  0.56611882588E+03  0.00000000000E+00 0. -1.
</event>
<event>
 4    1  0.5967370E+002  0.3223812E+02  0.7546771E-02  0.1401094E+00
          2   -1    0    0  502    0  0.00000000000E+00  0.00000000000E+00  0.56442100432E+03  0.56442100432E+03  0.00000000000E+00 0.  1.
         -2   -1    0    0    0  501 -0.00000000000E+00 -0.00000000000E+00 -0.24515899595E+01  0.24515899595E+01  0.00000000000E+00 0. -1.
         21    1    1    2  502  503  0.31621803114E+02 -0.62735933725E+01  0.13957409495E+03  0.14324881984E+03  0.00000000000E+00 0. -1.
         21    1    1    2  503  501 -0.31621803114E+02  0.62735933725E+01  0.42239531941E+03  0.42362377444E+03  0.00000000000E+00 0.  1.
</event>
<event>
 4    1  0.5967370E+002  0.2586923E+02  0.7546771E-02  0.1459310E+00
          2   -1    0    0  503    0  0.00000000000E+00  0.00000000000E+00  0.45811740359E+02  0.45811740359E+02  0.00000000000E+00 0.  1.
         -2   -1    0    0    0  501 -0.00000000000E+00 -0.00000000000E+00 -0.16705411280E+02  0.16705411280E+02  0.00000000000E+00 0. -1.
         21    1    1    2  502  501 -0.70859439502E+01  0.24879841671E+02  0.34771335244E+01  0.26101869297E+02  0.00000000000E+00 0. -1.
         21    1    1    2  503  502  0.70859439502E+01 -0.24879841671E+02  0.25629195555E+02  0.36415282342E+02  0.00000000000E+00 0.  1.
</event>
<event>
 4    1  0.5967370E+002  0.2731548E+02  0.7546771E-02  0.1444465E+00
          2   -1    0    0  502    0  0.00000000000E+00  0.00000000000E+00  0.53245504146E+03  0.53245504146E+03  0.00000000000E+00 0.  1.
         -2   -1    0    0    0  501 -0.00000000000E+00 -0.00000000000E+00 -0.33947132177E+01  0.33947132177E+01  0.00000000000E+00 0. -1.
         21    1    1    2  502  503  0.27262708785E+02  0.16970487994E+01  0.46983961009E+03  0.47063297215E+03  0.00000000000E+00 0.  1.
         21    1    1    2  503  501 -0.27262708785E+02 -0.16970487994E+01  0.59220718160E+02  0.65216782535E+02  0.00000000000E+00 0. -1.
</event>
<event>
 4    1  0.5967370E+002  0.3053918E+02  0.7546771E-02  0.1414968E+00
          2   -1    0    0  502    0  0.00000000000E+00  0.00000000000E+00  0.19972611841E+04  0.19972611841E+04  0.00000000000E+00 0. -1.
         -2   -1    0    0    0  501 -0.00000000000E+00 -0.00000000000E+00 -0.53361261006E+00  0.53361261006E+00  0.00000000000E+00 0.  1.
         21    1    1    2  502  503  0.27623715587E+02  0.13021970842E+02  0.13513972895E+04  0.13517423111E+04  0.00000000000E+00 0. -1.
         21    1    1    2  503  501 -0.27623715587E+02 -0.13021970842E+02  0.64533028199E+03  0.64605248567E+03  0.00000000000E+00 0.  1.
</event>
<event>
 4    1  0.5967370E+002  0.3646189E+02  0.7546771E-02  0.1370567E+00
          2   -1    0    0  503    0  0.00000000000E+00  0.00000000000E+00  0.25213425102E+02  0.25213425102E+02  0.00000000000E+00 0.  1.
         -2   -1    0    0    0  501 -0.00000000000E+00 -0.00000000000E+00 -0.58955626935E+02  0.58955626935E+02  0.00000000000E+00 0. -1.
         21    1    1    2  502  501 -0.49116131031E+01 -0.36129564417E+02 -0.30548361721E+02  0.47567549570E+02  0.00000000000E+00 0.  1.
         21    1    1    2  503  502  0.49116131031E+01  0.36129564417E+02 -0.31938401113E+01  0.36601502467E+02  0.00000000000E+00 0. -1.
</event>
<event>
 4    1  0.5967370E+002  0.2154991E+02  0.7546771E-02  0.1511556E+00
          2   -1    0    0  503    0  0.00000000000E+00  0.00000000000E+00  0.72705439000E+03  0.72705439000E+03  0.00000000000E+00 0. -1.
         -2   -1    0    0    0  501 -0.00000000000E+00 -0.00000000000E+00 -0.82311102715E+00  0.82311102715E+00  0.00000000000E+00 0.  1.
         21    1    1    2  502  501 -0.19376043831E+02  0.94322646010E+01  0.19087109411E+03  0.19208376625E+03  0.00000000000E+00 0.  1.
         21    1    1    2  503  502  0.19376043831E+02 -0.94322646010E+01  0.53536018485E+03  0.53579373477E+03  0.00000000000E+00 0. -1.
</event>
<event>
 4    1  0.5967370E+002  0.2353017E+02  0.7546771E-02  0.1485946E+00
          2   -1    0    0  503    0  0.00000000000E+00  0.00000000000E+00  0.31825030431E+01  0.31825030431E+01  0.00000000000E+00 0. -1.
         -2   -1    0    0    0  501 -0.00000000000E+00 -0.00000000000E+00 -0.42138527001E+03  0.42138527001E+03  0.00000000000E+00 0.  1.
         21    1    1    2  502  501  0.29889826215E+01  0.23339552468E+02 -0.37176417212E+03  0.37250807829E+03  0.00000000000E+00 0.  1.
         21    1    1    2  503  502 -0.29889826215E+01 -0.23339552468E+02 -0.46438594850E+02  0.52059694757E+02  0.00000000000E+00 0. -1.
</event>
<event>
 4    1  0.5967370E+002  0.2019646E+02  0.7546771E-02  0.1531053E+00
          2   -1    0    0  503    0  0.00000000000E+00  0.00000000000E+00  0.12285840856E+03  0.12285840856E+03  0.00000000000E+00 0.  1.
         -2   -1    0    0    0  501 -0.00000000000E+00 -0.00000000000E+00 -0.36329830391E+01  0.36329830391E+01  0.00000000000E+00 0. -1.
         21    1    1    2  502  501  0.18679326801E+02  0.76798353864E+01  0.41050959277E+02  0.45750173539E+02  0.00000000000E+00 0. -1.
         21    1    1    2  503  502 -0.18679326801E+02 -0.76798353864E+01  0.78174466241E+02  0.80741218057E+02  0.00000000000E+00 0.  1.
</event>
<event>
 4    1  0.5967370E+002  0.2150256E+02  0.7546771E-02  0.1512209E+00
          2   -1    0    0  503    0  0.00000000000E+00  0.00000000000E+00  0.35503401777E+02  0.35503401777E+02  0.00000000000E+00 0.  1.
         -2   -1    0    0    0  501 -0.00000000000E+00 -0.00000000000E+00 -0.16613675912E+02  0.16613675912E+02  0.00000000000E+00 0. -1.
         21    1    1    2  502  501  0.13594627688E+02  0.16659719458E+02  0.21559388177E+02  0.30449423196E+02  0.00000000000E+00 0.  1.
         21    1    1    2  503  502 -0.13594627688E+02 -0.16659719458E+02 -0.26696623118E+01  0.21667654493E+02  0.00000000000E+00 0. -1.
</event>
<event>
 4    1  0.5967370E+002  0.2598968E+02  0.7546771E-02  0.1458030E+00
          2   -1    0    0  503    0  0.00000000000E+00  0.00000000000E+00  0.29723176122E+02  0.29723176122E+02  0.00000000000E+00 0.  1.
         -2   -1    0    0    0  501 -0.00000000000E+00 -0.00000000000E+00 -0.11466685446E+03  0.11466685446E+03  0.00000000000E+00 0. -1.
         21    1    1    2  502  501 -0.25988388548E+02 -0.25905193980E+00 -0.10711827019E+03  0.11022607339E+03  0.00000000000E+00 0. -1.
         21    1    1    2  503  502  0.25988388548E+02  0.25905193980E+00  0.22174591850E+02  0.34163957191E+02  0.00000000000E+00 0.  1.
</event>
<event>
 4    1  0.5967370E+002  0.2191211E+02  0.7546771E-02  0.1506630E+00
          2   -1    0    0  502    0  0.00000000000E+00  0.00000000000E+00  0.13568527637E+01  0.13568527637E+01  0.00000000000E+00 0.  1.
         -2   -1    0    0    0  501 -0.00000000000E+00 -0.00000000000E+00 -0.49952515483E+03  0.49952515483E+03  0.00000000000E+00 0. -1.
         21    1    1    2  502  503 -0.21727183585E+02 -0.28407661750E+01 -0.11384588194E+03  0.11593543588E+03  0.00000000000E+00 0.  1.
         21    1    1    2  503  501  0.21727183585E+02  0.28407661750E+01 -0.38432242013E+03  0.38494657172E+03  0.00000000000E+00 0. -1.
</event>
<event>
 4    1  0.5967370E+002  0.3729949E+02  0.7546771E-02  0.1365081E+00
          2   -1    0    0  503    0  0.00000000000E+00  0.00000000000E+00  0.94130250917E+03  0.94130250917E+03  0.00000000000E+00 0.  1.
         -2   -1    0    0    0  501 -0.00000000000E+00 -0.00000000000E+00 -0.19590315938E+01  0.19590315938E+01  0.00000000000E+00 0. -1.
         21    1    1    2  502  501 -0.23311480346E+02 -0.29117466128E+02  0.70337508552E+03  0.70436337417E+03  0.00000000000E+00 0.  1.
         21    1    1    2  503  502  0.23311480346E+02  0.29117466128E+02  0.23596839205E+03  0.23889816659E+03  0.00000000000E+00 0. -1.
</event>
<event>
 4    1  0.5967370E+002  0.2041349E+02  0.7546771E-02  0.1527806E+00
          2   -1    0    0  502    0  0.00000000000E+00  0.00000000000E+00  0.40569596776E+03  0.40569596776E+03  0.00000000000E+00 0.  1.
         -2   -1    0    0    0  501 -0.00000000000E+00 -0.00000000000E+00 -0.19917706813E+01  0.19917706813E+01  0.00000000000E+00 0. -1.
         21    1    1    2  502  503  0.13619352718E+02  0.15206049084E+02  0.34371087981E+03  0.34431653982E+03  0.00000000000E+00 0.  1.
         21    1    1    2  503  501 -0.13619352718E+02 -0.15206049084E+02  0.59993317274E+02  0.63371198622E+02  0.00000000000E+00 0. -1.
</event>
<event>
 4    1  0.5967370E+002  0.3476167E+02  0.7546771E-02  0.1382246E+00
          2   -1    0    0  502    0  0.00000000000E+00  0.00000000000E+00  0.42866460919E+02  0.42866460919E+02  0.00000000000E+00 0.  1.
         -2   -1    0    0    0  501 -0.00000000000E+00 -0.00000000000E+00 -0.46824553553E+02  0.46824553553E+02  0.00000000000E+00 0. -1.
         21    1    1    2  502  503  0.60546551044E+01  0.34230323870E+02  0.26312078034E+02  0.43597011034E+02  0.00000000000E+00 0. -1.
         21    1    1    2  503  501 -0.60546551044E+01 -0.34230323870E+02 -0.30270170667E+02  0.46094003438E+02  0.00000000000E+00 0.  1.
</event>
<event>
 4    1  0.5967370E+002  0.6488601E+02  0.7546771E-02  0.1244078E+00
          2   -1    0    0  502    0  0.00000000000E+00  0.00000000000E+00  0.18572065633E+04  0.18572065633E+04  0.00000000000E+00 0. -1.
         -2   -1    0    0    0  501 -0.00000000000E+00 -0.00000000000E+00 -0.22896717781E+01  0.22896717781E+01  0.00000000000E+00 0.  1.
         21    1    1    2  502  503  0.42334900699E+02 -0.49172660420E+02  0.83483942129E+03  0.83735718406E+03  0.00000000000E+00 0. -1.
         21    1    1    2  503  501 -0.42334900699E+02  0.49172660420E+02  0.10200774702E+04  0.10221390510E+04  0.00000000000E+00 0.  1.
</event>
<event>
 4    1  0.5967370E+002  0.2536310E+02  0.7546771E-02  0.1464782E+00
          2   -1    0    0  502    0  0.00000000000E+00  0.00000000000E+00  0.38922716924E+01  0.38922716924E+01  0.00000000000E+00 0.  1.
         -2   -1    0    0    0  501 -0.00000000000E+00 -0.00000000000E+00 -0.20379718139E+03  0.20379718139E+03  0.00000000000E+00 0. -1.
         21    1    1    2  502  503  0.10912025565E+02 -0.22895728508E+02 -0.54802935397E+02  0.60387485575E+02  0.00000000000E+00 0.  1.
         21    1    1    2  503  501 -0.10912025565E+02  0.22895728508E+02 -0.14510197430E+03  0.14730196751E+03  0.00000000000E+00 0. -1.
</event>
<event>
 4    1  0.5967370E+002  0.4061751E+02  0.7546771E-02  0.1344905E+00
          2   -1    0    0  502    0  0.00000000000E+00  0.00000000000E+00  0.27899936265E+03  0.27899936265E+03  0.00000000000E+00 0. -1.
         -2   -1    0    0    0  501 -0.00000000000E+00 -0.00000000000E+00 -0.12684523548E+02  0.12684523548E+02  0.00000000000E+00 0.  1.
         21    1    1    2  502  503 -0.22751832845E+02  0.33647235468E+02  0.23971436524E+03  0.24313115649E+03  0.00000000000E+00 0. -1.
         21    1    1    2  503  501  0.22751832845E+02 -0.33647235468E+02  0.26600473855E+02  0.48552729704E+02  0.00000000000E+00 0.  1.
</event>
<event>
 4    1  0.5967370E+002  0.2522976E+02  0.7546771E-02  0.1466249E+00
          2   -1    0    0  503    0  0.00000000000E+00  0.00000000000E+00  0.96732062427E+03  0.96732062427E+03  0.00000000000E+00 0.  1.
         -2   -1    0    0    0  501 -0.00000000000E+00 -0.00000000000E+00 -0.30933140375E+01  0.30933140375E+01  0.00000000000E+00 0. -1.
         21    1    1    2  502  501  0.17622681915E+02 -0.18054971112E+02  0.51598483727E+02  0.57436438109E+02  0.00000000000E+00 0. -1.
         21    1    1    2  503  502 -0.17622681915E+02  0.18054971112E+02  0.91262882650E+03  0.91297750019E+03  0.00000000000E+00 0.  1.
</event>
<event>
 4    1  0.5967370E+002  0.2947974E+02  0.7546771E-02  0.1424172E+00
          2   -1    0    0  503    0  0.00000000000E+00  0.00000000000E+00  0.62161309549E+02  0.62161309549E+02  0.00000000000E+00 0.  1.
         -2   -1    0    0    0  501 -0.00000000000E+00 -0.00000000000E+00 -0.33261989831E+02  0.33261989831E+02  0.00000000000E+00 0. -1.
         21    1    1    2  502  501 -0.46872363563E+01  0.29104719208E+02 -0.21876462521E+02  0.36710141341E+02  0.00000000000E+00 0. -1.
         21    1    1    2  503  502  0.46872363563E+01 -0.29104719208E+02  0.50775782239E+02  0.58713158038E+02  0.00000000000E+00 0.  1.
</event>
<event>
 4    1  0.5967370E+002  0.3200450E+02  0.7546771E-02  0.1402941E+00
          2   -1    0    0  503    0  0.00000000000E+00  0.00000000000E+00  0.32277504606E+02  0.32277504606E+02  0.00000000000E+00 0.  1.
         -2   -1    0    0    0  501 -0.00000000000E+00 -0.00000000000E+00 -0.11486945293E+03  0.11486945293E+03  0.00000000000E+00 0. -1.
         21    1    1    2  502  501  0.24721479820E+02  0.20325757185E+02 -0.10388708557E+03  0.10870517245E+03  0.00000000000E+00 0. -1.
         21    1    1    2  503  502 -0.24721479820E+02 -0.20325757185E+02  0.21295137250E+02  0.38441785080E+02  0.00000000000E+00 0.  1.
</event>
<event>
 4    1  0.5967370E+002  0.2222442E+02  0.7546771E-02  0.1502474E+00
          2   -1    0    0  502    0  0.00000000000E+00  0.00000000000E+00  0.69723949057E+03  0.69723949057E+03  0.00000000000E+00 0. -1.
         -2   -1    0    0    0  501 -0.00000000000E+00 -0.00000000000E+00 -0.22788698697E+01  0.22788698697E+01  0.00000000000E+00 0.  1.
         21    1    1    2  502  503 -0.20270536183E+02 -0.91121003920E+01  0.63783179652E+03  0.63821886972E+03  0.00000000000E+00 0. -1.
         21    1    1    2  503  501  0.20270536183E+02  0.91121003920E+01  0.57128824184E+02  0.61299490726E+02  0.00000000000E+00 0.  1.
</event>
<event>
 4    1  0.5967370E+002  0.2674901E+02  0.7546771E-02  0.1450146E+00
          2   -1    0    0  503    0  0.00000000000E+00  0.00000000000E+00  0.43700540798E+02  0.43700540798E+02  0.00000000000E+00 0.  1.
         -2   -1    0    0    0  501 -0.00000000000E+00 -0.00000000000E+00 -0.20884279200E+02  0.20884279200E+02  0.00000000000E+00 0. -1.
         21    1    1    2  502  501  0.17407303027E+02  0.20309983411E+02 -0.36004568982E+01  0.26990237396E+02  0.00000000000E+00 0.  1.
         21    1    1    2  503  502 -0.17407303027E+02 -0.20309983411E+02  0.26416718497E+02  0.37594582601E+02  0.00000000000E+00 0. -1.
</event>
<event>
 4    1  0.5967370E+002  0.2424370E+02  0.7546771E-02  0.1477445E+00
          2   -1    0    0  503    0  0.00000000000E+00  0.00000000000E+00  0.46068828111E+02  0.46068828111E+02  0.00000000000E+00 0.  1.
         -2   -1    0    0    0  501 -0.00000000000E+00 -0.00000000000E+00 -0.42284512412E+02  0.42284512412E+02  0.00000000000E+00 0. -1.
         21    1    1    2  502  501  0.22288853425E+02  0.95375115515E+01 -0.35023161900E+02  0.42595527735E+02  0.00000000000E+00 0. -1.
         21    1    1    2  503  502 -0.22288853425E+02 -0.95375115515E+01  0.38807477599E+02  0.45757812788E+02  0.00000000000E+00 0.  1.
</event>
<event>
 4    1  0.5967370E+002  0.2692612E+02  0.7546771E-02  0.1448352E+00
          2   -1    0    0  502    0  0.00000000000E+00  0.00000000000E+00  0.26827000750E+03  0.26827000750E+03  0.00000000000E+00 0.  1.
         -2   -1    0    0    0  501 -0.00000000000E+00 -0.00000000000E+00 -0.35607066606E+01  0.35607066606E+01  0.00000000000E+00 0. -1.
         21    1    1    2  502  503 -0.26139298670E+02 -0.64616479744E+01  0.19907850920E+03  0.20089118611E+03  0.00000000000E+00 0.  1.
         21    1    1    2  503  501  0.26139298670E+02  0.64616479744E+01  0.65630791639E+02  0.70939528055E+02  0.00000000000E+00 0. -1.
</event>
<event>
 4    1  0.5967370E+002  0.2066505E+02  0.7546771E-02  0.1524101E+00
          2   -1    0    0  502    0  0.00000000000E+00  0.00000000000E+00  0.14885225955E+03  0.14885225955E+03  0.00000000000E+00 0. -1.
         -2   -1    0    0    0  501 -0.00000000000E+00 -0.00000000000E+00 -0.79685774754E+01  0.79685774754E+01  0.00000000000E+00 0.  1.
         21    1    1    2  502  503 -0.18031688737E+02  0.10094666875E+02  0.13316879491E+03  0.13476265074E+03  0.00000000000E+00 0. -1.
         21    1    1    2  503  501  0.18031688737E+02 -0.10094666875E+02  0.77148871655E+01  0.22058186281E+02  0.00000000000E+00 0.  1.
</event>
<event>
 4    1  0.5967370E+002  0.2568469E+02  0.7546771E-02  0.1461288E+00
          2   -1    0    0  503    0  0.00000000000E+00  0.00000000000E+00  0.64732755416E+03  0.64732755416E+03  0.00000000000E+00 0. -1.
         -2   -1    0    0    0  501 -0.00000000000E+00 -0.00000000000E+00 -0.15535543467E+01  0.15535543467E+01  0.00000000000E+00 0.  1.
         21    1    1    2  502  501 -0.24690127780E+02  0.70781892292E+01  0.13259527785E+03  0.13506002695E+03  0.00000000000E+00 0.  1.
         21    1    1    2  503  502  0.24690127780E+02 -0.70781892292E+01  0.51317872197E+03  0.51382108156E+03  0.00000000000E+00 0. -1.
</event>
<event>
 4    1  0.5967370E+002  0.2896417E+02  0.7546771E-02  0.1428816E+00
          2   -1    0    0  503    0  0.00000000000E+00  0.00000000000E+00  0.16918668114E+04  0.16918668114E+04  0.00000000000E+00 0. -1.
         -2   -1    0    0    0  501 -0.00000000000E+00 -0.00000000000E+00 -0.50736794720E+00  0.50736794720E+00  0.00000000000E+00 0.  1.
         21    1    1    2  502  501 -0.23298171731E+02  0.17208089113E+02  0.71822085524E+03  0.71880464665E+03  0.00000000000E+00 0.  1.
         21    1    1    2  503  502  0.23298171731E+02 -0.17208089113E+02  0.97313858821E+03  0.97356953270E+03  0.00000000000E+00 0. -1.
</event>
<event>
 4    1  0.5967370E+002  0.2248585E+02  0.7546771E-02  0.1499057E+00
          2   -1    0    0  502    0  0.00000000000E+00  0.00000000000E+00  0.18445727546E+04  0.18445727546E+04  0.00000000000E+00 0.  1.
         -2   -1    0    0    0  501 -0.00000000000E+00 -0.00000000000E+00 -0.27430200333E+00  0.27430200333E+00  0.00000000000E+00 0. -1.
         21    1    1    2  502  503 -0.22046418516E+02 -0.44236855160E+01  0.94663199703E+03  0.94689901857E+03  0.00000000000E+00 0.  1.
         21    1    1    2  503  501  0.22046418516E+02  0.44236855160E+01  0.89766645561E+03  0.89794803808E+03  0.00000000000E+00 0. -1.
</event>
<event>
 4    1  0.5967370E+002  0.2760715E+02  0.7546771E-02  0.1441603E+00
          2   -1    0    0  502    0  0.00000000000E+00  0.00000000000E+00  0.43113107978E+03  0.43113107978E+03  0.00000000000E+00 0.  1.
         -2   -1    0    0    0  501 -0.00000000000E+00 -0.00000000000E+00 -0.69222016059E+01  0.69222016059E+01  0.00000000000E+00 0. -1.
         21    1    1    2  502  503 -0.67988780854E+01  0.26756869120E+02  0.40110531789E+03  0.40205426354E+03  0.00000000000E+00 0.  1.
         21    1    1    2  503  501  0.67988780854E+01 -0.26756869120E+02  0.23103560284E+02  0.35999017850E+02  0.00000000000E+00 0. -1.
</event>
<event>
 4    1  0.5967370E+002  0.2113751E+02  0.7546771E-02  0.1517311E+00
          2   -1    0    0  503    0  0.00000000000E+00  0.00000000000E+00  0.39533986607E+03  0.39533986607E+03  0.00000000000E+00 0.  1.
         -2   -1    0    0    0  501 -0.00000000000E+00 -0.00000000000E+00 -0.12500704875E+01  0.12500704875E+01  0.00000000000E+00 0. -1.
         21    1    1    2  502  501  0.85308460951E+01  0.19339569506E+02  0.13562814409E+03  0.13726539168E+03  0.00000000000E+00 0.  1.
         21    1    1    2  503  502 -0.85308460951E+01 -0.19339569506E+02  0.25846165149E+03  0.25932454487E+03  0.00000000000E+00 0. -1.
</event>
<event>
 4    1  0.5967370E+002  0.2053904E+02  0.7546771E-02  0.1525949E+00
          2   -1    0    0  503    0  0.00000000000E+00  0.00000000000E+00  0.26482976454E+03  0.26482976454E+03  0.00000000000E+00 0.  1.
         -2   -1    0    0    0  501 -0.00000000000E+00 -0.00000000000E+00 -0.48593560064E+01  0.48593560064E+01  0.00000000000E+00 0. -1.
         21    1    1    2  502  501 -0.10938802247E+02  0.17383753404E+02  0.19429479000E+02  0.28272901005E+02  0.00000000000E+00 0. -1.
         21    1    1    2  503  502  0.10938802247E+02 -0.17383753404E+02  0.24054092953E+03  0.24141621954E+03  0.00000000000E+00 0.  1.
</event>
<event>
 4    1  0.5967370E+002  0.1101822E+03  0.7546771E-02  0.1147244E+00
          2   -1    0    0  503    0  0.00000000000E+00  0.00000000000E+00  0.20092875775E+03  0.20092875775E+03  0.00000000000E+00 0.  1.
         -2   -1    0    0    0  501 -0.00000000000E+00 -0.00000000000E+00 -0.63463239601E+02  0.63463239601E+02  0.00000000000E+00 0. -1.
         21    1    1    2  502  501  0.10984519879E+03  0.86113610190E+01  0.39784494530E+02  0.11714490702E+03  0.00000000000E+00 0. -1.
         21    1    1    2  503  502 -0.10984519879E+03 -0.86113610190E+01  0.97681023615E+02  0.14724709033E+03  0.00000000000E+00 0.  1.
</event>
<event>
 4    1  0.5967370E+002  0.2615689E+03  0.7546771E-02  0.1018425E+00
          2   -1    0    0  503    0  0.00000000000E+00  0.00000000000E+00  0.23969025053E+03  0.23969025053E+03  0.00000000000E+00 0.  1.
         -2   -1    0    0    0  501 -0.00000000000E+00 -0.00000000000E+00 -0.29295117584E+03  0.29295117584E+03  0.00000000000E+00 0. -1.
         21    1    1    2  502  501 -0.48035314826E+02  0.25712035762E+03 -0.69261943916E+02  0.27058360380E+03  0.00000000000E+00 0. -1.
         21    1    1    2  503  502  0.48035314826E+02 -0.25712035762E+03  0.16001018610E+02  0.26205782257E+03  0.00000000000E+00 0.  1.
</event>
<event>
 4    1  0.5967370E+002  0.3869554E+02  0.7546771E-02  0.1356304E+00
          2   -1    0    0  503    0  0.00000000000E+00  0.00000000000E+00  0.17506453660E+04  0.17506453660E+04  0.00000000000E+00 0. -1.
         -2   -1    0    0    0  501 -0.00000000000E+00 -0.00000000000E+00 -0.85734317804E+00  0.85734317804E+00  0.00000000000E+00 0.  1.
         21    1    1    2  502  501  0.24928699229E+02 -0.29595689034E+02  0.91753907907E+03  0.91835467357E+03  0.00000000000E+00 0.  1.
         21    1    1    2  503  502 -0.24928699229E+02  0.29595689034E+02  0.83224894374E+03  0.83314803559E+03  0.00000000000E+00 0. -1.
</event>
<event>
 4    1  0.5967370E+002  0.2166213E+02  0.7546771E-02  0.1510018E+00
          2   -1    0    0  503    0  0.00000000000E+00  0.00000000000E+00  0.17675709233E+03  0.17675709233E+03  0.00000000000E+00 0. -1.
         -2   -1    0    0    0  501 -0.00000000000E+00 -0.00000000000E+00 -0.10976847072E+02  0.10976847072E+02  0.00000000000E+00 0.  1.
         21    1    1    2  502  501  0.16643556337E+02 -0.13865063651E+02  0.11585087754E+01  0.21693088765E+02  0.00000000000E+00 0.  1.
         21    1    1    2  503  502 -0.16643556337E+02  0.13865063651E+02  0.16462173649E+03  0.16604085064E+03  0.00000000000E+00 0. -1.
</event>
<event>
 4    1  0.5967370E+002  0.3062583E+02  0.7546771E-02  0.1414234E+00
          2   -1    0    0  502    0  0.00000000000E+00  0.00000000000E+00  0.50177233224E+03  0.50177233224E+03  0.00000000000E+00 0.  1.
         -2   -1    0    0    0  501 -0.00000000000E+00 -0.00000000000E+00 -0.37125803663E+01  0.37125803663E+01  0.00000000000E+00 0. -1.
         21    1    1    2  502  503 -0.27938604722E+02  0.12544950969E+02  0.42712049270E+03  0.42821706729E+03  0.00000000000E+00 0.  1.
         21    1    1    2  503  501  0.27938604722E+02 -0.12544950969E+02  0.70939259166E+02  0.77267845315E+02  0.00000000000E+00 0. -1.
</event>
<event>
 4    1  0.5967370E+002  0.2576886E+02  0.7546771E-02  0.1460383E+00
          2   -1    0    0  502    0  0.00000000000E+00  0.00000000000E+00  0.27907547897E+03  0.27907547897E+03  0.00000000000E+00 0.  1.
         -2   -1    0    0    0  501 -0.00000000000E+00 -0.00000000000E+00 -0.28148122661E+01  0.28148122661E+01  0.00000000000E+00 0. -1.
         21    1    1    2  502  503 -0.25509252384E+02  0.36486218267E+01  0.19356376908E+03  0.19527152147E+03  0.00000000000E+00 0.  1.
         21    1    1    2  503  501  0.25509252384E+02 -0.36486218267E+01  0.82696897627E+02  0.86618769765E+02  0.00000000000E+00 0. -1.
</event>
<event>
 4    1  0.5967370E+002  0.2182873E+02  0.7546771E-02  0.1507754E+00
          2   -1    0    0  502    0  0.00000000000E+00  0.00000000000E+00  0.51081132885E+03  0.51081132885E+03  0.00000000000E+00 0.  1.
         -2   -1    0    0    0  501 -0.00000000000E+00 -0.00000000000E+00 -0.18390444389E+01  0.18390444389E+01  0.00000000000E+00 0. -1.
         21    1    1    2  502  503  0.10298937206E+02 -0.19246432111E+02  0.43442041143E+03  0.43496848981E+03  0.00000000000E+00 0.  1.
         21    1    1    2  503  501 -0.10298937206E+02  0.19246432111E+02  0.74551872982E+02  0.77681883485E+02  0.00000000000E+00 0. -1.
</event>
<event>
 4    1  0.5967370E+002  0.2346867E+02  0.7546771E-02  0.1486695E+00
          2   -1    0    0  503    0  0.00000000000E+00  0.00000000000E+00  0.26827809293E+02  0.26827809293E+02  0.00000000000E+00 0.  1.
         -2   -1    0    0    0  501 -0.00000000000E+00 -0.00000000000E+00 -0.57350985956E+02  0.57350985956E+02  0.00000000000E+00 0. -1.
         21    1    1    2  502  501  0.87060100190E+01  0.21794128200E+02 -0.48986370814E+02  0.54317981921E+02  0.00000000000E+00 0. -1.
         21    1    1    2  503  502 -0.87060100190E+01 -0.21794128200E+02  0.18463194151E+02  0.29860813329E+02  0.00000000000E+00 0.  1.
</event>
<event>
 4    1  0.5967370E+002  0.2647834E+02  0.7546771E-02  0.1452920E+00
          2   -1    0    0  502    0  0.00000000000E+00  0.00000000000E+00  0.32645432692E+03  0.32645432692E+03  0.00000000000E+00 0.  1.
         -2   -1    0    0    0  501 -0.00000000000E+00 -0.00000000000E+00 -0.14419844587E+02  0.14419844587E+02  0.00000000000E+00 0. -1.
         21    1    1    2  502  503  0.25785107467E+02  0.60191819008E+01  0.31325082843E+03  0.31436791158E+03  0.00000000000E+00 0.  1.
         21    1    1    2  503  501 -0.25785107467E+02 -0.60191819008E+01 -0.12163460929E+01  0.26506259934E+02  0.00000000000E+00 0. -1.
</event>
<event>
 4    1  0.5967370E+002  0.3096890E+02  0.7546771E-02  0.1411359E+00
          2   -1    0    0  503    0  0.00000000000E+00  0.00000000000E+00  0.21577909019E+04  0.21577909019E+04  0.00000000000E+00 0. -1.
         -2   -1    0    0    0  501 -0.00000000000E+00 -0.00000000000E+00 -0.13706683290E+01  0.13706683290E+01  0.00000000000E+00 0.  1.
         21    1    1    2  502  501  0.16552666222E+02  0.26174075268E+02  0.19076604738E+03  0.19326344147E+03  0.00000000000E+00 0.  1.
         21    1    1    2  503  502 -0.16552666222E+02 -0.26174075268E+02  0.19656541862E+04  0.19658981287E+04  0.00000000000E+00 0. -1.
</event>
<event>
 4    1  0.5967370E+002  0.2139715E+02  0.7546771E-02  0.1513669E+00
          2   -1    0    0  503    0  0.00000000000E+00  0.00000000000E+00  0.12169575661E+02  0.12169575661E+02  0.00000000000E+00 0.  1.
         -2   -1    0    0    0  501 -0.00000000000E+00 -0.00000000000E+00 -0.80546165446E+02  0.80546165446E+02  0.00000000000E+00 0. -1.
         21    1    1    2  502  501  0.66714313984E+01 -0.20330519212E+02 -0.68030166308E+02  0.71315787426E+02  0.00000000000E+00 0. -1.
         21    1    1    2  503  502 -0.66714313984E+01  0.20330519212E+02 -0.34642347697E+00  0.21399953681E+02  0.00000000000E+00 0.  1.
</event>
<event>
 4    1  0.5967370E+002  0.2629169E+02  0.7546771E-02  0.1454856E+00
          2   -1    0    0  502    0  0.00000000000E+00  0.00000000000E+00  0.68096412391E+00  0.68096412391E+00  0.00000000000E+00 0.  1.
         -2   -1    0    0    0  501 -0.00000000000E+00 -0.00000000000E+00 -0.10351498667E+04  0.10351498667E+04  0.00000000000E+00 0. -1.
         21    1    1    2  502  503 -0.13541893522E+01  0.26256787634E+02 -0.58929819631E+03  0.58988440978E+03  0.00000000000E+00 0.  1.
         21    1    1    2  503  501  0.13541893522E+01 -0.26256787634E+02 -0.44517070627E+03  0.44594642105E+03  0.00000000000E+00 0. -1.
</event>
<event>
 4    1  0.5967370E+002  0.5264419E+02  0.7546771E-02  0.1287098E+00
          2   -1    0    0  502    0  0.00000000000E+00  0.00000000000E+00  0.36201789600E+01  0.36201789600E+01  0.00000000000E+00 0. -1.
         -2   -1    0    0    0  501 -0.00000000000E+00 -0.00000000000E+00 -0.12787415914E+04  0.12787415914E+04  0.00000000000E+00 0.  1.
         21    1    1    2  502  503  0.50443069295E+02 -0.15063458435E+02 -0.23136912101E+03  0.23728270307E+03  0.00000000000E+00 0. -1.
         21    1    1    2  503  501 -0.50443069295E+02  0.15063458435E+02 -0.10437522914E+04  0.10450790673E+04  0.00000000000E+00 0.  1.
</event>
<event>
 4    1  0.5967370E+002  0.2043297E+02  0.7546771E-02  0.1527517E+00
          2   -1    0    0  502    0  0.00000000000E+00  0.00000000000E+00  0.44032351132E+01  0.44032351132E+01  0.00000000000E+00 0.  1.
         -2   -1    0    0    0  501 -0.00000000000E+00 -0.00000000000E+00 -0.21490487961E+03  0.21490487961E+03  0.00000000000E+00 0. -1.
         21    1    1    2  502  503  0.18264780204E+02  0.91599133170E+01 -0.23281897072E+02  0.30976651516E+02  0.00000000000E+00 0.  1.
         21    1    1    2  503  501 -0.18264780204E+02 -0.91599133170E+01 -0.18721974743E+03  0.18833146321E+03  0.00000000000E+00 0. -1.
</event>
<event>
 4    1  0.5967370E+002  0.2567750E+02  0.7546771E-02  0.1461365E+00
          2   -1    0    0  502    0  0.00000000000E+00  0.00000000000E+00  0.11989058005E+04  0.11989058005E+04  0.00000000000E+00 0.  1.
         -2   -1    0    0    0  501 -0.00000000000E+00 -0.00000000000E+00 -0.33572819545E+01  0.33572819545E+01  0.00000000000E+00 0. -1.
         21    1    1    2  502  503 -0.24212541440E+02 -0.85490725973E+01  0.11474705150E+04  0.11477577779E+04  0.00000000000E+00 0.  1.
         21    1    1    2  503  501  0.24212541440E+02  0.85490725973E+01  0.48078003501E+02  0.54505304567E+02  0.00000000000E+00 0. -1.
</event>
<event>
 4    1  0.5967370E+002  0.4372268E+02  0.7546771E-02  0.1327951E+00
          2   -1    0    0  503    0  0.00000000000E+00  0.00000000000E+00  0.78734020239E+02  0.78734020239E+02  0.00000000000E+00 0.  1.
         -2   -1    0    0    0  501 -0.00000000000E+00 -0.00000000000E+00 -0.25422578597E+02  0.25422578597E+02  0.00000000000E+00 0. -1.
         21    1    1    2  502  501  0.33464896243E+02 -0.28138473211E+02  0.37695582169E+02  0.57728934429E+02  0.00000000000E+00 0.  1.
         21    1    1    2  503  502 -0.33464896243E+02  0.28138473211E+02  0.15615859473E+02  0.46427664407E+02  0.00000000000E+00 0. -1.
</event>
<event>
 4    1  0.5967370E+002  0.4658249E+02  0.7546771E-02  0.1313711E+00
          2   -1    0    0  503    0  0.00000000000E+00  0.00000000000E+00  0.11993260924E+04  0.11993260924E+04  0.00000000000E+00 0.  1.
         -2   -1    0    0    0  501 -0.00000000000E+00 -0.00000000000E+00 -0.18481134337E+01  0.18481134337E+01  0.00000000000E+00 0. -1.
         21    1    1    2  502  501  0.46201596000E+02  0.59447850760E+01  0.68578767569E+03  0.68736792482E+03  0.00000000000E+00 0.  1.
         21    1    1    2  503  502 -0.46201596000E+02 -0.59447850760E+01  0.51169030331E+03  0.51380628104E+03  0.00000000000E+00 0. -1.
</event>
<event>
 4    1  0.5967370E+002  0.2119195E+02  0.7546771E-02  0.1516542E+00
          2   -1    0    0  503    0  0.00000000000E+00  0.00000000000E+00  0.28752498799E+02  0.28752498799E+02  0.00000000000E+00 0. -1.
         -2   -1    0    0    0  501 -0.00000000000E+00 -0.00000000000E+00 -0.39613648712E+03  0.39613648712E+03  0.00000000000E+00 0.  1.
         21    1    1    2  502  501 -0.20281785383E+02  0.61439459309E+01 -0.39190607427E+03  0.39247862354E+03  0.00000000000E+00 0.  1.
         21    1    1    2  503  502  0.20281785383E+02 -0.61439459309E+01  0.24522085949E+02  0.32410362374E+02  0.00000000000E+00 0. -1.
</event>
<event>
 4    1  0.5967370E+002  0.2405658E+02  0.7546771E-02  0.1479640E+00
          2   -1    0    0  503    0  0.00000000000E+00  0.00000000000E+00  0.98753363121E+03  0.98753363121E+03  0.00000000000E+00 0. -1.
         -2   -1    0    0    0  501 -0.00000000000E+00 -0.00000000000E+00 -0.59996946794E+01  0.59996946794E+01  0.00000000000E+00 0.  1.
         21    1    1    2  502  501  0.13791781802E+02 -0.19710554418E+02  0.18884597046E+02  0.30583446606E+02  0.00000000000E+00 0.  1.
         21    1    1    2  503  502 -0.13791781802E+02  0.19710554418E+02  0.96264933949E+03  0.96294987928E+03  0.00000000000E+00 0. -1.
</event>
<event>
 4    1  0.5967370E+002  0.2171887E+02  0.7546771E-02  0.1509244E+00
          2   -1    0    0  503    0  0.00000000000E+00  0.00000000000E+00  0.81854512663E+01  0.81854512663E+01  0.00000000000E+00 0. -1.
         -2   -1    0    0    0  501 -0.00000000000E+00 -0.00000000000E+00 -0.10778126948E+03  0.10778126948E+03  0.00000000000E+00 0.  1.
         21    1    1    2  502  501 -0.82469011361E+01 -0.20092231130E+02 -0.89351183827E+02  0.91952940037E+02  0.00000000000E+00 0.  1.
         21    1    1    2  503  502  0.82469011361E+01  0.20092231130E+02 -0.10244634382E+02  0.24013780705E+02  0.00000000000E+00 0. -1.
</event>
<event>
 4    1  0.5967370E+002  0.2320819E+02  0.7546771E-02  0.1489900E+00
          2   -1    0    0  503    0  0.00000000000E+00  0.00000000000E+00  0.33983052538E+03  0.33983052538E+03  0.00000000000E+00 0. -1.
         -2   -1    0    0    0  501 -0.00000000000E+00 -0.00000000000E+00 -0.22447514520E+01  0.22447514520E+01  0.00000000000E+00 0.  1.
         21    1    1    2  502  501  0.19012734365E+02 -0.13309245050E+02  0.76065356692E+02  0.79527093248E+02  0.00000000000E+00 0.  1.
         21    1    1    2  503  502 -0.19012734365E+02  0.13309245050E+02  0.26152041724E+03  0.26254818359E+03  0.00000000000E+00 0. -1.
</event>
<event>
 4    1  0.5967370E+002  0.2196417E+02  0.7546771E-02  0.1505931E+00
          2   -1    0    0  502    0  0.00000000000E+00  0.00000000000E+00  0.20808892431E+03  0.20808892431E+03  0.00000000000E+00 0.  1.
         -2   -1    0    0    0  501 -0.00000000000E+00 -0.00000000000E+00 -0.44247825413E+01  0.44247825413E+01  0.00000000000E+00 0. -1.
         21    1    1    2  502  503  0.21963199924E+02 -0.20642903610E+00  0.17514555649E+03  0.17651739495E+03  0.00000000000E+00 0.  1.
         21    1    1    2  503  501 -0.21963199924E+02  0.20642903610E+00  0.28518585283E+02  0.35996311900E+02  0.00000000000E+00 0. -1.
</event>
<event>
 4    1  0.5967370E+002  0.2837711E+02  0.7546771E-02  0.1434245E+00
          2   -1    0    0  503    0  0.00000000000E+00  0.00000000000E+00  0.38052566883E+03  0.38052566883E+03  0.00000000000E+00 0. -1.
         -2   -1    0    0    0  501 -0.00000000000E+00 -0.00000000000E+00 -0.84683440414E+01  0.84683440414E+01  0.00000000000E+00 0.  1.
         21    1    1    2  502  501  0.13143344728E+02 -0.25149806200E+02  0.17577281236E+02  0.33379950243E+02  0.00000000000E+00 0.  1.
         21    1    1    2  503  502 -0.13143344728E+02  0.25149806200E+02  0.35448004356E+03  0.35561406263E+03  0.00000000000E+00 0. -1.
</event>
<event>
 4    1  0.5967370E+002  0.2254162E+02  0.7546771E-02  0.1498336E+00
          2   -1    0    0  503    0  0.00000000000E+00  0.00000000000E+00  0.17820372571E+04  0.17820372571E+04  0.00000000000E+00 0. -1.
         -2   -1    0    0    0  501 -0.00000000000E+00 -0.00000000000E+00 -0.28873431152E+00  0.28873431152E+00  0.00000000000E+00 0.  1.
         21    1    1    2  502  501  0.13320152614E+02  0.18185111689E+02  0.79140311440E+03  0.79172407708E+03  0.00000000000E+00 0.  1.
         21    1    1    2  503  502 -0.13320152614E+02 -0.18185111689E+02  0.99034540838E+03  0.99060191431E+03  0.00000000000E+00 0. -1.
</event>
<event>
 4    1  0.5967370E+002  0.2034384E+02  0.7546771E-02  0.1528843E+00
          2   -1    0    0  503    0  0.00000000000E+00  0.00000000000E+00  0.89994221710E+03  0.89994221710E+03  0.00000000000E+00 0.  1.
         -2   -1    0    0    0  501 -0.00000000000E+00 -0.00000000000E+00 -0.53293833216E+00  0.53293833216E+00  0.00000000000E+00 0. -1.
         21    1    1    2  502  501 -0.92033453119E+01  0.18143044863E+02  0.28301154469E+03  0.28374179472E+03  0.00000000000E+00 0. -1.
         21    1    1    2  503  502  0.92033453119E+01 -0.18143044863E+02  0.61639773408E+03  0.61673336072E+03  0.00000000000E+00 0.  1.
</event>
<event>
 4    1  0.5967370E+002  0.2689611E+02  0.7546771E-02  0.1448654E+00
          2   -1    0    0  502    0  0.00000000000E+00  0.00000000000E+00  0.15072544230E+04  0.15072544230E+04  0.00000000000E+00 0. -1.
         -2   -1    0    0    0  501 -0.00000000000E+00 -0.00000000000E+00 -0.31975553100E+01  0.31975553100E+01  0.00000000000E+00 0.  1.
         21    1    1    2  502  503 -0.26799945704E+02 -0.22723907191E+01  0.14482723263E+04  0.14485220510E+04  0.00000000000E+00 0. -1.
         21    1    1    2  503  501  0.26799945704E+02  0.22723907191E+01  0.55784541372E+02  0.61929927381E+02  0.00000000000E+00 0.  1.
</event>
<event>
 4    1  0.5967370E+002  0.3029912E+02  0.7546771E-02  0.1417014E+00
          2   -1    0    0  503    0  0.00000000000E+00  0.00000000000E+00  0.13906258482E+04  0.13906258482E+04  0.00000000000E+00 0.  1.
         -2   -1    0    0    0  501 -0.00000000000E+00 -0.00000000000E+00 -0.11405712869E+01  0.11405712869E+01  0.00000000000E+00 0. -1.
         21    1    1    2  502  501  0.20981724002E+02 -0.21858730926E+02  0.24311416010E+03  0.24499496261E+03  0.00000000000E+00 0. -1.
         21    1    1    2  503  502 -0.20981724002E+02  0.21858730926E+02  0.11463711168E+04  0.11467714569E+04  0.00000000000E+00 0.  1.
</event>
<event>
 4    1  0.5967370E+002  0.2666829E+02  0.7546771E-02  0.1450969E+00
          2   -1    0    0  503    0  0.00000000000E+00  0.00000000000E+00  0.22178236443E+04  0.22178236443E+04  0.00000000000E+00 0.  1.
         -2   -1    0    0    0  501 -0.00000000000E+00 -0.00000000000E+00 -0.79460574834E+00  0.79460574834E+00  0.00000000000E+00 0. -1.
         21    1    1    2  502  501 -0.76108317536E+01 -0.25559209561E+02  0.25180276892E+03  0.25321104319E+03  0.00000000000E+00 0. -1.
         21    1    1    2  503  502  0.76108317536E+01  0.25559209561E+02  0.19652262697E+04  0.19654072069E+04  0.00000000000E+00 0.  1.
</event>
<event>
 4    1  0.5967370E+002  0.2025375E+02  0.7546771E-02  0.1530191E+00
          2   -1    0    0  502    0  0.00000000000E+00  0.00000000000E+00  0.33222756330E+02  0.33222756330E+02  0.00000000000E+00 0. -1.
         -2   -1    0    0    0  501 -0.00000000000E+00 -0.00000000000E+00 -0.12875558188E+02  0.12875558188E+02  0.00000000000E+00 0.  1.
         21    1    1    2  502  503 -0.18905463635E+02  0.72662247747E+01  0.14841859359E+02  0.25109666803E+02  0.00000000000E+00 0. -1.
         21    1    1    2  503  501  0.18905463635E+02 -0.72662247747E+01  0.55053387835E+01  0.20988647714E+02  0.00000000000E+00 0.  1.
</event>
<event>
 4    1  0.5967370E+002  0.3143148E+02  0.7546771E-02  0.1407552E+00
          2   -1    0    0  503    0  0.00000000000E+00  0.00000000000E+00  0.12489979564E+04  0.12489979564E+04  0.00000000000E+00 0.  1.
         -2   -1    0    0    0  501 -0.00000000000E+00 -0.00000000000E+00 -0.23878742407E+01  0.23878742407E+01  0.00000000000E+00 0. -1.
         21    1    1    2  502  501 -0.12558197856E+02  0.28813704986E+02  0.11163146694E+03  0.11597207569E+03  0.00000000000E+00 0. -1.
         21    1    1    2  503  502  0.12558197856E+02 -0.28813704986E+02  0.11349786153E+04  0.11354137550E+04  0.00000000000E+00 0.  1.
</event>
<event>
 4    1  0.5967370E+002  0.2188475E+02  0.7546771E-02  0.1506998E+00
          2   -1    0    0  502    0  0.00000000000E+00  0.00000000000E+00  0.13385848889E+02  0.13385848889E+02  0.00000000000E+00 0. -1.
         -2   -1    0    0    0  501 -0.00000000000E+00 -0.00000000000E+00 -0.37764855403E+02  0.37764855403E+02  0.00000000000E+00 0.  1.
         21    1    1    2  502  503  0.16680142881E+02 -0.14167389938E+02 -0.18053197470E+02  0.28370055394E+02  0.00000000000E+00 0. -1.
         21    1    1    2  503  501 -0.16680142881E+02  0.14167389938E+02 -0.63258090435E+01  0.22780648898E+02  0.00000000000E+00 0.  1.
</event>
<event>
 4    1  0.5967370E+002  0.2401742E+02  0.7546771E-02  0.1480103E+00
          2   -1    0    0  502    0  0.00000000000E+00  0.00000000000E+00  0.10093553139E+03  0.10093553139E+03  0.00000000000E+00 0. -1.
         -2   -1    0    0    0  501 -0.00000000000E+00 -0.00000000000E+00 -0.67092172550E+01  0.67092172550E+01  0.00000000000E+00 0.  1.
         21    1    1    2  502  503  0.48355555622E+01  0.23525596380E+02  0.67833160102E+02  0.71959529543E+02  0.00000000000E+00 0. -1.
         21    1    1    2  503  501 -0.48355555622E+01 -0.23525596380E+02  0.26393154037E+02  0.35685219106E+02  0.00000000000E+00 0.  1.
</event>
<event>
 4    1  0.5967370E+002  0.3376802E+02  0.7546771E-02  0.1389437E+00
          2   -1    0    0  502    0  0.00000000000E+00  0.00000000000E+00  0.23074254242E+02  0.23074254242E+02  0.00000000000E+00 0. -1.
         -2   -1    0    0    0  501 -0.00000000000E+00 -0.00000000000E+00 -0.67605939834E+02  0.67605939834E+02  0.00000000000E+00 0.  1.
         21    1    1    2  502  503 -0.46575569576E+01 -0.33445269736E+02  0.12512779059E+01  0.33791191174E+02  0.00000000000E+00 0. -1.
         21    1    1    2  503  501  0.46575569576E+01  0.33445269736E+02 -0.45782963498E+02  0.56889002903E+02  0.00000000000E+00 0.  1.
</event>
<event>
 4    1  0.5967370E+002  0.3322791E+02  0.7546771E-02  0.1393469E+00
          2   -1    0    0  503    0  0.00000000000E+00  0.00000000000E+00  0.45277093806E+01  0.45277093806E+01  0.00000000000E+00 0.  1.
         -2   -1    0    0    0  501 -0.00000000000E+00 -0.00000000000E+00 -0.10354024790E+04  0.10354024790E+04  0.00000000000E+00 0. -1.
         21    1    1    2  502  501 -0.16331469739E+02 -0.28937471641E+02 -0.97006802815E+03  0.97063694212E+03  0.00000000000E+00 0. -1.
         21    1    1    2  503  502  0.16331469739E+02  0.28937471641E+02 -0.60806741445E+02  0.69293246236E+02  0.00000000000E+00 0.  1.
</event>
<event>
 4    1  0.5967370E+002  0.2198225E+02  0.7546771E-02  0.1505689E+00
          2   -1    0    0  502    0  0.00000000000E+00  0.00000000000E+00  0.68337229136E+03  0.68337229136E+03  0.00000000000E+00 0.  1.
         -2   -1    0    0    0  501 -0.00000000000E+00 -0.00000000000E+00 -0.46029768443E+01  0.46029768443E+01  0.00000000000E+00 0. -1.
         21    1    1    2  502  503  0.21976211497E+02 -0.51531337382E+00  0.65584951100E+03  0.65621779959E+03  0.00000000000E+00 0.  1.
         21    1    1    2  503  501 -0.21976211497E+02  0.51531337382E+00  0.22919803517E+02  0.31757468616E+02  0.00000000000E+00 0. -1.
</event>
<event>
 4    1  0.5967370E+002  0.2646192E+02  0.7546771E-02  0.1453089E+00
          2   -1    0    0  502    0  0.00000000000E+00  0.00000000000E+00  0.10327997494E+03  0.10327997494E+03  0.00000000000E+00 0. -1.
         -2   -1    0    0    0  501 -0.00000000000E+00 -0.00000000000E+00 -0.73744593792E+01  0.73744593792E+01  0.00000000000E+00 0.  1.
         21    1    1    2  502  503  0.25227140425E+02  0.79890381551E+01  0.63661886670E+02  0.68942506185E+02  0.00000000000E+00 0.  1.
         21    1    1    2  503  501 -0.25227140425E+02 -0.79890381551E+01  0.32243628893E+02  0.41711928136E+02  0.00000000000E+00 0. -1.
</event>
<event>
 4    1  0.5967370E+002  0.2402855E+02  0.7546771E-02  0.1479971E+00
          2   -1    0    0  502    0  0.00000000000E+00  0.00000000000E+00  0.22122288136E+04  0.22122288136E+04  0.00000000000E+00 0.  1.
         -2   -1    0    0    0  501 -0.00000000000E+00 -0.00000000000E+00 -0.28292040027E+00  0.28292040027E+00  0.00000000000E+00 0. -1.
         21    1    1    2  502  503  0.23489060121E+02  0.50631138434E+01  0.79798043411E+03  0.79834212233E+03  0.00000000000E+00 0. -1.
         21    1    1    2  503  501 -0.23489060121E+02 -0.50631138434E+01  0.14139654591E+04  0.14141696117E+04  0.00000000000E+00 0.  1.
</event>
<event>
 4    1  0.5967370E+002  0.2259579E+02  0.7546771E-02  0.1497637E+00
          2   -1    0    0  503    0  0.00000000000E+00  0.00000000000E+00  0.78493451064E+03  0.78493451064E+03  0.00000000000E+00 0. -1.
         -2   -1    0    0    0  501 -0.00000000000E+00 -0.00000000000E+00 -0.15788900165E+01  0.15788900165E+01  0.00000000000E+00 0.  1.
         21    1    1    2  502  501 -0.20369736991E+02  0.97797424174E+01  0.90117302042E+02  0.92906930173E+02  0.00000000000E+00 0.  1.
         21    1    1    2  503  502  0.20369736991E+02 -0.97797424174E+01  0.69323831858E+03  0.69360647048E+03  0.00000000000E+00 0. -1.
</event>
<event>
 4    1  0.5967370E+002  0.4046559E+02  0.7546771E-02  0.1345779E+00
          2   -1    0    0  502    0  0.00000000000E+00  0.00000000000E+00  0.88847067697E+03  0.88847067697E+03  0.00000000000E+00 0.  1.
         -2   -1    0    0    0  501 -0.00000000000E+00 -0.00000000000E+00 -0.58786196533E+01  0.58786196533E+01  0.00000000000E+00 0. -1.
         21    1    1    2  502  503  0.40411793155E+02  0.20859522243E+01  0.81180082466E+03  0.81280873713E+03  0.00000000000E+00 0.  1.
         21    1    1    2  503  501 -0.40411793155E+02 -0.20859522243E+01  0.70791232652E+02  0.81540559497E+02  0.00000000000E+00 0. -1.
</event>
<event>
 4    1  0.5967370E+002  0.2086557E+02  0.7546771E-02  0.1521193E+00
          2   -1    0    0  503    0  0.00000000000E+00  0.00000000000E+00  0.83218741515E+02  0.83218741515E+02  0.00000000000E+00 0. -1.
         -2   -1    0    0    0  501 -0.00000000000E+00 -0.00000000000E+00 -0.89690109312E+01  0.89690109312E+01  0.00000000000E+00 0.  1.
         21    1    1    2  502  501  0.13914173806E+02 -0.15548882997E+02  0.73703410713E+01  0.22129028959E+02  0.00000000000E+00 0.  1.
         21    1    1    2  503  502 -0.13914173806E+02  0.15548882997E+02  0.66879389513E+02  0.70058723488E+02  0.00000000000E+00 0. -1.
</event>
<event>
 4    1  0.5967370E+002  0.2453075E+02  0.7546771E-02  0.1474122E+00
          2   -1    0    0  503    0  0.00000000000E+00  0.00000000000E+00  0.76159292422E+03  0.76159292422E+03  0.00000000000E+00 0. -1.
         -2   -1    0    0    0  501 -0.00000000000E+00 -0.00000000000E+00 -0.24741935160E+01  0.24741935160E+01  0.00000000000E+00 0.  1.
         21    1    1    2  502  501 -0.20921861004E+02  0.12807553911E+02  0.64375580141E+02  0.68891022808E+02  0.00000000000E+00 0.  1.
         21    1    1    2  503  502  0.20921861004E+02 -0.12807553911E+02  0.69474315057E+03  0.69517609493E+03  0.00000000000E+00 0. -1.
</event>
<event>
 4    1  0.5967370E+002  0.5335441E+02  0.7546771E-02  0.1284249E+00
          2   -1    0    0  502    0  0.00000000000E+00  0.00000000000E+00  0.19287065116E+03  0.19287065116E+03  0.00000000000E+00 0.  1.
         -2   -1    0    0    0  501 -0.00000000000E+00 -0.00000000000E+00 -0.16109979956E+02  0.16109979956E+02  0.00000000000E+00 0. -1.
         21    1    1    2  502  503  0.53236190288E+02 -0.35497659036E+01  0.11863255604E+03  0.13007834619E+03  0.00000000000E+00 0. -1.
         21    1    1    2  503  501 -0.53236190288E+02  0.35497659036E+01  0.58128115159E+02  0.78902284924E+02  0.00000000000E+00 0.  1.
</event>
<event>
 4    1  0.5967370E+002  0.2086559E+02  0.7546771E-02  0.1521193E+00
          2   -1    0    0  502    0  0.00000000000E+00  0.00000000000E+00  0.40084449968E+03  0.40084449968E+03  0.00000000000E+00 0. -1.
         -2   -1    0    0    0  501 -0.00000000000E+00 -0.00000000000E+00 -0.59031279852E+01  0.59031279852E+01  0.00000000000E+00 0.  1.
         21    1    1    2  502  503 -0.30287545772E+01  0.20644603460E+02  0.38118446950E+03  0.38175512150E+03  0.00000000000E+00 0. -1.
         21    1    1    2  503  501  0.30287545772E+01 -0.20644603460E+02  0.13756902198E+02  0.24992506164E+02  0.00000000000E+00 0.  1.
</event>
<event>
 4    1  0.5967370E+002  0.2482535E+02  0.7546771E-02  0.1470767E+00
          2   -1    0    0  503    0  0.00000000000E+00  0.00000000000E+00  0.73617077772E+01  0.73617077772E+01  0.00000000000E+00 0. -1.
         -2   -1    0    0    0  501 -0.00000000000E+00 -0.00000000000E+00 -0.84847398893E+02  0.84847398893E+02  0.00000000000E+00 0.  1.
         21    1    1    2  502  501 -0.11598631743E+02  0.21949250661E+02 -0.44065135381E+02  0.50577010776E+02  0.00000000000E+00 0.  1.
         21    1    1    2  503  502  0.11598631743E+02 -0.21949250661E+02 -0.33420555734E+02  0.41632095893E+02  0.00000000000E+00 0. -1.
</event>
<event>
 4    1  0.5967370E+002  0.2269448E+02  0.7546771E-02  0.1496371E+00
          2   -1    0    0  503    0  0.00000000000E+00  0.00000000000E+00  0.25491257776E+03  0.25491257776E+03  0.00000000000E+00 0. -1.
         -2   -1    0    0    0  501 -0.00000000000E+00 -0.00000000000E+00 -0.20215870538E+01  0.20215870538E+01  0.00000000000E+00 0.  1.
         21    1    1    2  502  501  0.21663341656E+02  0.67630719106E+01  0.12948489662E+03  0.13145865497E+03  0.00000000000E+00 0.  1.
         21    1    1    2  503  502 -0.21663341656E+02 -0.67630719106E+01  0.12340609408E+03  0.12547550984E+03  0.00000000000E+00 0. -1.
</event>
<event>
 4    1  0.5967370E+002  0.2022813E+02  0.7546771E-02  0.1530577E+00
          2   -1    0    0  503    0  0.00000000000E+00  0.00000000000E+00  0.50335136944E+02  0.50335136944E+02  0.00000000000E+00 0.  1.
         -2   -1    0    0    0  501 -0.00000000000E+00 -0.00000000000E+00 -0.87679574465E+01  0.87679574465E+01  0.00000000000E+00 0. -1.
         21    1    1    2  502  501 -0.16438000831E+02  0.11788521526E+02  0.12806431913E+02  0.23941215705E+02  0.00000000000E+00 0. -1.
         21    1    1    2  503  502  0.16438000831E+02 -0.11788521526E+02  0.28760747585E+02  0.35161878686E+02  0.00000000000E+00 0.  1.
</event>
<event>
 4    1  0.5967370E+002  0.2506724E+02  0.7546771E-02  0.1468053E+00
          2   -1    0    0  503    0  0.00000000000E+00  0.00000000000E+00  0.22276338753E+01  0.22276338753E+01  0.00000000000E+00 0. -1.
         -2   -1    0    0    0  501 -0.00000000000E+00 -0.00000000000E+00 -0.66681718817E+03  0.66681718817E+03  0.00000000000E+00 0.  1.
         21    1    1    2  502  501 -0.62190929533E+01 -0.24283516720E+02 -0.58639502569E+03  0.58693056868E+03  0.00000000000E+00 0.  1.
         21    1    1    2  503  502  0.62190929533E+01  0.24283516720E+02 -0.78194528610E+02  0.82114253367E+02  0.00000000000E+00 0. -1.
</event>
<event>
 4    1  0.5967370E+002  0.2066124E+02  0.7546771E-02  0.1524157E+00
          2   -1    0    0  503    0  0.00000000000E+00  0.00000000000E+00  0.55375559938E+03  0.55375559938E+03  0.00000000000E+00 0. -1.
         -2   -1    0    0    0  501 -0.00000000000E+00 -0.00000000000E+00 -0.48513513191E+01  0.48513513191E+01  0.00000000000E+00 0.  1.
         21    1    1    2  502  501  0.14099763199E+01 -0.20613078408E+02  0.18299163007E+02  0.27599753648E+02  0.00000000000E+00 0.  1.
         21    1    1    2  503  502 -0.14099763199E+01  0.20613078408E+02  0.53060508505E+03  0.53100719705E+03  0.00000000000E+00 0. -1.
</event>
<event>
 4    1  0.5967370E+002  0.2248441E+02  0.7546771E-02  0.1499076E+00
          2   -1    0    0  502    0  0.00000000000E+00  0.00000000000E+00  0.46959145651E+03  0.46959145651E+03  0.00000000000E+00 0. -1.
         -2   -1    0    0    0  501 -0.00000000000E+00 -0.00000000000E+00 -0.19642033136E+01  0.19642033136E+01  0.00000000000E+00 0.  1.
         21    1    1    2  502  503 -0.18875098007E+02  0.12217997652E+02  0.39231249632E+03  0.39295628708E+03  0.00000000000E+00 0. -1.
         21    1    1    2  503  501  0.18875098007E+02 -0.12217997652E+02  0.75314756876E+02  0.78599372737E+02  0.00000000000E+00 0.  1.
</event>
<event>
 4    1  0.5967370E+002  0.2048923E+02  0.7546771E-02  0.1526684E+00
          2   -1    0    0  502    0  0.00000000000E+00  0.00000000000E+00  0.17441606686E+04  0.17441606686E+04  0.00000000000E+00 0.  1.
         -2   -1    0    0    0  501 -0.00000000000E+00 -0.00000000000E+00 -0.34371620303E+00  0.34371620303E+00  0.00000000000E+00 0. -1.
         21    1    1    2  502  503 -0.17315786410E+02  0.10953179741E+02  0.13494465130E+04  0.13496020525E+04  0.00000000000E+00 0.  1.
         21    1    1    2  503  501  0.17315786410E+02 -0.10953179741E+02  0.39437043937E+03  0.39490233230E+03  0.00000000000E+00 0. -1.
</event>
<event>
 4    1  0.5967370E+002  0.2034124E+02  0.7546771E-02  0.1528882E+00
          2   -1    0    0  502    0  0.00000000000E+00  0.00000000000E+00  0.28608227539E+01  0.28608227539E+01  0.00000000000E+00 0.  1.
         -2   -1    0    0    0  501 -0.00000000000E+00 -0.00000000000E+00 -0.17058639953E+03  0.17058639953E+03  0.00000000000E+00 0. -1.
         21    1    1    2  502  503 -0.13524398007E+02 -0.15193969552E+02 -0.50035124807E+02  0.54011848391E+02  0.00000000000E+00 0. -1.
         21    1    1    2  503  501  0.13524398007E+02  0.15193969552E+02 -0.11769045197E+03  0.11943537389E+03  0.00000000000E+00 0.  1.
</event>
<event>
 4    1  0.5967370E+002  0.2178739E+02  0.7546771E-02  0.1508313E+00
          2   -1    0    0  502    0  0.00000000000E+00  0.00000000000E+00  0.44403704952E+02  0.44403704952E+02  0.00000000000E+00 0. -1.
         -2   -1    0    0    0  501 -0.00000000000E+00 -0.00000000000E+00 -0.13677459400E+02  0.13677459400E+02  0.00000000000E+00 0.  1.
         21    1    1    2  502  503  0.10639503166E+02 -0.19012925952E+02  0.28934671811E+02  0.36220237626E+02  0.00000000000E+00 0. -1.
         21    1    1    2  503  501 -0.10639503166E+02  0.19012925952E+02  0.17915737407E+01  0.21860926726E+02  0.00000000000E+00 0.  1.
</event>
<event>
 4    1  0.5967370E+002  0.5220079E+02  0.7546771E-02  0.1288903E+00
          2   -1    0    0  502    0  0.00000000000E+00  0.00000000000E+00  0.13609041652E+04  0.13609041652E+04  0.00000000000E+00 0. -1.
         -2   -1    0    0    0  501 -0.00000000000E+00 -0.00000000000E+00 -0.24586649355E+01  0.24586649355E+01  0.00000000000E+00 0.  1.
         21    1    1    2  502  503 -0.47555267170E+02  0.21527178662E+02  0.97291558558E+03  0.97431496936E+03  0.00000000000E+00 0. -1.
         21    1    1    2  503  501  0.47555267170E+02 -0.21527178662E+02  0.38552991472E+03  0.38904786081E+03  0.00000000000E+00 0.  1.
</event>
<event>
 4    1  0.5967370E+002  0.2030606E+02  0.7546771E-02  0.1529407E+00
          2   -1    0    0  502    0  0.00000000000E+00  0.00000000000E+00  0.79170210865E+03  0.79170210865E+03  0.00000000000E+00 0. -1.
         -2   -1    0    0    0  501 -0.00000000000E+00 -0.00000000000E+00 -0.11002908304E+01  0.11002908304E+01  0.00000000000E+00 0.  1.
         21    1    1    2  502  503 -0.12320015439E+02  0.16141661332E+02  0.68297197941E+03  0.68327378164E+03  0.00000000000E+00 0.  1.
         21    1    1    2  503  501  0.12320015439E+02 -0.16141661332E+02  0.10762983841E+03  0.10952861785E+03  0.00000000000E+00 0. -1.
</event>
<event>
 4    1  0.5967370E+002  0.2085190E+02  0.7546771E-02  0.1521390E+00
          2   -1    0    0  502    0  0.00000000000E+00  0.00000000000E+00  0.79519559856E+03  0.79519559856E+03  0.00000000000E+00 0. -1.
         -2   -1    0    0    0  501 -0.00000000000E+00 -0.00000000000E+00 -0.28704150699E+01  0.28704150699E+01  0.00000000000E+00 0.  1.
         21    1    1    2  502  503 -0.19445209343E+02 -0.75289741718E+01  0.75518362649E+03  0.75547144972E+03  0.00000000000E+00 0. -1.
         21    1    1    2  503  501  0.19445209343E+02  0.75289741718E+01  0.37141556994E+02  0.42594563907E+02  0.00000000000E+00 0.  1.
</event>
<event>
 4    1  0.5967370E+002  0.2368028E+02  0.7546771E-02  0.1484128E+00
          2   -1    0    0  502    0  0.00000000000E+00  0.00000000000E+00  0.19684108810E+03  0.19684108810E+03  0.00000000000E+00 0. -1.
         -2   -1    0    0    0  501 -0.00000000000E+00 -0.00000000000E+00 -0.28492884180E+01  0.28492884180E+01  0.00000000000E+00 0.  1.
         21    1    1    2  502  503 -0.10849259722E+02 -0.21048739159E+02  0.98336932588E+02  0.10114795187E+03  0.00000000000E+00 0. -1.
         21    1    1    2  503  501  0.10849259722E+02  0.21048739159E+02  0.95654867092E+02  0.98542424646E+02  0.00000000000E+00 0.  1.
</event>
<event>
 4    1  0.5967370E+002  0.2775569E+02  0.7546771E-02  0.1440161E+00
          2   -1    0    0  503    0  0.00000000000E+00  0.00000000000E+00  0.37427052434E+02  0.37427052434E+02  0.00000000000E+00 0.  1.
         -2   -1    0    0    0  501 -0.00000000000E+00 -0.00000000000E+00 -0.20642721368E+02  0.20642721368E+02  0.00000000000E+00 0. -1.
         21    1    1    2  502  501  0.24157403919E+02  0.13667418211E+02  0.99477665554E+01  0.29484513632E+02  0.00000000000E+00 0.  1.
         21    1    1    2  503  502 -0.24157403919E+02 -0.13667418211E+02  0.68365645111E+01  0.28585260170E+02  0.00000000000E+00 0. -1.
</event>
<event>
 4    1  0.5967370E+002  0.2528678E+02  0.7546771E-02  0.1465621E+00
          2   -1    0    0  502    0  0.00000000000E+00  0.00000000000E+00  0.19536853309E+04  0.19536853309E+04  0.00000000000E+00 0.  1.
         -2   -1    0    0    0  501 -0.00000000000E+00 -0.00000000000E+00 -0.60831551270E+00  0.60831551270E+00  0.00000000000E+00 0. -1.
         21    1    1    2  502  503  0.24735732159E+02  0.52502370517E+01  0.16406918261E+04  0.16408866779E+04  0.00000000000E+00 0.  1.
         21    1    1    2  503  501 -0.24735732159E+02 -0.52502370517E+01  0.31238518924E+03  0.31340696848E+03  0.00000000000E+00 0. -1.
</event>
<event>
 4    1  0.5967370E+002  0.3419659E+02  0.7546771E-02  0.1386301E+00
          2   -1    0    0  502    0  0.00000000000E+00  0.00000000000E+00  0.19177057174E+04  0.19177057174E+04  0.00000000000E+00 0. -1.
         -2   -1    0    0    0  501 -0.00000000000E+00 -0.00000000000E+00 -0.64343991123E+00  0.64343991123E+00  0.00000000000E+00 0.  1.
         21    1    1    2  502  503  0.30131781681E+02 -0.16170422759E+02  0.73919757236E+03  0.73998814709E+03  0.00000000000E+00 0.  1.
         21    1    1    2  503  501 -0.30131781681E+02  0.16170422759E+02  0.11778647051E+04  0.11783610102E+04  0.00000000000E+00 0. -1.
</event>
<event>
 4    1  0.5967370E+002  0.2277879E+02  0.7546771E-02  0.1495295E+00
          2   -1    0    0  502    0  0.00000000000E+00  0.00000000000E+00  0.62105281877E+02  0.62105281877E+02  0.00000000000E+00 0.  1.
         -2   -1    0    0    0  501 -0.00000000000E+00 -0.00000000000E+00 -0.17165672364E+02  0.17165672364E+02  0.00000000000E+00 0. -1.
         21    1    1    2  502  503 -0.20667290749E+02 -0.95779072825E+01  0.50866298640E+02  0.55733773891E+02  0.00000000000E+00 0.  1.
         21    1    1    2  503  501  0.20667290749E+02  0.95779072825E+01 -0.59266891267E+01  0.23537180350E+02  0.00000000000E+00 0. -1.
</event>
<event>
 4    1  0.5967370E+002  0.3095113E+02  0.7546771E-02  0.1411507E+00
          2   -1    0    0  502    0  0.00000000000E+00  0.00000000000E+00  0.17138858510E+03  0.17138858510E+03  0.00000000000E+00 0.  1.
         -2   -1    0    0    0  501 -0.00000000000E+00 -0.00000000000E+00 -0.71927692836E+01  0.71927692836E+01  0.00000000000E+00 0. -1.
         21    1    1    2  502  503 -0.85596806430E+01 -0.29743979560E+02  0.12425440173E+03  0.12805127412E+03  0.00000000000E+00 0.  1.
         21    1    1    2  503  501  0.85596806430E+01  0.29743979560E+02  0.39941414083E+02  0.50530080266E+02  0.00000000000E+00 0. -1.
</event>
<event>
 4    1  0.5967370E+002  0.2119687E+02  0.7546771E-02  0.1516473E+00
          2   -1    0    0  502    0  0.00000000000E+00  0.00000000000E+00  0.13259994900E+02  0.13259994900E+02  0.00000000000E+00 0. -1.
         -2   -1    0    0    0  501 -0.00000000000E+00 -0.00000000000E+00 -0.34962750368E+02  0.34962750368E+02  0.00000000000E+00 0.  1.
         21    1    1    2  502  503 -0.11331235024E+02  0.17913969223E+02 -0.66169384737E+01  0.22205653677E+02  0.00000000000E+00 0.  1.
         21    1    1    2  503  501  0.11331235024E+02 -0.17913969223E+02 -0.15085816994E+02  0.26017091591E+02  0.00000000000E+00 0. -1.
</event>
<event>
 4    1  0.5967370E+002  0.2953133E+02  0.7546771E-02  0.1423713E+00
          2   -1    0    0  502    0  0.00000000000E+00  0.00000000000E+00  0.17209828327E+03  0.17209828327E+03  0.00000000000E+00 0. -1.
         -2   -1    0    0    0  501 -0.00000000000E+00 -0.00000000000E+00 -0.51755093348E+01  0.51755093348E+01  0.00000000000E+00 0.  1.
         21    1    1    2  502  503 -0.10861941305E+02  0.27461205431E+02  0.96268983971E+02  0.10069665758E+03  0.00000000000E+00 0.  1.
         21    1    1    2  503  501  0.10861941305E+02 -0.27461205431E+02  0.70653789967E+02  0.76577135029E+02  0.00000000000E+00 0. -1.
</event>
<event>
 4    1  0.5967370E+002  0.2386907E+02  0.7546771E-02  0.1481864E+00
          2   -1    0    0  503    0  0.00000000000E+00  0.00000000000E+00  0.18722722343E+04  0.18722722343E+04  0.00000000000E+00 0.  1.
         -2   -1    0    0    0  501 -0.00000000000E+00 -0.00000000000E+00 -0.44017893245E+00  0.44017893245E+00  0.00000000000E+00 0. -1.
         21    1    1    2  502  501 -0.14874268529E+02 -0.18667847578E+02  0.41567743370E+03  0.41636217562E+03  0.00000000000E+00 0. -1.
         21    1    1    2  503  502  0.14874268529E+02  0.18667847578E+02  0.14561546217E+04  0.14563502376E+04  0.00000000000E+00 0.  1.
</event>
<event>
 4    1  0.5967370E+002  0.2358661E+02  0.7546771E-02  0.1485261E+00
          2   -1    0    0  502    0  0.00000000000E+00  0.00000000000E+00  0.72006243671E+03  0.72006243671E+03  0.00000000000E+00 0. -1.
         -2   -1    0    0    0  501 -0.00000000000E+00 -0.00000000000E+00 -0.10547204952E+01  0.10547204952E+01  0.00000000000E+00 0.  1.
         21    1    1    2  502  503  0.18065924554E+02  0.15164114236E+02  0.54597695034E+03  0.54648619222E+03  0.00000000000E+00 0. -1.
         21    1    1    2  503  501 -0.18065924554E+02 -0.15164114236E+02  0.17303076588E+03  0.17463096498E+03  0.00000000000E+00 0.  1.
</event>
<event>
 4    1  0.5967370E+002  0.3243267E+02  0.7546771E-02  0.1399570E+00
          2   -1    0    0  502    0  0.00000000000E+00  0.00000000000E+00  0.10104442913E+02  0.10104442913E+02  0.00000000000E+00 0.  1.
         -2   -1    0    0    0  501 -0.00000000000E+00 -0.00000000000E+00 -0.10531008808E+03  0.10531008808E+03  0.00000000000E+00 0. -1.
         21    1    1    2  502  503  0.69856507789E+01 -0.31671419343E+02 -0.41418326811E+02  0.52605664294E+02  0.00000000000E+00 0.  1.
         21    1    1    2  503  501 -0.69856507789E+01  0.31671419343E+02 -0.53787318356E+02  0.62808866698E+02  0.00000000000E+00 0. -1.
</event>
<event>
 4    1  0.5967370E+002  0.2831735E+02  0.7546771E-02  0.1434806E+00
          2   -1    0    0  503    0  0.00000000000E+00  0.00000000000E+00  0.33919066221E+02  0.33919066221E+02  0.00000000000E+00 0.  1.
         -2   -1    0    0    0  501 -0.00000000000E+00 -0.00000000000E+00 -0.12803346718E+03  0.12803346718E+03  0.00000000000E+00 0. -1.
         21    1    1    2  502  501  0.23401033720E+02 -0.15945651021E+02 -0.12017634439E+03  0.12346750955E+03  0.00000000000E+00 0. -1.
         21    1    1    2  503  502 -0.23401033720E+02  0.15945651021E+02  0.26061943423E+02  0.38485023849E+02  0.00000000000E+00 0.  1.
</event>
<event>
 4    1  0.5967370E+002  0.3554756E+02  0.7546771E-02  0.1376754E+00
          2   -1    0    0  502    0  0.00000000000E+00  0.00000000000E+00  0.82778884334E+03  0.82778884334E+03  0.00000000000E+00 0.  1.
         -2   -1    0    0    0  501 -0.00000000000E+00 -0.00000000000E+00 -0.34154430249E+01  0.34154430249E+01  0.00000000000E+00 0. -1.
         21    1    1    2  502  503  0.31811004900E+01 -0.35404941432E+02  0.72126061346E+03  0.72213606876E+03  0.00000000000E+00 0.  1.
         21    1    1    2  503  501 -0.31811004900E+01  0.35404941432E+02  0.10311278686E+03  0.10906821761E+03  0.00000000000E+00 0. -1.
</event>
<event>
 4    1  0.5967370E+002  0.2261066E+02  0.7546771E-02  0.1497446E+00
          2   -1    0    0  503    0  0.00000000000E+00  0.00000000000E+00  0.50314248087E+01  0.50314248087E+01  0.00000000000E+00 0.  1.
         -2   -1    0    0    0  501 -0.00000000000E+00 -0.00000000000E+00 -0.15089775816E+03  0.15089775816E+03  0.00000000000E+00 0. -1.
         21    1    1    2  502  501 -0.24095322861E+01  0.22481904818E+02 -0.11749125845E+03  0.11964713829E+03  0.00000000000E+00 0. -1.
         21    1    1    2  503  502  0.24095322861E+01 -0.22481904818E+02 -0.28375074904E+02  0.36282044676E+02  0.00000000000E+00 0.  1.
</event>
<event>
 4    1  0.5967370E+002  0.2243577E+02  0.7546771E-02  0.1499707E+00
          2   -1    0    0  502    0  0.00000000000E+00  0.00000000000E+00  0.17448233268E+04  0.17448233268E+04  0.00000000000E+00 0.  1.
         -2   -1    0    0    0  501 -0.00000000000E+00 -0.00000000000E+00 -0.32064426552E+00  0.32064426552E+00  0.00000000000E+00 0. -1.
         21    1    1    2  502  503  0.78366485101E+01 -0.21022627144E+02  0.59593314808E+03  0.59635533107E+03  0.00000000000E+00 0. -1.
         21    1    1    2  503  501 -0.78366485101E+01  0.21022627144E+02  0.11485695344E+04  0.11487886400E+04  0.00000000000E+00 0.  1.
</event>
<event>
 4    1  0.5967370E+002  0.3266878E+02  0.7546771E-02  0.1397737E+00
          2   -1    0    0  503    0  0.00000000000E+00  0.00000000000E+00  0.21285098838E+04  0.21285098838E+04  0.00000000000E+00 0. -1.
         -2   -1    0    0    0  501 -0.00000000000E+00 -0.00000000000E+00 -0.85610748951E+00  0.85610748951E+00  0.00000000000E+00 0.  1.
         21    1    1    2  502  501 -0.23338465394E+02  0.22859686902E+02  0.37851666847E+03  0.37992383127E+03  0.00000000000E+00 0.  1.
         21    1    1    2  503  502  0.23338465394E+02 -0.22859686902E+02  0.17491371078E+04  0.17494421600E+04  0.00000000000E+00 0. -1.
</event>
<event>
 4    1  0.5967370E+002  0.2854068E+02  0.7546771E-02  0.1432717E+00
          2   -1    0    0  502    0  0.00000000000E+00  0.00000000000E+00  0.37829652201E+03  0.37829652201E+03  0.00000000000E+00 0. -1.
         -2   -1    0    0    0  501 -0.00000000000E+00 -0.00000000000E+00 -0.35109868159E+01  0.35109868159E+01  0.00000000000E+00 0.  1.
         21    1    1    2  502  503  0.22588722140E+02 -0.17444769359E+02  0.68677589904E+02  0.74371914732E+02  0.00000000000E+00 0.  1.
         21    1    1    2  503  501 -0.22588722140E+02  0.17444769359E+02  0.30610794529E+03  0.30743559410E+03  0.00000000000E+00 0. -1.
</event>
<event>
 4    1  0.5967370E+002  0.2360069E+02  0.7546771E-02  0.1485090E+00
          2   -1    0    0  502    0  0.00000000000E+00  0.00000000000E+00  0.26537775197E+02  0.26537775197E+02  0.00000000000E+00 0. -1.
         -2   -1    0    0    0  501 -0.00000000000E+00 -0.00000000000E+00 -0.33671962514E+02  0.33671962514E+02  0.00000000000E+00 0.  1.
         21    1    1    2  502  503  0.23593824052E+02 -0.56926851354E+00  0.14909356435E+02  0.27915614078E+02  0.00000000000E+00 0. -1.
         21    1    1    2  503  501 -0.23593824052E+02  0.56926851354E+00 -0.22043543753E+02  0.32294123633E+02  0.00000000000E+00 0.  1.
</event>
<event>
 4    1  0.5967370E+002  0.2705722E+02  0.7546771E-02  0.1447034E+00
          2   -1    0    0  502    0  0.00000000000E+00  0.00000000000E+00  0.93936754663E+03  0.93936754663E+03  0.00000000000E+00 0.  1.
         -2   -1    0    0    0  501 -0.00000000000E+00 -0.00000000000E+00 -0.79515516995E+00  0.79515516995E+00  0.00000000000E+00 0. -1.
         21    1    1    2  502  503 -0.20210421485E+02  0.17989781294E+02  0.40300557204E+03  0.40391284265E+03  0.00000000000E+00 0. -1.
         21    1    1    2  503  501  0.20210421485E+02 -0.17989781294E+02  0.53556681943E+03  0.53624985915E+03  0.00000000000E+00 0.  1.
</event>
<event>
 4    1  0.5967370E+002  0.6602832E+02  0.7546771E-02  0.1240620E+00
          2   -1    0    0  502    0  0.00000000000E+00  0.00000000000E+00  0.21368915874E+04  0.21368915874E+04  0.00000000000E+00 0. -1.
         -2   -1    0    0    0  501 -0.00000000000E+00 -0.00000000000E+00 -0.30482733436E+01  0.30482733436E+01  0.00000000000E+00 0.  1.
         21    1    1    2  502  503  0.24399171589E+02  0.61354861419E+02  0.16822195163E+04  0.16835148469E+04  0.00000000000E+00 0. -1.
         21    1    1    2  503  501 -0.24399171589E+02 -0.61354861419E+02  0.45162379773E+03  0.45642501385E+03  0.00000000000E+00 0.  1.
</event>
<event>
 4    1  0.5967370E+002  0.2772096E+02  0.7546771E-02  0.1440497E+00
          2   -1    0    0  503    0  0.00000000000E+00  0.00000000000E+00  0.31016037664E+01  0.31016037664E+01  0.00000000000E+00 0. -1.
         -2   -1    0    0    0  501 -0.00000000000E+00 -0.00000000000E+00 -0.25697483880E+03  0.25697483880E+03  0.00000000000E+00 0.  1.
         21    1    1    2  502  501  0.71470963721E+01 -0.26783773299E+02 -0.15156203768E+03  0.15407628878E+03  0.00000000000E+00 0.  1.
         21    1    1    2  503  502 -0.71470963721E+01  0.26783773299E+02 -0.10231119735E+03  0.10600015379E+03  0.00000000000E+00 0. -1.
</event>
<event>
 4    1  0.5967370E+002  0.2732970E+02  0.7546771E-02  0.1444324E+00
          2   -1    0    0  503    0  0.00000000000E+00  0.00000000000E+00  0.14142707145E+02  0.14142707145E+02  0.00000000000E+00 0.  1.
         -2   -1    0    0    0  501 -0.00000000000E+00 -0.00000000000E+00 -0.94129423718E+02  0.94129423718E+02  0.00000000000E+00 0. -1.
         21    1    1    2  502  501  0.27294051508E+02  0.13953529113E+01 -0.75859757516E+02  0.80632593087E+02  0.00000000000E+00 0. -1.
         21    1    1    2  503  502 -0.27294051508E+02 -0.13953529113E+01 -0.41269590566E+01  0.27639537776E+02  0.00000000000E+00 0.  1.
</event>
<event>
 4    1  0.5967370E+002  0.2040110E+02  0.7546771E-02  0.1527990E+00
          2   -1    0    0  503    0  0.00000000000E+00  0.00000000000E+00  0.18918087403E+02  0.18918087403E+02  0.00000000000E+00 0. -1.
         -2   -1    0    0    0  501 -0.00000000000E+00 -0.00000000000E+00 -0.54173291425E+02  0.54173291425E+02  0.00000000000E+00 0.  1.
         21    1    1    2  502  501  0.20329305530E+02 -0.17100195232E+01 -0.45791244951E+02  0.50130259767E+02  0.00000000000E+00 0.  1.
         21    1    1    2  503  502 -0.20329305530E+02  0.17100195232E+01  0.10536040929E+02  0.22961119061E+02  0.00000000000E+00 0. -1.
</event>
<event>
 4    1  0.5967370E+002  0.2542577E+02  0.7546771E-02  0.1464096E+00
          2   -1    0    0  503    0  0.00000000000E+00  0.00000000000E+00  0.42226732454E+03  0.42226732454E+03  0.00000000000E+00 0.  1.
         -2   -1    0    0    0  501 -0.00000000000E+00 -0.00000000000E+00 -0.29924088009E+01  0.29924088009E+01  0.00000000000E+00 0. -1.
         21    1    1    2  502  501  0.23168723214E+02 -0.10472813934E+02  0.61041395087E+02  0.66125044281E+02  0.00000000000E+00 0. -1.
         21    1    1    2  503  502 -0.23168723214E+02  0.10472813934E+02  0.35823352065E+03  0.35913468906E+03  0.00000000000E+00 0.  1.
</event>
<event>
 4    1  0.5967370E+002  0.2791747E+02  0.7546771E-02  0.1438603E+00
          2   -1    0    0  503    0  0.00000000000E+00  0.00000000000E+00  0.72745404447E+03  0.72745404447E+03  0.00000000000E+00 0. -1.
         -2   -1    0    0    0  501 -0.00000000000E+00 -0.00000000000E+00 -0.15058735912E+01  0.15058735912E+01  0.00000000000E+00 0.  1.
         21    1    1    2  502  501  0.24367914417E+02  0.13623132048E+02  0.16719447280E+03  0.16950922309E+03  0.00000000000E+00 0.  1.
         21    1    1    2  503  502 -0.24367914417E+02 -0.13623132048E+02  0.55875369808E+03  0.55945069497E+03  0.00000000000E+00 0. -1.
</event>
<event>
 4    1  0.5967370E+002  0.7631522E+02  0.7546771E-02  0.1212670E+00
          2   -1    0    0  503    0  0.00000000000E+00  0.00000000000E+00  0.16589112781E+04  0.16589112781E+04  0.00000000000E+00 0.  1.
         -2   -1    0    0    0  501 -0.00000000000E+00 -0.00000000000E+00 -0.19851893636E+02  0.19851893636E+02  0.00000000000E+00 0. -1.
         21    1    1    2  502  501  0.48703056421E+02  0.58753939080E+02  0.57977330717E+02  0.95840408698E+02  0.00000000000E+00 0. -1.
         21    1    1    2  503  502 -0.48703056421E+02 -0.58753939080E+02  0.15810820538E+04  0.15829227630E+04  0.00000000000E+00 0.  1.
</event>
<event>
 4    1  0.5967370E+002  0.3324137E+02  0.7546771E-02  0.1393367E+00
          2   -1    0    0  502    0  0.00000000000E+00  0.00000000000E+00  0.88406558969E+02  0.88406558969E+02  0.00000000000E+00 0. -1.
         -2   -1    0    0    0  501 -0.00000000000E+00 -0.00000000000E+00 -0.22851105093E+02  0.22851105093E+02  0.00000000000E+00 0.  1.
         21    1    1    2  502  503  0.56322482964E+00 -0.33236597728E+02  0.70219968745E+02  0.77690621450E+02  0.00000000000E+00 0. -1.
         21    1    1    2  503  501 -0.56322482964E+00  0.33236597728E+02 -0.46645148693E+01  0.33567042612E+02  0.00000000000E+00 0.  1.
</event>
<event>
 4    1  0.5967370E+002  0.2706057E+02  0.7546771E-02  0.1447001E+00
          2   -1    0    0  502    0  0.00000000000E+00  0.00000000000E+00  0.12203029102E+03  0.12203029102E+03  0.00000000000E+00 0.  1.
         -2   -1    0    0    0  501 -0.00000000000E+00 -0.00000000000E+00 -0.76212745063E+01  0.76212745063E+01  0.00000000000E+00 0. -1.
         21    1    1    2  502  503  0.23929009447E+02 -0.12636329651E+02  0.87096896510E+02  0.91203857933E+02  0.00000000000E+00 0.  1.
         21    1    1    2  503  501 -0.23929009447E+02  0.12636329651E+02  0.27312120008E+02  0.38447707598E+02  0.00000000000E+00 0. -1.
</event>
<event>
 4    1  0.5967370E+002  0.2803014E+02  0.7546771E-02  0.1437526E+00
          2   -1    0    0  502    0  0.00000000000E+00  0.00000000000E+00  0.87563406833E+03  0.87563406833E+03  0.00000000000E+00 0. -1.
         -2   -1    0    0    0  501 -0.00000000000E+00 -0.00000000000E+00 -0.26307363099E+01  0.26307363099E+01  0.00000000000E+00 0.  1.
         21    1    1    2  502  503  0.32403235267E+01 -0.27842216758E+02  0.79296371873E+03  0.79345897685E+03  0.00000000000E+00 0. -1.
         21    1    1    2  503  501 -0.32403235267E+01  0.27842216758E+02  0.80039613288E+02  0.84805827782E+02  0.00000000000E+00 0.  1.
</event>
<event>
 4    1  0.5967370E+002  0.2338847E+02  0.7546771E-02  0.1487677E+00
          2   -1    0    0  503    0  0.00000000000E+00  0.00000000000E+00  0.80701430183E+02  0.80701430183E+02  0.00000000000E+00 0. -1.
         -2   -1    0    0    0  501 -0.00000000000E+00 -0.00000000000E+00 -0.12008422494E+02  0.12008422494E+02  0.00000000000E+00 0.  1.
         21    1    1    2  502  501 -0.22072026304E+02  0.77360439400E+01  0.37545154811E+01  0.23687910577E+02  0.00000000000E+00 0.  1.
         21    1    1    2  503  502  0.22072026304E+02 -0.77360439400E+01  0.64938492208E+02  0.69021942100E+02  0.00000000000E+00 0. -1.
</event>
<event>
 4    1  0.5967370E+002  0.2070792E+02  0.7546771E-02  0.1523476E+00
          2   -1    0    0  502    0  0.00000000000E+00  0.00000000000E+00  0.36818072488E+02  0.36818072488E+02  0.00000000000E+00 0.  1.
         -2   -1    0    0    0  501 -0.00000000000E+00 -0.00000000000E+00 -0.13447512785E+02  0.13447512785E+02  0.00000000000E+00 0. -1.
         21    1    1    2  502  503 -0.15885822822E+02 -0.13283764819E+02  0.24887188621E+01  0.20856929210E+02  0.00000000000E+00 0. -1.
         21    1    1    2  503  501  0.15885822822E+02  0.13283764819E+02  0.20881840841E+02  0.29408656063E+02  0.00000000000E+00 0.  1.
</event>
<event>
 4    1  0.5967370E+002  0.3640665E+02  0.7546771E-02  0.1370935E+00
          2   -1    0    0  503    0  0.00000000000E+00  0.00000000000E+00  0.17074754293E+04  0.17074754293E+04  0.00000000000E+00 0.  1.
         -2   -1    0    0    0  501 -0.00000000000E+00 -0.00000000000E+00 -0.78689410981E+00  0.78689410981E+00  0.00000000000E+00 0. -1.
         21    1    1    2  502  501  0.36154307561E+02  0.42790088905E+01  0.75404889696E+03  0.75492726993E+03  0.00000000000E+00 0. -1.
         21    1    1    2  503  502 -0.36154307561E+02 -0.42790088905E+01  0.95263963819E+03  0.95333505344E+03  0.00000000000E+00 0.  1.
</event>
<event>
 4    1  0.5967370E+002  0.3070252E+02  0.7546771E-02  0.1413588E+00
          2   -1    0    0  502    0  0.00000000000E+00  0.00000000000E+00  0.35756885605E+03  0.35756885605E+03  0.00000000000E+00 0. -1.
         -2   -1    0    0    0  501 -0.00000000000E+00 -0.00000000000E+00 -0.44325699753E+01  0.44325699753E+01  0.00000000000E+00 0.  1.
         21    1    1    2  502  503 -0.92017446394E+00  0.30688724662E+02  0.29179218415E+03  0.29340300488E+03  0.00000000000E+00 0. -1.
         21    1    1    2  503  501  0.92017446394E+00 -0.30688724662E+02  0.61344101923E+02  0.68598421142E+02  0.00000000000E+00 0.  1.
</event>
<event>
 4    1  0.5967370E+002  0.3956139E+02  0.7546771E-02  0.1351075E+00
          2   -1    0    0  503    0  0.00000000000E+00  0.00000000000E+00  0.15504156884E+02  0.15504156884E+02  0.00000000000E+00 0. -1.
         -2   -1    0    0    0  501 -0.00000000000E+00 -0.00000000000E+00 -0.14107325942E+03  0.14107325942E+03  0.00000000000E+00 0.  1.
         21    1    1    2  502  501 -0.38507408684E+02  0.90710176827E+01 -0.10453768766E+03  0.11177312748E+03  0.00000000000E+00 0.  1.
         21    1    1    2  503  502  0.38507408684E+02 -0.90710176827E+01 -0.21031414878E+02  0.44804288825E+02  0.00000000000E+00 0. -1.
</event>
<event>
 4    1  0.5967370E+002  0.2082604E+02  0.7546771E-02  0.1521763E+00
          2   -1    0    0  502    0  0.00000000000E+00  0.00000000000E+00  0.24119000327E+02  0.24119000327E+02  0.00000000000E+00 0. -1.
         -2   -1    0    0    0  501 -0.00000000000E+00 -0.00000000000E+00 -0.18455988642E+02  0.18455988642E+02  0.00000000000E+00 0.  1.
         21    1    1    2  502  503  0.20635434137E+02 -0.28111798380E+01 -0.57756118353E+00  0.20834045479E+02  0.00000000000E+00 0. -1.
         21    1    1    2  503  501 -0.20635434137E+02  0.28111798380E+01  0.62405728688E+01  0.21740943490E+02  0.00000000000E+00 0.  1.
</event>
<event>
 4    1  0.5967370E+002  0.4950279E+02  0.7546771E-02  0.1300343E+00
          2   -1    0    0  502    0  0.00000000000E+00  0.00000000000E+00  0.27947268611E+03  0.27947268611E+03  0.00000000000E+00 0. -1.
         -2   -1    0    0    0  501 -0.00000000000E+00 -0.00000000000E+00 -0.11533923349E+02  0.11533923349E+02  0.00000000000E+00 0.  1.
         21    1    1    2  502  503 -0.48304350111E+02  0.10826621105E+02  0.20521754057E+03  0.21110368287E+03  0.00000000000E+00 0. -1.
         21    1    1    2  503  501  0.48304350111E+02 -0.10826621105E+02  0.62721222188E+02  0.79902926585E+02  0.00000000000E+00 0.  1.
</event>
<event>
 4    1  0.5967370E+002  0.3437953E+02  0.7546771E-02  0.1384978E+00
          2   -1    0    0  502    0  0.00000000000E+00  0.00000000000E+00  0.14859993485E+02  0.14859993485E+02  0.00000000000E+00 0.  1.
         -2   -1    0    0    0  501 -0.00000000000E+00 -0.00000000000E+00 -0.28822222833E+03  0.28822222833E+03  0.00000000000E+00 0. -1.
         21    1    1    2  502  503 -0.55249630387E+01 -0.33932683494E+02 -0.77344032693E+01  0.35238802755E+02  0.00000000000E+00 0.  1.
         21    1    1    2  503  501  0.55249630387E+01  0.33932683494E+02 -0.26562783158E+03  0.26784341906E+03  0.00000000000E+00 0. -1.
</event>
<event>
 4    1  0.5967370E+002  0.3354241E+02  0.7546771E-02  0.1391110E+00
          2   -1    0    0  503    0  0.00000000000E+00  0.00000000000E+00  0.10730481928E+03  0.10730481928E+03  0.00000000000E+00 0. -1.
         -2   -1    0    0    0  501 -0.00000000000E+00 -0.00000000000E+00 -0.64420250162E+02  0.64420250162E+02  0.00000000000E+00 0.  1.
         21    1    1    2  502  501  0.28250278485E+02  0.18083562210E+02 -0.57122651101E+02  0.66242665447E+02  0.00000000000E+00 0.  1.
         21    1    1    2  503  502 -0.28250278485E+02 -0.18083562210E+02  0.10000722022E+03  0.10548240400E+03  0.00000000000E+00 0. -1.
</event>
<event>
 4    1  0.5967370E+002  0.2213257E+02  0.7546771E-02  0.1503688E+00
          2   -1    0    0  503    0  0.00000000000E+00  0.00000000000E+00  0.10914288148E+03  0.10914288148E+03  0.00000000000E+00 0.  1.
         -2   -1    0    0    0  501 -0.00000000000E+00 -0.00000000000E+00 -0.48088956998E+01  0.48088956998E+01  0.00000000000E+00 0. -1.
         21    1    1    2  502  501  0.76890322677E+01  0.20754019086E+02  0.66881416500E+02  0.70448381092E+02  0.00000000000E+00 0.  1.
         21    1    1    2  503  502 -0.76890322677E+01 -0.20754019086E+02  0.37452569278E+02  0.43503396086E+02  0.00000000000E+00 0. -1.
</event>
<event>
 4    1  0.5967370E+002  0.4064438E+02  0.7546771E-02  0.1344751E+00
          2   -1    0    0  502    0  0.00000000000E+00  0.00000000000E+00  0.69534124640E+03  0.69534124640E+03  0.00000000000E+00 0. -1.
         -2   -1    0    0    0  501 -0.00000000000E+00 -0.00000000000E+00 -0.20474712387E+02  0.20474712387E+02  0.00000000000E+00 0.  1.
         21    1    1    2  502  503  0.38223728576E+02  0.13817089128E+02  0.67393644457E+03  0.67516094133E+03  0.00000000000E+00 0. -1.
         21    1    1    2  503  501 -0.38223728576E+02 -0.13817089128E+02  0.93008944654E+00  0.40655017459E+02  0.00000000000E+00 0.  1.
</event>
<event>
 4    1  0.5967370E+002  0.2302408E+02  0.7546771E-02  0.1492196E+00
          2   -1    0    0  502    0  0.00000000000E+00  0.00000000000E+00  0.23416137085E+03  0.23416137085E+03  0.00000000000E+00 0. -1.
         -2   -1    0    0    0  501 -0.00000000000E+00 -0.00000000000E+00 -0.12430573208E+02  0.12430573208E+02  0.00000000000E+00 0.  1.
         21    1    1    2  502  503 -0.20099736834E+02 -0.11229822920E+02  0.22237021272E+03  0.22355898517E+03  0.00000000000E+00 0. -1.
         21    1    1    2  503  501  0.20099736834E+02  0.11229822920E+02 -0.63941507824E+00  0.23032958891E+02  0.00000000000E+00 0.  1.
</event>
<event>
 4    1  0.5967370E+002  0.2221490E+02  0.7546771E-02  0.1502599E+00
          2   -1    0    0  502    0  0.00000000000E+00  0.00000000000E+00  0.83763757468E+03  0.83763757468E+03  0.00000000000E+00 0.  1.
         -2   -1    0    0    0  501 -0.00000000000E+00 -0.00000000000E+00 -0.18691648583E+01  0.18691648583E+01  0.00000000000E+00 0. -1.
         21    1    1    2  502  503 -0.37718880161E+01  0.21892344426E+02  0.76524142649E+03  0.76556380707E+03  0.00000000000E+00 0.  1.
         21    1    1    2  503  501  0.37718880161E+01 -0.21892344426E+02  0.70526983329E+02  0.73942932462E+02  0.00000000000E+00 0. -1.
</event>
<event>
 4    1  0.5967370E+002  0.3645092E+02  0.7546771E-02  0.1370640E+00
          2   -1    0    0  502    0  0.00000000000E+00  0.00000000000E+00  0.14997013194E+04  0.14997013194E+04  0.00000000000E+00 0.  1.
         -2   -1    0    0    0  501 -0.00000000000E+00 -0.00000000000E+00 -0.88273106060E+01  0.88273106060E+01  0.00000000000E+00 0. -1.
         21    1    1    2  502  503  0.14643756218E+01 -0.36421492071E+02  0.14608497116E+04  0.14613043999E+04  0.00000000000E+00 0.  1.
         21    1    1    2  503  501 -0.14643756218E+01  0.36421492071E+02  0.30024297190E+02  0.47224230035E+02  0.00000000000E+00 0. -1.
</event>
<event>
 4    1  0.5967370E+002  0.3941437E+02  0.7546771E-02  0.1351952E+00
          2   -1    0    0  502    0  0.00000000000E+00  0.00000000000E+00  0.15218286801E+04  0.15218286801E+04  0.00000000000E+00 0.  1.
         -2   -1    0    0    0  501 -0.00000000000E+00 -0.00000000000E+00 -0.10446910496E+01  0.10446910496E+01  0.00000000000E+00 0. -1.
         21    1    1    2  502  503 -0.11340743011E+02  0.37747586408E+02  0.87552441970E+03  0.87641114908E+03  0.00000000000E+00 0.  1.
         21    1    1    2  503  501  0.11340743011E+02 -0.37747586408E+02  0.64525956937E+03  0.64646222209E+03  0.00000000000E+00 0. -1.
</event>
<event>
 4    1  0.5967370E+002  0.3741637E+02  0.7546771E-02  0.1364329E+00
          2   -1    0    0  503    0  0.00000000000E+00  0.00000000000E+00  0.16144404806E+04  0.16144404806E+04  0.00000000000E+00 0.  1.
         -2   -1    0    0    0  501 -0.00000000000E+00 -0.00000000000E+00 -0.16004710908E+01  0.16004710908E+01  0.00000000000E+00 0. -1.
         21    1    1    2  502  501  0.87390840494E+01  0.36381496926E+02  0.25947791350E+03  0.26216172967E+03  0.00000000000E+00 0. -1.
         21    1    1    2  503  502 -0.87390840494E+01 -0.36381496926E+02  0.13533620960E+04  0.13538792220E+04  0.00000000000E+00 0.  1.
</event>
<event>
 4    1  0.5967370E+002  0.2386922E+02  0.7546771E-02  0.1481862E+00
          2   -1    0    0  502    0  0.00000000000E+00  0.00000000000E+00  0.52520052951E+02  0.52520052951E+02  0.00000000000E+00 0. -1.
         -2   -1    0    0    0  501 -0.00000000000E+00 -0.00000000000E+00 -0.19026057262E+02  0.19026057262E+02  0.00000000000E+00 0.  1.
         21    1    1    2  502  503 -0.20731767262E+02  0.11829352908E+02  0.40200385292E+02  0.46752654916E+02  0.00000000000E+00 0. -1.
         21    1    1    2  503  501  0.20731767262E+02 -0.11829352908E+02 -0.67063896035E+01  0.24793455296E+02  0.00000000000E+00 0.  1.
</event>
<event>
 4    1  0.5967370E+002  0.1764169E+03  0.7546771E-02  0.1073246E+00
          2   -1    0    0  502    0  0.00000000000E+00  0.00000000000E+00  0.26061920689E+04  0.26061920689E+04  0.00000000000E+00 0. -1.
         -2   -1    0    0    0  501 -0.00000000000E+00 -0.00000000000E+00 -0.24266034303E+02  0.24266034303E+02  0.00000000000E+00 0.  1.
         21    1    1    2  502  503 -0.16540718009E+03 -0.61346472545E+02  0.22282658541E+04  0.22352386095E+04  0.00000000000E+00 0. -1.
         21    1    1    2  503  501  0.16540718009E+03  0.61346472545E+02  0.35366018048E+03  0.39521949367E+03  0.00000000000E+00 0.  1.
</event>
<event>
 4    1  0.5967370E+002  0.3298363E+02  0.7546771E-02  0.1395321E+00
          2   -1    0    0  503    0  0.00000000000E+00  0.00000000000E+00  0.63283363997E+03  0.63283363997E+03  0.00000000000E+00 0. -1.
         -2   -1    0    0    0  501 -0.00000000000E+00 -0.00000000000E+00 -0.32140362942E+02  0.32140362942E+02  0.00000000000E+00 0.  1.
         21    1    1    2  502  501  0.30966550388E+02  0.11357501233E+02 -0.23126129608E+02  0.40283221666E+02  0.00000000000E+00 0.  1.
         21    1    1    2  503  502 -0.30966550388E+02 -0.11357501233E+02  0.62381940664E+03  0.62469078125E+03  0.00000000000E+00 0. -1.
</event>
<event>
 4    1  0.5967370E+002  0.4661654E+02  0.7546771E-02  0.1313548E+00
          2   -1    0    0  503    0  0.00000000000E+00  0.00000000000E+00  0.12044359033E+04  0.12044359033E+04  0.00000000000E+00 0. -1.
         -2   -1    0    0    0  501 -0.00000000000E+00 -0.00000000000E+00 -0.29624412857E+01  0.29624412857E+01  0.00000000000E+00 0.  1.
         21    1    1    2  502  501  0.11320977504E+02  0.45220980422E+02  0.22326351331E+03  0.22807827160E+03  0.00000000000E+00 0.  1.
         21    1    1    2  503  502 -0.11320977504E+02 -0.45220980422E+02  0.97820994866E+03  0.97932007294E+03  0.00000000000E+00 0. -1.
</event>
<event>
 4    1  0.5967370E+002  0.2969065E+02  0.7546771E-02  0.1422304E+00
          2   -1    0    0  502    0  0.00000000000E+00  0.00000000000E+00  0.52795994134E+03  0.52795994134E+03  0.00000000000E+00 0. -1.
         -2   -1    0    0    0  501 -0.00000000000E+00 -0.00000000000E+00 -0.10140227325E+02  0.10140227325E+02  0.00000000000E+00 0.  1.
         21    1    1    2  502  503 -0.24516210949E+02 -0.16747830975E+02  0.50481325160E+03  0.50568562707E+03  0.00000000000E+00 0. -1.
         21    1    1    2  503  501  0.24516210949E+02  0.16747830975E+02  0.13006462413E+02  0.32414541585E+02  0.00000000000E+00 0.  1.
</event>
<event>
 4    1  0.5967370E+002  0.2511472E+02  0.7546771E-02  0.1467524E+00
          2   -1    0    0  502    0  0.00000000000E+00  0.00000000000E+00  0.49362985116E+03  0.49362985116E+03  0.00000000000E+00 0.  1.
         -2   -1    0    0    0  501 -0.00000000000E+00 -0.00000000000E+00 -0.16128644719E+01  0.16128644719E+01  0.00000000000E+00 0. -1.
         21    1    1    2  502  503 -0.22024899868E+02 -0.12068675999E+02  0.35887572819E+03  0.35975343979E+03  0.00000000000E+00 0.  1.
         21    1    1    2  503  501  0.22024899868E+02  0.12068675999E+02  0.13314125850E+03  0.13548927584E+03  0.00000000000E+00 0. -1.
</event>
<event>
 4    1  0.5967370E+002  0.3216861E+02  0.7546771E-02  0.1401642E+00
          2   -1    0    0  502    0  0.00000000000E+00  0.00000000000E+00  0.65460540533E+03  0.65460540533E+03  0.00000000000E+00 0. -1.
         -2   -1    0    0    0  501 -0.00000000000E+00 -0.00000000000E+00 -0.23042651471E+01  0.23042651471E+01  0.00000000000E+00 0.  1.
         21    1    1    2  502  503 -0.17886072258E+02 -0.26737759232E+02  0.51018940352E+03  0.51120254969E+03  0.00000000000E+00 0. -1.
         21    1    1    2  503  501  0.17886072258E+02  0.26737759232E+02  0.14211173667E+03  0.14570712079E+03  0.00000000000E+00 0.  1.
</event>
<event>
 4    1  0.5967370E+002  0.2323494E+02  0.7546771E-02  0.1489569E+00
          2   -1    0    0  502    0  0.00000000000E+00  0.00000000000E+00  0.19591649770E+04  0.19591649770E+04  0.00000000000E+00 0.  1.
         -2   -1    0    0    0  501 -0.00000000000E+00 -0.00000000000E+00 -0.28716281327E+00  0.28716281327E+00  0.00000000000E+00 0. -1.
         21    1    1    2  502  503 -0.12281155105E+02  0.19723987926E+02  0.11763953837E+04  0.11766248176E+04  0.00000000000E+00 0. -1.
         21    1    1    2  503  501  0.12281155105E+02 -0.19723987926E+02  0.78248243047E+03  0.78282732225E+03  0.00000000000E+00 0.  1.
</event>
<event>
 4    1  0.5967370E+002  0.2761160E+02  0.7546771E-02  0.1441559E+00
          2   -1    0    0  503    0  0.00000000000E+00  0.00000000000E+00  0.23528005788E+02  0.23528005788E+02  0.00000000000E+00 0.  1.
         -2   -1    0    0    0  501 -0.00000000000E+00 -0.00000000000E+00 -0.53607879896E+02  0.53607879896E+02  0.00000000000E+00 0. -1.
         21    1    1    2  502  501 -0.15969554117E+02 -0.22524955690E+02 -0.39296002416E+02  0.48026826810E+02  0.00000000000E+00 0. -1.
         21    1    1    2  503  502  0.15969554117E+02  0.22524955690E+02  0.92161283082E+01  0.29109058874E+02  0.00000000000E+00 0.  1.
</event>
<event>
 4    1  0.5967370E+002  0.2133940E+02  0.7546771E-02  0.1514474E+00
          2   -1    0    0  503    0  0.00000000000E+00  0.00000000000E+00  0.14573942225E+03  0.14573942225E+03  0.00000000000E+00 0.  1.
         -2   -1    0    0    0  501 -0.00000000000E+00 -0.00000000000E+00 -0.11669632975E+02  0.11669632975E+02  0.00000000000E+00 0. -1.
         21    1    1    2  502  501  0.60545398199E+00 -0.21330810305E+02 -0.31381389255E+00  0.21341708506E+02  0.00000000000E+00 0. -1.
         21    1    1    2  503  502 -0.60545398199E+00  0.21330810305E+02  0.13438360317E+03  0.13606734672E+03  0.00000000000E+00 0.  1.
</event>
<event>
 4    1  0.5967370E+002  0.2556316E+02  0.7546771E-02  0.1462601E+00
          2   -1    0    0  503    0  0.00000000000E+00  0.00000000000E+00  0.95231275300E+03  0.95231275300E+03  0.00000000000E+00 0. -1.
         -2   -1    0    0    0  501 -0.00000000000E+00 -0.00000000000E+00 -0.28111018306E+01  0.28111018306E+01  0.00000000000E+00 0.  1.
         21    1    1    2  502  501  0.25562275993E+02  0.21300109643E+00  0.59547308389E+02  0.64802447946E+02  0.00000000000E+00 0.  1.
         21    1    1    2  503  502 -0.25562275993E+02 -0.21300109643E+00  0.88995434278E+03  0.89032140688E+03  0.00000000000E+00 0. -1.
</event>
<event>
 4    1  0.5967370E+002  0.2222979E+02  0.7546771E-02  0.1502403E+00
          2   -1    0    0  502    0  0.00000000000E+00  0.00000000000E+00  0.57079397452E+03  0.57079397452E+03  0.00000000000E+00 0.  1.
         -2   -1    0    0    0  501 -0.00000000000E+00 -0.00000000000E+00 -0.35041313555E+01  0.35041313555E+01  0.00000000000E+00 0. -1.
         21    1    1    2  502  503 -0.77634071054E+01 -0.20830105503E+02  0.53280940817E+03  0.53327294064E+03  0.00000000000E+00 0.  1.
         21    1    1    2  503  501  0.77634071054E+01  0.20830105503E+02  0.34480434998E+02  0.41025165238E+02  0.00000000000E+00 0. -1.
</event>
<event>
 4    1  0.5967370E+002  0.2052345E+02  0.7546771E-02  0.1526179E+00
          2   -1    0    0  502    0  0.00000000000E+00  0.00000000000E+00  0.85188633738E+03  0.85188633738E+03  0.00000000000E+00 0. -1.
         -2   -1    0    0    0  501 -0.00000000000E+00 -0.00000000000E+00 -0.10106414619E+01  0.10106414619E+01  0.00000000000E+00 0.  1.
         21    1    1    2  502  503 -0.59531135189E+01  0.19641087364E+02  0.73020985536E+03  0.73049821680E+03  0.00000000000E+00 0. -1.
         21    1    1    2  503  501  0.59531135189E+01 -0.19641087364E+02  0.12066584056E+03  0.12239876205E+03  0.00000000000E+00 0.  1.
</event>
<event>
 4    1  0.5967370E+002  0.1372903E+03  0.7546771E-02  0.1111408E+00
          2   -1    0    0  502    0  0.00000000000E+00  0.00000000000E+00  0.11040591361E+04  0.11040591361E+04  0.00000000000E+00 0.  1.
         -2   -1    0    0    0  501 -0.00000000000E+00 -0.00000000000E+00 -0.36112635332E+02  0.36112635332E+02  0.00000000000E+00 0. -1.
         21    1    1    2  502  503  0.66838276979E+02  0.11992188435E+03  0.94792547097E+03  0.95781590722E+03  0.00000000000E+00 0.  1.
         21    1    1    2  503  501 -0.66838276979E+02 -0.11992188435E+03  0.12002102979E+03  0.18235586420E+03  0.00000000000E+00 0. -1.
</event>
<event>
 4    1  0.5967370E+002  0.4365058E+02  0.7546771E-02  0.1328326E+00
          2   -1    0    0  502    0  0.00000000000E+00  0.00000000000E+00  0.46766214655E+03  0.46766214655E+03  0.00000000000E+00 0.  1.
         -2   -1    0    0    0  501 -0.00000000000E+00 -0.00000000000E+00 -0.13109981455E+02  0.13109981455E+02  0.00000000000E+00 0. -1.
         21    1    1    2  502  503  0.18934084139E+02 -0.39330310205E+02  0.42684361511E+03  0.42906974329E+03  0.00000000000E+00 0.  1.
         21    1    1    2  503  501 -0.18934084139E+02  0.39330310205E+02  0.27708549976E+02  0.51702384711E+02  0.00000000000E+00 0. -1.
</event>
<event>
 4    1  0.5967370E+002  0.2075194E+02  0.7546771E-02  0.1522836E+00
          2   -1    0    0  502    0  0.00000000000E+00  0.00000000000E+00  0.30656265455E+03  0.30656265455E+03  0.00000000000E+00 0.  1.
         -2   -1    0    0    0  501 -0.00000000000E+00 -0.00000000000E+00 -0.14162720261E+01  0.14162720261E+01  0.00000000000E+00 0. -1.
         21    1    1    2  502  503 -0.92582476672E+01 -0.18572231147E+02  0.16646445245E+03  0.16775296376E+03  0.00000000000E+00 0. -1.
         21    1    1    2  503  501  0.92582476672E+01  0.18572231147E+02  0.13868193007E+03  0.14022596282E+03  0.00000000000E+00 0.  1.
</event>
<event>
 4    1  0.5967370E+002  0.2250404E+02  0.7546771E-02  0.1498822E+00
          2   -1    0    0  502    0  0.00000000000E+00  0.00000000000E+00  0.66085983620E+03  0.66085983620E+03  0.00000000000E+00 0. -1.
         -2   -1    0    0    0  501 -0.00000000000E+00 -0.00000000000E+00 -0.27346970600E+01  0.27346970600E+01  0.00000000000E+00 0.  1.
         21    1    1    2  502  503  0.10641261416E+02 -0.19829152645E+02  0.47566673548E+02  0.52621480135E+02  0.00000000000E+00 0.  1.
         21    1    1    2  503  501 -0.10641261416E+02  0.19829152645E+02  0.61055846559E+03  0.61097305312E+03  0.00000000000E+00 0. -1.
</event>
<event>
 4    1  0.5967370E+002  0.2583155E+02  0.7546771E-02  0.1459712E+00
          2   -1    0    0  503    0  0.00000000000E+00  0.00000000000E+00  0.60761704356E+02  0.60761704356E+02  0.00000000000E+00 0. -1.
         -2   -1    0    0    0  501 -0.00000000000E+00 -0.00000000000E+00 -0.14326869535E+02  0.14326869535E+02  0.00000000000E+00 0.  1.
         21    1    1    2  502  501 -0.25454646200E+02  0.43965759011E+01  0.50758399547E+01  0.26325520775E+02  0.00000000000E+00 0.  1.
         21    1    1    2  503  502  0.25454646200E+02 -0.43965759011E+01  0.41358994866E+02  0.48763053115E+02  0.00000000000E+00 0. -1.
</event>
<event>
 4    1  0.5967370E+002  0.2648617E+02  0.7546771E-02  0.1452839E+00
          2   -1    0    0  502    0  0.00000000000E+00  0.00000000000E+00  0.14830329271E+03  0.14830329271E+03  0.00000000000E+00 0.  1.
         -2   -1    0    0    0  501 -0.00000000000E+00 -0.00000000000E+00 -0.51327088282E+01  0.51327088282E+01  0.00000000000E+00 0. -1.
         21    1    1    2  502  503 -0.24267238896E+02 -0.10612171957E+02  0.93066808914E+02  0.96762327373E+02  0.00000000000E+00 0.  1.
         21    1    1    2  503  501  0.24267238896E+02  0.10612171957E+02  0.50103774968E+02  0.56673674165E+02  0.00000000000E+00 0. -1.
</event>
<event>
 4    1  0.5967370E+002  0.2346363E+02  0.7546771E-02  0.1486757E+00
          2   -1    0    0  503    0  0.00000000000E+00  0.00000000000E+00  0.10500277106E+04  0.10500277106E+04  0.00000000000E+00 0.  1.
         -2   -1    0    0    0  501 -0.00000000000E+00 -0.00000000000E+00 -0.62423841970E+00  0.62423841970E+00  0.00000000000E+00 0. -1.
         21    1    1    2  502  501  0.21738822702E+02 -0.88298105493E+01  0.31452041044E+03  0.31539440475E+03  0.00000000000E+00 0. -1.
         21    1    1    2  503  502 -0.21738822702E+02  0.88298105493E+01  0.73488306179E+03  0.73525754432E+03  0.00000000000E+00 0.  1.
</event>
<event>
 4    1  0.5967370E+002  0.3152062E+02  0.7546771E-02  0.1406827E+00
          2   -1    0    0  503    0  0.00000000000E+00  0.00000000000E+00  0.27173926364E+03  0.27173926364E+03  0.00000000000E+00 0. -1.
         -2   -1    0    0    0  501 -0.00000000000E+00 -0.00000000000E+00 -0.37177295889E+01  0.37177295889E+01  0.00000000000E+00 0.  1.
         21    1    1    2  502  501 -0.11728845855E+02 -0.29257200680E+02  0.11630102454E+03  0.12049679633E+03  0.00000000000E+00 0. -1.
         21    1    1    2  503  502  0.11728845855E+02  0.29257200680E+02  0.15172050951E+03  0.15496019690E+03  0.00000000000E+00 0.  1.
</event>
<event>
 4    1  0.5967370E+002  0.2737136E+02  0.7546771E-02  0.1443913E+00
          2   -1    0    0  502    0  0.00000000000E+00  0.00000000000E+00  0.12939766839E+04  0.12939766839E+04  0.00000000000E+00 0. -1.
         -2   -1    0    0    0  501 -0.00000000000E+00 -0.00000000000E+00 -0.66076223212E+00  0.66076223212E+00  0.00000000000E+00 0.  1.
         21    1    1    2  502  503  0.23493488199E+02  0.14044471509E+02  0.87438558311E+03  0.87481388828E+03  0.00000000000E+00 0. -1.
         21    1    1    2  503  501 -0.23493488199E+02 -0.14044471509E+02  0.41893033851E+03  0.41982355781E+03  0.00000000000E+00 0.  1.
</event>
<event>
 4    1  0.5967370E+002  0.2098812E+02  0.7546771E-02  0.1519435E+00
          2   -1    0    0  502    0  0.00000000000E+00  0.00000000000E+00  0.10464840893E+01  0.10464840893E+01  0.00000000000E+00 0.  1.
         -2   -1    0    0    0  501 -0.00000000000E+00 -0.00000000000E+00 -0.65652368622E+03  0.65652368622E+03  0.00000000000E+00 0. -1.
         21    1    1    2  502  503  0.57870419735E+01 -0.20174517367E+02 -0.13078460094E+03  0.13245796635E+03  0.00000000000E+00 0.  1.
         21    1    1    2  503  501 -0.57870419735E+01  0.20174517367E+02 -0.52469260119E+03  0.52511220396E+03  0.00000000000E+00 0. -1.
</event>
<event>
 4    1  0.5967370E+002  0.2912538E+02  0.7546771E-02  0.1427352E+00
          2   -1    0    0  503    0  0.00000000000E+00  0.00000000000E+00  0.11425537675E+03  0.11425537675E+03  0.00000000000E+00 0.  1.
         -2   -1    0    0    0  501 -0.00000000000E+00 -0.00000000000E+00 -0.17982452419E+02  0.17982452419E+02  0.00000000000E+00 0. -1.
         21    1    1    2  502  501  0.26835808399E+02  0.11319334329E+02 -0.25265846636E+01  0.29234766497E+02  0.00000000000E+00 0. -1.
         21    1    1    2  503  502 -0.26835808399E+02 -0.11319334329E+02  0.98799508999E+02  0.10300306268E+03  0.00000000000E+00 0.  1.
</event>
<event>
 4    1  0.5967370E+002  0.2226424E+02  0.7546771E-02  0.1501950E+00
          2   -1    0    0  502    0  0.00000000000E+00  0.00000000000E+00  0.19450168523E+03  0.19450168523E+03  0.00000000000E+00 0.  1.
         -2   -1    0    0    0  501 -0.00000000000E+00 -0.00000000000E+00 -0.33972987665E+01  0.33972987665E+01  0.00000000000E+00 0. -1.
         21    1    1    2  502  503 -0.41417962955E+01  0.21875600269E+02  0.14501029778E+03  0.14670951852E+03  0.00000000000E+00 0.  1.
         21    1    1    2  503  501  0.41417962955E+01 -0.21875600269E+02  0.46094088688E+02  0.51189465476E+02  0.00000000000E+00 0. -1.
</event>
<event>
 4    1  0.5967370E+002  0.2024468E+02  0.7546771E-02  0.1530328E+00
          2   -1    0    0  502    0  0.00000000000E+00  0.00000000000E+00  0.66879219200E+03  0.66879219200E+03  0.00000000000E+00 0.  1.
         -2   -1    0    0    0  501 -0.00000000000E+00 -0.00000000000E+00 -0.10757859357E+01  0.10757859357E+01  0.00000000000E+00 0. -1.
         21    1    1    2  502  503 -0.16466508083E+02 -0.11777150114E+02  0.55357955705E+03  0.55394961245E+03  0.00000000000E+00 0.  1.
         21    1    1    2  503  501  0.16466508083E+02  0.11777150114E+02  0.11413684902E+03  0.11591836549E+03  0.00000000000E+00 0. -1.
</event>
<event>
 4    1  0.5967370E+002  0.9234365E+02  0.7546771E-02  0.1177780E+00
          2   -1    0    0  503    0  0.00000000000E+00  0.00000000000E+00  0.11037008589E+04  0.11037008589E+04  0.00000000000E+00 0. -1.
         -2   -1    0    0    0  501 -0.00000000000E+00 -0.00000000000E+00 -0.79371999078E+01  0.79371999078E+01  0.00000000000E+00 0.  1.
         21    1    1    2  502  501 -0.58979417862E+02  0.71054754483E+02  0.45724592303E+03  0.46647742067E+03  0.00000000000E+00 0.  1.
         21    1    1    2  503  502  0.58979417862E+02 -0.71054754483E+02  0.63851773596E+03  0.64516063814E+03  0.00000000000E+00 0. -1.
</event>
<event>
 4    1  0.5967370E+002  0.2356972E+02  0.7546771E-02  0.1485465E+00
          2   -1    0    0  503    0  0.00000000000E+00  0.00000000000E+00  0.13202264328E+01  0.13202264328E+01  0.00000000000E+00 0.  1.
         -2   -1    0    0    0  501 -0.00000000000E+00 -0.00000000000E+00 -0.48771128643E+03  0.48771128643E+03  0.00000000000E+00 0. -1.
         21    1    1    2  502  501 -0.19197087991E+02  0.13674925867E+02 -0.15261746043E+03  0.15442674966E+03  0.00000000000E+00 0.  1.
         21    1    1    2  503  502  0.19197087991E+02 -0.13674925867E+02 -0.33377359957E+03  0.33460476320E+03  0.00000000000E+00 0. -1.
</event>
<event>
 4    1  0.5967370E+002  0.3791145E+02  0.7546771E-02  0.1361179E+00
          2   -1    0    0  502    0  0.00000000000E+00  0.00000000000E+00  0.24296670699E+02  0.24296670699E+02  0.00000000000E+00 0. -1.
         -2   -1    0    0    0  501 -0.00000000000E+00 -0.00000000000E+00 -0.59737391046E+02  0.59737391046E+02  0.00000000000E+00 0.  1.
         21    1    1    2  502  503 -0.21001916779E+02  0.31562602275E+02 -0.13572976119E+02  0.40267903490E+02  0.00000000000E+00 0. -1.
         21    1    1    2  503  501  0.21001916779E+02 -0.31562602275E+02 -0.21867744228E+02  0.43766158255E+02  0.00000000000E+00 0.  1.
</event>
<event>
 4    1  0.5967370E+002  0.2202247E+02  0.7546771E-02  0.1505152E+00
          2   -1    0    0  503    0  0.00000000000E+00  0.00000000000E+00  0.64086157562E+01  0.64086157562E+01  0.00000000000E+00 0.  1.
         -2   -1    0    0    0  501 -0.00000000000E+00 -0.00000000000E+00 -0.79762535924E+02  0.79762535924E+02  0.00000000000E+00 0. -1.
         21    1    1    2  502  501  0.20090168741E+02  0.90207798282E+01 -0.46427290526E+02  0.51385626923E+02  0.00000000000E+00 0. -1.
         21    1    1    2  503  502 -0.20090168741E+02 -0.90207798282E+01 -0.26926629642E+02  0.34785524757E+02  0.00000000000E+00 0.  1.
</event>
<event>
 4    1  0.5967370E+002  0.3981144E+02  0.7546771E-02  0.1349594E+00
          2   -1    0    0  503    0  0.00000000000E+00  0.00000000000E+00  0.10147279255E+04  0.10147279255E+04  0.00000000000E+00 0.  1.
         -2   -1    0    0    0  501 -0.00000000000E+00 -0.00000000000E+00 -0.15624227811E+01  0.15624227811E+01  0.00000000000E+00 0. -1.
         21    1    1    2  502  501 -0.39368650873E+02  0.59211677250E+01  0.51545319122E+03  0.51698833956E+03  0.00000000000E+00 0.  1.
         21    1    1    2  503  502  0.39368650873E+02 -0.59211677250E+01  0.49771231154E+03  0.49930200876E+03  0.00000000000E+00 0. -1.
</event>
<event>
 4    1  0.5967370E+002  0.2784683E+02  0.7546771E-02  0.1439282E+00
          2   -1    0    0  503    0  0.00000000000E+00  0.00000000000E+00  0.10661854140E+04  0.10661854140E+04  0.00000000000E+00 0. -1.
         -2   -1    0    0    0  501 -0.00000000000E+00 -0.00000000000E+00 -0.14039332822E+01  0.14039332822E+01  0.00000000000E+00 0.  1.
         21    1    1    2  502  501  0.22913177061E+02 -0.15825055193E+02  0.16181682282E+03  0.16419540250E+03  0.00000000000E+00 0.  1.
         21    1    1    2  503  502 -0.22913177061E+02  0.15825055193E+02  0.90296465793E+03  0.90339394481E+03  0.00000000000E+00 0. -1.
</event>
<event>
 4    1  0.5967370E+002  0.2328860E+02  0.7546771E-02  0.1488906E+00
          2   -1    0    0  502    0  0.00000000000E+00  0.00000000000E+00  0.32117858145E+01  0.32117858145E+01  0.00000000000E+00 0.  1.
         -2   -1    0    0    0  501 -0.00000000000E+00 -0.00000000000E+00 -0.21889632038E+03  0.21889632038E+03  0.00000000000E+00 0. -1.
         21    1    1    2  502  503  0.14236859174E+02 -0.18430153766E+02 -0.54749486974E+02  0.59496765046E+02  0.00000000000E+00 0.  1.
         21    1    1    2  503  501 -0.14236859174E+02  0.18430153766E+02 -0.16093504759E+03  0.16261134115E+03  0.00000000000E+00 0. -1.
</event>
<event>
 4    1  0.5967370E+002  0.2007360E+02  0.7546771E-02  0.1532914E+00
          2   -1    0    0  502    0  0.00000000000E+00  0.00000000000E+00  0.42212367104E+03  0.42212367104E+03  0.00000000000E+00 0. -1.
         -2   -1    0    0    0  501 -0.00000000000E+00 -0.00000000000E+00 -0.19795968884E+01  0.19795968884E+01  0.00000000000E+00 0.  1.
         21    1    1    2  502  503 -0.16671729884E+02 -0.11180471693E+02  0.36265969236E+03  0.36321481521E+03  0.00000000000E+00 0. -1.
         21    1    1    2  503  501  0.16671729884E+02  0.11180471693E+02  0.57484381790E+02  0.60888452718E+02  0.00000000000E+00 0.  1.
</event>
<event>
 4    1  0.5967370E+002  0.2332784E+02  0.7546771E-02  0.1488422E+00
          2   -1    0    0  503    0  0.00000000000E+00  0.00000000000E+00  0.77721995261E+01  0.77721995261E+01  0.00000000000E+00 0.  1.
         -2   -1    0    0    0  501 -0.00000000000E+00 -0.00000000000E+00 -0.74425802769E+02  0.74425802769E+02  0.00000000000E+00 0. -1.
         21    1    1    2  502  501 -0.23325110392E+02  0.35687754098E+00 -0.43329493632E+02  0.49210092002E+02  0.00000000000E+00 0. -1.
         21    1    1    2  503  502  0.23325110392E+02 -0.35687754098E+00 -0.23324109611E+02  0.32987910293E+02  0.00000000000E+00 0.  1.
</event>
<event>
 4    1  0.5967370E+002  0.2471367E+02  0.7546771E-02  0.1472032E+00
          2   -1    0    0  502    0  0.00000000000E+00  0.00000000000E+00  0.85414557747E+03  0.85414557747E+03  0.00000000000E+00 0. -1.
         -2   -1    0    0    0  501 -0.00000000000E+00 -0.00000000000E+00 -0.14195006455E+01  0.14195006455E+01  0.00000000000E+00 0.  1.
         21    1    1    2  502  503 -0.24183795638E+02 -0.50901182795E+01  0.72771740027E+03  0.72813692389E+03  0.00000000000E+00 0. -1.
         21    1    1    2  503  501  0.24183795638E+02  0.50901182795E+01  0.12500867655E+03  0.12742815423E+03  0.00000000000E+00 0.  1.
</event>
<event>
 4    1  0.5967370E+002  0.2464805E+02  0.7546771E-02  0.1472779E+00
          2   -1    0    0  503    0  0.00000000000E+00  0.00000000000E+00  0.53648724582E+01  0.53648724582E+01  0.00000000000E+00 0. -1.
         -2   -1    0    0    0  501 -0.00000000000E+00 -0.00000000000E+00 -0.13516163102E+03  0.13516163102E+03  0.00000000000E+00 0.  1.
         21    1    1    2  502  501 -0.51672152617E+01  0.24100334520E+02 -0.93194248831E+02  0.96398621633E+02  0.00000000000E+00 0.  1.
         21    1    1    2  503  502  0.51672152617E+01 -0.24100334520E+02 -0.36602509729E+02  0.44127881844E+02  0.00000000000E+00 0. -1.
</event>
<event>
 4    1  0.5967370E+002  0.3503166E+02  0.7546771E-02  0.1380341E+00
          2   -1    0    0  502    0  0.00000000000E+00  0.00000000000E+00  0.27746179533E+03  0.27746179533E+03  0.00000000000E+00 0. -1.
         -2   -1    0    0    0  501 -0.00000000000E+00 -0.00000000000E+00 -0.48150336595E+01  0.48150336595E+01  0.00000000000E+00 0.  1.
         21    1    1    2  502  503 -0.10666244564E+02  0.33368372141E+02  0.17659510638E+03  0.18003624255E+03  0.00000000000E+00 0. -1.
         21    1    1    2  503  501  0.10666244564E+02 -0.33368372141E+02  0.96051655293E+02  0.10224058645E+03  0.00000000000E+00 0.  1.
</event>
<event>
 4    1  0.5967370E+002  0.2147550E+02  0.7546771E-02  0.1512583E+00
          2   -1    0    0  503    0  0.00000000000E+00  0.00000000000E+00  0.11055303558E+02  0.11055303558E+02  0.00000000000E+00 0.  1.
         -2   -1    0    0    0  501 -0.00000000000E+00 -0.00000000000E+00 -0.17193517802E+03  0.17193517802E+03  0.00000000000E+00 0. -1.
         21    1    1    2  502  501  0.15586777241E+02 -0.14773265525E+02 -0.16006531446E+03  0.16149954146E+03  0.00000000000E+00 0. -1.
         21    1    1    2  503  502 -0.15586777241E+02  0.14773265525E+02 -0.81455999982E+00  0.21490940115E+02  0.00000000000E+00 0.  1.
</event>
<event>
 4    1  0.5967370E+002  0.3793818E+02  0.7546771E-02  0.1361011E+00
          2   -1    0    0  503    0  0.00000000000E+00  0.00000000000E+00  0.44484266591E+03  0.44484266591E+03  0.00000000000E+00 0. -1.
         -2   -1    0    0    0  501 -0.00000000000E+00 -0.00000000000E+00 -0.86882579821E+01  0.86882579821E+01  0.00000000000E+00 0.  1.
         21    1    1    2  502  501 -0.34736898451E+02 -0.15252991657E+02  0.38431388167E+02  0.54002569058E+02  0.00000000000E+00 0.  1.
         21    1    1    2  503  502  0.34736898451E+02  0.15252991657E+02  0.39772301977E+03  0.39952835484E+03  0.00000000000E+00 0. -1.
</event>
<event>
 4    1  0.5967370E+002  0.3359370E+02  0.7546771E-02  0.1390729E+00
          2   -1    0    0  502    0  0.00000000000E+00  0.00000000000E+00  0.17842808516E+02  0.17842808516E+02  0.00000000000E+00 0.  1.
         -2   -1    0    0    0  501 -0.00000000000E+00 -0.00000000000E+00 -0.67428520103E+02  0.67428520103E+02  0.00000000000E+00 0. -1.
         21    1    1    2  502  503  0.25450500607E+02  0.21927357910E+02 -0.14177793370E+02  0.36462951484E+02  0.00000000000E+00 0.  1.
         21    1    1    2  503  501 -0.25450500607E+02 -0.21927357910E+02 -0.35407918218E+02  0.48808377136E+02  0.00000000000E+00 0. -1.
</event>
<event>
 4    1  0.5967370E+002  0.2466083E+02  0.7546771E-02  0.1472634E+00
          2   -1    0    0  503    0  0.00000000000E+00  0.00000000000E+00  0.11723351098E+04  0.11723351098E+04  0.00000000000E+00 0. -1.
         -2   -1    0    0    0  501 -0.00000000000E+00 -0.00000000000E+00 -0.14335367902E+01  0.14335367902E+01  0.00000000000E+00 0.  1.
         21    1    1    2  502  501 -0.20924675810E+02 -0.13050450024E+02  0.11663036817E+03  0.11920905621E+03  0.00000000000E+00 0.  1.
         21    1    1    2  503  502  0.20924675810E+02  0.13050450024E+02  0.10542712048E+04  0.10545595904E+04  0.00000000000E+00 0. -1.
</event>
<event>
 4    1  0.5967370E+002  0.3275290E+02  0.7546771E-02  0.1397089E+00
          2   -1    0    0  503    0  0.00000000000E+00  0.00000000000E+00  0.30581560988E+02  0.30581560988E+02  0.00000000000E+00 0. -1.
         -2   -1    0    0    0  501 -0.00000000000E+00 -0.00000000000E+00 -0.35959814800E+02  0.35959814800E+02  0.00000000000E+00 0.  1.
         21    1    1    2  502  501  0.32629608532E+02  0.28392521274E+01 -0.78979473458E+01  0.33691694494E+02  0.00000000000E+00 0.  1.
         21    1    1    2  503  502 -0.32629608532E+02 -0.28392521274E+01  0.25196935337E+01  0.32849681294E+02  0.00000000000E+00 0. -1.
</event>
<event>
 4    1  0.5967370E+002  0.6804791E+02  0.7546771E-02  0.1234695E+00
          2   -1    0    0  502    0  0.00000000000E+00  0.00000000000E+00  0.52723646795E+03  0.52723646795E+03  0.00000000000E+00 0.  1.
         -2   -1    0    0    0  501 -0.00000000000E+00 -0.00000000000E+00 -0.13730569459E+02  0.13730569459E+02  0.00000000000E+00 0. -1.
         21    1    1    2  502  503 -0.49101510840E+02  0.47112203947E+02  0.41912419099E+03  0.42461230034E+03  0.00000000000E+00 0.  1.
         21    1    1    2  503  501  0.49101510840E+02 -0.47112203947E+02  0.94381707499E+02  0.11635473707E+03  0.00000000000E+00 0. -1.
</event>
<event>
 4    1  0.5967370E+002  0.2678397E+02  0.7546771E-02  0.1449790E+00
          2   -1    0    0  503    0  0.00000000000E+00  0.00000000000E+00  0.44216026621E+02  0.44216026621E+02  0.00000000000E+00 0.  1.
         -2   -1    0    0    0  501 -0.00000000000E+00 -0.00000000000E+00 -0.23836379638E+02  0.23836379638E+02  0.00000000000E+00 0. -1.
         21    1    1    2  502  501  0.26711324803E+02  0.19712958894E+01 -0.90384645039E+01  0.28267909735E+02  0.00000000000E+00 0. -1.
         21    1    1    2  503  502 -0.26711324803E+02 -0.19712958894E+01  0.29418111487E+02  0.39784496524E+02  0.00000000000E+00 0.  1.
</event>
<event>
 4    1  0.5967370E+002  0.2156394E+02  0.7546771E-02  0.1511363E+00
          2   -1    0    0  502    0  0.00000000000E+00  0.00000000000E+00  0.27249289610E+03  0.27249289610E+03  0.00000000000E+00 0. -1.
         -2   -1    0    0    0  501 -0.00000000000E+00 -0.00000000000E+00 -0.30125234234E+01  0.30125234234E+01  0.00000000000E+00 0.  1.
         21    1    1    2  502  503  0.19695204457E+02 -0.87808076034E+01  0.22544153671E+03  0.22647050611E+03  0.00000000000E+00 0. -1.
         21    1    1    2  503  501 -0.19695204457E+02  0.87808076034E+01  0.44038835966E+02  0.49034913419E+02  0.00000000000E+00 0.  1.
</event>
<event>
 4    1  0.5967370E+002  0.3441699E+02  0.7546771E-02  0.1384709E+00
          2   -1    0    0  503    0  0.00000000000E+00  0.00000000000E+00  0.23334316392E+04  0.23334316392E+04  0.00000000000E+00 0.  1.
         -2   -1    0    0    0  501 -0.00000000000E+00 -0.00000000000E+00 -0.14685147817E+02  0.14685147817E+02  0.00000000000E+00 0. -1.
         21    1    1    2  502  501  0.17249663359E+02  0.29782185968E+02  0.57856580304E+01  0.34899904382E+02  0.00000000000E+00 0. -1.
         21    1    1    2  503  502 -0.17249663359E+02 -0.29782185968E+02  0.23129608333E+04  0.23132168826E+04  0.00000000000E+00 0.  1.
</event>
<event>
 4    1  0.5967370E+002  0.2879914E+02  0.7546771E-02  0.1430327E+00
          2   -1    0    0  503    0  0.00000000000E+00  0.00000000000E+00  0.10504814633E+02  0.10504814633E+02  0.00000000000E+00 0. -1.
         -2   -1    0    0    0  501 -0.00000000000E+00 -0.00000000000E+00 -0.85677220028E+02  0.85677220028E+02  0.00000000000E+00 0.  1.
         21    1    1    2  502  501 -0.28460753360E+02  0.44017916671E+01 -0.24113922576E+02  0.37561569638E+02  0.00000000000E+00 0. -1.
         21    1    1    2  503  502  0.28460753360E+02 -0.44017916671E+01 -0.51058482820E+02  0.58620465023E+02  0.00000000000E+00 0.  1.
</event>
<event>
 4    1  0.5967370E+002  0.2135101E+02  0.7546771E-02  0.1514312E+00
          2   -1    0    0  503    0  0.00000000000E+00  0.00000000000E+00  0.64941339110E+03  0.64941339110E+03  0.00000000000E+00 0.  1.
         -2   -1    0    0    0  501 -0.00000000000E+00 -0.00000000000E+00 -0.71420103611E+00  0.71420103611E+00  0.00000000000E+00 0. -1.
         21    1    1    2  502  501  0.21252819162E+02  0.20453587220E+01  0.28180255501E+03  0.28261023659E+03  0.00000000000E+00 0.  1.
         21    1    1    2  503  502 -0.21252819162E+02 -0.20453587220E+01  0.36689663506E+03  0.36751735555E+03  0.00000000000E+00 0. -1.
</event>
<event>
 4    1  0.5967370E+002  0.2205589E+02  0.7546771E-02  0.1504706E+00
          2   -1    0    0  502    0  0.00000000000E+00  0.00000000000E+00  0.54618145657E+01  0.54618145657E+01  0.00000000000E+00 0. -1.
         -2   -1    0    0    0  501 -0.00000000000E+00 -0.00000000000E+00 -0.50867878194E+03  0.50867878194E+03  0.00000000000E+00 0.  1.
         21    1    1    2  502  503  0.15218947074E+02 -0.15963893307E+02 -0.18125938142E+02  0.28548412795E+02  0.00000000000E+00 0. -1.
         21    1    1    2  503  501 -0.15218947074E+02  0.15963893307E+02 -0.48509102924E+03  0.48559218372E+03  0.00000000000E+00 0.  1.
</event>
<event>
 4    1  0.5967370E+002  0.3995811E+02  0.7546771E-02  0.1348731E+00
          2   -1    0    0  502    0  0.00000000000E+00  0.00000000000E+00  0.27549590837E+01  0.27549590837E+01  0.00000000000E+00 0. -1.
         -2   -1    0    0    0  501 -0.00000000000E+00 -0.00000000000E+00 -0.58176837105E+03  0.58176837105E+03  0.00000000000E+00 0.  1.
         21    1    1    2  502  503  0.38450825237E+02 -0.10871266837E+02 -0.27147982352E+03  0.27440471020E+03  0.00000000000E+00 0. -1.
         21    1    1    2  503  501 -0.38450825237E+02  0.10871266837E+02 -0.30753358845E+03  0.31011861993E+03  0.00000000000E+00 0.  1.
</event>
<event>
 4    1  0.5967370E+002  0.3572736E+02  0.7546771E-02  0.1375521E+00
          2   -1    0    0  502    0  0.00000000000E+00  0.00000000000E+00  0.53276336752E+02  0.53276336752E+02  0.00000000000E+00 0.  1.
         -2   -1    0    0    0  501 -0.00000000000E+00 -0.00000000000E+00 -0.25581833940E+02  0.25581833940E+02  0.00000000000E+00 0. -1.
         21    1    1    2  502  503 -0.28876793098E+02 -0.21037467119E+02  0.23778339205E+02  0.42916822083E+02  0.00000000000E+00 0.  1.
         21    1    1    2  503  501  0.28876793098E+02  0.21037467119E+02  0.39161636067E+01  0.35941348609E+02  0.00000000000E+00 0. -1.
</event>
<event>
 4    1  0.5967370E+002  0.2864507E+02  0.7546771E-02  0.1431748E+00
          2   -1    0    0  503    0  0.00000000000E+00  0.00000000000E+00  0.15821890476E+04  0.15821890476E+04  0.00000000000E+00 0. -1.
         -2   -1    0    0    0  501 -0.00000000000E+00 -0.00000000000E+00 -0.66287650097E+01  0.66287650097E+01  0.00000000000E+00 0.  1.
         21    1    1    2  502  501 -0.26940618740E+02 -0.97335927207E+01  0.25079887370E+02  0.38072831728E+02  0.00000000000E+00 0.  1.
         21    1    1    2  503  502  0.26940618740E+02  0.97335927207E+01  0.15504803952E+04  0.15507449809E+04  0.00000000000E+00 0. -1.
</event>
<event>
 4    1  0.5967370E+002  0.2433016E+02  0.7546771E-02  0.1476438E+00
          2   -1    0    0  503    0  0.00000000000E+00  0.00000000000E+00  0.72381006272E+02  0.72381006272E+02  0.00000000000E+00 0.  1.
         -2   -1    0    0    0  501 -0.00000000000E+00 -0.00000000000E+00 -0.12068297153E+02  0.12068297153E+02  0.00000000000E+00 0. -1.
         21    1    1    2  502  501  0.10596604316E+02  0.21901336414E+02  0.54128970345E+02  0.59345614752E+02  0.00000000000E+00 0.  1.
         21    1    1    2  503  502 -0.10596604316E+02 -0.21901336414E+02  0.61837387741E+01  0.25103688672E+02  0.00000000000E+00 0. -1.
</event>
<event>
 4    1  0.5967370E+002  0.2158680E+02  0.7546771E-02  0.1511049E+00
          2   -1    0    0  503    0  0.00000000000E+00  0.00000000000E+00  0.11877628044E+03  0.11877628044E+03  0.00000000000E+00 0. -1.
         -2   -1    0    0    0  501 -0.00000000000E+00 -0.00000000000E+00 -0.16006460678E+02  0.16006460678E+02  0.00000000000E+00 0.  1.
         21    1    1    2  502  501  0.21270055839E+02  0.36843963663E+01 -0.71678882307E+01  0.22745739682E+02  0.00000000000E+00 0.  1.
         21    1    1    2  503  502 -0.21270055839E+02 -0.36843963663E+01  0.10993770799E+03  0.11203700143E+03  0.00000000000E+00 0. -1.
</event>
<event>
 4    1  0.5967370E+002  0.3336256E+02  0.7546771E-02  0.1392455E+00
          2   -1    0    0  502    0  0.00000000000E+00  0.00000000000E+00  0.69733381255E+02  0.69733381255E+02  0.00000000000E+00 0.  1.
         -2   -1    0    0    0  501 -0.00000000000E+00 -0.00000000000E+00 -0.17857931460E+02  0.17857931460E+02  0.00000000000E+00 0. -1.
         21    1    1    2  502  503 -0.32551851997E+02  0.73100974538E+01  0.40209092778E+02  0.52247791678E+02  0.00000000000E+00 0.  1.
         21    1    1    2  503  501  0.32551851997E+02 -0.73100974538E+01  0.11666357016E+02  0.35343521037E+02  0.00000000000E+00 0. -1.
</event>
<event>
 4    1  0.5967370E+002  0.2563273E+02  0.7546771E-02  0.1461848E+00
          2   -1    0    0  502    0  0.00000000000E+00  0.00000000000E+00  0.82051925564E+03  0.82051925564E+03  0.00000000000E+00 0.  1.
         -2   -1    0    0    0  501 -0.00000000000E+00 -0.00000000000E+00 -0.80685412531E+00  0.80685412531E+00  0.00000000000E+00 0. -1.
         21    1    1    2  502  503  0.38510289448E+00  0.25629832833E+02  0.44555441080E+03  0.44629112653E+03  0.00000000000E+00 0.  1.
         21    1    1    2  503  501 -0.38510289448E+00 -0.25629832833E+02  0.37415799071E+03  0.37503498323E+03  0.00000000000E+00 0. -1.
</event>
<event>
 4    1  0.5967370E+002  0.2226613E+02  0.7546771E-02  0.1501925E+00
          2   -1    0    0  503    0  0.00000000000E+00  0.00000000000E+00  0.11487541771E+04  0.11487541771E+04  0.00000000000E+00 0. -1.
         -2   -1    0    0    0  501 -0.00000000000E+00 -0.00000000000E+00 -0.61078344815E+00  0.61078344815E+00  0.00000000000E+00 0.  1.
         21    1    1    2  502  501  0.10492067308E+01 -0.22241395294E+02  0.26278807361E+03  0.26372969520E+03  0.00000000000E+00 0.  1.
         21    1    1    2  503  502 -0.10492067308E+01  0.22241395294E+02  0.88535532002E+03  0.88563526532E+03  0.00000000000E+00 0. -1.
</event>
<event>
 4    1  0.5967370E+002  0.2464260E+02  0.7546771E-02  0.1472842E+00
          2   -1    0    0  502    0  0.00000000000E+00  0.00000000000E+00  0.23477173697E+03  0.23477173697E+03  0.00000000000E+00 0. -1.
         -2   -1    0    0    0  501 -0.00000000000E+00 -0.00000000000E+00 -0.57213184564E+01  0.57213184564E+01  0.00000000000E+00 0.  1.
         21    1    1    2  502  503  0.15171545597E+02  0.19418593795E+02  0.20353230641E+03  0.20501867558E+03  0.00000000000E+00 0. -1.
         21    1    1    2  503  501 -0.15171545597E+02 -0.19418593795E+02  0.25518112105E+02  0.35474379856E+02  0.00000000000E+00 0.  1.
</event>
<event>
 4    1  0.5967370E+002  0.2388780E+02  0.7546771E-02  0.1481641E+00
          2   -1    0    0  502    0  0.00000000000E+00  0.00000000000E+00  0.87827280856E+03  0.87827280856E+03  0.00000000000E+00 0.  1.
         -2   -1    0    0    0  501 -0.00000000000E+00 -0.00000000000E+00 -0.72328111202E+00  0.72328111202E+00  0.00000000000E+00 0. -1.
         21    1    1    2  502  503  0.21814703439E+02  0.97337437449E+01  0.57894059848E+03  0.57943320894E+03  0.00000000000E+00 0. -1.
         21    1    1    2  503  501 -0.21814703439E+02 -0.97337437449E+01  0.29860892897E+03  0.29956288073E+03  0.00000000000E+00 0.  1.
</event>
<event>
 4    1  0.5967370E+002  0.2427066E+02  0.7546771E-02  0.1477130E+00
          2   -1    0    0  502    0  0.00000000000E+00  0.00000000000E+00  0.54405709399E+03  0.54405709399E+03  0.00000000000E+00 0. -1.
         -2   -1    0    0    0  501 -0.00000000000E+00 -0.00000000000E+00 -0.12604430242E+01  0.12604430242E+01  0.00000000000E+00 0.  1.
         21    1    1    2  502  503  0.20602813475E+02 -0.12829234047E+02  0.16901683237E+03  0.17075056308E+03  0.00000000000E+00 0.  1.
         21    1    1    2  503  501 -0.20602813475E+02  0.12829234047E+02  0.37377981860E+03  0.37456697394E+03  0.00000000000E+00 0. -1.
</event>
<event>
 4    1  0.5967370E+002  0.4176810E+02  0.7546771E-02  0.1338425E+00
          2   -1    0    0  503    0  0.00000000000E+00  0.00000000000E+00  0.64098633989E+03  0.64098633989E+03  0.00000000000E+00 0.  1.
         -2   -1    0    0    0  501 -0.00000000000E+00 -0.00000000000E+00 -0.84200785193E+01  0.84200785193E+01  0.00000000000E+00 0. -1.
         21    1    1    2  502  501 -0.10690317439E+02 -0.40376870282E+02  0.49164587595E+02  0.64511481258E+02  0.00000000000E+00 0. -1.
         21    1    1    2  503  502  0.10690317439E+02  0.40376870282E+02  0.58340167378E+03  0.58489493715E+03  0.00000000000E+00 0.  1.
</event>
<event>
 4    1  0.5967370E+002  0.2108090E+02  0.7546771E-02  0.1518113E+00
          2   -1    0    0  502    0  0.00000000000E+00  0.00000000000E+00  0.15552481135E+04  0.15552481135E+04  0.00000000000E+00 0. -1.
         -2   -1    0    0    0  501 -0.00000000000E+00 -0.00000000000E+00 -0.43524317720E+00  0.43524317720E+00  0.00000000000E+00 0.  1.
         21    1    1    2  502  503 -0.32772578427E+01  0.20824598513E+02  0.12332787510E+04  0.12334589098E+04  0.00000000000E+00 0. -1.
         21    1    1    2  503  501  0.32772578427E+01 -0.20824598513E+02  0.32153411928E+03  0.32222444691E+03  0.00000000000E+00 0.  1.
</event>
<event>
 4    1  0.5967370E+002  0.2115208E+02  0.7546771E-02  0.1517105E+00
          2   -1    0    0  503    0  0.00000000000E+00  0.00000000000E+00  0.11034729691E+03  0.11034729691E+03  0.00000000000E+00 0.  1.
         -2   -1    0    0    0  501 -0.00000000000E+00 -0.00000000000E+00 -0.21343743476E+02  0.21343743476E+02  0.00000000000E+00 0. -1.
         21    1    1    2  502  501  0.20336308645E+02  0.58176356958E+01 -0.14760469729E+02  0.25793057225E+02  0.00000000000E+00 0. -1.
         21    1    1    2  503  502 -0.20336308645E+02 -0.58176356958E+01  0.10376402317E+03  0.10589798316E+03  0.00000000000E+00 0.  1.
</event>
<event>
 4    1  0.5967370E+002  0.3226872E+02  0.7546771E-02  0.1400854E+00
          2   -1    0    0  502    0  0.00000000000E+00  0.00000000000E+00  0.10034250590E+02  0.10034250590E+02  0.00000000000E+00 0. -1.
         -2   -1    0    0    0  501 -0.00000000000E+00 -0.00000000000E+00 -0.75606744418E+03  0.75606744418E+03  0.00000000000E+00 0.  1.
         21    1    1    2  502  503 -0.59579885892E+01  0.31713914427E+02 -0.17222717830E+02  0.36577206096E+02  0.00000000000E+00 0. -1.
         21    1    1    2  503  501  0.59579885892E+01 -0.31713914427E+02 -0.72881047576E+03  0.72952448867E+03  0.00000000000E+00 0.  1.
</event>
<event>
 4    1  0.5967370E+002  0.2291844E+02  0.7546771E-02  0.1493525E+00
          2   -1    0    0  502    0  0.00000000000E+00  0.00000000000E+00  0.19053119636E+03  0.19053119636E+03  0.00000000000E+00 0.  1.
         -2   -1    0    0    0  501 -0.00000000000E+00 -0.00000000000E+00 -0.31885544944E+01  0.31885544944E+01  0.00000000000E+00 0. -1.
         21    1    1    2  502  503 -0.12007441384E+02 -0.19521175108E+02  0.12931391576E+03  0.13132914275E+03  0.00000000000E+00 0. -1.
         21    1    1    2  503  501  0.12007441384E+02  0.19521175108E+02  0.58028726104E+02  0.62390608103E+02  0.00000000000E+00 0.  1.
</event>
<event>
 4    1  0.5967370E+002  0.2177149E+02  0.7546771E-02  0.1508529E+00
          2   -1    0    0  502    0  0.00000000000E+00  0.00000000000E+00  0.92497184179E+03  0.92497184179E+03  0.00000000000E+00 0. -1.
         -2   -1    0    0    0  501 -0.00000000000E+00 -0.00000000000E+00 -0.10451736860E+01  0.10451736860E+01  0.00000000000E+00 0.  1.
         21    1    1    2  502  503  0.34269662258E+01  0.21500082954E+02  0.79252125813E+03  0.79282024586E+03  0.00000000000E+00 0. -1.
         21    1    1    2  503  501 -0.34269662258E+01 -0.21500082954E+02  0.13140540997E+03  0.13319676961E+03  0.00000000000E+00 0.  1.
</event>
<event>
 4    1  0.5967370E+002  0.2051234E+02  0.7546771E-02  0.1526342E+00
          2   -1    0    0  502    0  0.00000000000E+00  0.00000000000E+00  0.34996072528E+03  0.34996072528E+03  0.00000000000E+00 0.  1.
         -2   -1    0    0    0  501 -0.00000000000E+00 -0.00000000000E+00 -0.15360170935E+01  0.15360170935E+01  0.00000000000E+00 0. -1.
         21    1    1    2  502  503  0.15326574145E+02 -0.13632769514E+02  0.25613147823E+03  0.25695153321E+03  0.00000000000E+00 0.  1.
         21    1    1    2  503  501 -0.15326574145E+02  0.13632769514E+02  0.92293229962E+02  0.94545209167E+02  0.00000000000E+00 0. -1.
</event>
<event>
 4    1  0.5967370E+002  0.2045282E+02  0.7546771E-02  0.1527222E+00
          2   -1    0    0  502    0  0.00000000000E+00  0.00000000000E+00  0.11932557801E+02  0.11932557801E+02  0.00000000000E+00 0. -1.
         -2   -1    0    0    0  501 -0.00000000000E+00 -0.00000000000E+00 -0.53166370221E+02  0.53166370221E+02  0.00000000000E+00 0.  1.
         21    1    1    2  502  503 -0.11634807855E+02  0.16821085650E+02 -0.39613643723E+02  0.44582041735E+02  0.00000000000E+00 0.  1.
         21    1    1    2  503  501  0.11634807855E+02 -0.16821085650E+02 -0.16201686963E+01  0.20516886286E+02  0.00000000000E+00 0. -1.
</event>
<event>
 4    1  0.5967370E+002  0.4812812E+02  0.7546771E-02  0.1306499E+00
          2   -1    0    0  503    0  0.00000000000E+00  0.00000000000E+00  0.95813664704E+02  0.95813664704E+02  0.00000000000E+00 0. -1.
         -2   -1    0    0    0  501 -0.00000000000E+00 -0.00000000000E+00 -0.29883059210E+02  0.29883059210E+02  0.00000000000E+00 0.  1.
         21    1    1    2  502  501 -0.34556793122E+02  0.33498412251E+02  0.54978973305E+01  0.48441123534E+02  0.00000000000E+00 0.  1.
         21    1    1    2  503  502  0.34556793122E+02 -0.33498412251E+02  0.60432708163E+02  0.77255600380E+02  0.00000000000E+00 0. -1.
</event>
<event>
 4    1  0.5967370E+002  0.2252659E+02  0.7546771E-02  0.1498530E+00
          2   -1    0    0  503    0  0.00000000000E+00  0.00000000000E+00  0.14435993054E+02  0.14435993054E+02  0.00000000000E+00 0. -1.
         -2   -1    0    0    0  501 -0.00000000000E+00 -0.00000000000E+00 -0.47904438602E+02  0.47904438602E+02  0.00000000000E+00 0.  1.
         21    1    1    2  502  501 -0.21653371085E+02 -0.62111822436E+01 -0.32816832770E+02  0.39804419067E+02  0.00000000000E+00 0.  1.
         21    1    1    2  503  502  0.21653371085E+02  0.62111822436E+01 -0.65161277842E+00  0.22536012589E+02  0.00000000000E+00 0. -1.
</event>
<event>
 4    1  0.5967370E+002  0.2690985E+02  0.7546771E-02  0.1448516E+00
          2   -1    0    0  503    0  0.00000000000E+00  0.00000000000E+00  0.14069562287E+04  0.14069562287E+04  0.00000000000E+00 0. -1.
         -2   -1    0    0    0  501 -0.00000000000E+00 -0.00000000000E+00 -0.53495230145E+00  0.53495230145E+00  0.00000000000E+00 0.  1.
         21    1    1    2  502  501 -0.21936029608E+02 -0.15586877211E+02  0.84018822101E+03  0.84061904978E+03  0.00000000000E+00 0. -1.
         21    1    1    2  503  502  0.21936029608E+02  0.15586877211E+02  0.56623305541E+03  0.56687213124E+03  0.00000000000E+00 0.  1.
</event>
<event>
 4    1  0.5967370E+002  0.3131049E+02  0.7546771E-02  0.1408540E+00
          2   -1    0    0  503    0  0.00000000000E+00  0.00000000000E+00  0.13598653052E+01  0.13598653052E+01  0.00000000000E+00 0.  1.
         -2   -1    0    0    0  501 -0.00000000000E+00 -0.00000000000E+00 -0.11967215543E+04  0.11967215543E+04  0.00000000000E+00 0. -1.
         21    1    1    2  502  501 -0.26841012362E+02  0.16121629538E+02 -0.97540532229E+03  0.97590772598E+03  0.00000000000E+00 0. -1.
         21    1    1    2  503  502  0.26841012362E+02 -0.16121629538E+02 -0.21995636675E+03  0.22217369367E+03  0.00000000000E+00 0.  1.
</event>
<event>
 4    1  0.5967370E+002  0.2040740E+02  0.7546771E-02  0.1527896E+00
          2   -1    0    0  502    0  0.00000000000E+00  0.00000000000E+00  0.75258890440E+02  0.75258890440E+02  0.00000000000E+00 0.  1.
         -2   -1    0    0    0  501 -0.00000000000E+00 -0.00000000000E+00 -0.18151131576E+03  0.18151131576E+03  0.00000000000E+00 0. -1.
         21    1    1    2  502  503  0.10425193223E+02  0.17543585848E+02  0.73286707769E+02  0.76074986650E+02  0.00000000000E+00 0.  1.
         21    1    1    2  503  501 -0.10425193223E+02 -0.17543585848E+02 -0.17953913308E+03  0.18069521955E+03  0.00000000000E+00 0. -1.
</event>
<event>
 4    1  0.5967370E+002  0.2154051E+02  0.7546771E-02  0.1511686E+00
          2   -1    0    0  502    0  0.00000000000E+00  0.00000000000E+00  0.16641992782E+02  0.16641992782E+02  0.00000000000E+00 0.  1.
         -2   -1    0    0    0  501 -0.00000000000E+00 -0.00000000000E+00 -0.35786068711E+02  0.35786068711E+02  0.00000000000E+00 0. -1.
         21    1    1    2  502  503 -0.10356846599E+02 -0.18887279814E+02  0.27485827657E+01  0.21715163308E+02  0.00000000000E+00 0.  1.
         21    1    1    2  503  501  0.10356846599E+02  0.18887279814E+02 -0.21892658694E+02  0.30712898185E+02  0.00000000000E+00 0. -1.
</event>
<event>
 4    1  0.5967370E+002  0.2217676E+02  0.7546771E-02  0.1503103E+00
          2   -1    0    0  503    0  0.00000000000E+00  0.00000000000E+00  0.49664609126E+02  0.49664609126E+02  0.00000000000E+00 0.  1.
         -2   -1    0    0    0  501 -0.00000000000E+00 -0.00000000000E+00 -0.11649745640E+02  0.11649745640E+02  0.00000000000E+00 0. -1.
         21    1    1    2  502  501  0.19890405157E+02  0.98071745204E+01  0.71350412759E+01  0.23296302355E+02  0.00000000000E+00 0.  1.
         21    1    1    2  503  502 -0.19890405157E+02 -0.98071745204E+01  0.30879822211E+02  0.38018052411E+02  0.00000000000E+00 0. -1.
</event>
<event>
 4    1  0.5967370E+002  0.2299167E+02  0.7546771E-02  0.1492603E+00
          2   -1    0    0  502    0  0.00000000000E+00  0.00000000000E+00  0.12689004013E+03  0.12689004013E+03  0.00000000000E+00 0.  1.
         -2   -1    0    0    0  501 -0.00000000000E+00 -0.00000000000E+00 -0.44253943038E+01  0.44253943038E+01  0.00000000000E+00 0. -1.
         21    1    1    2  502  503  0.21381265142E+02 -0.84533030190E+01  0.77130110451E+02  0.80483978339E+02  0.00000000000E+00 0. -1.
         21    1    1    2  503  501 -0.21381265142E+02  0.84533030190E+01  0.45334535371E+02  0.50831456091E+02  0.00000000000E+00 0.  1.
</event>
<event>
 4    1  0.5967370E+002  0.2354770E+02  0.7546771E-02  0.1485733E+00
          2   -1    0    0  503    0  0.00000000000E+00  0.00000000000E+00  0.80310030245E+03  0.80310030245E+03  0.00000000000E+00 0. -1.
         -2   -1    0    0    0  501 -0.00000000000E+00 -0.00000000000E+00 -0.81015684037E+00  0.81015684037E+00  0.00000000000E+00 0.  1.
         21    1    1    2  502  501  0.23546618850E+02 -0.22608197256E+00  0.24663148016E+03  0.24775306532E+03  0.00000000000E+00 0.  1.
         21    1    1    2  503  502 -0.23546618850E+02  0.22608197256E+00  0.55565866545E+03  0.55615739396E+03  0.00000000000E+00 0. -1.
</event>
<event>
 4    1  0.5967370E+002  0.2709093E+02  0.7546771E-02  0.1446697E+00
          2   -1    0    0  502    0  0.00000000000E+00  0.00000000000E+00  0.98266900752E+03  0.98266900752E+03  0.00000000000E+00 0.  1.
         -2   -1    0    0    0  501 -0.00000000000E+00 -0.00000000000E+00 -0.11511827636E+01  0.11511827636E+01  0.00000000000E+00 0. -1.
         21    1    1    2  502  503 -0.26168702218E+02 -0.70084052527E+01  0.78228424651E+03  0.78275319294E+03  0.00000000000E+00 0.  1.
         21    1    1    2  503  501  0.26168702218E+02  0.70084052527E+01  0.19923357825E+03  0.20106699734E+03  0.00000000000E+00 0. -1.
</event>
<event>
 4    1  0.5967370E+002  0.3465772E+02  0.7546771E-02  0.1382986E+00
          2   -1    0    0  502    0  0.00000000000E+00  0.00000000000E+00  0.14357766191E+04  0.14357766191E+04  0.00000000000E+00 0.  1.
         -2   -1    0    0    0  501 -0.00000000000E+00 -0.00000000000E+00 -0.86450425649E+00  0.86450425649E+00  0.00000000000E+00 0. -1.
         21    1    1    2  502  503 -0.52481987919E+00  0.34653750838E+02  0.84653028064E+03  0.84723944309E+03  0.00000000000E+00 0.  1.
         21    1    1    2  503  501  0.52481987919E+00 -0.34653750838E+02  0.58838183424E+03  0.58940168030E+03  0.00000000000E+00 0. -1.
</event>
<event>
 4    1  0.5967370E+002  0.2040268E+02  0.7546771E-02  0.1527966E+00
          2   -1    0    0  503    0  0.00000000000E+00  0.00000000000E+00  0.63452444313E+03  0.63452444313E+03  0.00000000000E+00 0. -1.
         -2   -1    0    0    0  501 -0.00000000000E+00 -0.00000000000E+00 -0.15803544912E+01  0.15803544912E+01  0.00000000000E+00 0.  1.
         21    1    1    2  502  501 -0.18522531030E+02  0.85548413178E+01  0.73233295216E+02  0.76022266435E+02  0.00000000000E+00 0.  1.
         21    1    1    2  503  502  0.18522531030E+02 -0.85548413178E+01  0.55971079342E+03  0.56008253118E+03  0.00000000000E+00 0. -1.
</event>
<event>
 4    1  0.5967370E+002  0.2394940E+02  0.7546771E-02  0.1480909E+00
          2   -1    0    0  503    0  0.00000000000E+00  0.00000000000E+00  0.11063342499E+04  0.11063342499E+04  0.00000000000E+00 0.  1.
         -2   -1    0    0    0  501 -0.00000000000E+00 -0.00000000000E+00 -0.74271713507E+00  0.74271713507E+00  0.00000000000E+00 0. -1.
         21    1    1    2  502  501 -0.11446576887E+02  0.21036868489E+02  0.24862090367E+03  0.24977175121E+03  0.00000000000E+00 0. -1.
         21    1    1    2  503  502  0.11446576887E+02 -0.21036868489E+02  0.85697062909E+03  0.85730521583E+03  0.00000000000E+00 0.  1.
</event>
<event>
 4    1  0.5967370E+002  0.2451440E+02  0.7546771E-02  0.1474310E+00
          2   -1    0    0  502    0  0.00000000000E+00  0.00000000000E+00  0.11352239245E+03  0.11352239245E+03  0.00000000000E+00 0. -1.
         -2   -1    0    0    0  501 -0.00000000000E+00 -0.00000000000E+00 -0.13153310993E+02  0.13153310993E+02  0.00000000000E+00 0.  1.
         21    1    1    2  502  503  0.89400339354E+01 -0.22826120297E+02  0.99145025071E+02  0.10213075918E+03  0.00000000000E+00 0. -1.
         21    1    1    2  503  501 -0.89400339354E+01  0.22826120297E+02  0.12240563816E+01  0.24544944258E+02  0.00000000000E+00 0.  1.
</event>
<event>
 4    1  0.5967370E+002  0.4460915E+02  0.7546771E-02  0.1323405E+00
          2   -1    0    0  503    0  0.00000000000E+00  0.00000000000E+00  0.49805938726E+02  0.49805938726E+02  0.00000000000E+00 0. -1.
         -2   -1    0    0    0  501 -0.00000000000E+00 -0.00000000000E+00 -0.92692768451E+02  0.92692768451E+02  0.00000000000E+00 0.  1.
         21    1    1    2  502  501 -0.32753583135E+02 -0.30284967492E+02 -0.75186242742E+02  0.87423953021E+02  0.00000000000E+00 0.  1.
         21    1    1    2  503  502  0.32753583135E+02  0.30284967492E+02  0.32299413017E+02  0.55074754157E+02  0.00000000000E+00 0. -1.
</event>
<event>
 4    1  0.5967370E+002  0.7415198E+02  0.7546771E-02  0.1218116E+00
          2   -1    0    0  502    0  0.00000000000E+00  0.00000000000E+00  0.37750076316E+02  0.37750076316E+02  0.00000000000E+00 0.  1.
         -2   -1    0    0    0  501 -0.00000000000E+00 -0.00000000000E+00 -0.15904544282E+03  0.15904544282E+03  0.00000000000E+00 0. -1.
         21    1    1    2  502  503 -0.76958954911E+01 -0.73751538007E+02 -0.32097447898E+02  0.80800756973E+02  0.00000000000E+00 0.  1.
         21    1    1    2  503  501  0.76958954911E+01  0.73751538007E+02 -0.89197918608E+02  0.11599476217E+03  0.00000000000E+00 0. -1.
</event>
<event>
 4    1  0.5967370E+002  0.2413950E+02  0.7546771E-02  0.1478664E+00
          2   -1    0    0  503    0  0.00000000000E+00  0.00000000000E+00  0.28442463468E+02  0.28442463468E+02  0.00000000000E+00 0.  1.
         -2   -1    0    0    0  501 -0.00000000000E+00 -0.00000000000E+00 -0.34331846893E+02  0.34331846893E+02  0.00000000000E+00 0. -1.
         21    1    1    2  502  501 -0.58026629894E+01 -0.23431702265E+02 -0.22876159285E+02  0.33257092964E+02  0.00000000000E+00 0. -1.
         21    1    1    2  503  502  0.58026629894E+01  0.23431702265E+02  0.16986775860E+02  0.29517217398E+02  0.00000000000E+00 0.  1.
</event>
<event>
 4    1  0.5967370E+002  0.2071562E+02  0.7546771E-02  0.1523364E+00
          2   -1    0    0  503    0  0.00000000000E+00  0.00000000000E+00  0.57702842983E+00  0.57702842983E+00  0.00000000000E+00 0. -1.
         -2   -1    0    0    0  501 -0.00000000000E+00 -0.00000000000E+00 -0.95332861927E+03  0.95332861927E+03  0.00000000000E+00 0.  1.
         21    1    1    2  502  501 -0.57318613491E+00 -0.20707691722E+02 -0.70003027895E+03  0.70033672507E+03  0.00000000000E+00 0. -1.
         21    1    1    2  503  502  0.57318613491E+00  0.20707691722E+02 -0.25272131189E+03  0.25356892263E+03  0.00000000000E+00 0.  1.
</event>
<event>
 4    1  0.5967370E+002  0.3883319E+02  0.7546771E-02  0.1355462E+00
          2   -1    0    0  503    0  0.00000000000E+00  0.00000000000E+00  0.17310121336E+03  0.17310121336E+03  0.00000000000E+00 0.  1.
         -2   -1    0    0    0  501 -0.00000000000E+00 -0.00000000000E+00 -0.18582107163E+02  0.18582107163E+02  0.00000000000E+00 0. -1.
         21    1    1    2  502  501 -0.35893123898E+02  0.14822298698E+02  0.74084966388E+01  0.39533564275E+02  0.00000000000E+00 0. -1.
         21    1    1    2  503  502  0.35893123898E+02 -0.14822298698E+02  0.14711060956E+03  0.15214975625E+03  0.00000000000E+00 0.  1.
</event>
<event>
 4    1  0.5967370E+002  0.4432996E+02  0.7546771E-02  0.1324824E+00
          2   -1    0    0  503    0  0.00000000000E+00  0.00000000000E+00  0.41421678724E+03  0.41421678724E+03  0.00000000000E+00 0.  1.
         -2   -1    0    0    0  501 -0.00000000000E+00 -0.00000000000E+00 -0.60466561967E+01  0.60466561967E+01  0.00000000000E+00 0. -1.
         21    1    1    2  502  501 -0.36815820580E+02  0.24692923405E+02  0.10656177019E+03  0.11541471300E+03  0.00000000000E+00 0. -1.
         21    1    1    2  503  502  0.36815820580E+02 -0.24692923405E+02  0.30160836085E+03  0.30484873043E+03  0.00000000000E+00 0.  1.
</event>
<event>
 4    1  0.5967370E+002  0.2295836E+02  0.7546771E-02  0.1493022E+00
          2   -1    0    0  502    0  0.00000000000E+00  0.00000000000E+00  0.28629549830E+03  0.28629549830E+03  0.00000000000E+00 0.  1.
         -2   -1    0    0    0  501 -0.00000000000E+00 -0.00000000000E+00 -0.44164497377E+01  0.44164497377E+01  0.00000000000E+00 0. -1.
         21    1    1    2  502  503  0.45565193244E+01  0.22501650673E+02  0.25193825838E+03  0.25298215784E+03  0.00000000000E+00 0.  1.
         21    1    1    2  503  501 -0.45565193244E+01 -0.22501650673E+02  0.29940790178E+02  0.37729790191E+02  0.00000000000E+00 0. -1.
</event>
<event>
 4    1  0.5967370E+002  0.3693446E+02  0.7546771E-02  0.1367451E+00
          2   -1    0    0  503    0  0.00000000000E+00  0.00000000000E+00  0.23756140921E+03  0.23756140921E+03  0.00000000000E+00 0. -1.
         -2   -1    0    0    0  501 -0.00000000000E+00 -0.00000000000E+00 -0.85781644334E+01  0.85781644334E+01  0.00000000000E+00 0.  1.
         21    1    1    2  502  501 -0.25197419087E+02  0.27004523039E+02  0.43730406749E+02  0.57240743074E+02  0.00000000000E+00 0.  1.
         21    1    1    2  503  502  0.25197419087E+02 -0.27004523039E+02  0.18525283803E+03  0.18889883057E+03  0.00000000000E+00 0. -1.
</event>
<event>
 4    1  0.5967370E+002  0.2167246E+02  0.7546771E-02  0.1509877E+00
          2   -1    0    0  502    0  0.00000000000E+00  0.00000000000E+00  0.43827950610E+03  0.43827950610E+03  0.00000000000E+00 0. -1.
         -2   -1    0    0    0  501 -0.00000000000E+00 -0.00000000000E+00 -0.19083955485E+01  0.19083955485E+01  0.00000000000E+00 0.  1.
         21    1    1    2  502  503 -0.20480681415E+02  0.70878336806E+01  0.72450966017E+02  0.75623000300E+02  0.00000000000E+00 0.  1.
         21    1    1    2  503  501  0.20480681415E+02 -0.70878336806E+01  0.36392014453E+03  0.36456490134E+03  0.00000000000E+00 0. -1.
</event>
<event>
 4    1  0.5967370E+002  0.3106646E+02  0.7546771E-02  0.1410550E+00
          2   -1    0    0  503    0  0.00000000000E+00  0.00000000000E+00  0.17763264480E+04  0.17763264480E+04  0.00000000000E+00 0.  1.
         -2   -1    0    0    0  501 -0.00000000000E+00 -0.00000000000E+00 -0.21847566241E+01  0.21847566241E+01  0.00000000000E+00 0. -1.
         21    1    1    2  502  501 -0.25422642959E+02 -0.17855372033E+02  0.11628046133E+03  0.12035892478E+03  0.00000000000E+00 0. -1.
         21    1    1    2  503  502  0.25422642959E+02  0.17855372033E+02  0.16578612300E+04  0.16581522798E+04  0.00000000000E+00 0.  1.
</event>
<event>
 4    1  0.5967370E+002  0.4037002E+02  0.7546771E-02  0.1346331E+00
          2   -1    0    0  503    0  0.00000000000E+00  0.00000000000E+00  0.20213223465E+02  0.20213223465E+02  0.00000000000E+00 0. -1.
         -2   -1    0    0    0  501 -0.00000000000E+00 -0.00000000000E+00 -0.95150407531E+02  0.95150407531E+02  0.00000000000E+00 0.  1.
         21    1    1    2  502  501  0.34868843758E+02 -0.20344587572E+02 -0.14933324253E+02  0.43043497555E+02  0.00000000000E+00 0. -1.
         21    1    1    2  503  502 -0.34868843758E+02  0.20344587572E+02 -0.60003859813E+02  0.72320133441E+02  0.00000000000E+00 0.  1.
</event>
<event>
 4    1  0.5967370E+002  0.2206435E+02  0.7546771E-02  0.1504594E+00
          2   -1    0    0  502    0  0.00000000000E+00  0.00000000000E+00  0.83910947736E+03  0.83910947736E+03  0.00000000000E+00 0. -1.
         -2   -1    0    0    0  501 -0.00000000000E+00 -0.00000000000E+00 -0.59067122205E+00  0.59067122205E+00  0.00000000000E+00 0.  1.
         21    1    1    2  502  503  0.14510040042E+02 -0.16622107017E+02  0.47521010987E+03  0.47572206615E+03  0.00000000000E+00 0.  1.
         21    1    1    2  503  501 -0.14510040042E+02  0.16622107017E+02  0.36330869628E+03  0.36397808244E+03  0.00000000000E+00 0. -1.
</event>
<event>
 4    1  0.5967370E+002  0.2175717E+02  0.7546771E-02  0.1508723E+00
          2   -1    0    0  503    0  0.00000000000E+00  0.00000000000E+00  0.58101105539E+03  0.58101105539E+03  0.00000000000E+00 0. -1.
         -2   -1    0    0    0  501 -0.00000000000E+00 -0.00000000000E+00 -0.85070790127E+00  0.85070790127E+00  0.00000000000E+00 0.  1.
         21    1    1    2  502  501 -0.19062872346E+02 -0.10487206493E+02  0.34989928309E+03  0.35057507457E+03  0.00000000000E+00 0. -1.
         21    1    1    2  503  502  0.19062872346E+02  0.10487206493E+02  0.23026106440E+03  0.23128668872E+03  0.00000000000E+00 0.  1.
</event>
<event>
 4    1  0.5967370E+002  0.4374274E+02  0.7546771E-02  0.1327847E+00
          2   -1    0    0  502    0  0.00000000000E+00  0.00000000000E+00  0.52399906746E+03  0.52399906746E+03  0.00000000000E+00 0. -1.
         -2   -1    0    0    0  501 -0.00000000000E+00 -0.00000000000E+00 -0.42689075828E+01  0.42689075828E+01  0.00000000000E+00 0.  1.
         21    1    1    2  502  503  0.41049154464E+02 -0.15112708772E+02  0.36030862943E+03  0.36295417822E+03  0.00000000000E+00 0.  1.
         21    1    1    2  503  501 -0.41049154464E+02  0.15112708772E+02  0.15942153046E+03  0.16531379683E+03  0.00000000000E+00 0. -1.
</event>
<event>
 4    1  0.5967370E+002  0.2821785E+02  0.7546771E-02  0.1435744E+00
          2   -1    0    0  503    0  0.00000000000E+00  0.00000000000E+00  0.36758194130E+01  0.36758194130E+01  0.00000000000E+00 0. -1.
         -2   -1    0    0    0  501 -0.00000000000E+00 -0.00000000000E+00 -0.23149673049E+03  0.23149673049E+03  0.00000000000E+00 0.  1.
         21    1    1    2  502  501 -0.18940955051E+02 -0.20916192904E+02 -0.14372128578E+03  0.14646520027E+03  0.00000000000E+00 0.  1.
         21    1    1    2  503  502  0.18940955051E+02  0.20916192904E+02 -0.84099625294E+02  0.88707349630E+02  0.00000000000E+00 0. -1.
</event>
<event>
 4    1  0.5967370E+002  0.2511957E+02  0.7546771E-02  0.1467470E+00
          2   -1    0    0  502    0  0.00000000000E+00  0.00000000000E+00  0.29772267349E+03  0.29772267349E+03  0.00000000000E+00 0.  1.
         -2   -1    0    0    0  501 -0.00000000000E+00 -0.00000000000E+00 -0.12252539004E+02  0.12252539004E+02  0.00000000000E+00 0. -1.
         21    1    1    2  502  503  0.24236480773E+02 -0.66019665727E+01  0.28368210664E+03  0.28479208309E+03  0.00000000000E+00 0.  1.
         21    1    1    2  503  501 -0.24236480773E+02  0.66019665727E+01  0.17880278438E+01  0.25183129401E+02  0.00000000000E+00 0. -1.
</event>
<event>
 4    1  0.5967370E+002  0.2114101E+02  0.7546771E-02  0.1517261E+00
          2   -1    0    0  502    0  0.00000000000E+00  0.00000000000E+00  0.84589453348E+03  0.84589453348E+03  0.00000000000E+00 0.  1.
         -2   -1    0    0    0  501 -0.00000000000E+00 -0.00000000000E+00 -0.14706353294E+01  0.14706353294E+01  0.00000000000E+00 0. -1.
         21    1    1    2  502  503  0.21020045810E+02  0.22583262412E+01  0.76134921883E+03  0.76164268221E+03  0.00000000000E+00 0.  1.
         21    1    1    2  503  501 -0.21020045810E+02 -0.22583262412E+01  0.83074679330E+02  0.85722486601E+02  0.00000000000E+00 0. -1.
</event>
<event>
 4    1  0.5967370E+002  0.2342985E+02  0.7546771E-02  0.1487170E+00
          2   -1    0    0  503    0  0.00000000000E+00  0.00000000000E+00  0.32232020259E+03  0.32232020259E+03  0.00000000000E+00 0. -1.
         -2   -1    0    0    0  501 -0.00000000000E+00 -0.00000000000E+00 -0.33069133661E+01  0.33069133661E+01  0.00000000000E+00 0.  1.
         21    1    1    2  502  501 -0.20210007658E+02  0.11853827784E+02  0.46123069341E+02  0.51732921511E+02  0.00000000000E+00 0.  1.
         21    1    1    2  503  502  0.20210007658E+02 -0.11853827784E+02  0.27289021988E+03  0.27389419444E+03  0.00000000000E+00 0. -1.
</event>
<event>
 4    1  0.5967370E+002  0.2676264E+02  0.7546771E-02  0.1450007E+00
          2   -1    0    0  502    0  0.00000000000E+00  0.00000000000E+00  0.59996391907E+03  0.59996391907E+03  0.00000000000E+00 0. -1.
         -2   -1    0    0    0  501 -0.00000000000E+00 -0.00000000000E+00 -0.50586200908E+01  0.50586200908E+01  0.00000000000E+00 0.  1.
         21    1    1    2  502  503  0.25242272173E+02  0.88919373385E+01  0.56187002270E+03  0.56250703219E+03  0.00000000000E+00 0. -1.
         21    1    1    2  503  501 -0.25242272173E+02 -0.88919373385E+01  0.33035276274E+02  0.42515506966E+02  0.00000000000E+00 0.  1.
</event>
<event>
 4    1  0.5967370E+002  0.2712921E+02  0.7546771E-02  0.1446314E+00
          2   -1    0    0  502    0  0.00000000000E+00  0.00000000000E+00  0.11039097063E+04  0.11039097063E+04  0.00000000000E+00 0.  1.
         -2   -1    0    0    0  501 -0.00000000000E+00 -0.00000000000E+00 -0.68392060428E+00  0.68392060428E+00  0.00000000000E+00 0. -1.
         21    1    1    2  502  503  0.25730414896E+02  0.85988250076E+01  0.46401481626E+03  0.46480721138E+03  0.00000000000E+00 0.  1.
         21    1    1    2  503  501 -0.25730414896E+02 -0.85988250076E+01  0.63921096947E+03  0.63978641556E+03  0.00000000000E+00 0. -1.
</event>
<event>
 4    1  0.5967370E+002  0.3226954E+02  0.7546771E-02  0.1400847E+00
          2   -1    0    0  502    0  0.00000000000E+00  0.00000000000E+00  0.86765868875E+03  0.86765868875E+03  0.00000000000E+00 0. -1.
         -2   -1    0    0    0  501 -0.00000000000E+00 -0.00000000000E+00 -0.23113128642E+03  0.23113128642E+03  0.00000000000E+00 0.  1.
         21    1    1    2  502  503 -0.32265413017E+02  0.51632929087E+00  0.86623046066E+03  0.86683131833E+03  0.00000000000E+00 0. -1.
         21    1    1    2  503  501  0.32265413017E+02 -0.51632929087E+00 -0.22970305834E+03  0.23195865684E+03  0.00000000000E+00 0.  1.
</event>
<event>
 4    1  0.5967370E+002  0.3108636E+02  0.7546771E-02  0.1410385E+00
          2   -1    0    0  502    0  0.00000000000E+00  0.00000000000E+00  0.39443362551E+01  0.39443362551E+01  0.00000000000E+00 0. -1.
         -2   -1    0    0    0  501 -0.00000000000E+00 -0.00000000000E+00 -0.37169768609E+03  0.37169768609E+03  0.00000000000E+00 0.  1.
         21    1    1    2  502  503  0.38595542942E+01 -0.30845834140E+02 -0.74220293971E+02  0.80467469702E+02  0.00000000000E+00 0. -1.
         21    1    1    2  503  501 -0.38595542942E+01  0.30845834140E+02 -0.29353305587E+03  0.29517455264E+03  0.00000000000E+00 0.  1.
</event>
<event>
 4    1  0.5967370E+002  0.2209435E+02  0.7546771E-02  0.1504195E+00
          2   -1    0    0  502    0  0.00000000000E+00  0.00000000000E+00  0.16008000887E+02  0.16008000887E+02  0.00000000000E+00 0. -1.
         -2   -1    0    0    0  501 -0.00000000000E+00 -0.00000000000E+00 -0.40825360848E+02  0.40825360848E+02  0.00000000000E+00 0.  1.
         21    1    1    2  502  503 -0.19258188105E+02  0.10829701859E+02  0.18858863822E+01  0.22174688699E+02  0.00000000000E+00 0. -1.
         21    1    1    2  503  501  0.19258188105E+02 -0.10829701859E+02 -0.26703246343E+02  0.34658673037E+02  0.00000000000E+00 0.  1.
</event>
<event>
 4    1  0.5967370E+002  0.2717528E+02  0.7546771E-02  0.1445855E+00
          2   -1    0    0  502    0  0.00000000000E+00  0.00000000000E+00  0.19866252350E+03  0.19866252350E+03  0.00000000000E+00 0.  1.
         -2   -1    0    0    0  501 -0.00000000000E+00 -0.00000000000E+00 -0.41858805972E+01  0.41858805972E+01  0.00000000000E+00 0. -1.
         21    1    1    2  502  503  0.15221439449E+02  0.22512303686E+02  0.13117130522E+03  0.13395673685E+03  0.00000000000E+00 0. -1.
         21    1    1    2  503  501 -0.15221439449E+02 -0.22512303686E+02  0.63305337691E+02  0.68891667249E+02  0.00000000000E+00 0.  1.
</event>
<event>
 4    1  0.5967370E+002  0.3541353E+02  0.7546771E-02  0.1377679E+00
          2   -1    0    0  502    0  0.00000000000E+00  0.00000000000E+00  0.77305845352E+03  0.77305845352E+03  0.00000000000E+00 0.  1.
         -2   -1    0    0    0  501 -0.00000000000E+00 -0.00000000000E+00 -0.17554824060E+01  0.17554824060E+01  0.00000000000E+00 0. -1.
         21    1    1    2  502  503 -0.49725330682E+01  0.35062686668E+02  0.49236600335E+03  0.49363792332E+03  0.00000000000E+00 0.  1.
         21    1    1    2  503  501  0.49725330682E+01 -0.35062686668E+02  0.27893696776E+03  0.28117601261E+03  0.00000000000E+00 0. -1.
</event>
<event>
 4    1  0.5967370E+002  0.2711298E+02  0.7546771E-02  0.1446477E+00
          2   -1    0    0  503    0  0.00000000000E+00  0.00000000000E+00  0.17250149263E+03  0.17250149263E+03  0.00000000000E+00 0.  1.
         -2   -1    0    0    0  501 -0.00000000000E+00 -0.00000000000E+00 -0.82999746841E+01  0.82999746841E+01  0.00000000000E+00 0. -1.
         21    1    1    2  502  501  0.12561973407E+02  0.24027284925E+02  0.19042391140E+02  0.33131952208E+02  0.00000000000E+00 0. -1.
         21    1    1    2  503  502 -0.12561973407E+02 -0.24027284925E+02  0.14515912681E+03  0.14766951511E+03  0.00000000000E+00 0.  1.
</event>
<event>
 4    1  0.5967370E+002  0.2480214E+02  0.7546771E-02  0.1471029E+00
          2   -1    0    0  502    0  0.00000000000E+00  0.00000000000E+00  0.32512801904E+03  0.32512801904E+03  0.00000000000E+00 0.  1.
         -2   -1    0    0    0  501 -0.00000000000E+00 -0.00000000000E+00 -0.20727412410E+01  0.20727412410E+01  0.00000000000E+00 0. -1.
         21    1    1    2  502  503  0.13214335721E+02  0.20988749610E+02  0.20983634063E+03  0.21129703294E+03  0.00000000000E+00 0.  1.
         21    1    1    2  503  501 -0.13214335721E+02 -0.20988749610E+02  0.11321893717E+03  0.11590372735E+03  0.00000000000E+00 0. -1.
</event>
<event>
 4    1  0.5967370E+002  0.2779589E+02  0.7546771E-02  0.1439773E+00
          2   -1    0    0  502    0  0.00000000000E+00  0.00000000000E+00  0.41247401981E+03  0.41247401981E+03  0.00000000000E+00 0.  1.
         -2   -1    0    0    0  501 -0.00000000000E+00 -0.00000000000E+00 -0.33780379012E+01  0.33780379012E+01  0.00000000000E+00 0. -1.
         21    1    1    2  502  503 -0.19870803923E+02 -0.19436111336E+02  0.34333017766E+03  0.34445351234E+03  0.00000000000E+00 0. -1.
         21    1    1    2  503  501  0.19870803923E+02  0.19436111336E+02  0.65765804249E+02  0.71398545369E+02  0.00000000000E+00 0.  1.
</event>
<event>
 4    1  0.5967370E+002  0.2028549E+02  0.7546771E-02  0.1529715E+00
          2   -1    0    0  503    0  0.00000000000E+00  0.00000000000E+00  0.52754768149E+03  0.52754768149E+03  0.00000000000E+00 0. -1.
         -2   -1    0    0    0  501 -0.00000000000E+00 -0.00000000000E+00 -0.20432300083E+01  0.20432300083E+01  0.00000000000E+00 0.  1.
         21    1    1    2  502  501 -0.12457453116E+02 -0.16009774072E+02  0.54548443444E+02  0.58198227517E+02  0.00000000000E+00 0.  1.
         21    1    1    2  503  502  0.12457453116E+02  0.16009774072E+02  0.47095600803E+03  0.47139268398E+03  0.00000000000E+00 0. -1.
</event>
<event>
 4    1  0.5967370E+002  0.2589352E+02  0.7546771E-02  0.1459051E+00
          2   -1    0    0  503    0  0.00000000000E+00  0.00000000000E+00  0.13400680849E+01  0.13400680849E+01  0.00000000000E+00 0.  1.
         -2   -1    0    0    0  501 -0.00000000000E+00 -0.00000000000E+00 -0.63924086169E+03  0.63924086169E+03  0.00000000000E+00 0. -1.
         21    1    1    2  502  501  0.23787893387E+02 -0.10227933515E+02 -0.46825799595E+03  0.46897337373E+03  0.00000000000E+00 0. -1.
         21    1    1    2  503  502 -0.23787893387E+02  0.10227933515E+02 -0.16964279765E+03  0.17160755604E+03  0.00000000000E+00 0.  1.
</event>
<event>
 4    1  0.5967370E+002  0.2107752E+02  0.7546771E-02  0.1518161E+00
          2   -1    0    0  502    0  0.00000000000E+00  0.00000000000E+00  0.87298064052E+03  0.87298064052E+03  0.00000000000E+00 0. -1.
         -2   -1    0    0    0  501 -0.00000000000E+00 -0.00000000000E+00 -0.67523650938E+00  0.67523650938E+00  0.00000000000E+00 0.  1.
         21    1    1    2  502  503  0.16929573066E+02  0.12555939331E+02  0.65295952114E+03  0.65329962368E+03  0.00000000000E+00 0. -1.
         21    1    1    2  503  501 -0.16929573066E+02 -0.12555939331E+02  0.21934588288E+03  0.22035625335E+03  0.00000000000E+00 0.  1.
</event>
<event>
 4    1  0.5967370E+002  0.3439641E+02  0.7546771E-02  0.1384857E+00
          2   -1    0    0  502    0  0.00000000000E+00  0.00000000000E+00  0.34827413053E+03  0.34827413053E+03  0.00000000000E+00 0.  1.
         -2   -1    0    0    0  501 -0.00000000000E+00 -0.00000000000E+00 -0.14495754738E+02  0.14495754738E+02  0.00000000000E+00 0. -1.
         21    1    1    2  502  503 -0.22922070322E+02  0.25645501907E+02  0.32560364598E+03  0.32741540488E+03  0.00000000000E+00 0.  1.
         21    1    1    2  503  501  0.22922070322E+02 -0.25645501907E+02  0.81747298066E+01  0.35354480385E+02  0.00000000000E+00 0. -1.
</event>
<event>
 4    1  0.5967370E+002  0.2074837E+02  0.7546771E-02  0.1522888E+00
          2   -1    0    0  503    0  0.00000000000E+00  0.00000000000E+00  0.14882764291E+02  0.14882764291E+02  0.00000000000E+00 0.  1.
         -2   -1    0    0    0  501 -0.00000000000E+00 -0.00000000000E+00 -0.65302309991E+02  0.65302309991E+02  0.00000000000E+00 0. -1.
         21    1    1    2  502  501  0.20726224874E+02 -0.95846878492E+00 -0.55133115474E+02  0.58908025615E+02  0.00000000000E+00 0.  1.
         21    1    1    2  503  502 -0.20726224874E+02  0.95846878492E+00  0.47135697747E+01  0.21277048667E+02  0.00000000000E+00 0. -1.
</event>
<event>
 4    1  0.5967370E+002  0.1222643E+03  0.7546771E-02  0.1130001E+00
          2   -1    0    0  503    0  0.00000000000E+00  0.00000000000E+00  0.89442874516E+03  0.89442874516E+03  0.00000000000E+00 0.  1.
         -2   -1    0    0    0  501 -0.00000000000E+00 -0.00000000000E+00 -0.19193528109E+02  0.19193528109E+02  0.00000000000E+00 0. -1.
         21    1    1    2  502  501  0.11447990172E+03  0.42929072186E+02  0.60184089072E+03  0.61413435898E+03  0.00000000000E+00 0.  1.
         21    1    1    2  503  502 -0.11447990172E+03 -0.42929072186E+02  0.27339432633E+03  0.29948791429E+03  0.00000000000E+00 0. -1.
</event>
<event>
 4    1  0.5967370E+002  0.2860111E+02  0.7546771E-02  0.1432155E+00
          2   -1    0    0  502    0  0.00000000000E+00  0.00000000000E+00  0.41296093473E+03  0.41296093473E+03  0.00000000000E+00 0.  1.
         -2   -1    0    0    0  501 -0.00000000000E+00 -0.00000000000E+00 -0.24148485974E+01  0.24148485974E+01  0.00000000000E+00 0. -1.
         21    1    1    2  502  503  0.10485671064E+02 -0.26609661648E+02  0.11722927801E+03  0.12066783753E+03  0.00000000000E+00 0. -1.
         21    1    1    2  503  501 -0.10485671064E+02  0.26609661648E+02  0.29331680812E+03  0.29470794580E+03  0.00000000000E+00 0.  1.
</event>
<event>
 4    1  0.5967370E+002  0.2493218E+02  0.7546771E-02  0.1469564E+00
          2   -1    0    0  503    0  0.00000000000E+00  0.00000000000E+00  0.53725775975E+02  0.53725775975E+02  0.00000000000E+00 0. -1.
         -2   -1    0    0    0  501 -0.00000000000E+00 -0.00000000000E+00 -0.14272460328E+02  0.14272460328E+02  0.00000000000E+00 0.  1.
         21    1    1    2  502  501 -0.24168898690E+02  0.61219199283E+01  0.49325625006E+01  0.25415423276E+02  0.00000000000E+00 0.  1.
         21    1    1    2  503  502  0.24168898690E+02 -0.61219199283E+01  0.34520753146E+02  0.42582813027E+02  0.00000000000E+00 0. -1.
</event>
<event>
 4    1  0.5967370E+002  0.3460798E+02  0.7546771E-02  0.1383340E+00
          2   -1    0    0  503    0  0.00000000000E+00  0.00000000000E+00  0.11154298738E+02  0.11154298738E+02  0.00000000000E+00 0. -1.
         -2   -1    0    0    0  501 -0.00000000000E+00 -0.00000000000E+00 -0.18789963693E+03  0.18789963693E+03  0.00000000000E+00 0.  1.
         21    1    1    2  502  501  0.34463980325E+02 -0.31537889258E+01 -0.15352612799E+03  0.15737847470E+03  0.00000000000E+00 0.  1.
         21    1    1    2  503  502 -0.34463980325E+02  0.31537889258E+01 -0.23219210207E+02  0.41675460970E+02  0.00000000000E+00 0. -1.
</event>
<event>
 4    1  0.5967370E+002  0.3678390E+02  0.7546771E-02  0.1368438E+00
          2   -1    0    0  503    0  0.00000000000E+00  0.00000000000E+00  0.45431291132E+03  0.45431291132E+03  0.00000000000E+00 0. -1.
         -2   -1    0    0    0  501 -0.00000000000E+00 -0.00000000000E+00 -0.11484677538E+02  0.11484677538E+02  0.00000000000E+00 0.  1.
         21    1    1    2  502  501 -0.14546091374E+02  0.33785600065E+02  0.42185280277E+03  0.42345347177E+03  0.00000000000E+00 0. -1.
         21    1    1    2  503  502  0.14546091374E+02 -0.33785600065E+02  0.20975431009E+02  0.42344117089E+02  0.00000000000E+00 0.  1.
</event>
<event>
 4    1  0.5967370E+002  0.2895333E+02  0.7546771E-02  0.1428915E+00
          2   -1    0    0  502    0  0.00000000000E+00  0.00000000000E+00  0.52520246641E+03  0.52520246641E+03  0.00000000000E+00 0. -1.
         -2   -1    0    0    0  501 -0.00000000000E+00 -0.00000000000E+00 -0.22139272027E+01  0.22139272027E+01  0.00000000000E+00 0.  1.
         21    1    1    2  502  503 -0.20339899157E+02  0.20605437973E+02  0.40079780746E+03  0.40184223028E+03  0.00000000000E+00 0. -1.
         21    1    1    2  503  501  0.20339899157E+02 -0.20605437973E+02  0.12219073175E+03  0.12557416334E+03  0.00000000000E+00 0.  1.
</event>
<event>
 4    1  0.5967370E+002  0.2148998E+02  0.7546771E-02  0.1512383E+00
          2   -1    0    0  502    0  0.00000000000E+00  0.00000000000E+00  0.11958943848E+03  0.11958943848E+03  0.00000000000E+00 0. -1.
         -2   -1    0    0    0  501 -0.00000000000E+00 -0.00000000000E+00 -0.40842592917E+01  0.40842592917E+01  0.00000000000E+00 0.  1.
         21    1    1    2  502  503  0.10581523720E+02 -0.18704298681E+02  0.43317940538E+02  0.48355593325E+02  0.00000000000E+00 0. -1.
         21    1    1    2  503  501 -0.10581523720E+02  0.18704298681E+02  0.72187238648E+02  0.75318104444E+02  0.00000000000E+00 0.  1.
</event>
<event>
 4    1  0.5967370E+002  0.2022378E+02  0.7546771E-02  0.1530642E+00
          2   -1    0    0  503    0  0.00000000000E+00  0.00000000000E+00  0.70001851158E+01  0.70001851158E+01  0.00000000000E+00 0.  1.
         -2   -1    0    0    0  501 -0.00000000000E+00 -0.00000000000E+00 -0.65689054800E+02  0.65689054800E+02  0.00000000000E+00 0. -1.
         21    1    1    2  502  501  0.25084727244E+00  0.20222222536E+02 -0.41428621824E+02  0.46101322268E+02  0.00000000000E+00 0. -1.
         21    1    1    2  503  502 -0.25084727244E+00 -0.20222222536E+02 -0.17260247861E+02  0.26587917648E+02  0.00000000000E+00 0.  1.
</event>
<event>
 4    1  0.5967370E+002  0.2916886E+02  0.7546771E-02  0.1426959E+00
          2   -1    0    0  502    0  0.00000000000E+00  0.00000000000E+00  0.20544259412E+03  0.20544259412E+03  0.00000000000E+00 0. -1.
         -2   -1    0    0    0  501 -0.00000000000E+00 -0.00000000000E+00 -0.68500392677E+01  0.68500392677E+01  0.00000000000E+00 0.  1.
         21    1    1    2  502  503 -0.72522811216E+00 -0.29159844587E+02  0.16604346863E+03  0.16858604915E+03  0.00000000000E+00 0. -1.
         21    1    1    2  503  501  0.72522811216E+00  0.29159844587E+02  0.32549086223E+02  0.43706584242E+02  0.00000000000E+00 0.  1.
</event>
<event>
 4    1  0.5967370E+002  0.2282501E+02  0.7546771E-02  0.1494707E+00
          2   -1    0    0  503    0  0.00000000000E+00  0.00000000000E+00  0.32085211786E+03  0.32085211786E+03  0.00000000000E+00 0. -1.
         -2   -1    0    0    0  501 -0.00000000000E+00 -0.00000000000E+00 -0.28187503951E+01  0.28187503951E+01  0.00000000000E+00 0.  1.
         21    1    1    2  502  501 -0.13026986147E+02 -0.18742429901E+02  0.26439003502E+03  0.26537345697E+03  0.00000000000E+00 0. -1.
         21    1    1    2  503  502  0.13026986147E+02  0.18742429901E+02  0.53643332445E+02  0.58297411285E+02  0.00000000000E+00 0.  1.
</event>
<event>
 4    1  0.5967370E+002  0.6208008E+02  0.7546771E-02  0.1252924E+00
          2   -1    0    0  502    0  0.00000000000E+00  0.00000000000E+00  0.11452089135E+03  0.11452089135E+03  0.00000000000E+00 0.  1.
         -2   -1    0    0    0  501 -0.00000000000E+00 -0.00000000000E+00 -0.12143862479E+03  0.12143862479E+03  0.00000000000E+00 0. -1.
         21    1    1    2  502  503  0.59758988952E+02 -0.16816643958E+02  0.96850513102E+02  0.11503894194E+03  0.00000000000E+00 0.  1.
         21    1    1    2  503  501 -0.59758988952E+02  0.16816643958E+02 -0.10376824654E+03  0.12092057420E+03  0.00000000000E+00 0. -1.
</event>
<event>
 4    1  0.5967370E+002  0.2136370E+02  0.7546771E-02  0.1514135E+00
          2   -1    0    0  502    0  0.00000000000E+00  0.00000000000E+00  0.23983364700E+03  0.23983364700E+03  0.00000000000E+00 0.  1.
         -2   -1    0    0    0  501 -0.00000000000E+00 -0.00000000000E+00 -0.26956512553E+01  0.26956512553E+01  0.00000000000E+00 0. -1.
         21    1    1    2  502  503 -0.87008214211E+01 -0.19511627172E+02  0.18432544583E+03  0.18555936481E+03  0.00000000000E+00 0.  1.
         21    1    1    2  503  501  0.87008214211E+01  0.19511627172E+02  0.52812549916E+02  0.56969933447E+02  0.00000000000E+00 0. -1.
</event>
<event>
 4    1  0.5967370E+002  0.3074433E+02  0.7546771E-02  0.1413236E+00
          2   -1    0    0  502    0  0.00000000000E+00  0.00000000000E+00  0.10163408681E+04  0.10163408681E+04  0.00000000000E+00 0. -1.
         -2   -1    0    0    0  501 -0.00000000000E+00 -0.00000000000E+00 -0.24290542805E+01  0.24290542805E+01  0.00000000000E+00 0.  1.
         21    1    1    2  502  503 -0.27784489370E+02 -0.13161906571E+02  0.90711603989E+03  0.90763688965E+03  0.00000000000E+00 0. -1.
         21    1    1    2  503  501  0.27784489370E+02  0.13161906571E+02  0.10679577395E+03  0.11113303275E+03  0.00000000000E+00 0.  1.
</event>
<event>
 4    1  0.5967370E+002  0.2655114E+02  0.7546771E-02  0.1452170E+00
          2   -1    0    0  503    0  0.00000000000E+00  0.00000000000E+00  0.23186959965E+02  0.23186959965E+02  0.00000000000E+00 0.  1.
         -2   -1    0    0    0  501 -0.00000000000E+00 -0.00000000000E+00 -0.54423776804E+02  0.54423776804E+02  0.00000000000E+00 0. -1.
         21    1    1    2  502  501 -0.13600539301E+02  0.22803247949E+02 -0.41398665079E+02  0.49181421865E+02  0.00000000000E+00 0. -1.
         21    1    1    2  503  502  0.13600539301E+02 -0.22803247949E+02  0.10161848240E+02  0.28429314905E+02  0.00000000000E+00 0.  1.
</event>
<event>
 4    1  0.5967370E+002  0.3028338E+02  0.7546771E-02  0.1417149E+00
          2   -1    0    0  503    0  0.00000000000E+00  0.00000000000E+00  0.29074598091E+03  0.29074598091E+03  0.00000000000E+00 0.  1.
         -2   -1    0    0    0  501 -0.00000000000E+00 -0.00000000000E+00 -0.16357005552E+02  0.16357005552E+02  0.00000000000E+00 0. -1.
         21    1    1    2  502  501 -0.57584369637E+01  0.29730851479E+02 -0.75959880388E+00  0.30292905379E+02  0.00000000000E+00 0. -1.
         21    1    1    2  503  502  0.57584369637E+01 -0.29730851479E+02  0.27514857417E+03  0.27681008109E+03  0.00000000000E+00 0.  1.
</event>
<event>
 4    1  0.5967370E+002  0.2653991E+02  0.7546771E-02  0.1452285E+00
          2   -1    0    0  502    0  0.00000000000E+00  0.00000000000E+00  0.36854690764E+03  0.36854690764E+03  0.00000000000E+00 0. -1.
         -2   -1    0    0    0  501 -0.00000000000E+00 -0.00000000000E+00 -0.26888249351E+01  0.26888249351E+01  0.00000000000E+00 0.  1.
         21    1    1    2  502  503  0.19698795212E+02  0.17785514655E+02  0.28275039138E+03  0.28399322331E+03  0.00000000000E+00 0. -1.
         21    1    1    2  503  501 -0.19698795212E+02 -0.17785514655E+02  0.83107691327E+02  0.87242509261E+02  0.00000000000E+00 0.  1.
</event>
<event>
 4    1  0.5967370E+002  0.2238500E+02  0.7546771E-02  0.1500369E+00
          2   -1    0    0  503    0  0.00000000000E+00  0.00000000000E+00  0.23672647638E+04  0.23672647638E+04  0.00000000000E+00 0. -1.
         -2   -1    0    0    0  501 -0.00000000000E+00 -0.00000000000E+00 -0.21184132053E+00  0.21184132053E+00  0.00000000000E+00 0.  1.
         21    1    1    2  502  501  0.18228993319E+02 -0.12991997344E+02  0.11502498080E+04  0.11504676045E+04  0.00000000000E+00 0. -1.
         21    1    1    2  503  502 -0.18228993319E+02  0.12991997344E+02  0.12168031144E+04  0.12170090006E+04  0.00000000000E+00 0.  1.
</event>
<event>
 4    1  0.5967370E+002  0.2296553E+02  0.7546771E-02  0.1492931E+00
          2   -1    0    0  503    0  0.00000000000E+00  0.00000000000E+00  0.30816679175E+03  0.30816679175E+03  0.00000000000E+00 0.  1.
         -2   -1    0    0    0  501 -0.00000000000E+00 -0.00000000000E+00 -0.79022474727E+01  0.79022474727E+01  0.00000000000E+00 0. -1.
         21    1    1    2  502  501  0.42616695529E+01 -0.22566646574E+02  0.10254222189E+02  0.25150833737E+02  0.00000000000E+00 0. -1.
         21    1    1    2  503  502 -0.42616695529E+01  0.22566646574E+02  0.29001032209E+03  0.29091820549E+03  0.00000000000E+00 0.  1.
</event>
<event>
 4    1  0.5967370E+002  0.2524552E+02  0.7546771E-02  0.1466075E+00
          2   -1    0    0  503    0  0.00000000000E+00  0.00000000000E+00  0.66569465525E+03  0.66569465525E+03  0.00000000000E+00 0.  1.
         -2   -1    0    0    0  501 -0.00000000000E+00 -0.00000000000E+00 -0.13943892362E+01  0.13943892362E+01  0.00000000000E+00 0. -1.
         21    1    1    2  502  501  0.18802336486E+02  0.16846612624E+02  0.14542745874E+03  0.14760244567E+03  0.00000000000E+00 0. -1.
         21    1    1    2  503  502 -0.18802336486E+02 -0.16846612624E+02  0.51887280728E+03  0.51948659882E+03  0.00000000000E+00 0.  1.
</event>
<event>
 4    1  0.5967370E+002  0.2420856E+02  0.7546771E-02  0.1477855E+00
          2   -1    0    0  502    0  0.00000000000E+00  0.00000000000E+00  0.96830364134E+02  0.96830364134E+02  0.00000000000E+00 0.  1.
         -2   -1    0    0    0  501 -0.00000000000E+00 -0.00000000000E+00 -0.67466762525E+01  0.67466762525E+01  0.00000000000E+00 0. -1.
         21    1    1    2  502  503  0.53023031161E+01  0.23620752353E+02  0.61655313057E+02  0.66237693107E+02  0.00000000000E+00 0.  1.
         21    1    1    2  503  501 -0.53023031161E+01 -0.23620752353E+02  0.28428374825E+02  0.37339347280E+02  0.00000000000E+00 0. -1.
</event>
<event>
 4    1  0.5967370E+002  0.2322227E+02  0.7546771E-02  0.1489726E+00
          2   -1    0    0  503    0  0.00000000000E+00  0.00000000000E+00  0.33571027678E+02  0.33571027678E+02  0.00000000000E+00 0. -1.
         -2   -1    0    0    0  501 -0.00000000000E+00 -0.00000000000E+00 -0.70122260099E+02  0.70122260099E+02  0.00000000000E+00 0.  1.
         21    1    1    2  502  501 -0.22064906659E+02 -0.72397291230E+01 -0.63798007653E+02  0.67893000848E+02  0.00000000000E+00 0.  1.
         21    1    1    2  503  502  0.22064906659E+02  0.72397291230E+01  0.27246775232E+02  0.35800286929E+02  0.00000000000E+00 0. -1.
</event>
<event>
 4    1  0.5967370E+002  0.2298616E+02  0.7546771E-02  0.1492672E+00
          2   -1    0    0  502    0  0.00000000000E+00  0.00000000000E+00  0.26269981740E+02  0.26269981740E+02  0.00000000000E+00 0. -1.
         -2   -1    0    0    0  501 -0.00000000000E+00 -0.00000000000E+00 -0.21189203641E+02  0.21189203641E+02  0.00000000000E+00 0.  1.
         21    1    1    2  502  503 -0.90007536858E+01  0.21150654751E+02  0.78886652731E+01  0.24302156347E+02  0.00000000000E+00 0. -1.
         21    1    1    2  503  501  0.90007536858E+01 -0.21150654751E+02 -0.28078871734E+01  0.23157029034E+02  0.00000000000E+00 0.  1.
</event>
<event>
 4    1  0.5967370E+002  0.2148414E+02  0.7546771E-02  0.1512464E+00
          2   -1    0    0  503    0  0.00000000000E+00  0.00000000000E+00  0.73046078807E+02  0.73046078807E+02  0.00000000000E+00 0.  1.
         -2   -1    0    0    0  501 -0.00000000000E+00 -0.00000000000E+00 -0.70109780396E+01  0.70109780396E+01  0.00000000000E+00 0. -1.
         21    1    1    2  502  501  0.19697215664E+02  0.85783390534E+01  0.20440775498E+02  0.29654569779E+02  0.00000000000E+00 0.  1.
         21    1    1    2  503  502 -0.19697215664E+02 -0.85783390534E+01  0.45594325270E+02  0.50402487068E+02  0.00000000000E+00 0. -1.
</event>
<event>
 4    1  0.5967370E+002  0.3272126E+02  0.7546771E-02  0.1397332E+00
          2   -1    0    0  503    0  0.00000000000E+00  0.00000000000E+00  0.19654826233E+03  0.19654826233E+03  0.00000000000E+00 0. -1.
         -2   -1    0    0    0  501 -0.00000000000E+00 -0.00000000000E+00 -0.94554522684E+01  0.94554522684E+01  0.00000000000E+00 0.  1.
         21    1    1    2  502  501  0.30184837603E+02  0.12631563537E+02  0.26485480056E+02  0.42097048261E+02  0.00000000000E+00 0.  1.
         21    1    1    2  503  502 -0.30184837603E+02 -0.12631563537E+02  0.16060733001E+03  0.16390666634E+03  0.00000000000E+00 0. -1.
</event>
<event>
 4    1  0.5967370E+002  0.2531652E+02  0.7546771E-02  0.1465293E+00
          2   -1    0    0  502    0  0.00000000000E+00  0.00000000000E+00  0.18116738096E+03  0.18116738096E+03  0.00000000000E+00 0.  1.
         -2   -1    0    0    0  501 -0.00000000000E+00 -0.00000000000E+00 -0.74606624351E+01  0.74606624351E+01  0.00000000000E+00 0. -1.
         21    1    1    2  502  503  0.25094041993E+02 -0.33489235632E+01  0.15524318067E+03  0.15729390127E+03  0.00000000000E+00 0. -1.
         21    1    1    2  503  501 -0.25094041993E+02  0.33489235632E+01  0.18463537858E+02  0.31334142127E+02  0.00000000000E+00 0.  1.
</event>
<event>
 4    1  0.5967370E+002  0.2577754E+02  0.7546771E-02  0.1460290E+00
          2   -1    0    0  502    0  0.00000000000E+00  0.00000000000E+00  0.10629390707E+01  0.10629390707E+01  0.00000000000E+00 0.  1.
         -2   -1    0    0    0  501 -0.00000000000E+00 -0.00000000000E+00 -0.62567561847E+03  0.62567561847E+03  0.00000000000E+00 0. -1.
         21    1    1    2  502  503 -0.48022573023E+01  0.25326266862E+02 -0.32150933496E+03  0.32254105775E+03  0.00000000000E+00 0.  1.
         21    1    1    2  503  501  0.48022573023E+01 -0.25326266862E+02 -0.30310334444E+03  0.30419749979E+03  0.00000000000E+00 0. -1.
</event>
<event>
 4    1  0.5967370E+002  0.2626230E+02  0.7546771E-02  0.1455163E+00
          2   -1    0    0  503    0  0.00000000000E+00  0.00000000000E+00  0.15610214769E+02  0.15610214769E+02  0.00000000000E+00 0.  1.
         -2   -1    0    0    0  501 -0.00000000000E+00 -0.00000000000E+00 -0.46431119683E+02  0.46431119683E+02  0.00000000000E+00 0. -1.
         21    1    1    2  502  501  0.26176017684E+02  0.21271176274E+01 -0.22236060490E+02  0.34411493971E+02  0.00000000000E+00 0. -1.
         21    1    1    2  503  502 -0.26176017684E+02 -0.21271176274E+01 -0.85848444241E+01  0.27629840481E+02  0.00000000000E+00 0.  1.
</event>
<event>
 4    1  0.5967370E+002  0.3409560E+02  0.7546771E-02  0.1387035E+00
          2   -1    0    0  503    0  0.00000000000E+00  0.00000000000E+00  0.52731192083E+01  0.52731192083E+01  0.00000000000E+00 0.  1.
         -2   -1    0    0    0  501 -0.00000000000E+00 -0.00000000000E+00 -0.43297002128E+03  0.43297002128E+03  0.00000000000E+00 0. -1.
         21    1    1    2  502  501 -0.86575648860E+01  0.32978119233E+02 -0.36736186463E+03  0.36894071253E+03  0.00000000000E+00 0. -1.
         21    1    1    2  503  502  0.86575648860E+01 -0.32978119233E+02 -0.60335037447E+02  0.69302427963E+02  0.00000000000E+00 0.  1.
</event>
