<event>
 4    1  0.2281973E+005  0.2629674E+02  0.7546771E-02  0.1454803E+00
          2   -1    0    0  502    0  0.00000000000E+00  0.00000000000E+00  0.13899420308E+04  0.13899420308E+04  0.00000000000E+00 0. -1.
         21   -1    0    0  503  502 -0.00000000000E+00 -0.00000000000E+00 -0.17901912912E+02  0.17901912912E+02  0.00000000000E+00 0.  1.
          2    1    1    2  501    0 -0.18606122861E+02  0.18583078673E+02  0.13800916819E+04  0.13803421928E+04  0.00000000000E+00 0. -1.
         21    1    1    2  503  501  0.18606122861E+02 -0.18583078673E+02 -0.80515640448E+01  0.27501750935E+02  0.00000000000E+00 0.  1.
</event>
<event>
 4    1  0.2281973E+005  0.2198919E+02  0.7546771E-02  0.1505597E+00
          2   -1    0    0  503    0  0.00000000000E+00  0.00000000000E+00  0.33519411317E+03  0.33519411317E+03  0.00000000000E+00 0. -1.
         21   -1    0    0  501  502 -0.00000000000E+00 -0.00000000000E+00 -0.19050150110E+02  0.19050150110E+02  0.00000000000E+00 0. -1.
          2    1    1    2  501    0 -0.11633748028E+02 -0.18659586464E+02  0.32835607456E+03  0.32909153128E+03  0.00000000000E+00 0. -1.
         21    1    1    2  503  502  0.11633748028E+02  0.18659586464E+02 -0.12212111493E+02  0.25152732005E+02  0.00000000000E+00 0. -1.
</event>
<event>
 4    1  0.2281973E+005  0.4020360E+02  0.7546771E-02  0.1347297E+00
          2   -1    0    0  503    0  0.00000000000E+00  0.00000000000E+00  0.24191656265E+03  0.24191656265E+03  0.00000000000E+00 0.  1.
         21   -1    0    0  501  502 -0.00000000000E+00 -0.00000000000E+00 -0.27195992316E+02  0.27195992316E+02  0.00000000000E+00 0.  1.
          2    1    1    2  501    0 -0.31016587547E+02 -0.25579304717E+02  0.22422501787E+03  0.22780076420E+03  0.00000000000E+00 0.  1.
         21    1    1    2  503  502  0.31016587547E+02  0.25579304717E+02 -0.95044475369E+01  0.41311790761E+02  0.00000000000E+00 0.  1.
</event>
<event>
 4    1  0.2281973E+005  0.3013788E+02  0.7546771E-02  0.1418402E+00
          2   -1    0    0  503    0  0.00000000000E+00  0.00000000000E+00  0.21391235717E+04  0.21391235717E+04  0.00000000000E+00 0. -1.
         21   -1    0    0  501  502 -0.00000000000E+00 -0.00000000000E+00 -0.73325646396E+00  0.73325646396E+00  0.00000000000E+00 0.  1.
          2    1    1    2  501    0  0.26398971575E+02  0.14539132093E+02  0.17633523341E+04  0.17636098622E+04  0.00000000000E+00 0. -1.
         21    1    1    2  503  502 -0.26398971575E+02 -0.14539132093E+02  0.37503798115E+03  0.37624696593E+03  0.00000000000E+00 0.  1.
</event>
<event>
 4    1  0.2281973E+005  0.2414328E+02  0.7546771E-02  0.1478620E+00
          2   -1    0    0  502    0  0.00000000000E+00  0.00000000000E+00  0.71302171249E+03  0.71302171249E+03  0.00000000000E+00 0.  1.
         21   -1    0    0  503  502 -0.00000000000E+00 -0.00000000000E+00 -0.28922429506E+01  0.28922429506E+01  0.00000000000E+00 0.  1.
          2    1    1    2  501    0 -0.19193257532E+02 -0.14646389349E+02  0.65824101025E+03  0.65868363076E+03  0.00000000000E+00 0.  1.
         21    1    1    2  503  501  0.19193257532E+02  0.14646389349E+02  0.51888459289E+02  0.57230324681E+02  0.00000000000E+00 0.  1.
</event>
<event>
 4    1  0.2281973E+005  0.3093162E+02  0.7546771E-02  0.1411670E+00
          2   -1    0    0  503    0  0.00000000000E+00  0.00000000000E+00  0.45790888566E+03  0.45790888566E+03  0.00000000000E+00 0.  1.
         21   -1    0    0  501  502 -0.00000000000E+00 -0.00000000000E+00 -0.61772359515E+01  0.61772359515E+01  0.00000000000E+00 0. -1.
          2    1    1    2  501    0 -0.56101258105E+01 -0.30418606818E+02  0.41462889040E+03  0.41578105044E+03  0.00000000000E+00 0.  1.
         21    1    1    2  503  502  0.56101258105E+01  0.30418606818E+02  0.37102759308E+02  0.48305071169E+02  0.00000000000E+00 0. -1.
</event>
<event>
 4    1  0.2281973E+005  0.2071419E+02  0.7546771E-02  0.1523385E+00
          2   -1    0    0  502    0  0.00000000000E+00  0.00000000000E+00  0.62529173104E+02  0.62529173104E+02  0.00000000000E+00 0. -1.
         21   -1    0    0  503  502 -0.00000000000E+00 -0.00000000000E+00 -0.29334618973E+02  0.29334618973E+02  0.00000000000E+00 0. -1.
          2    1    1    2  501    0  0.92339785110E+01  0.18542152690E+02  0.56799548347E+02  0.60458799839E+02  0.00000000000E+00 0. -1.
         21    1    1    2  503  501 -0.92339785110E+01 -0.18542152690E+02 -0.23604994216E+02  0.31404992238E+02  0.00000000000E+00 0. -1.
</event>
<event>
 4    1  0.2281973E+005  0.6589669E+02  0.7546771E-02  0.1241015E+00
          2   -1    0    0  502    0  0.00000000000E+00  0.00000000000E+00  0.11880075535E+04  0.11880075535E+04  0.00000000000E+00 0. -1.
         21   -1    0    0  503  502 -0.00000000000E+00 -0.00000000000E+00 -0.21888184327E+02  0.21888184327E+02  0.00000000000E+00 0. -1.
          2    1    1    2  501    0 -0.47527360613E+02  0.45645630860E+02  0.11351908710E+04  0.11371018808E+04  0.00000000000E+00 0. -1.
         21    1    1    2  503  501  0.47527360613E+02 -0.45645630860E+02  0.30928498122E+02  0.72793857018E+02  0.00000000000E+00 0. -1.
</event>
<event>
 4    1  0.2281973E+005  0.2804256E+02  0.7546771E-02  0.1437407E+00
          2   -1    0    0  503    0  0.00000000000E+00  0.00000000000E+00  0.11581033878E+04  0.11581033878E+04  0.00000000000E+00 0.  1.
         21   -1    0    0  501  502 -0.00000000000E+00 -0.00000000000E+00 -0.41033386155E+01  0.41033386155E+01  0.00000000000E+00 0. -1.
          2    1    1    2  501    0  0.13096206516E+02  0.24796668539E+02  0.11078493189E+04  0.11082041773E+04  0.00000000000E+00 0.  1.
         21    1    1    2  503  502 -0.13096206516E+02 -0.24796668539E+02  0.46150730295E+02  0.54002549037E+02  0.00000000000E+00 0. -1.
</event>
<event>
 4    1  0.2281973E+005  0.2179889E+02  0.7546771E-02  0.1508158E+00
          2   -1    0    0  503    0  0.00000000000E+00  0.00000000000E+00  0.10296985161E+04  0.10296985161E+04  0.00000000000E+00 0.  1.
         21   -1    0    0  501  502 -0.00000000000E+00 -0.00000000000E+00 -0.19122477075E+01  0.19122477075E+01  0.00000000000E+00 0. -1.
          2    1    1    2  501    0  0.21798351378E+02 -0.15351089685E+00  0.96316766778E+03  0.96341431791E+03  0.00000000000E+00 0.  1.
         21    1    1    2  503  502 -0.21798351378E+02  0.15351089685E+00  0.64618600591E+02  0.68196445881E+02  0.00000000000E+00 0. -1.
</event>
<event>
 4    1  0.2281973E+005  0.2073593E+02  0.7546771E-02  0.1523069E+00
          2   -1    0    0  502    0  0.00000000000E+00  0.00000000000E+00  0.65718865180E+01  0.65718865180E+01  0.00000000000E+00 0.  1.
         21   -1    0    0  503  502 -0.00000000000E+00 -0.00000000000E+00 -0.29836344993E+03  0.29836344993E+03  0.00000000000E+00 0.  1.
          2    1    1    2  501    0  0.20601864115E+02  0.23541311876E+01 -0.11178383747E+02  0.23557058429E+02  0.00000000000E+00 0.  1.
         21    1    1    2  503  501 -0.20601864115E+02 -0.23541311876E+01 -0.28061317966E+03  0.28137827802E+03  0.00000000000E+00 0.  1.
</event>
<event>
 4    1  0.2281973E+005  0.2171495E+02  0.7546771E-02  0.1509297E+00
          2   -1    0    0  503    0  0.00000000000E+00  0.00000000000E+00  0.43839760039E+02  0.43839760039E+02  0.00000000000E+00 0.  1.
         21   -1    0    0  501  502 -0.00000000000E+00 -0.00000000000E+00 -0.11653404245E+02  0.11653404245E+02  0.00000000000E+00 0.  1.
          2    1    1    2  501    0 -0.98330127197E+00 -0.21692678681E+02  0.83932944188E+01  0.23280605253E+02  0.00000000000E+00 0.  1.
         21    1    1    2  503  502  0.98330127197E+00  0.21692678681E+02  0.23793061375E+02  0.32212559032E+02  0.00000000000E+00 0.  1.
</event>
<event>
 4    1  0.2281973E+005  0.2266325E+02  0.7546771E-02  0.1496771E+00
          2   -1    0    0  503    0  0.00000000000E+00  0.00000000000E+00  0.65296588740E+03  0.65296588740E+03  0.00000000000E+00 0.  1.
         21   -1    0    0  501  502 -0.00000000000E+00 -0.00000000000E+00 -0.66666631072E+01  0.66666631072E+01  0.00000000000E+00 0.  1.
          2    1    1    2  501    0  0.19403018425E+02  0.11710932910E+02  0.63289782957E+03  0.63330347050E+03  0.00000000000E+00 0.  1.
         21    1    1    2  503  502 -0.19403018425E+02 -0.11710932910E+02  0.13401394728E+02  0.26329080012E+02  0.00000000000E+00 0.  1.
</event>
<event>
 4    1  0.2281973E+005  0.2667246E+02  0.7546771E-02  0.1450926E+00
          2   -1    0    0  502    0  0.00000000000E+00  0.00000000000E+00  0.25575472125E+03  0.25575472125E+03  0.00000000000E+00 0. -1.
         21   -1    0    0  503  502 -0.00000000000E+00 -0.00000000000E+00 -0.27959710276E+01  0.27959710276E+01  0.00000000000E+00 0. -1.
          2    1    1    2  501    0  0.10100465750E+02 -0.24686043915E+02  0.13573132716E+03  0.13832719670E+03  0.00000000000E+00 0. -1.
         21    1    1    2  503  501 -0.10100465750E+02  0.24686043915E+02  0.11722742306E+03  0.12022349558E+03  0.00000000000E+00 0. -1.
</event>
<event>
 4    1  0.2281973E+005  0.2300304E+02  0.7546771E-02  0.1492460E+00
          2   -1    0    0  503    0  0.00000000000E+00  0.00000000000E+00  0.61032107253E+03  0.61032107253E+03  0.00000000000E+00 0. -1.
         21   -1    0    0  501  502 -0.00000000000E+00 -0.00000000000E+00 -0.72639454926E+01  0.72639454926E+01  0.00000000000E+00 0. -1.
          2    1    1    2  501    0 -0.20068293232E+02  0.11242924261E+02  0.59130780618E+03  0.59175506874E+03  0.00000000000E+00 0. -1.
         21    1    1    2  503  502  0.20068293232E+02 -0.11242924261E+02  0.11749320866E+02  0.25829949283E+02  0.00000000000E+00 0. -1.
</event>
<event>
 4    1  0.2281973E+005  0.2706834E+02  0.7546771E-02  0.1446923E+00
          2   -1    0    0  503    0  0.00000000000E+00  0.00000000000E+00  0.64726537371E+03  0.64726537371E+03  0.00000000000E+00 0. -1.
         21   -1    0    0  501  502 -0.00000000000E+00 -0.00000000000E+00 -0.39219036734E+01  0.39219036734E+01  0.00000000000E+00 0.  1.
          2    1    1    2  501    0 -0.18736120025E+02  0.19535933573E+02  0.59628606611E+03  0.59690013196E+03  0.00000000000E+00 0. -1.
         21    1    1    2  503  502  0.18736120025E+02 -0.19535933573E+02  0.47057403925E+02  0.54287145425E+02  0.00000000000E+00 0.  1.
</event>
<event>
 4    1  0.2281973E+005  0.3621236E+02  0.7546771E-02  0.1372235E+00
          2   -1    0    0  503    0  0.00000000000E+00  0.00000000000E+00  0.37947591011E+03  0.37947591011E+03  0.00000000000E+00 0. -1.
         21   -1    0    0  501  502 -0.00000000000E+00 -0.00000000000E+00 -0.75973672678E+01  0.75973672678E+01  0.00000000000E+00 0. -1.
          2    1    1    2  501    0 -0.12527409434E+02  0.33976449192E+02  0.32883589723E+03  0.33082379358E+03  0.00000000000E+00 0. -1.
         21    1    1    2  503  502  0.12527409434E+02 -0.33976449192E+02  0.43042645605E+02  0.56249483798E+02  0.00000000000E+00 0. -1.
</event>
<event>
 4    1  0.2281973E+005  0.2098822E+02  0.7546771E-02  0.1519433E+00
          2   -1    0    0  502    0  0.00000000000E+00  0.00000000000E+00  0.29968779267E+03  0.29968779267E+03  0.00000000000E+00 0.  1.
         21   -1    0    0  503  502 -0.00000000000E+00 -0.00000000000E+00 -0.12300172472E+03  0.12300172472E+03  0.00000000000E+00 0. -1.
          2    1    1    2  501    0 -0.20876180841E+02 -0.21657199406E+01  0.29842120383E+03  0.29915835299E+03  0.00000000000E+00 0.  1.
         21    1    1    2  503  501  0.20876180841E+02  0.21657199406E+01 -0.12173513588E+03  0.12353116440E+03  0.00000000000E+00 0. -1.
</event>
<event>
 4    1  0.2281973E+005  0.2115396E+02  0.7546771E-02  0.1517078E+00
          2   -1    0    0  502    0  0.00000000000E+00  0.00000000000E+00  0.39124109992E+02  0.39124109992E+02  0.00000000000E+00 0. -1.
         21   -1    0    0  503  502 -0.00000000000E+00 -0.00000000000E+00 -0.49909815943E+02  0.49909815943E+02  0.00000000000E+00 0.  1.
          2    1    1    2  501    0 -0.87236586436E+01 -0.19271425424E+02  0.33691735904E+02  0.39782196097E+02  0.00000000000E+00 0. -1.
         21    1    1    2  503  501  0.87236586436E+01  0.19271425424E+02 -0.44477441855E+02  0.49251729838E+02  0.00000000000E+00 0.  1.
</event>
<event>
 4    1  0.2281973E+005  0.3303610E+02  0.7546771E-02  0.1394922E+00
          2   -1    0    0  503    0  0.00000000000E+00  0.00000000000E+00  0.24983700217E+03  0.24983700217E+03  0.00000000000E+00 0.  1.
         21   -1    0    0  501  502 -0.00000000000E+00 -0.00000000000E+00 -0.51790881986E+02  0.51790881986E+02  0.00000000000E+00 0. -1.
          2    1    1    2  501    0  0.65668787996E+01 -0.32376847196E+02  0.24333658970E+03  0.24556889058E+03  0.00000000000E+00 0.  1.
         21    1    1    2  503  502 -0.65668787996E+01  0.32376847196E+02 -0.45290469521E+02  0.56058993577E+02  0.00000000000E+00 0. -1.
</event>
<event>
 4    1  0.2281973E+005  0.2060562E+02  0.7546771E-02  0.1524971E+00
          2   -1    0    0  502    0  0.00000000000E+00  0.00000000000E+00  0.10725494260E+04  0.10725494260E+04  0.00000000000E+00 0. -1.
         21   -1    0    0  503  502 -0.00000000000E+00 -0.00000000000E+00 -0.25858779259E+01  0.25858779259E+01  0.00000000000E+00 0. -1.
          2    1    1    2  501    0 -0.17597234197E+02 -0.10720486236E+02  0.10296930823E+04  0.10298992355E+04  0.00000000000E+00 0. -1.
         21    1    1    2  503  501  0.17597234197E+02  0.10720486236E+02  0.40270465818E+02  0.45236068504E+02  0.00000000000E+00 0. -1.
</event>
<event>
 4    1  0.2281973E+005  0.4648648E+02  0.7546771E-02  0.1314169E+00
          2   -1    0    0  502    0  0.00000000000E+00  0.00000000000E+00  0.11892403413E+04  0.11892403413E+04  0.00000000000E+00 0.  1.
         21   -1    0    0  503  502 -0.00000000000E+00 -0.00000000000E+00 -0.10825630222E+02  0.10825630222E+02  0.00000000000E+00 0.  1.
          2    1    1    2  501    0 -0.45327340229E+02  0.10316230762E+02  0.11365698293E+04  0.11375200962E+04  0.00000000000E+00 0.  1.
         21    1    1    2  503  501  0.45327340229E+02 -0.10316230762E+02  0.41844881800E+02  0.62545875341E+02  0.00000000000E+00 0.  1.
</event>
<event>
 4    1  0.2281973E+005  0.3360876E+02  0.7546771E-02  0.1390617E+00
          2   -1    0    0  503    0  0.00000000000E+00  0.00000000000E+00  0.47108950118E+03  0.47108950118E+03  0.00000000000E+00 0. -1.
         21   -1    0    0  501  502 -0.00000000000E+00 -0.00000000000E+00 -0.42862704686E+01  0.42862704686E+01  0.00000000000E+00 0. -1.
          2    1    1    2  501    0  0.71052447677E+01 -0.32849114198E+02  0.39117348975E+03  0.39261463026E+03  0.00000000000E+00 0. -1.
         21    1    1    2  503  502 -0.71052447677E+01  0.32849114198E+02  0.75629740952E+02  0.82761141384E+02  0.00000000000E+00 0. -1.
</event>
<event>
 4    1  0.2281973E+005  0.2653105E+02  0.7546771E-02  0.1452377E+00
          2   -1    0    0  503    0  0.00000000000E+00  0.00000000000E+00  0.54053578618E+02  0.54053578618E+02  0.00000000000E+00 0. -1.
         21   -1    0    0  501  502 -0.00000000000E+00 -0.00000000000E+00 -0.66011489082E+02  0.66011489082E+02  0.00000000000E+00 0. -1.
          2    1    1    2  501    0 -0.50208747326E+01  0.26051626411E+02  0.47807257209E+02  0.54675682562E+02  0.00000000000E+00 0. -1.
         21    1    1    2  503  502  0.50208747326E+01 -0.26051626411E+02 -0.59765167673E+02  0.65389385138E+02  0.00000000000E+00 0. -1.
</event>
<event>
 4    1  0.2281973E+005  0.3010572E+02  0.7546771E-02  0.1418680E+00
          2   -1    0    0  503    0  0.00000000000E+00  0.00000000000E+00  0.34013385796E+03  0.34013385796E+03  0.00000000000E+00 0. -1.
         21   -1    0    0  501  502 -0.00000000000E+00 -0.00000000000E+00 -0.74759691162E+02  0.74759691162E+02  0.00000000000E+00 0.  1.
          2    1    1    2  501    0  0.14053166906E+02  0.26624477330E+02  0.33640324628E+03  0.33774768453E+03  0.00000000000E+00 0. -1.
         21    1    1    2  503  502 -0.14053166906E+02 -0.26624477330E+02 -0.71029079480E+02  0.77145864600E+02  0.00000000000E+00 0.  1.
</event>
<event>
 4    1  0.2281973E+005  0.2764673E+02  0.7546771E-02  0.1441218E+00
          2   -1    0    0  502    0  0.00000000000E+00  0.00000000000E+00  0.48757145870E+03  0.48757145870E+03  0.00000000000E+00 0.  1.
         21   -1    0    0  503  502 -0.00000000000E+00 -0.00000000000E+00 -0.41706117776E+02  0.41706117776E+02  0.00000000000E+00 0.  1.
          2    1    1    2  501    0  0.74392296768E+00 -0.27636717079E+02  0.48255019816E+03  0.48334153070E+03  0.00000000000E+00 0.  1.
         21    1    1    2  503  501 -0.74392296768E+00  0.27636717079E+02 -0.36684857230E+02  0.45936045784E+02  0.00000000000E+00 0.  1.
</event>
<event>
 4    1  0.2281973E+005  0.2170776E+02  0.7546771E-02  0.1509395E+00
          2   -1    0    0  503    0  0.00000000000E+00  0.00000000000E+00  0.68645503383E+03  0.68645503383E+03  0.00000000000E+00 0.  1.
         21   -1    0    0  501  502 -0.00000000000E+00 -0.00000000000E+00 -0.86704127887E+00  0.86704127887E+00  0.00000000000E+00 0.  1.
          2    1    1    2  501    0  0.54179491701E+01 -0.21020768512E+02  0.18595950209E+03  0.18722222971E+03  0.00000000000E+00 0.  1.
         21    1    1    2  503  502 -0.54179491701E+01  0.21020768512E+02  0.49962849046E+03  0.50009984540E+03  0.00000000000E+00 0.  1.
</event>
<event>
 4    1  0.2281973E+005  0.3066916E+02  0.7546771E-02  0.1413869E+00
          2   -1    0    0  502    0  0.00000000000E+00  0.00000000000E+00  0.20425530363E+04  0.20425530363E+04  0.00000000000E+00 0. -1.
         21   -1    0    0  503  502 -0.00000000000E+00 -0.00000000000E+00 -0.13803007795E+01  0.13803007795E+01  0.00000000000E+00 0. -1.
          2    1    1    2  501    0  0.26666673759E+02  0.15148797361E+02  0.18548369809E+04  0.18550905162E+04  0.00000000000E+00 0. -1.
         21    1    1    2  503  501 -0.26666673759E+02 -0.15148797361E+02  0.18633575463E+03  0.18884282090E+03  0.00000000000E+00 0. -1.
</event>
<event>
 4    1  0.2281973E+005  0.4819928E+02  0.7546771E-02  0.1306174E+00
          2   -1    0    0  502    0  0.00000000000E+00  0.00000000000E+00  0.26782813442E+03  0.26782813442E+03  0.00000000000E+00 0.  1.
         21   -1    0    0  503  502 -0.00000000000E+00 -0.00000000000E+00 -0.21375667924E+02  0.21375667924E+02  0.00000000000E+00 0. -1.
          2    1    1    2  501    0 -0.43455315766E+02  0.20852016251E+02  0.23469228805E+03  0.23959056977E+03  0.00000000000E+00 0.  1.
         21    1    1    2  503  501  0.43455315766E+02 -0.20852016251E+02  0.11760178447E+02  0.49613232581E+02  0.00000000000E+00 0. -1.
</event>
<event>
 4    1  0.2281973E+005  0.2237572E+02  0.7546771E-02  0.1500490E+00
          2   -1    0    0  502    0  0.00000000000E+00  0.00000000000E+00  0.24461284860E+03  0.24461284860E+03  0.00000000000E+00 0. -1.
         21   -1    0    0  503  502 -0.00000000000E+00 -0.00000000000E+00 -0.46359097323E+03  0.46359097323E+03  0.00000000000E+00 0. -1.
          2    1    1    2  501    0 -0.19633866331E+02  0.10732377258E+02  0.24383028788E+03  0.24485481803E+03  0.00000000000E+00 0. -1.
         21    1    1    2  503  501  0.19633866331E+02 -0.10732377258E+02 -0.46280841251E+03  0.46334900379E+03  0.00000000000E+00 0. -1.
</event>
<event>
 4    1  0.2281973E+005  0.2532309E+02  0.7546771E-02  0.1465221E+00
          2   -1    0    0  503    0  0.00000000000E+00  0.00000000000E+00  0.95507318480E+03  0.95507318480E+03  0.00000000000E+00 0.  1.
         21   -1    0    0  501  502 -0.00000000000E+00 -0.00000000000E+00 -0.12305697211E+01  0.12305697211E+01  0.00000000000E+00 0.  1.
          2    1    1    2  501    0  0.19540643371E+02  0.16106587621E+02  0.79923244783E+03  0.79963351892E+03  0.00000000000E+00 0.  1.
         21    1    1    2  503  502 -0.19540643371E+02 -0.16106587621E+02  0.15461016725E+03  0.15667023561E+03  0.00000000000E+00 0.  1.
</event>
<event>
 4    1  0.2281973E+005  0.2528117E+02  0.7546771E-02  0.1465682E+00
          2   -1    0    0  503    0  0.00000000000E+00  0.00000000000E+00  0.12507431229E+04  0.12507431229E+04  0.00000000000E+00 0. -1.
         21   -1    0    0  501  502 -0.00000000000E+00 -0.00000000000E+00 -0.59972013215E+00  0.59972013215E+00  0.00000000000E+00 0. -1.
          2    1    1    2  501    0 -0.22294500105E+02 -0.11920261007E+02  0.86571190104E+03  0.86608096213E+03  0.00000000000E+00 0. -1.
         21    1    1    2  503  502  0.22294500105E+02  0.11920261007E+02  0.38443150171E+03  0.38526188088E+03  0.00000000000E+00 0. -1.
</event>
<event>
 4    1  0.2281973E+005  0.2197068E+02  0.7546771E-02  0.1505844E+00
          2   -1    0    0  502    0  0.00000000000E+00  0.00000000000E+00  0.52417788633E+03  0.52417788633E+03  0.00000000000E+00 0.  1.
         21   -1    0    0  503  502 -0.00000000000E+00 -0.00000000000E+00 -0.11464753449E+02  0.11464753449E+02  0.00000000000E+00 0. -1.
          2    1    1    2  501    0 -0.21193819841E+02 -0.57907418009E+01  0.51319656118E+03  0.51366664394E+03  0.00000000000E+00 0.  1.
         21    1    1    2  503  501  0.21193819841E+02  0.57907418009E+01 -0.48342830085E+00  0.21975995836E+02  0.00000000000E+00 0. -1.
</event>
<event>
 4    1  0.2281973E+005  0.2277468E+02  0.7546771E-02  0.1495347E+00
          2   -1    0    0  503    0  0.00000000000E+00  0.00000000000E+00  0.15315843343E+03  0.15315843343E+03  0.00000000000E+00 0. -1.
         21   -1    0    0  501  502 -0.00000000000E+00 -0.00000000000E+00 -0.12556993010E+03  0.12556993010E+03  0.00000000000E+00 0. -1.
          2    1    1    2  501    0  0.22608314886E+02 -0.27477286420E+01  0.15126627570E+03  0.15297114786E+03  0.00000000000E+00 0. -1.
         21    1    1    2  503  502 -0.22608314886E+02  0.27477286420E+01 -0.12367777237E+03  0.12575721567E+03  0.00000000000E+00 0. -1.
</event>
<event>
 4    1  0.2281973E+005  0.3079005E+02  0.7546771E-02  0.1412853E+00
          2   -1    0    0  503    0  0.00000000000E+00  0.00000000000E+00  0.36725838278E+03  0.36725838278E+03  0.00000000000E+00 0. -1.
         21   -1    0    0  501  502 -0.00000000000E+00 -0.00000000000E+00 -0.21222854327E+02  0.21222854327E+02  0.00000000000E+00 0. -1.
          2    1    1    2  501    0  0.72152690329E+01 -0.29932712719E+02  0.35506264726E+03  0.35639516113E+03  0.00000000000E+00 0. -1.
         21    1    1    2  503  502 -0.72152690329E+01  0.29932712719E+02 -0.90271188032E+01  0.32086075980E+02  0.00000000000E+00 0. -1.
</event>
<event>
 4    1  0.2281973E+005  0.3805311E+02  0.7546771E-02  0.1360288E+00
          2   -1    0    0  503    0  0.00000000000E+00  0.00000000000E+00  0.10979928788E+02  0.10979928788E+02  0.00000000000E+00 0. -1.
         21   -1    0    0  501  502 -0.00000000000E+00 -0.00000000000E+00 -0.12908113922E+04  0.12908113922E+04  0.00000000000E+00 0.  1.
          2    1    1    2  501    0  0.35788341351E+02 -0.12931890692E+02 -0.23166326247E+02  0.44550172225E+02  0.00000000000E+00 0. -1.
         21    1    1    2  503  502 -0.35788341351E+02  0.12931890692E+02 -0.12566651371E+04  0.12572411487E+04  0.00000000000E+00 0.  1.
</event>
<event>
 4    1  0.2281973E+005  0.2401704E+02  0.7546771E-02  0.1480107E+00
          2   -1    0    0  503    0  0.00000000000E+00  0.00000000000E+00  0.82212800620E+01  0.82212800620E+01  0.00000000000E+00 0.  1.
         21   -1    0    0  501  502 -0.00000000000E+00 -0.00000000000E+00 -0.94055414029E+02  0.94055414029E+02  0.00000000000E+00 0.  1.
          2    1    1    2  501    0  0.14580138630E+01  0.23972741413E+02 -0.17142133286E+02  0.29507132509E+02  0.00000000000E+00 0.  1.
         21    1    1    2  503  502 -0.14580138630E+01 -0.23972741413E+02 -0.68692000681E+02  0.72769561582E+02  0.00000000000E+00 0.  1.
</event>
<event>
 4    1  0.2281973E+005  0.2417019E+02  0.7546771E-02  0.1478304E+00
          2   -1    0    0  502    0  0.00000000000E+00  0.00000000000E+00  0.99779164437E+03  0.99779164437E+03  0.00000000000E+00 0. -1.
         21   -1    0    0  503  502 -0.00000000000E+00 -0.00000000000E+00 -0.64908133664E+00  0.64908133664E+00  0.00000000000E+00 0. -1.
          2    1    1    2  501    0  0.18273756125E+02 -0.15819864080E+02  0.65482756452E+03  0.65527348300E+03  0.00000000000E+00 0. -1.
         21    1    1    2  503  501 -0.18273756125E+02  0.15819864080E+02  0.34231499851E+03  0.34316724270E+03  0.00000000000E+00 0. -1.
</event>
<event>
 4    1  0.2281973E+005  0.2985101E+02  0.7546771E-02  0.1420896E+00
          2   -1    0    0  503    0  0.00000000000E+00  0.00000000000E+00  0.32478567303E+03  0.32478567303E+03  0.00000000000E+00 0. -1.
         21   -1    0    0  501  502 -0.00000000000E+00 -0.00000000000E+00 -0.28742101011E+01  0.28742101011E+01  0.00000000000E+00 0. -1.
          2    1    1    2  501    0  0.26065346996E+02 -0.14549241071E+02  0.19587929301E+03  0.19814080892E+03  0.00000000000E+00 0. -1.
         21    1    1    2  503  502 -0.26065346996E+02  0.14549241071E+02  0.12603216992E+03  0.12951907421E+03  0.00000000000E+00 0. -1.
</event>
<event>
 4    1  0.2281973E+005  0.2738437E+02  0.7546771E-02  0.1443785E+00
          2   -1    0    0  502    0  0.00000000000E+00  0.00000000000E+00  0.12389563633E+04  0.12389563633E+04  0.00000000000E+00 0.  1.
         21   -1    0    0  503  502 -0.00000000000E+00 -0.00000000000E+00 -0.12660033941E+01  0.12660033941E+01  0.00000000000E+00 0.  1.
          2    1    1    2  501    0 -0.37934645307E+01 -0.27120348526E+02  0.10668318678E+04  0.10671832728E+04  0.00000000000E+00 0.  1.
         21    1    1    2  503  501  0.37934645307E+01  0.27120348526E+02  0.17085849219E+03  0.17303909394E+03  0.00000000000E+00 0.  1.
</event>
<event>
 4    1  0.2281973E+005  0.2054843E+02  0.7546771E-02  0.1525811E+00
          2   -1    0    0  503    0  0.00000000000E+00  0.00000000000E+00  0.10103356862E+02  0.10103356862E+02  0.00000000000E+00 0. -1.
         21   -1    0    0  501  502 -0.00000000000E+00 -0.00000000000E+00 -0.14546519147E+03  0.14546519147E+03  0.00000000000E+00 0.  1.
          2    1    1    2  501    0  0.79288066366E+00 -0.20533127674E+02 -0.20141243535E+01  0.20646905064E+02  0.00000000000E+00 0. -1.
         21    1    1    2  503  502 -0.79288066366E+00  0.20533127674E+02 -0.13334771026E+03  0.13492164327E+03  0.00000000000E+00 0.  1.
</event>
<event>
 4    1  0.2281973E+005  0.2248041E+02  0.7546771E-02  0.1499128E+00
          2   -1    0    0  503    0  0.00000000000E+00  0.00000000000E+00  0.60464420243E+02  0.60464420243E+02  0.00000000000E+00 0.  1.
         21   -1    0    0  501  502 -0.00000000000E+00 -0.00000000000E+00 -0.84180263136E+01  0.84180263136E+01  0.00000000000E+00 0.  1.
          2    1    1    2  501    0 -0.68114587622E+01  0.21423648282E+02  0.28928704135E+02  0.36636574609E+02  0.00000000000E+00 0.  1.
         21    1    1    2  503  502  0.68114587622E+01 -0.21423648282E+02  0.23117689794E+02  0.32245871947E+02  0.00000000000E+00 0.  1.
</event>
<event>
 4    1  0.2281973E+005  0.4430032E+02  0.7546771E-02  0.1324975E+00
          2   -1    0    0  502    0  0.00000000000E+00  0.00000000000E+00  0.27012050327E+02  0.27012050327E+02  0.00000000000E+00 0. -1.
         21   -1    0    0  503  502 -0.00000000000E+00 -0.00000000000E+00 -0.24027954521E+03  0.24027954521E+03  0.00000000000E+00 0.  1.
          2    1    1    2  501    0  0.43848490665E+02  0.63109689281E+01  0.49928611224E+01  0.44580793226E+02  0.00000000000E+00 0. -1.
         21    1    1    2  503  501 -0.43848490665E+02 -0.63109689281E+01 -0.21826035600E+03  0.22271080231E+03  0.00000000000E+00 0.  1.
</event>
<event>
 4    1  0.2281973E+005  0.2713477E+02  0.7546771E-02  0.1446259E+00
          2   -1    0    0  503    0  0.00000000000E+00  0.00000000000E+00  0.16931609851E+04  0.16931609851E+04  0.00000000000E+00 0.  1.
         21   -1    0    0  501  502 -0.00000000000E+00 -0.00000000000E+00 -0.76064777871E+01  0.76064777871E+01  0.00000000000E+00 0.  1.
          2    1    1    2  501    0  0.10737276779E+02  0.24920005084E+02  0.16684949100E+04  0.16687155421E+04  0.00000000000E+00 0.  1.
         21    1    1    2  503  502 -0.10737276779E+02 -0.24920005084E+02  0.17059597334E+02  0.32051920803E+02  0.00000000000E+00 0.  1.
</event>
<event>
 4    1  0.2281973E+005  0.2752060E+02  0.7546771E-02  0.1442448E+00
          2   -1    0    0  502    0  0.00000000000E+00  0.00000000000E+00  0.33838028484E+03  0.33838028484E+03  0.00000000000E+00 0. -1.
         21   -1    0    0  503  502 -0.00000000000E+00 -0.00000000000E+00 -0.21952550171E+03  0.21952550171E+03  0.00000000000E+00 0. -1.
          2    1    1    2  501    0 -0.97431913039E+01  0.25738172743E+02  0.33695455303E+03  0.33807655068E+03  0.00000000000E+00 0. -1.
         21    1    1    2  503  501  0.97431913039E+01 -0.25738172743E+02 -0.21809976990E+03  0.21982923587E+03  0.00000000000E+00 0. -1.
</event>
<event>
 4    1  0.2281973E+005  0.2588220E+02  0.7546771E-02  0.1459172E+00
          2   -1    0    0  503    0  0.00000000000E+00  0.00000000000E+00  0.47551219198E+03  0.47551219198E+03  0.00000000000E+00 0. -1.
         21   -1    0    0  501  502 -0.00000000000E+00 -0.00000000000E+00 -0.10306922047E+02  0.10306922047E+02  0.00000000000E+00 0. -1.
          2    1    1    2  501    0 -0.20952090400E+02  0.15195338178E+02  0.45830180492E+03  0.45903206074E+03  0.00000000000E+00 0. -1.
         21    1    1    2  503  502  0.20952090400E+02 -0.15195338178E+02  0.69034650094E+01  0.26787053284E+02  0.00000000000E+00 0. -1.
</event>
<event>
 4    1  0.2281973E+005  0.3830798E+02  0.7546771E-02  0.1358697E+00
          2   -1    0    0  503    0  0.00000000000E+00  0.00000000000E+00  0.93015542768E+03  0.93015542768E+03  0.00000000000E+00 0. -1.
         21   -1    0    0  501  502 -0.00000000000E+00 -0.00000000000E+00 -0.40576953481E+02  0.40576953481E+02  0.00000000000E+00 0.  1.
          2    1    1    2  501    0 -0.35780067912E+02  0.13685313610E+02  0.92062598689E+03  0.92142265481E+03  0.00000000000E+00 0. -1.
         21    1    1    2  503  502  0.35780067912E+02 -0.13685313610E+02 -0.31047512689E+02  0.49309726349E+02  0.00000000000E+00 0.  1.
</event>
<event>
 4    1  0.2281973E+005  0.2007275E+02  0.7546771E-02  0.1532926E+00
          2   -1    0    0  503    0  0.00000000000E+00  0.00000000000E+00  0.24031101642E+03  0.24031101642E+03  0.00000000000E+00 0.  1.
         21   -1    0    0  501  502 -0.00000000000E+00 -0.00000000000E+00 -0.28698588550E+01  0.28698588550E+01  0.00000000000E+00 0.  1.
          2    1    1    2  501    0 -0.62429418880E+01 -0.19077237559E+02  0.19712291686E+03  0.19814227128E+03  0.00000000000E+00 0.  1.
         21    1    1    2  503  502  0.62429418880E+01  0.19077237559E+02  0.40318240700E+02  0.45038603991E+02  0.00000000000E+00 0.  1.
</event>
<event>
 4    1  0.2281973E+005  0.2709227E+02  0.7546771E-02  0.1446683E+00
          2   -1    0    0  503    0  0.00000000000E+00  0.00000000000E+00  0.44658534254E+03  0.44658534254E+03  0.00000000000E+00 0.  1.
         21   -1    0    0  501  502 -0.00000000000E+00 -0.00000000000E+00 -0.52014988637E+01  0.52014988637E+01  0.00000000000E+00 0.  1.
          2    1    1    2  501    0  0.14040014916E+02  0.23170435817E+02  0.40751838395E+03  0.40841795304E+03  0.00000000000E+00 0.  1.
         21    1    1    2  503  502 -0.14040014916E+02 -0.23170435817E+02  0.33865459729E+02  0.43368888358E+02  0.00000000000E+00 0.  1.
</event>
<event>
 4    1  0.2281973E+005  0.2261962E+02  0.7546771E-02  0.1497331E+00
          2   -1    0    0  502    0  0.00000000000E+00  0.00000000000E+00  0.68321490276E+03  0.68321490276E+03  0.00000000000E+00 0.  1.
         21   -1    0    0  503  502 -0.00000000000E+00 -0.00000000000E+00 -0.10418259904E+01  0.10418259904E+01  0.00000000000E+00 0. -1.
          2    1    1    2  501    0  0.20189749425E+02 -0.10199071018E+02  0.52250610356E+03  0.52299548305E+03  0.00000000000E+00 0.  1.
         21    1    1    2  503  501 -0.20189749425E+02  0.10199071018E+02  0.15966697321E+03  0.16126124570E+03  0.00000000000E+00 0. -1.
</event>
<event>
 4    1  0.2281973E+005  0.2037156E+02  0.7546771E-02  0.1528430E+00
          2   -1    0    0  503    0  0.00000000000E+00  0.00000000000E+00  0.49199495304E+02  0.49199495304E+02  0.00000000000E+00 0. -1.
         21   -1    0    0  501  502 -0.00000000000E+00 -0.00000000000E+00 -0.56163847859E+02  0.56163847859E+02  0.00000000000E+00 0.  1.
          2    1    1    2  501    0 -0.14849043553E+02  0.13946550383E+02  0.45082595566E+02  0.49471615952E+02  0.00000000000E+00 0. -1.
         21    1    1    2  503  502  0.14849043553E+02 -0.13946550383E+02 -0.52046948121E+02  0.55891727211E+02  0.00000000000E+00 0.  1.
</event>
<event>
 4    1  0.2281973E+005  0.2077487E+02  0.7546771E-02  0.1522504E+00
          2   -1    0    0  503    0  0.00000000000E+00  0.00000000000E+00  0.91779528469E+03  0.91779528469E+03  0.00000000000E+00 0.  1.
         21   -1    0    0  501  502 -0.00000000000E+00 -0.00000000000E+00 -0.59057249908E+00  0.59057249908E+00  0.00000000000E+00 0.  1.
          2    1    1    2  501    0  0.44337187739E+01  0.20296239328E+02  0.66586839549E+03  0.66619240112E+03  0.00000000000E+00 0.  1.
         21    1    1    2  503  502 -0.44337187739E+01 -0.20296239328E+02  0.25133631670E+03  0.25219345607E+03  0.00000000000E+00 0.  1.
</event>
<event>
 4    1  0.2281973E+005  0.2112790E+02  0.7546771E-02  0.1517447E+00
          2   -1    0    0  503    0  0.00000000000E+00  0.00000000000E+00  0.67210451888E+03  0.67210451888E+03  0.00000000000E+00 0.  1.
         21   -1    0    0  501  502 -0.00000000000E+00 -0.00000000000E+00 -0.15502951539E+02  0.15502951539E+02  0.00000000000E+00 0.  1.
          2    1    1    2  501    0  0.21060402880E+02  0.16874537034E+01  0.66465942895E+03  0.66499514627E+03  0.00000000000E+00 0.  1.
         21    1    1    2  503  502 -0.21060402880E+02 -0.16874537034E+01 -0.80578616141E+01  0.22612324145E+02  0.00000000000E+00 0.  1.
</event>
<event>
 4    1  0.2281973E+005  0.2024781E+02  0.7546771E-02  0.1530281E+00
          2   -1    0    0  502    0  0.00000000000E+00  0.00000000000E+00  0.83822443554E+03  0.83822443554E+03  0.00000000000E+00 0. -1.
         21   -1    0    0  503  502 -0.00000000000E+00 -0.00000000000E+00 -0.57295641755E+00  0.57295641755E+00  0.00000000000E+00 0. -1.
          2    1    1    2  501    0 -0.14307353331E+01 -0.20197196545E+02  0.57927586286E+03  0.57962962230E+03  0.00000000000E+00 0. -1.
         21    1    1    2  503  501  0.14307353331E+01  0.20197196545E+02  0.25837561626E+03  0.25916776966E+03  0.00000000000E+00 0. -1.
</event>
<event>
 4    1  0.2281973E+005  0.2695437E+02  0.7546771E-02  0.1448067E+00
          2   -1    0    0  503    0  0.00000000000E+00  0.00000000000E+00  0.12297297269E+03  0.12297297269E+03  0.00000000000E+00 0.  1.
         21   -1    0    0  501  502 -0.00000000000E+00 -0.00000000000E+00 -0.68094204318E+01  0.68094204318E+01  0.00000000000E+00 0.  1.
          2    1    1    2  501    0  0.25514427149E+02  0.86920579410E+01  0.81690248085E+02  0.86022290693E+02  0.00000000000E+00 0.  1.
         21    1    1    2  503  502 -0.25514427149E+02 -0.86920579410E+01  0.34473304178E+02  0.43760102432E+02  0.00000000000E+00 0.  1.
</event>
<event>
 4    1  0.2281973E+005  0.5355128E+02  0.7546771E-02  0.1283468E+00
          2   -1    0    0  502    0  0.00000000000E+00  0.00000000000E+00  0.50496243772E+03  0.50496243772E+03  0.00000000000E+00 0. -1.
         21   -1    0    0  503  502 -0.00000000000E+00 -0.00000000000E+00 -0.13275356036E+03  0.13275356036E+03  0.00000000000E+00 0.  1.
          2    1    1    2  501    0 -0.30314200867E+00  0.53550425981E+02  0.49806761835E+03  0.50093821223E+03  0.00000000000E+00 0. -1.
         21    1    1    2  503  501  0.30314200867E+00 -0.53550425981E+02 -0.12585874099E+03  0.13677778585E+03  0.00000000000E+00 0.  1.
</event>
<event>
 4    1  0.2281973E+005  0.3038351E+02  0.7546771E-02  0.1416292E+00
          2   -1    0    0  503    0  0.00000000000E+00  0.00000000000E+00  0.18341228315E+04  0.18341228315E+04  0.00000000000E+00 0.  1.
         21   -1    0    0  501  502 -0.00000000000E+00 -0.00000000000E+00 -0.63926006570E+01  0.63926006570E+01  0.00000000000E+00 0.  1.
          2    1    1    2  501    0  0.36653042720E+01  0.30161615450E+02  0.17971517705E+04  0.17974085912E+04  0.00000000000E+00 0.  1.
         21    1    1    2  503  502 -0.36653042720E+01 -0.30161615450E+02  0.30578460401E+02  0.43106841017E+02  0.00000000000E+00 0.  1.
</event>
<event>
 4    1  0.2281973E+005  0.3674525E+02  0.7546771E-02  0.1368692E+00
          2   -1    0    0  502    0  0.00000000000E+00  0.00000000000E+00  0.46772907233E+03  0.46772907233E+03  0.00000000000E+00 0. -1.
         21   -1    0    0  503  502 -0.00000000000E+00 -0.00000000000E+00 -0.47638919197E+02  0.47638919197E+02  0.00000000000E+00 0. -1.
          2    1    1    2  501    0  0.20934035716E+02 -0.30199003287E+02  0.45979972236E+03  0.46126564834E+03  0.00000000000E+00 0. -1.
         21    1    1    2  503  501 -0.20934035716E+02  0.30199003287E+02 -0.39709569227E+02  0.54102343194E+02  0.00000000000E+00 0. -1.
</event>
<event>
 4    1  0.2281973E+005  0.3546913E+02  0.7546771E-02  0.1377295E+00
          2   -1    0    0  503    0  0.00000000000E+00  0.00000000000E+00  0.42272322281E+03  0.42272322281E+03  0.00000000000E+00 0.  1.
         21   -1    0    0  501  502 -0.00000000000E+00 -0.00000000000E+00 -0.10699289187E+02  0.10699289187E+02  0.00000000000E+00 0. -1.
          2    1    1    2  501    0 -0.35305745472E+02  0.34004817006E+01  0.39013276601E+03  0.39174179513E+03  0.00000000000E+00 0.  1.
         21    1    1    2  503  502  0.35305745472E+02 -0.34004817006E+01  0.21891167620E+02  0.41680716872E+02  0.00000000000E+00 0. -1.
</event>
<event>
 4    1  0.2281973E+005  0.3184151E+02  0.7546771E-02  0.1404241E+00
          2   -1    0    0  502    0  0.00000000000E+00  0.00000000000E+00  0.17977615416E+04  0.17977615416E+04  0.00000000000E+00 0. -1.
         21   -1    0    0  503  502 -0.00000000000E+00 -0.00000000000E+00 -0.17464626093E+02  0.17464626093E+02  0.00000000000E+00 0.  1.
          2    1    1    2  501    0 -0.95904684389E+01 -0.30362887195E+02  0.17829869294E+04  0.17832712279E+04  0.00000000000E+00 0. -1.
         21    1    1    2  503  501  0.95904684389E+01  0.30362887195E+02 -0.26900138346E+01  0.31954939808E+02  0.00000000000E+00 0.  1.
</event>
<event>
 4    1  0.2281973E+005  0.2668219E+02  0.7546771E-02  0.1450827E+00
          2   -1    0    0  503    0  0.00000000000E+00  0.00000000000E+00  0.32856432678E+03  0.32856432678E+03  0.00000000000E+00 0. -1.
         21   -1    0    0  501  502 -0.00000000000E+00 -0.00000000000E+00 -0.22844189913E+01  0.22844189913E+01  0.00000000000E+00 0.  1.
          2    1    1    2  501    0 -0.20106973633E+02 -0.17539925623E+02  0.20067314774E+03  0.20243925410E+03  0.00000000000E+00 0. -1.
         21    1    1    2  503  502  0.20106973633E+02  0.17539925623E+02  0.12560676005E+03  0.12840949166E+03  0.00000000000E+00 0.  1.
</event>
<event>
 4    1  0.2281973E+005  0.2071030E+02  0.7546771E-02  0.1523442E+00
          2   -1    0    0  502    0  0.00000000000E+00  0.00000000000E+00  0.18396521428E+03  0.18396521428E+03  0.00000000000E+00 0.  1.
         21   -1    0    0  503  502 -0.00000000000E+00 -0.00000000000E+00 -0.87488752855E+01  0.87488752855E+01  0.00000000000E+00 0.  1.
          2    1    1    2  501    0 -0.15869756220E+02  0.13306658932E+02  0.17013322278E+03  0.17138911817E+03  0.00000000000E+00 0.  1.
         21    1    1    2  503  501  0.15869756220E+02 -0.13306658932E+02  0.50831162132E+01  0.21324971392E+02  0.00000000000E+00 0.  1.
</event>
<event>
 4    1  0.2281973E+005  0.2048723E+02  0.7546771E-02  0.1526713E+00
          2   -1    0    0  502    0  0.00000000000E+00  0.00000000000E+00  0.52716521412E+03  0.52716521412E+03  0.00000000000E+00 0. -1.
         21   -1    0    0  503  502 -0.00000000000E+00 -0.00000000000E+00 -0.95034383803E+01  0.95034383803E+01  0.00000000000E+00 0.  1.
          2    1    1    2  501    0 -0.16985865345E+01 -0.20416696535E+02  0.51567887982E+03  0.51608568454E+03  0.00000000000E+00 0. -1.
         21    1    1    2  503  501  0.16985865345E+01  0.20416696535E+02  0.19828959125E+01  0.20582967954E+02  0.00000000000E+00 0.  1.
</event>
<event>
 4    1  0.2281973E+005  0.2597910E+02  0.7546771E-02  0.1458142E+00
          2   -1    0    0  503    0  0.00000000000E+00  0.00000000000E+00  0.88067440644E+02  0.88067440644E+02  0.00000000000E+00 0. -1.
         21   -1    0    0  501  502 -0.00000000000E+00 -0.00000000000E+00 -0.10363684893E+03  0.10363684893E+03  0.00000000000E+00 0.  1.
          2    1    1    2  501    0  0.24824290139E+02 -0.76595226277E+01  0.84455410256E+02  0.88360794413E+02  0.00000000000E+00 0. -1.
         21    1    1    2  503  502 -0.24824290139E+02  0.76595226277E+01 -0.10002481855E+03  0.10334349517E+03  0.00000000000E+00 0.  1.
</event>
<event>
 4    1  0.2281973E+005  0.3745700E+02  0.7546771E-02  0.1364068E+00
          2   -1    0    0  503    0  0.00000000000E+00  0.00000000000E+00  0.10375955061E+02  0.10375955061E+02  0.00000000000E+00 0.  1.
         21   -1    0    0  501  502 -0.00000000000E+00 -0.00000000000E+00 -0.18359626657E+03  0.18359626657E+03  0.00000000000E+00 0.  1.
          2    1    1    2  501    0 -0.36210451760E+02 -0.95828042984E+01 -0.36825215859E+02  0.52527359327E+02  0.00000000000E+00 0.  1.
         21    1    1    2  503  502  0.36210451760E+02  0.95828042984E+01 -0.13639509565E+03  0.14144486230E+03  0.00000000000E+00 0.  1.
</event>
<event>
 4    1  0.2281973E+005  0.2628675E+02  0.7546771E-02  0.1454907E+00
          2   -1    0    0  503    0  0.00000000000E+00  0.00000000000E+00  0.48937983177E+03  0.48937983177E+03  0.00000000000E+00 0.  1.
         21   -1    0    0  501  502 -0.00000000000E+00 -0.00000000000E+00 -0.94756950827E+01  0.94756950827E+01  0.00000000000E+00 0. -1.
          2    1    1    2  501    0  0.52744120076E+00  0.26281459859E+02  0.47004692322E+03  0.47078137533E+03  0.00000000000E+00 0.  1.
         21    1    1    2  503  502 -0.52744120076E+00 -0.26281459859E+02  0.98572134675E+01  0.28074151526E+02  0.00000000000E+00 0. -1.
</event>
<event>
 4    1  0.2281973E+005  0.2252201E+02  0.7546771E-02  0.1498589E+00
          2   -1    0    0  503    0  0.00000000000E+00  0.00000000000E+00  0.21692426698E+02  0.21692426698E+02  0.00000000000E+00 0. -1.
         21   -1    0    0  501  502 -0.00000000000E+00 -0.00000000000E+00 -0.25936237959E+02  0.25936237959E+02  0.00000000000E+00 0. -1.
          2    1    1    2  501    0 -0.10272645592E+02 -0.20042798428E+02 -0.95933248999E+01  0.24480051039E+02  0.00000000000E+00 0. -1.
         21    1    1    2  503  502  0.10272645592E+02  0.20042798428E+02  0.53495136390E+01  0.23148613618E+02  0.00000000000E+00 0. -1.
</event>
<event>
 4    1  0.2281973E+005  0.2061452E+02  0.7546771E-02  0.1524840E+00
          2   -1    0    0  503    0  0.00000000000E+00  0.00000000000E+00  0.61811047121E+03  0.61811047121E+03  0.00000000000E+00 0. -1.
         21   -1    0    0  501  502 -0.00000000000E+00 -0.00000000000E+00 -0.49101731426E+02  0.49101731426E+02  0.00000000000E+00 0. -1.
          2    1    1    2  501    0  0.19835686172E+02 -0.56128469753E+01  0.61576669647E+03  0.61611166437E+03  0.00000000000E+00 0. -1.
         21    1    1    2  503  502 -0.19835686172E+02  0.56128469753E+01 -0.46757956686E+02  0.51100538261E+02  0.00000000000E+00 0. -1.
</event>
<event>
 4    1  0.2281973E+005  0.2738408E+02  0.7546771E-02  0.1443788E+00
          2   -1    0    0  502    0  0.00000000000E+00  0.00000000000E+00  0.12061889775E+04  0.12061889775E+04  0.00000000000E+00 0. -1.
         21   -1    0    0  503  502 -0.00000000000E+00 -0.00000000000E+00 -0.68107470028E+00  0.68107470028E+00  0.00000000000E+00 0. -1.
          2    1    1    2  501    0 -0.18449163883E+02 -0.20236510875E+02  0.78092324022E+03  0.78140322187E+03  0.00000000000E+00 0. -1.
         21    1    1    2  503  501  0.18449163883E+02  0.20236510875E+02  0.42458466262E+03  0.42546683038E+03  0.00000000000E+00 0. -1.
</event>
<event>
 4    1  0.2281973E+005  0.2359653E+02  0.7546771E-02  0.1485140E+00
          2   -1    0    0  502    0  0.00000000000E+00  0.00000000000E+00  0.20314715164E+03  0.20314715164E+03  0.00000000000E+00 0.  1.
         21   -1    0    0  503  502 -0.00000000000E+00 -0.00000000000E+00 -0.15288526213E+02  0.15288526213E+02  0.00000000000E+00 0.  1.
          2    1    1    2  501    0 -0.15966885787E+02 -0.17373961951E+02  0.19287398375E+03  0.19431204183E+03  0.00000000000E+00 0.  1.
         21    1    1    2  503  501  0.15966885787E+02  0.17373961951E+02 -0.50153583212E+01  0.24123636018E+02  0.00000000000E+00 0.  1.
</event>
<event>
 4    1  0.2281973E+005  0.2810486E+02  0.7546771E-02  0.1436815E+00
          2   -1    0    0  502    0  0.00000000000E+00  0.00000000000E+00  0.74992644013E+02  0.74992644013E+02  0.00000000000E+00 0. -1.
         21   -1    0    0  503  502 -0.00000000000E+00 -0.00000000000E+00 -0.29037413023E+03  0.29037413023E+03  0.00000000000E+00 0. -1.
          2    1    1    2  501    0 -0.27848440173E+02 -0.37877832139E+01  0.71648783233E+02  0.76963829560E+02  0.00000000000E+00 0. -1.
         21    1    1    2  503  501  0.27848440173E+02  0.37877832139E+01 -0.28703026945E+03  0.28840294469E+03  0.00000000000E+00 0. -1.
</event>
<event>
 4    1  0.2281973E+005  0.2117125E+02  0.7546771E-02  0.1516834E+00
          2   -1    0    0  503    0  0.00000000000E+00  0.00000000000E+00  0.85450084204E+00  0.85450084204E+00  0.00000000000E+00 0.  1.
         21   -1    0    0  501  502 -0.00000000000E+00 -0.00000000000E+00 -0.78484017088E+03  0.78484017088E+03  0.00000000000E+00 0.  1.
          2    1    1    2  501    0 -0.12491315537E+02  0.17093527272E+02 -0.16575319441E+03  0.16709979981E+03  0.00000000000E+00 0.  1.
         21    1    1    2  503  502  0.12491315537E+02 -0.17093527272E+02 -0.61823247563E+03  0.61859487192E+03  0.00000000000E+00 0.  1.
</event>
<event>
 4    1  0.2281973E+005  0.2528784E+02  0.7546771E-02  0.1465609E+00
          2   -1    0    0  503    0  0.00000000000E+00  0.00000000000E+00  0.16722705549E+04  0.16722705549E+04  0.00000000000E+00 0.  1.
         21   -1    0    0  501  502 -0.00000000000E+00 -0.00000000000E+00 -0.22993403311E+01  0.22993403311E+01  0.00000000000E+00 0. -1.
          2    1    1    2  501    0  0.51531381626E+01 -0.24757222356E+02  0.15994830645E+04  0.15996829525E+04  0.00000000000E+00 0.  1.
         21    1    1    2  503  502 -0.51531381626E+01  0.24757222356E+02  0.70488150066E+02  0.74886942730E+02  0.00000000000E+00 0. -1.
</event>
<event>
 4    1  0.2281973E+005  0.2214993E+02  0.7546771E-02  0.1503457E+00
          2   -1    0    0  503    0  0.00000000000E+00  0.00000000000E+00  0.15740549713E+03  0.15740549713E+03  0.00000000000E+00 0. -1.
         21   -1    0    0  501  502 -0.00000000000E+00 -0.00000000000E+00 -0.15763897922E+03  0.15763897922E+03  0.00000000000E+00 0. -1.
          2    1    1    2  501    0 -0.10702575906E+02  0.19392639351E+02  0.15584041864E+03  0.15740665702E+03  0.00000000000E+00 0. -1.
         21    1    1    2  503  502  0.10702575906E+02 -0.19392639351E+02 -0.15607390073E+03  0.15763781933E+03  0.00000000000E+00 0. -1.
</event>
<event>
 4    1  0.2281973E+005  0.8355365E+02  0.7546771E-02  0.1195830E+00
          2   -1    0    0  502    0  0.00000000000E+00  0.00000000000E+00  0.44829774072E+03  0.44829774072E+03  0.00000000000E+00 0.  1.
         21   -1    0    0  503  502 -0.00000000000E+00 -0.00000000000E+00 -0.48916140026E+02  0.48916140026E+02  0.00000000000E+00 0. -1.
          2    1    1    2  501    0  0.32787659614E+02  0.76851684195E+02  0.40494510647E+03  0.41347521236E+03  0.00000000000E+00 0.  1.
         21    1    1    2  503  501 -0.32787659614E+02 -0.76851684195E+02 -0.55635057717E+01  0.83738668386E+02  0.00000000000E+00 0. -1.
</event>
<event>
 4    1  0.2281973E+005  0.3433869E+02  0.7546771E-02  0.1385273E+00
          2   -1    0    0  502    0  0.00000000000E+00  0.00000000000E+00  0.14755651961E+04  0.14755651961E+04  0.00000000000E+00 0. -1.
         21   -1    0    0  503  502 -0.00000000000E+00 -0.00000000000E+00 -0.18003689229E+01  0.18003689229E+01  0.00000000000E+00 0. -1.
          2    1    1    2  501    0 -0.33503133017E+02  0.75289702155E+01  0.12877528682E+04  0.12882106174E+04  0.00000000000E+00 0. -1.
         21    1    1    2  503  501  0.33503133017E+02 -0.75289702155E+01  0.18601195896E+03  0.18915494757E+03  0.00000000000E+00 0. -1.
</event>
<event>
 4    1  0.2281973E+005  0.3652840E+02  0.7546771E-02  0.1370125E+00
          2   -1    0    0  502    0  0.00000000000E+00  0.00000000000E+00  0.22941644176E+04  0.22941644176E+04  0.00000000000E+00 0. -1.
         21   -1    0    0  503  502 -0.00000000000E+00 -0.00000000000E+00 -0.26119471979E+02  0.26119471979E+02  0.00000000000E+00 0. -1.
          2    1    1    2  501    0 -0.32038804716E+01 -0.36387620599E+02  0.22811749444E+04  0.22814673898E+04  0.00000000000E+00 0. -1.
         21    1    1    2  503  501  0.32038804716E+01  0.36387620599E+02 -0.13129998817E+02  0.38816499737E+02  0.00000000000E+00 0. -1.
</event>
<event>
 4    1  0.2281973E+005  0.5094895E+02  0.7546771E-02  0.1294110E+00
          2   -1    0    0  503    0  0.00000000000E+00  0.00000000000E+00  0.88225288677E+02  0.88225288677E+02  0.00000000000E+00 0.  1.
         21   -1    0    0  501  502 -0.00000000000E+00 -0.00000000000E+00 -0.11524797009E+03  0.11524797009E+03  0.00000000000E+00 0.  1.
          2    1    1    2  501    0 -0.44688111702E+02 -0.24469747826E+02  0.74283533604E+02  0.90076851915E+02  0.00000000000E+00 0.  1.
         21    1    1    2  503  502  0.44688111702E+02  0.24469747826E+02 -0.10130621502E+03  0.11339640685E+03  0.00000000000E+00 0.  1.
</event>
<event>
 4    1  0.2281973E+005  0.2647624E+02  0.7546771E-02  0.1452941E+00
          2   -1    0    0  503    0  0.00000000000E+00  0.00000000000E+00  0.38971263365E+03  0.38971263365E+03  0.00000000000E+00 0.  1.
         21   -1    0    0  501  502 -0.00000000000E+00 -0.00000000000E+00 -0.51069518773E+02  0.51069518773E+02  0.00000000000E+00 0.  1.
          2    1    1    2  501    0  0.60539302791E+01  0.25774819780E+02  0.38579660295E+03  0.38670403444E+03  0.00000000000E+00 0.  1.
         21    1    1    2  503  502 -0.60539302791E+01 -0.25774819780E+02 -0.47153488074E+02  0.54078117979E+02  0.00000000000E+00 0.  1.
</event>
<event>
 4    1  0.2281973E+005  0.2038939E+02  0.7546771E-02  0.1528164E+00
          2   -1    0    0  502    0  0.00000000000E+00  0.00000000000E+00  0.27688185915E+03  0.27688185915E+03  0.00000000000E+00 0.  1.
         21   -1    0    0  503  502 -0.00000000000E+00 -0.00000000000E+00 -0.37568574005E+01  0.37568574005E+01  0.00000000000E+00 0.  1.
          2    1    1    2  501    0  0.20361529299E+02 -0.10655945258E+01  0.24528430669E+03  0.24613028760E+03  0.00000000000E+00 0.  1.
         21    1    1    2  503  501 -0.20361529299E+02  0.10655945258E+01  0.27840695064E+02  0.34508428953E+02  0.00000000000E+00 0.  1.
</event>
<event>
 4    1  0.2281973E+005  0.2108341E+02  0.7546771E-02  0.1518077E+00
          2   -1    0    0  502    0  0.00000000000E+00  0.00000000000E+00  0.60126934337E+03  0.60126934337E+03  0.00000000000E+00 0.  1.
         21   -1    0    0  503  502 -0.00000000000E+00 -0.00000000000E+00 -0.25432153806E+01  0.25432153806E+01  0.00000000000E+00 0.  1.
          2    1    1    2  501    0  0.18903817853E+02 -0.93357336096E+01  0.55363023587E+03  0.55403154091E+03  0.00000000000E+00 0.  1.
         21    1    1    2  503  501 -0.18903817853E+02  0.93357336096E+01  0.45095892123E+02  0.49781017846E+02  0.00000000000E+00 0.  1.
</event>
<event>
 4    1  0.2281973E+005  0.2044918E+02  0.7546771E-02  0.1527276E+00
          2   -1    0    0  502    0  0.00000000000E+00  0.00000000000E+00  0.61982801673E+02  0.61982801673E+02  0.00000000000E+00 0. -1.
         21   -1    0    0  503  502 -0.00000000000E+00 -0.00000000000E+00 -0.24078489916E+03  0.24078489916E+03  0.00000000000E+00 0. -1.
          2    1    1    2  501    0  0.18331032680E+02 -0.90632408645E+01  0.59846927712E+02  0.63244160605E+02  0.00000000000E+00 0. -1.
         21    1    1    2  503  501 -0.18331032680E+02  0.90632408645E+01 -0.23864902520E+03  0.23952354023E+03  0.00000000000E+00 0. -1.
</event>
<event>
 4    1  0.2281973E+005  0.2117752E+02  0.7546771E-02  0.1516745E+00
          2   -1    0    0  503    0  0.00000000000E+00  0.00000000000E+00  0.19396717161E+03  0.19396717161E+03  0.00000000000E+00 0. -1.
         21   -1    0    0  501  502 -0.00000000000E+00 -0.00000000000E+00 -0.23399692796E+01  0.23399692796E+01  0.00000000000E+00 0. -1.
          2    1    1    2  501    0  0.19305450713E+02 -0.87055580678E+01  0.10650989881E+03  0.10859486964E+03  0.00000000000E+00 0. -1.
         21    1    1    2  503  502 -0.19305450713E+02  0.87055580678E+01  0.85117303525E+02  0.87712271250E+02  0.00000000000E+00 0. -1.
</event>
<event>
 4    1  0.2281973E+005  0.2184712E+02  0.7546771E-02  0.1507505E+00
          2   -1    0    0  502    0  0.00000000000E+00  0.00000000000E+00  0.16235042994E+04  0.16235042994E+04  0.00000000000E+00 0. -1.
         21   -1    0    0  503  502 -0.00000000000E+00 -0.00000000000E+00 -0.20601914740E+01  0.20601914740E+01  0.00000000000E+00 0.  1.
          2    1    1    2  501    0 -0.21831665481E+02  0.82160561745E+00  0.15632806801E+04  0.15634333313E+04  0.00000000000E+00 0. -1.
         21    1    1    2  503  501  0.21831665481E+02 -0.82160561745E+00  0.58163427855E+02  0.62131159600E+02  0.00000000000E+00 0.  1.
</event>
<event>
 4    1  0.2281973E+005  0.2508951E+02  0.7546771E-02  0.1467805E+00
          2   -1    0    0  503    0  0.00000000000E+00  0.00000000000E+00  0.10128422437E+04  0.10128422437E+04  0.00000000000E+00 0.  1.
         21   -1    0    0  501  502 -0.00000000000E+00 -0.00000000000E+00 -0.23991178685E+01  0.23991178685E+01  0.00000000000E+00 0. -1.
          2    1    1    2  501    0  0.57323144956E+01 -0.24425887456E+02  0.94217230628E+03  0.94250630668E+03  0.00000000000E+00 0.  1.
         21    1    1    2  503  502 -0.57323144956E+01  0.24425887456E+02  0.68270819533E+02  0.72735054872E+02  0.00000000000E+00 0. -1.
</event>
<event>
 4    1  0.2281973E+005  0.2421971E+02  0.7546771E-02  0.1477725E+00
          2   -1    0    0  502    0  0.00000000000E+00  0.00000000000E+00  0.14136477842E+04  0.14136477842E+04  0.00000000000E+00 0. -1.
         21   -1    0    0  503  502 -0.00000000000E+00 -0.00000000000E+00 -0.11486844123E+02  0.11486844123E+02  0.00000000000E+00 0.  1.
          2    1    1    2  501    0  0.23150633821E+02 -0.71163640820E+01  0.14006590069E+04  0.14008683907E+04  0.00000000000E+00 0. -1.
         21    1    1    2  503  501 -0.23150633821E+02  0.71163640820E+01  0.15019331654E+01  0.24266237600E+02  0.00000000000E+00 0.  1.
</event>
<event>
 4    1  0.2281973E+005  0.2363660E+02  0.7546771E-02  0.1484655E+00
          2   -1    0    0  502    0  0.00000000000E+00  0.00000000000E+00  0.17897851640E+04  0.17897851640E+04  0.00000000000E+00 0.  1.
         21   -1    0    0  503  502 -0.00000000000E+00 -0.00000000000E+00 -0.20837322088E+01  0.20837322088E+01  0.00000000000E+00 0. -1.
          2    1    1    2  501    0  0.19262248682E+02 -0.13698706518E+02  0.17199560662E+04  0.17201184722E+04  0.00000000000E+00 0.  1.
         21    1    1    2  503  501 -0.19262248682E+02  0.13698706518E+02  0.67745365572E+02  0.71750423978E+02  0.00000000000E+00 0. -1.
</event>
<event>
 4    1  0.2281973E+005  0.2325946E+02  0.7546771E-02  0.1489266E+00
          2   -1    0    0  503    0  0.00000000000E+00  0.00000000000E+00  0.12097235074E+02  0.12097235074E+02  0.00000000000E+00 0. -1.
         21   -1    0    0  501  502 -0.00000000000E+00 -0.00000000000E+00 -0.12751563543E+03  0.12751563543E+03  0.00000000000E+00 0. -1.
          2    1    1    2  501    0 -0.21891460371E+02  0.78591695785E+01 -0.14602556598E+01  0.23305255421E+02  0.00000000000E+00 0. -1.
         21    1    1    2  503  502  0.21891460371E+02 -0.78591695785E+01 -0.11395814470E+03  0.11630761509E+03  0.00000000000E+00 0. -1.
</event>
<event>
 4    1  0.2281973E+005  0.2097103E+02  0.7546771E-02  0.1519679E+00
          2   -1    0    0  503    0  0.00000000000E+00  0.00000000000E+00  0.71453494974E+03  0.71453494974E+03  0.00000000000E+00 0.  1.
         21   -1    0    0  501  502 -0.00000000000E+00 -0.00000000000E+00 -0.61702830783E+00  0.61702830783E+00  0.00000000000E+00 0.  1.
          2    1    1    2  501    0  0.11375759814E+02  0.17617491623E+02  0.37485517082E+03  0.37544131767E+03  0.00000000000E+00 0.  1.
         21    1    1    2  503  502 -0.11375759814E+02 -0.17617491623E+02  0.33906275062E+03  0.33971066038E+03  0.00000000000E+00 0.  1.
</event>
<event>
 4    1  0.2281973E+005  0.2007688E+02  0.7546771E-02  0.1532864E+00
          2   -1    0    0  503    0  0.00000000000E+00  0.00000000000E+00  0.75633895118E+03  0.75633895118E+03  0.00000000000E+00 0. -1.
         21   -1    0    0  501  502 -0.00000000000E+00 -0.00000000000E+00 -0.53625769568E+00  0.53625769568E+00  0.00000000000E+00 0. -1.
          2    1    1    2  501    0  0.92836934691E+01  0.17801519283E+02  0.40768091918E+03  0.40817497831E+03  0.00000000000E+00 0. -1.
         21    1    1    2  503  502 -0.92836934691E+01 -0.17801519283E+02  0.34812177430E+03  0.34870023057E+03  0.00000000000E+00 0. -1.
</event>
<event>
 4    1  0.2281973E+005  0.4367694E+02  0.7546771E-02  0.1328189E+00
          2   -1    0    0  502    0  0.00000000000E+00  0.00000000000E+00  0.19944210660E+03  0.19944210660E+03  0.00000000000E+00 0. -1.
         21   -1    0    0  503  502 -0.00000000000E+00 -0.00000000000E+00 -0.14680053086E+02  0.14680053086E+02  0.00000000000E+00 0. -1.
          2    1    1    2  501    0 -0.38575728249E+02 -0.20483849094E+02  0.15557716044E+03  0.16159185541E+03  0.00000000000E+00 0. -1.
         21    1    1    2  503  501  0.38575728249E+02  0.20483849094E+02  0.29184893070E+02  0.52530304274E+02  0.00000000000E+00 0. -1.
</event>
<event>
 4    1  0.2281973E+005  0.2158554E+02  0.7546771E-02  0.1511067E+00
          2   -1    0    0  503    0  0.00000000000E+00  0.00000000000E+00  0.86537638731E+02  0.86537638731E+02  0.00000000000E+00 0. -1.
         21   -1    0    0  501  502 -0.00000000000E+00 -0.00000000000E+00 -0.57780594790E+01  0.57780594790E+01  0.00000000000E+00 0. -1.
          2    1    1    2  501    0 -0.14122087450E+02 -0.16324896797E+02  0.52430909556E+02  0.56700404639E+02  0.00000000000E+00 0. -1.
         21    1    1    2  503  502  0.14122087450E+02  0.16324896797E+02  0.28328669696E+02  0.35615293571E+02  0.00000000000E+00 0. -1.
</event>
<event>
 4    1  0.2281973E+005  0.2230498E+02  0.7546771E-02  0.1501415E+00
          2   -1    0    0  502    0  0.00000000000E+00  0.00000000000E+00  0.29831742963E+02  0.29831742963E+02  0.00000000000E+00 0.  1.
         21   -1    0    0  503  502 -0.00000000000E+00 -0.00000000000E+00 -0.27722018465E+02  0.27722018465E+02  0.00000000000E+00 0. -1.
          2    1    1    2  501    0 -0.11080354463E+02  0.19358145828E+02  0.19218765727E+02  0.29442707433E+02  0.00000000000E+00 0.  1.
         21    1    1    2  503  501  0.11080354463E+02 -0.19358145828E+02 -0.17109041229E+02  0.28111053995E+02  0.00000000000E+00 0. -1.
</event>
<event>
 4    1  0.2281973E+005  0.5408272E+02  0.7546771E-02  0.1281380E+00
          2   -1    0    0  502    0  0.00000000000E+00  0.00000000000E+00  0.66883789776E+03  0.66883789776E+03  0.00000000000E+00 0.  1.
         21   -1    0    0  503  502 -0.00000000000E+00 -0.00000000000E+00 -0.66153736641E+01  0.66153736641E+01  0.00000000000E+00 0.  1.
          2    1    1    2  501    0  0.53657030704E+02  0.67722604183E+01  0.52773042900E+03  0.53049443555E+03  0.00000000000E+00 0.  1.
         21    1    1    2  503  501 -0.53657030704E+02 -0.67722604183E+01  0.13449209509E+03  0.14495883587E+03  0.00000000000E+00 0.  1.
</event>
<event>
 4    1  0.2281973E+005  0.3922096E+02  0.7546771E-02  0.1353112E+00
          2   -1    0    0  502    0  0.00000000000E+00  0.00000000000E+00  0.24831846917E+02  0.24831846917E+02  0.00000000000E+00 0.  1.
         21   -1    0    0  503  502 -0.00000000000E+00 -0.00000000000E+00 -0.24859341067E+03  0.24859341067E+03  0.00000000000E+00 0.  1.
          2    1    1    2  501    0 -0.39173892197E+02 -0.19209909303E+01  0.65794147070E+01  0.39768992116E+02  0.00000000000E+00 0.  1.
         21    1    1    2  503  501  0.39173892197E+02  0.19209909303E+01 -0.23034097846E+03  0.23365626547E+03  0.00000000000E+00 0.  1.
</event>
<event>
 4    1  0.2281973E+005  0.2587291E+02  0.7546771E-02  0.1459271E+00
          2   -1    0    0  502    0  0.00000000000E+00  0.00000000000E+00  0.96696485911E+01  0.96696485911E+01  0.00000000000E+00 0.  1.
         21   -1    0    0  503  502 -0.00000000000E+00 -0.00000000000E+00 -0.34159612638E+03  0.34159612638E+03  0.00000000000E+00 0.  1.
          2    1    1    2  501    0 -0.20106314516E+02  0.16283227041E+02 -0.91337355026E+01  0.27437793106E+02  0.00000000000E+00 0.  1.
         21    1    1    2  503  501  0.20106314516E+02 -0.16283227041E+02 -0.32279274229E+03  0.32382798187E+03  0.00000000000E+00 0.  1.
</event>
<event>
 4    1  0.2281973E+005  0.2341095E+02  0.7546771E-02  0.1487401E+00
          2   -1    0    0  503    0  0.00000000000E+00  0.00000000000E+00  0.19151585033E+03  0.19151585033E+03  0.00000000000E+00 0. -1.
         21   -1    0    0  501  502 -0.00000000000E+00 -0.00000000000E+00 -0.28941756405E+02  0.28941756405E+02  0.00000000000E+00 0.  1.
          2    1    1    2  501    0 -0.18317083360E+02 -0.14579329829E+02  0.18592432035E+03  0.18739243661E+03  0.00000000000E+00 0. -1.
         21    1    1    2  503  502  0.18317083360E+02  0.14579329829E+02 -0.23350226426E+02  0.33065170123E+02  0.00000000000E+00 0.  1.
</event>
<event>
 4    1  0.2281973E+005  0.7716941E+02  0.7546771E-02  0.1210576E+00
          2   -1    0    0  502    0  0.00000000000E+00  0.00000000000E+00  0.19626915609E+04  0.19626915609E+04  0.00000000000E+00 0.  1.
         21   -1    0    0  503  502 -0.00000000000E+00 -0.00000000000E+00 -0.22524960138E+02  0.22524960138E+02  0.00000000000E+00 0.  1.
          2    1    1    2  501    0  0.77163922796E+02 -0.91991876412E+00  0.18934213244E+04  0.18949932530E+04  0.00000000000E+00 0.  1.
         21    1    1    2  503  501 -0.77163922796E+02  0.91991876412E+00  0.46745276349E+02  0.90223268023E+02  0.00000000000E+00 0.  1.
</event>
<event>
 4    1  0.2281973E+005  0.2310309E+02  0.7546771E-02  0.1491208E+00
          2   -1    0    0  502    0  0.00000000000E+00  0.00000000000E+00  0.24930937383E+00  0.24930937383E+00  0.00000000000E+00 0. -1.
         21   -1    0    0  503  502 -0.00000000000E+00 -0.00000000000E+00 -0.21419252162E+04  0.21419252162E+04  0.00000000000E+00 0. -1.
          2    1    1    2  501    0 -0.22307702437E+01 -0.22995138169E+02 -0.10939815701E+04  0.10942254925E+04  0.00000000000E+00 0. -1.
         21    1    1    2  503  501  0.22307702437E+01  0.22995138169E+02 -0.10476943367E+04  0.10479490330E+04  0.00000000000E+00 0. -1.
</event>
<event>
 4    1  0.2281973E+005  0.2069407E+02  0.7546771E-02  0.1523678E+00
          2   -1    0    0  502    0  0.00000000000E+00  0.00000000000E+00  0.12093806373E+04  0.12093806373E+04  0.00000000000E+00 0.  1.
         21   -1    0    0  503  502 -0.00000000000E+00 -0.00000000000E+00 -0.33719462241E+02  0.33719462241E+02  0.00000000000E+00 0.  1.
          2    1    1    2  501    0  0.42654323710E+00  0.20689668995E+02  0.12061084453E+04  0.12062859637E+04  0.00000000000E+00 0.  1.
         21    1    1    2  503  501 -0.42654323710E+00 -0.20689668995E+02 -0.30447270181E+02  0.36814135923E+02  0.00000000000E+00 0.  1.
</event>
<event>
 4    1  0.2281973E+005  0.3159442E+02  0.7546771E-02  0.1406229E+00
          2   -1    0    0  502    0  0.00000000000E+00  0.00000000000E+00  0.18897556616E+04  0.18897556616E+04  0.00000000000E+00 0. -1.
         21   -1    0    0  503  502 -0.00000000000E+00 -0.00000000000E+00 -0.53711628399E+00  0.53711628399E+00  0.00000000000E+00 0.  1.
          2    1    1    2  501    0 -0.30267231414E+02  0.90610300646E+01  0.10662442694E+04  0.10667122618E+04  0.00000000000E+00 0. -1.
         21    1    1    2  503  501  0.30267231414E+02 -0.90610300646E+01  0.82297427596E+03  0.82358051607E+03  0.00000000000E+00 0.  1.
</event>
<event>
 4    1  0.2281973E+005  0.2485449E+02  0.7546771E-02  0.1470438E+00
          2   -1    0    0  502    0  0.00000000000E+00  0.00000000000E+00  0.43830633290E+03  0.43830633290E+03  0.00000000000E+00 0.  1.
         21   -1    0    0  503  502 -0.00000000000E+00 -0.00000000000E+00 -0.71863969045E+01  0.71863969045E+01  0.00000000000E+00 0.  1.
          2    1    1    2  501    0  0.12460748870E+02 -0.21505239366E+02  0.41527298907E+03  0.41601610670E+03  0.00000000000E+00 0.  1.
         21    1    1    2  503  501 -0.12460748870E+02  0.21505239366E+02  0.15846946918E+02  0.29476623097E+02  0.00000000000E+00 0.  1.
</event>
<event>
 4    1  0.2281973E+005  0.2181269E+02  0.7546771E-02  0.1507971E+00
          2   -1    0    0  502    0  0.00000000000E+00  0.00000000000E+00  0.99787069901E+02  0.99787069901E+02  0.00000000000E+00 0. -1.
         21   -1    0    0  503  502 -0.00000000000E+00 -0.00000000000E+00 -0.60037410688E+01  0.60037410688E+01  0.00000000000E+00 0. -1.
          2    1    1    2  501    0 -0.20255272592E+02 -0.80942704797E+01  0.70888594544E+02  0.74168632985E+02  0.00000000000E+00 0. -1.
         21    1    1    2  503  501  0.20255272592E+02  0.80942704797E+01  0.22894734288E+02  0.31622177985E+02  0.00000000000E+00 0. -1.
</event>
<event>
 4    1  0.2281973E+005  0.2819961E+02  0.7546771E-02  0.1435916E+00
          2   -1    0    0  503    0  0.00000000000E+00  0.00000000000E+00  0.12717681216E+04  0.12717681216E+04  0.00000000000E+00 0.  1.
         21   -1    0    0  501  502 -0.00000000000E+00 -0.00000000000E+00 -0.11505818291E+01  0.11505818291E+01  0.00000000000E+00 0.  1.
          2    1    1    2  501    0 -0.27997417461E+02 -0.33708427888E+01  0.10653540293E+04  0.10657271816E+04  0.00000000000E+00 0.  1.
         21    1    1    2  503  502  0.27997417461E+02  0.33708427888E+01  0.20526351048E+03  0.20719152178E+03  0.00000000000E+00 0.  1.
</event>
<event>
 4    1  0.2281973E+005  0.5625335E+02  0.7546771E-02  0.1273123E+00
          2   -1    0    0  502    0  0.00000000000E+00  0.00000000000E+00  0.85520809697E+03  0.85520809697E+03  0.00000000000E+00 0.  1.
         21   -1    0    0  503  502 -0.00000000000E+00 -0.00000000000E+00 -0.73906128682E+01  0.73906128682E+01  0.00000000000E+00 0. -1.
          2    1    1    2  501    0  0.32737749268E+02 -0.45745811628E+02  0.72868151207E+03  0.73084963265E+03  0.00000000000E+00 0.  1.
         21    1    1    2  503  501 -0.32737749268E+02  0.45745811628E+02  0.11913597203E+03  0.13174907719E+03  0.00000000000E+00 0. -1.
</event>
<event>
 4    1  0.2281973E+005  0.2368531E+02  0.7546771E-02  0.1484067E+00
          2   -1    0    0  502    0  0.00000000000E+00  0.00000000000E+00  0.53874296039E+03  0.53874296039E+03  0.00000000000E+00 0. -1.
         21   -1    0    0  503  502 -0.00000000000E+00 -0.00000000000E+00 -0.39743143888E+01  0.39743143888E+01  0.00000000000E+00 0. -1.
          2    1    1    2  501    0  0.18761319210E+02  0.14457064194E+02  0.50049895438E+03  0.50105907549E+03  0.00000000000E+00 0. -1.
         21    1    1    2  503  501 -0.18761319210E+02 -0.14457064194E+02  0.34269691629E+02  0.41658199288E+02  0.00000000000E+00 0. -1.
</event>
<event>
 4    1  0.2281973E+005  0.3031868E+02  0.7546771E-02  0.1416847E+00
          2   -1    0    0  502    0  0.00000000000E+00  0.00000000000E+00  0.58640713339E+02  0.58640713339E+02  0.00000000000E+00 0. -1.
         21   -1    0    0  503  502 -0.00000000000E+00 -0.00000000000E+00 -0.57787063910E+02  0.57787063910E+02  0.00000000000E+00 0.  1.
          2    1    1    2  501    0  0.26419326540E+02  0.14874196052E+02  0.50121742837E+02  0.58578252176E+02  0.00000000000E+00 0. -1.
         21    1    1    2  503  501 -0.26419326540E+02 -0.14874196052E+02 -0.49268093409E+02  0.57849525072E+02  0.00000000000E+00 0.  1.
</event>
<event>
 4    1  0.2281973E+005  0.3103236E+02  0.7546771E-02  0.1410832E+00
          2   -1    0    0  502    0  0.00000000000E+00  0.00000000000E+00  0.17644642800E+03  0.17644642800E+03  0.00000000000E+00 0.  1.
         21   -1    0    0  503  502 -0.00000000000E+00 -0.00000000000E+00 -0.10375212626E+02  0.10375212626E+02  0.00000000000E+00 0. -1.
          2    1    1    2  501    0 -0.24553597135E+02  0.18977047680E+02  0.14734397305E+03  0.15057640541E+03  0.00000000000E+00 0.  1.
         21    1    1    2  503  501  0.24553597135E+02 -0.18977047680E+02  0.18727242318E+02  0.36245235214E+02  0.00000000000E+00 0. -1.
</event>
<event>
 4    1  0.2281973E+005  0.2377014E+02  0.7546771E-02  0.1483047E+00
          2   -1    0    0  502    0  0.00000000000E+00  0.00000000000E+00  0.60648378408E+02  0.60648378408E+02  0.00000000000E+00 0. -1.
         21   -1    0    0  503  502 -0.00000000000E+00 -0.00000000000E+00 -0.10571254436E+02  0.10571254436E+02  0.00000000000E+00 0. -1.
          2    1    1    2  501    0 -0.73486486655E+01 -0.22605678373E+02  0.37307812740E+02  0.44236774558E+02  0.00000000000E+00 0. -1.
         21    1    1    2  503  501  0.73486486655E+01  0.22605678373E+02  0.12769311232E+02  0.26982858285E+02  0.00000000000E+00 0. -1.
</event>
<event>
 4    1  0.2281973E+005  0.2489246E+02  0.7546771E-02  0.1470010E+00
          2   -1    0    0  502    0  0.00000000000E+00  0.00000000000E+00  0.86535064779E+03  0.86535064779E+03  0.00000000000E+00 0.  1.
         21   -1    0    0  503  502 -0.00000000000E+00 -0.00000000000E+00 -0.72856712755E+00  0.72856712755E+00  0.00000000000E+00 0. -1.
          2    1    1    2  501    0 -0.10414236775E+02 -0.22609253891E+02  0.48907046707E+03  0.48970353935E+03  0.00000000000E+00 0.  1.
         21    1    1    2  503  501  0.10414236775E+02  0.22609253891E+02  0.37555161359E+03  0.37637567557E+03  0.00000000000E+00 0. -1.
</event>
<event>
 4    1  0.2281973E+005  0.3169870E+02  0.7546771E-02  0.1405387E+00
          2   -1    0    0  503    0  0.00000000000E+00  0.00000000000E+00  0.22460841415E+03  0.22460841415E+03  0.00000000000E+00 0.  1.
         21   -1    0    0  501  502 -0.00000000000E+00 -0.00000000000E+00 -0.82585641782E+03  0.82585641782E+03  0.00000000000E+00 0. -1.
          2    1    1    2  501    0  0.25241042703E+02 -0.19175436651E+02  0.22318391168E+03  0.22542374773E+03  0.00000000000E+00 0.  1.
         21    1    1    2  503  502 -0.25241042703E+02  0.19175436651E+02 -0.82443191536E+03  0.82504108423E+03  0.00000000000E+00 0. -1.
</event>
<event>
 4    1  0.2281973E+005  0.2577902E+02  0.7546771E-02  0.1460274E+00
          2   -1    0    0  503    0  0.00000000000E+00  0.00000000000E+00  0.94945211667E+00  0.94945211667E+00  0.00000000000E+00 0.  1.
         21   -1    0    0  501  502 -0.00000000000E+00 -0.00000000000E+00 -0.10452750557E+04  0.10452750557E+04  0.00000000000E+00 0.  1.
          2    1    1    2  501    0  0.25741516367E+02 -0.13900281632E+01 -0.22148522573E+03  0.22298040959E+03  0.00000000000E+00 0.  1.
         21    1    1    2  503  502 -0.25741516367E+02  0.13900281632E+01 -0.82284037787E+03  0.82324409825E+03  0.00000000000E+00 0.  1.
</event>
<event>
 4    1  0.2281973E+005  0.2876270E+02  0.7546771E-02  0.1430662E+00
          2   -1    0    0  502    0  0.00000000000E+00  0.00000000000E+00  0.11384390047E+04  0.11384390047E+04  0.00000000000E+00 0.  1.
         21   -1    0    0  503  502 -0.00000000000E+00 -0.00000000000E+00 -0.26381744832E+02  0.26381744832E+02  0.00000000000E+00 0.  1.
          2    1    1    2  501    0  0.27820810711E+02 -0.73003825570E+01  0.11303616848E+04  0.11307275674E+04  0.00000000000E+00 0.  1.
         21    1    1    2  503  501 -0.27820810711E+02  0.73003825570E+01 -0.18304424982E+02  0.34093182134E+02  0.00000000000E+00 0.  1.
</event>
<event>
 4    1  0.2281973E+005  0.2486956E+02  0.7546771E-02  0.1470268E+00
          2   -1    0    0  503    0  0.00000000000E+00  0.00000000000E+00  0.14499568571E+03  0.14499568571E+03  0.00000000000E+00 0. -1.
         21   -1    0    0  501  502 -0.00000000000E+00 -0.00000000000E+00 -0.46522814174E+02  0.46522814174E+02  0.00000000000E+00 0.  1.
          2    1    1    2  501    0 -0.10686308586E+02  0.22456580075E+02  0.14050014634E+03  0.14268421882E+03  0.00000000000E+00 0. -1.
         21    1    1    2  503  502  0.10686308586E+02 -0.22456580075E+02 -0.42027274800E+02  0.48834281063E+02  0.00000000000E+00 0.  1.
</event>
<event>
 4    1  0.2281973E+005  0.2681700E+02  0.7546771E-02  0.1449455E+00
          2   -1    0    0  502    0  0.00000000000E+00  0.00000000000E+00  0.70725937207E+03  0.70725937207E+03  0.00000000000E+00 0. -1.
         21   -1    0    0  503  502 -0.00000000000E+00 -0.00000000000E+00 -0.12432285119E+01  0.12432285119E+01  0.00000000000E+00 0. -1.
          2    1    1    2  501    0 -0.20881378936E+02  0.16826154446E+02  0.50418579205E+03  0.50489846936E+03  0.00000000000E+00 0. -1.
         21    1    1    2  503  501  0.20881378936E+02 -0.16826154446E+02  0.20183035151E+03  0.20360413122E+03  0.00000000000E+00 0. -1.
</event>
<event>
 4    1  0.2281973E+005  0.2914013E+02  0.7546771E-02  0.1427219E+00
          2   -1    0    0  502    0  0.00000000000E+00  0.00000000000E+00  0.70494229877E+03  0.70494229877E+03  0.00000000000E+00 0.  1.
         21   -1    0    0  503  502 -0.00000000000E+00 -0.00000000000E+00 -0.81472653397E+02  0.81472653397E+02  0.00000000000E+00 0. -1.
          2    1    1    2  501    0 -0.29138722325E+02 -0.28616542117E+00  0.70202471419E+03  0.70262923819E+03  0.00000000000E+00 0.  1.
         21    1    1    2  503  501  0.29138722325E+02  0.28616542117E+00 -0.78555068817E+02  0.83785713975E+02  0.00000000000E+00 0. -1.
</event>
<event>
 4    1  0.2281973E+005  0.4194626E+02  0.7546771E-02  0.1337443E+00
          2   -1    0    0  502    0  0.00000000000E+00  0.00000000000E+00  0.13607937450E+03  0.13607937450E+03  0.00000000000E+00 0.  1.
         21   -1    0    0  503  502 -0.00000000000E+00 -0.00000000000E+00 -0.23035149685E+02  0.23035149685E+02  0.00000000000E+00 0. -1.
          2    1    1    2  501    0 -0.31662798264E+02  0.27512828570E+02  0.10921578796E+03  0.11699391808E+03  0.00000000000E+00 0.  1.
         21    1    1    2  503  501  0.31662798264E+02 -0.27512828570E+02  0.38284368634E+01  0.42120606105E+02  0.00000000000E+00 0. -1.
</event>
<event>
 4    1  0.2281973E+005  0.2613879E+02  0.7546771E-02  0.1456456E+00
          2   -1    0    0  502    0  0.00000000000E+00  0.00000000000E+00  0.90524186000E+03  0.90524186000E+03  0.00000000000E+00 0.  1.
         21   -1    0    0  503  502 -0.00000000000E+00 -0.00000000000E+00 -0.10189104970E+01  0.10189104970E+01  0.00000000000E+00 0.  1.
          2    1    1    2  501    0 -0.22658289416E+02  0.13032205611E+02  0.68283103227E+03  0.68333114600E+03  0.00000000000E+00 0.  1.
         21    1    1    2  503  501  0.22658289416E+02 -0.13032205611E+02  0.22139191723E+03  0.22292962450E+03  0.00000000000E+00 0.  1.
</event>
<event>
 4    1  0.2281973E+005  0.2251711E+02  0.7546771E-02  0.1498653E+00
          2   -1    0    0  502    0  0.00000000000E+00  0.00000000000E+00  0.51940122334E+03  0.51940122334E+03  0.00000000000E+00 0.  1.
         21   -1    0    0  503  502 -0.00000000000E+00 -0.00000000000E+00 -0.24131798743E+01  0.24131798743E+01  0.00000000000E+00 0.  1.
          2    1    1    2  501    0  0.14111317215E+02 -0.17546817035E+02  0.45983038051E+03  0.46038136246E+03  0.00000000000E+00 0.  1.
         21    1    1    2  503  501 -0.14111317215E+02  0.17546817035E+02  0.57157662956E+02  0.61433040754E+02  0.00000000000E+00 0.  1.
</event>
<event>
 4    1  0.2281973E+005  0.2549383E+02  0.7546771E-02  0.1463354E+00
          2   -1    0    0  503    0  0.00000000000E+00  0.00000000000E+00  0.16895057941E+04  0.16895057941E+04  0.00000000000E+00 0.  1.
         21   -1    0    0  501  502 -0.00000000000E+00 -0.00000000000E+00 -0.20564694927E+01  0.20564694927E+01  0.00000000000E+00 0. -1.
          2    1    1    2  501    0  0.25089324840E+02 -0.45234234568E+01  0.16063063719E+04  0.16065086666E+04  0.00000000000E+00 0.  1.
         21    1    1    2  503  502 -0.25089324840E+02  0.45234234568E+01  0.81142952709E+02  0.85053596955E+02  0.00000000000E+00 0. -1.
</event>
<event>
 4    1  0.2281973E+005  0.2141318E+02  0.7546771E-02  0.1513447E+00
          2   -1    0    0  503    0  0.00000000000E+00  0.00000000000E+00  0.55759036000E+02  0.55759036000E+02  0.00000000000E+00 0. -1.
         21   -1    0    0  501  502 -0.00000000000E+00 -0.00000000000E+00 -0.20886487723E+02  0.20886487723E+02  0.00000000000E+00 0. -1.
          2    1    1    2  501    0  0.10262481602E+02  0.18793773224E+02  0.47276029532E+02  0.51899396999E+02  0.00000000000E+00 0. -1.
         21    1    1    2  503  502 -0.10262481602E+02 -0.18793773224E+02 -0.12403481254E+02  0.24746126724E+02  0.00000000000E+00 0. -1.
</event>
<event>
 4    1  0.2281973E+005  0.2004204E+02  0.7546771E-02  0.1533394E+00
          2   -1    0    0  503    0  0.00000000000E+00  0.00000000000E+00  0.59244714104E+00  0.59244714104E+00  0.00000000000E+00 0. -1.
         21   -1    0    0  501  502 -0.00000000000E+00 -0.00000000000E+00 -0.68538166340E+03  0.68538166340E+03  0.00000000000E+00 0.  1.
          2    1    1    2  501    0  0.15200765051E+02  0.13062159318E+02 -0.37797287647E+03  0.37850386869E+03  0.00000000000E+00 0. -1.
         21    1    1    2  503  502 -0.15200765051E+02 -0.13062159318E+02 -0.30681633979E+03  0.30747024186E+03  0.00000000000E+00 0.  1.
</event>
<event>
 4    1  0.2281973E+005  0.2971131E+02  0.7546771E-02  0.1422122E+00
          2   -1    0    0  503    0  0.00000000000E+00  0.00000000000E+00  0.20097123093E+03  0.20097123093E+03  0.00000000000E+00 0.  1.
         21   -1    0    0  501  502 -0.00000000000E+00 -0.00000000000E+00 -0.31739020292E+02  0.31739020292E+02  0.00000000000E+00 0.  1.
          2    1    1    2  501    0 -0.19151178681E+02  0.22715501571E+02  0.19262013857E+03  0.19489812580E+03  0.00000000000E+00 0.  1.
         21    1    1    2  503  502  0.19151178681E+02 -0.22715501571E+02 -0.23387927929E+02  0.37812125427E+02  0.00000000000E+00 0.  1.
</event>
<event>
 4    1  0.2281973E+005  0.2095288E+02  0.7546771E-02  0.1519939E+00
          2   -1    0    0  503    0  0.00000000000E+00  0.00000000000E+00  0.21756752000E+04  0.21756752000E+04  0.00000000000E+00 0. -1.
         21   -1    0    0  501  502 -0.00000000000E+00 -0.00000000000E+00 -0.20614155257E+00  0.20614155257E+00  0.00000000000E+00 0. -1.
          2    1    1    2  501    0  0.18951665224E+02 -0.89363065135E+01  0.92961364676E+03  0.92984974884E+03  0.00000000000E+00 0. -1.
         21    1    1    2  503  502 -0.18951665224E+02  0.89363065135E+01  0.12458554117E+04  0.12460315927E+04  0.00000000000E+00 0. -1.
</event>
<event>
 4    1  0.2281973E+005  0.2960748E+02  0.7546771E-02  0.1423039E+00
          2   -1    0    0  503    0  0.00000000000E+00  0.00000000000E+00  0.19311900368E+04  0.19311900368E+04  0.00000000000E+00 0.  1.
         21   -1    0    0  501  502 -0.00000000000E+00 -0.00000000000E+00 -0.17883959254E+01  0.17883959254E+01  0.00000000000E+00 0. -1.
          2    1    1    2  501    0  0.16276450604E+02  0.24732161251E+02  0.17995745832E+04  0.17998181250E+04  0.00000000000E+00 0.  1.
         21    1    1    2  503  502 -0.16276450604E+02 -0.24732161251E+02  0.12982705770E+03  0.13316030773E+03  0.00000000000E+00 0. -1.
</event>
<event>
 4    1  0.2281973E+005  0.2176597E+02  0.7546771E-02  0.1508604E+00
          2   -1    0    0  503    0  0.00000000000E+00  0.00000000000E+00  0.39003475544E+01  0.39003475544E+01  0.00000000000E+00 0.  1.
         21   -1    0    0  501  502 -0.00000000000E+00 -0.00000000000E+00 -0.17088801516E+03  0.17088801516E+03  0.00000000000E+00 0. -1.
          2    1    1    2  501    0 -0.20984195673E+02 -0.57810899910E+01 -0.36494753600E+02  0.42492640655E+02  0.00000000000E+00 0.  1.
         21    1    1    2  503  502  0.20984195673E+02  0.57810899910E+01 -0.13049291400E+03  0.13229572206E+03  0.00000000000E+00 0. -1.
</event>
<event>
 4    1  0.2281973E+005  0.2536031E+02  0.7546771E-02  0.1464813E+00
          2   -1    0    0  503    0  0.00000000000E+00  0.00000000000E+00  0.58073852549E+03  0.58073852549E+03  0.00000000000E+00 0.  1.
         21   -1    0    0  501  502 -0.00000000000E+00 -0.00000000000E+00 -0.11007302829E+02  0.11007302829E+02  0.00000000000E+00 0.  1.
          2    1    1    2  501    0  0.22595954485E+02 -0.11513831090E+02  0.56545992932E+03  0.56602833598E+03  0.00000000000E+00 0.  1.
         21    1    1    2  503  502 -0.22595954485E+02  0.11513831090E+02  0.42712933420E+01  0.25717492340E+02  0.00000000000E+00 0.  1.
</event>
<event>
 4    1  0.2281973E+005  0.3604797E+02  0.7546771E-02  0.1373342E+00
          2   -1    0    0  502    0  0.00000000000E+00  0.00000000000E+00  0.11890324019E+04  0.11890324019E+04  0.00000000000E+00 0.  1.
         21   -1    0    0  503  502 -0.00000000000E+00 -0.00000000000E+00 -0.26612448001E+01  0.26612448001E+01  0.00000000000E+00 0.  1.
          2    1    1    2  501    0 -0.35808295275E+02 -0.41499795825E+01  0.10506078623E+04  0.10512261111E+04  0.00000000000E+00 0.  1.
         21    1    1    2  503  501  0.35808295275E+02  0.41499795825E+01  0.13576329476E+03  0.14046753555E+03  0.00000000000E+00 0.  1.
</event>
<event>
 4    1  0.2281973E+005  0.2846801E+02  0.7546771E-02  0.1433394E+00
          2   -1    0    0  503    0  0.00000000000E+00  0.00000000000E+00  0.47166734889E+03  0.47166734889E+03  0.00000000000E+00 0. -1.
         21   -1    0    0  501  502 -0.00000000000E+00 -0.00000000000E+00 -0.31016321970E+01  0.31016321970E+01  0.00000000000E+00 0. -1.
          2    1    1    2  501    0 -0.25050609353E+02  0.13523854590E+02  0.39282079179E+03  0.39385098976E+03  0.00000000000E+00 0. -1.
         21    1    1    2  503  502  0.25050609353E+02 -0.13523854590E+02  0.75744924905E+02  0.80917991330E+02  0.00000000000E+00 0. -1.
</event>
<event>
 4    1  0.2281973E+005  0.2555874E+02  0.7546771E-02  0.1462649E+00
          2   -1    0    0  503    0  0.00000000000E+00  0.00000000000E+00  0.19723270080E+04  0.19723270080E+04  0.00000000000E+00 0. -1.
         21   -1    0    0  501  502 -0.00000000000E+00 -0.00000000000E+00 -0.78723560423E+00  0.78723560423E+00  0.00000000000E+00 0.  1.
          2    1    1    2  501    0 -0.15265693929E+02 -0.20498975667E+02  0.17366415172E+04  0.17368295854E+04  0.00000000000E+00 0. -1.
         21    1    1    2  503  502  0.15265693929E+02  0.20498975667E+02  0.23489825517E+03  0.23628465820E+03  0.00000000000E+00 0.  1.
</event>
<event>
 4    1  0.2281973E+005  0.2498206E+02  0.7546771E-02  0.1469004E+00
          2   -1    0    0  503    0  0.00000000000E+00  0.00000000000E+00  0.10981733903E+03  0.10981733903E+03  0.00000000000E+00 0.  1.
         21   -1    0    0  501  502 -0.00000000000E+00 -0.00000000000E+00 -0.30412046084E+02  0.30412046084E+02  0.00000000000E+00 0.  1.
          2    1    1    2  501    0  0.24843350461E+02 -0.26288962174E+01  0.10292766989E+03  0.10591604405E+03  0.00000000000E+00 0.  1.
         21    1    1    2  503  502 -0.24843350461E+02  0.26288962174E+01 -0.23522376950E+02  0.34313341062E+02  0.00000000000E+00 0.  1.
</event>
<event>
 4    1  0.2281973E+005  0.2002638E+02  0.7546771E-02  0.1533633E+00
          2   -1    0    0  503    0  0.00000000000E+00  0.00000000000E+00  0.77205878525E+02  0.77205878525E+02  0.00000000000E+00 0. -1.
         21   -1    0    0  501  502 -0.00000000000E+00 -0.00000000000E+00 -0.82349403666E+02  0.82349403666E+02  0.00000000000E+00 0.  1.
          2    1    1    2  501    0  0.85976731195E+01  0.18086897845E+02  0.74648694246E+02  0.77288313537E+02  0.00000000000E+00 0. -1.
         21    1    1    2  503  502 -0.85976731195E+01 -0.18086897845E+02 -0.79792219388E+02  0.82266968654E+02  0.00000000000E+00 0.  1.
</event>
<event>
 4    1  0.2281973E+005  0.2910193E+02  0.7546771E-02  0.1427564E+00
          2   -1    0    0  502    0  0.00000000000E+00  0.00000000000E+00  0.14505298403E+04  0.14505298403E+04  0.00000000000E+00 0. -1.
         21   -1    0    0  503  502 -0.00000000000E+00 -0.00000000000E+00 -0.19640902160E+01  0.19640902160E+01  0.00000000000E+00 0. -1.
          2    1    1    2  501    0 -0.14853010967E+02  0.25026199505E+02  0.13330870445E+04  0.13334046613E+04  0.00000000000E+00 0. -1.
         21    1    1    2  503  501  0.14853010967E+02 -0.25026199505E+02  0.11547870564E+03  0.11908926926E+03  0.00000000000E+00 0. -1.
</event>
<event>
 4    1  0.2281973E+005  0.2252455E+02  0.7546771E-02  0.1498556E+00
          2   -1    0    0  503    0  0.00000000000E+00  0.00000000000E+00  0.98668672834E+03  0.98668672834E+03  0.00000000000E+00 0.  1.
         21   -1    0    0  501  502 -0.00000000000E+00 -0.00000000000E+00 -0.13901644422E+03  0.13901644422E+03  0.00000000000E+00 0. -1.
          2    1    1    2  501    0 -0.21401220718E+02  0.70244514540E+01  0.98564481241E+03  0.98590215102E+03  0.00000000000E+00 0.  1.
         21    1    1    2  503  502  0.21401220718E+02 -0.70244514540E+01 -0.13797452829E+03  0.13980102154E+03  0.00000000000E+00 0. -1.
</event>
<event>
 4    1  0.2281973E+005  0.3144770E+02  0.7546771E-02  0.1407420E+00
          2   -1    0    0  502    0  0.00000000000E+00  0.00000000000E+00  0.17189222330E+04  0.17189222330E+04  0.00000000000E+00 0.  1.
         21   -1    0    0  503  502 -0.00000000000E+00 -0.00000000000E+00 -0.12051085848E+02  0.12051085848E+02  0.00000000000E+00 0.  1.
          2    1    1    2  501    0 -0.28570325294E+02  0.13141316949E+02  0.16980098036E+04  0.16983009895E+04  0.00000000000E+00 0.  1.
         21    1    1    2  503  501  0.28570325294E+02 -0.13141316949E+02  0.88613435682E+01  0.32672329399E+02  0.00000000000E+00 0.  1.
</event>
<event>
 4    1  0.2281973E+005  0.3639516E+02  0.7546771E-02  0.1371011E+00
          2   -1    0    0  503    0  0.00000000000E+00  0.00000000000E+00  0.75726342218E+03  0.75726342218E+03  0.00000000000E+00 0.  1.
         21   -1    0    0  501  502 -0.00000000000E+00 -0.00000000000E+00 -0.22848563675E+01  0.22848563675E+01  0.00000000000E+00 0. -1.
          2    1    1    2  501    0 -0.10675859004E+02  0.34794165458E+02  0.56137060030E+03  0.56254916123E+03  0.00000000000E+00 0.  1.
         21    1    1    2  503  502  0.10675859004E+02 -0.34794165458E+02  0.19360796552E+03  0.19699911733E+03  0.00000000000E+00 0. -1.
</event>
<event>
 4    1  0.2281973E+005  0.2265585E+02  0.7546771E-02  0.1496865E+00
          2   -1    0    0  503    0  0.00000000000E+00  0.00000000000E+00  0.24853496261E+02  0.24853496261E+02  0.00000000000E+00 0.  1.
         21   -1    0    0  501  502 -0.00000000000E+00 -0.00000000000E+00 -0.46000741105E+02  0.46000741105E+02  0.00000000000E+00 0.  1.
          2    1    1    2  501    0 -0.22525112259E+02  0.24304274229E+01  0.15724639542E+02  0.27578106325E+02  0.00000000000E+00 0.  1.
         21    1    1    2  503  502  0.22525112259E+02 -0.24304274229E+01 -0.36871884386E+02  0.43276131041E+02  0.00000000000E+00 0.  1.
</event>
<event>
 4    1  0.2281973E+005  0.3830125E+02  0.7546771E-02  0.1358739E+00
          2   -1    0    0  503    0  0.00000000000E+00  0.00000000000E+00  0.15385815518E+03  0.15385815518E+03  0.00000000000E+00 0.  1.
         21   -1    0    0  501  502 -0.00000000000E+00 -0.00000000000E+00 -0.14647871274E+02  0.14647871274E+02  0.00000000000E+00 0.  1.
          2    1    1    2  501    0 -0.74283161644E+01 -0.37574002904E+02  0.11938400227E+03  0.12537753218E+03  0.00000000000E+00 0.  1.
         21    1    1    2  503  502  0.74283161644E+01  0.37574002904E+02  0.19826281630E+02  0.43128494277E+02  0.00000000000E+00 0.  1.
</event>
<event>
 4    1  0.2281973E+005  0.2213315E+02  0.7546771E-02  0.1503680E+00
          2   -1    0    0  502    0  0.00000000000E+00  0.00000000000E+00  0.15709715361E+04  0.15709715361E+04  0.00000000000E+00 0. -1.
         21   -1    0    0  503  502 -0.00000000000E+00 -0.00000000000E+00 -0.12184077502E+01  0.12184077502E+01  0.00000000000E+00 0. -1.
          2    1    1    2  501    0  0.21876450288E+02 -0.33611094599E+01  0.14629569901E+04  0.14631244073E+04  0.00000000000E+00 0. -1.
         21    1    1    2  503  501 -0.21876450288E+02  0.33611094599E+01  0.10679613817E+03  0.10906553654E+03  0.00000000000E+00 0. -1.
</event>
<event>
 4    1  0.2281973E+005  0.2078382E+02  0.7546771E-02  0.1522374E+00
          2   -1    0    0  503    0  0.00000000000E+00  0.00000000000E+00  0.62183578889E+03  0.62183578889E+03  0.00000000000E+00 0. -1.
         21   -1    0    0  501  502 -0.00000000000E+00 -0.00000000000E+00 -0.83801098845E+00  0.83801098845E+00  0.00000000000E+00 0. -1.
          2    1    1    2  501    0 -0.12627888497E+02  0.16507678362E+02  0.43926448448E+03  0.43975590313E+03  0.00000000000E+00 0. -1.
         21    1    1    2  503  502  0.12627888497E+02 -0.16507678362E+02  0.18173329342E+03  0.18291789675E+03  0.00000000000E+00 0. -1.
</event>
<event>
 4    1  0.2281973E+005  0.6152412E+02  0.7546771E-02  0.1254740E+00
          2   -1    0    0  502    0  0.00000000000E+00  0.00000000000E+00  0.51248949428E+02  0.51248949428E+02  0.00000000000E+00 0.  1.
         21   -1    0    0  503  502 -0.00000000000E+00 -0.00000000000E+00 -0.15540014473E+03  0.15540014473E+03  0.00000000000E+00 0. -1.
          2    1    1    2  501    0 -0.15333630896E+02 -0.59582688274E+02  0.22769803565E+02  0.65602446089E+02  0.00000000000E+00 0.  1.
         21    1    1    2  503  501  0.15333630896E+02  0.59582688274E+02 -0.12692099887E+03  0.14104664807E+03  0.00000000000E+00 0. -1.
</event>
<event>
 4    1  0.2281973E+005  0.2272175E+02  0.7546771E-02  0.1496022E+00
          2   -1    0    0  503    0  0.00000000000E+00  0.00000000000E+00  0.82450852067E+03  0.82450852067E+03  0.00000000000E+00 0.  1.
         21   -1    0    0  501  502 -0.00000000000E+00 -0.00000000000E+00 -0.17985645605E+02  0.17985645605E+02  0.00000000000E+00 0.  1.
          2    1    1    2  501    0  0.13220144430E+02 -0.18479871235E+02  0.81711077301E+03  0.81742662865E+03  0.00000000000E+00 0.  1.
         21    1    1    2  503  502 -0.13220144430E+02  0.18479871235E+02 -0.10587897945E+02  0.25067537624E+02  0.00000000000E+00 0.  1.
</event>
<event>
 4    1  0.2281973E+005  0.3685382E+02  0.7546771E-02  0.1367979E+00
          2   -1    0    0  502    0  0.00000000000E+00  0.00000000000E+00  0.13295110757E+04  0.13295110757E+04  0.00000000000E+00 0.  1.
         21   -1    0    0  503  502 -0.00000000000E+00 -0.00000000000E+00 -0.42451531192E+02  0.42451531192E+02  0.00000000000E+00 0.  1.
          2    1    1    2  501    0 -0.36295032088E+02 -0.63933168782E+01  0.13212068603E+04  0.13217207615E+04  0.00000000000E+00 0.  1.
         21    1    1    2  503  501  0.36295032088E+02  0.63933168782E+01 -0.34147315738E+02  0.50241845379E+02  0.00000000000E+00 0.  1.
</event>
<event>
 4    1  0.2281973E+005  0.2279047E+02  0.7546771E-02  0.1495146E+00
          2   -1    0    0  503    0  0.00000000000E+00  0.00000000000E+00  0.58210765994E+02  0.58210765994E+02  0.00000000000E+00 0.  1.
         21   -1    0    0  501  502 -0.00000000000E+00 -0.00000000000E+00 -0.70585472509E+02  0.70585472509E+02  0.00000000000E+00 0. -1.
          2    1    1    2  501    0  0.16604672780E+02  0.15610579449E+02  0.54002952826E+02  0.58615051504E+02  0.00000000000E+00 0.  1.
         21    1    1    2  503  502 -0.16604672780E+02 -0.15610579449E+02 -0.66377659342E+02  0.70181186999E+02  0.00000000000E+00 0. -1.
</event>
<event>
 4    1  0.2281973E+005  0.2220398E+02  0.7546771E-02  0.1502743E+00
          2   -1    0    0  503    0  0.00000000000E+00  0.00000000000E+00  0.11495223696E+04  0.11495223696E+04  0.00000000000E+00 0.  1.
         21   -1    0    0  501  502 -0.00000000000E+00 -0.00000000000E+00 -0.18480538163E+03  0.18480538163E+03  0.00000000000E+00 0.  1.
          2    1    1    2  501    0 -0.19796139658E+02  0.10056317890E+02  0.11487477575E+04  0.11489623262E+04  0.00000000000E+00 0.  1.
         21    1    1    2  503  502  0.19796139658E+02 -0.10056317890E+02 -0.18403076951E+03  0.18536542505E+03  0.00000000000E+00 0.  1.
</event>
<event>
 4    1  0.2281973E+005  0.5866675E+02  0.7546771E-02  0.1264431E+00
          2   -1    0    0  502    0  0.00000000000E+00  0.00000000000E+00  0.10107022997E+04  0.10107022997E+04  0.00000000000E+00 0. -1.
         21   -1    0    0  503  502 -0.00000000000E+00 -0.00000000000E+00 -0.12357082975E+03  0.12357082975E+03  0.00000000000E+00 0. -1.
          2    1    1    2  501    0  0.34961033682E+02  0.47111711808E+02  0.10028331843E+04  0.10045477504E+04  0.00000000000E+00 0. -1.
         21    1    1    2  503  501 -0.34961033682E+02 -0.47111711808E+02 -0.11570171436E+03  0.12972537906E+03  0.00000000000E+00 0. -1.
</event>
<event>
 4    1  0.2281973E+005  0.2443746E+02  0.7546771E-02  0.1475196E+00
          2   -1    0    0  503    0  0.00000000000E+00  0.00000000000E+00  0.51217061339E+02  0.51217061339E+02  0.00000000000E+00 0.  1.
         21   -1    0    0  501  502 -0.00000000000E+00 -0.00000000000E+00 -0.40261134141E+02  0.40261134141E+02  0.00000000000E+00 0.  1.
          2    1    1    2  501    0 -0.20148917133E+02 -0.13827897688E+02  0.44029031596E+02  0.50356183726E+02  0.00000000000E+00 0.  1.
         21    1    1    2  503  502  0.20148917133E+02  0.13827897688E+02 -0.33073104399E+02  0.41122011754E+02  0.00000000000E+00 0.  1.
</event>
<event>
 4    1  0.2281973E+005  0.2207961E+02  0.7546771E-02  0.1504391E+00
          2   -1    0    0  502    0  0.00000000000E+00  0.00000000000E+00  0.39282691372E+03  0.39282691372E+03  0.00000000000E+00 0. -1.
         21   -1    0    0  503  502 -0.00000000000E+00 -0.00000000000E+00 -0.12416444863E+01  0.12416444863E+01  0.00000000000E+00 0. -1.
          2    1    1    2  501    0  0.12822154994E+02 -0.17975020016E+02  0.19140045220E+03  0.19266977476E+03  0.00000000000E+00 0. -1.
         21    1    1    2  503  501 -0.12822154994E+02  0.17975020016E+02  0.20018481703E+03  0.20139878345E+03  0.00000000000E+00 0. -1.
</event>
<event>
 4    1  0.2281973E+005  0.2682189E+02  0.7546771E-02  0.1449405E+00
          2   -1    0    0  503    0  0.00000000000E+00  0.00000000000E+00  0.13382698388E+04  0.13382698388E+04  0.00000000000E+00 0.  1.
         21   -1    0    0  501  502 -0.00000000000E+00 -0.00000000000E+00 -0.10688107415E+02  0.10688107415E+02  0.00000000000E+00 0.  1.
          2    1    1    2  501    0  0.10597569254E+01 -0.26800948514E+02  0.13210891899E+04  0.13213614425E+04  0.00000000000E+00 0.  1.
         21    1    1    2  503  502 -0.10597569254E+01  0.26800948514E+02  0.64925415066E+01  0.27596503786E+02  0.00000000000E+00 0.  1.
</event>
<event>
 4    1  0.2281973E+005  0.2028428E+02  0.7546771E-02  0.1529733E+00
          2   -1    0    0  502    0  0.00000000000E+00  0.00000000000E+00  0.14622733545E+04  0.14622733545E+04  0.00000000000E+00 0.  1.
         21   -1    0    0  503  502 -0.00000000000E+00 -0.00000000000E+00 -0.67860351356E+00  0.67860351356E+00  0.00000000000E+00 0. -1.
          2    1    1    2  501    0  0.20115252019E+02  0.26131659397E+01  0.12904395262E+04  0.12905989396E+04  0.00000000000E+00 0.  1.
         21    1    1    2  503  501 -0.20115252019E+02 -0.26131659397E+01  0.17115522470E+03  0.17235301837E+03  0.00000000000E+00 0. -1.
</event>
<event>
 4    1  0.2281973E+005  0.2265337E+02  0.7546771E-02  0.1496897E+00
          2   -1    0    0  503    0  0.00000000000E+00  0.00000000000E+00  0.27078207521E+03  0.27078207521E+03  0.00000000000E+00 0. -1.
         21   -1    0    0  501  502 -0.00000000000E+00 -0.00000000000E+00 -0.71961018905E+01  0.71961018905E+01  0.00000000000E+00 0. -1.
          2    1    1    2  501    0  0.93379423165E+00  0.22634120624E+02  0.25108423192E+03  0.25210407951E+03  0.00000000000E+00 0. -1.
         21    1    1    2  503  502 -0.93379423165E+00 -0.22634120624E+02  0.12501741404E+02  0.25874097593E+02  0.00000000000E+00 0. -1.
</event>
<event>
 4    1  0.2281973E+005  0.2995431E+02  0.7546771E-02  0.1419994E+00
          2   -1    0    0  503    0  0.00000000000E+00  0.00000000000E+00  0.11768091677E+03  0.11768091677E+03  0.00000000000E+00 0.  1.
         21   -1    0    0  501  502 -0.00000000000E+00 -0.00000000000E+00 -0.10290900642E+02  0.10290900642E+02  0.00000000000E+00 0.  1.
          2    1    1    2  501    0 -0.27318104063E+02  0.12287476874E+02  0.86265059965E+02  0.91317695264E+02  0.00000000000E+00 0.  1.
         21    1    1    2  503  502  0.27318104063E+02 -0.12287476874E+02  0.21124956163E+02  0.36654122148E+02  0.00000000000E+00 0.  1.
</event>
<event>
 4    1  0.2281973E+005  0.4206787E+02  0.7546771E-02  0.1336776E+00
          2   -1    0    0  502    0  0.00000000000E+00  0.00000000000E+00  0.24756295799E+04  0.24756295799E+04  0.00000000000E+00 0.  1.
         21   -1    0    0  503  502 -0.00000000000E+00 -0.00000000000E+00 -0.56166357798E+01  0.56166357798E+01  0.00000000000E+00 0. -1.
          2    1    1    2  501    0  0.37373240162E+02  0.19311830773E+02  0.23939942642E+04  0.23943638493E+04  0.00000000000E+00 0.  1.
         21    1    1    2  503  501 -0.37373240162E+02 -0.19311830773E+02  0.76018679913E+02  0.86882366357E+02  0.00000000000E+00 0. -1.
</event>
<event>
 4    1  0.2281973E+005  0.2488397E+02  0.7546771E-02  0.1470106E+00
          2   -1    0    0  503    0  0.00000000000E+00  0.00000000000E+00  0.12525328130E+03  0.12525328130E+03  0.00000000000E+00 0. -1.
         21   -1    0    0  501  502 -0.00000000000E+00 -0.00000000000E+00 -0.53065040565E+02  0.53065040565E+02  0.00000000000E+00 0. -1.
          2    1    1    2  501    0 -0.24881234435E+02  0.36862969891E+00  0.12099861607E+03  0.12353087390E+03  0.00000000000E+00 0. -1.
         21    1    1    2  503  502  0.24881234435E+02 -0.36862969891E+00 -0.48810375333E+02  0.54787447970E+02  0.00000000000E+00 0. -1.
</event>
<event>
 4    1  0.2281973E+005  0.2391376E+02  0.7546771E-02  0.1481332E+00
          2   -1    0    0  503    0  0.00000000000E+00  0.00000000000E+00  0.32564726160E+02  0.32564726160E+02  0.00000000000E+00 0.  1.
         21   -1    0    0  501  502 -0.00000000000E+00 -0.00000000000E+00 -0.23866379644E+02  0.23866379644E+02  0.00000000000E+00 0.  1.
          2    1    1    2  501    0  0.36555081441E+00  0.23910969998E+02  0.18851978512E+02  0.30451029662E+02  0.00000000000E+00 0.  1.
         21    1    1    2  503  502 -0.36555081441E+00 -0.23910969998E+02 -0.10153631996E+02  0.25980076142E+02  0.00000000000E+00 0.  1.
</event>
<event>
 4    1  0.2281973E+005  0.2442149E+02  0.7546771E-02  0.1475380E+00
          2   -1    0    0  502    0  0.00000000000E+00  0.00000000000E+00  0.14536072846E+04  0.14536072846E+04  0.00000000000E+00 0.  1.
         21   -1    0    0  503  502 -0.00000000000E+00 -0.00000000000E+00 -0.13478358645E+03  0.13478358645E+03  0.00000000000E+00 0. -1.
          2    1    1    2  501    0 -0.24289079340E+02 -0.25396597753E+01  0.14523975544E+04  0.14526028587E+04  0.00000000000E+00 0.  1.
         21    1    1    2  503  501  0.24289079340E+02  0.25396597753E+01 -0.13357385618E+03  0.13578801236E+03  0.00000000000E+00 0. -1.
</event>
<event>
 4    1  0.2281973E+005  0.2292438E+02  0.7546771E-02  0.1493450E+00
          2   -1    0    0  503    0  0.00000000000E+00  0.00000000000E+00  0.16032325648E+03  0.16032325648E+03  0.00000000000E+00 0.  1.
         21   -1    0    0  501  502 -0.00000000000E+00 -0.00000000000E+00 -0.81135334690E+01  0.81135334690E+01  0.00000000000E+00 0.  1.
          2    1    1    2  501    0  0.13335701218E+02 -0.18646345359E+02  0.14112196921E+03  0.14297180601E+03  0.00000000000E+00 0.  1.
         21    1    1    2  503  502 -0.13335701218E+02  0.18646345359E+02  0.11087753800E+02  0.25464983930E+02  0.00000000000E+00 0.  1.
</event>
<event>
 4    1  0.2281973E+005  0.2334068E+02  0.7546771E-02  0.1488264E+00
          2   -1    0    0  503    0  0.00000000000E+00  0.00000000000E+00  0.84120542995E+02  0.84120542995E+02  0.00000000000E+00 0. -1.
         21   -1    0    0  501  502 -0.00000000000E+00 -0.00000000000E+00 -0.86185569056E+01  0.86185569056E+01  0.00000000000E+00 0. -1.
          2    1    1    2  501    0 -0.20180177530E+02  0.11728069375E+02  0.60869225626E+02  0.65190872096E+02  0.00000000000E+00 0. -1.
         21    1    1    2  503  502  0.20180177530E+02 -0.11728069375E+02  0.14632760464E+02  0.27548227805E+02  0.00000000000E+00 0. -1.
</event>
<event>
 4    1  0.2281973E+005  0.2469805E+02  0.7546771E-02  0.1472210E+00
          2   -1    0    0  502    0  0.00000000000E+00  0.00000000000E+00  0.23113000167E+03  0.23113000167E+03  0.00000000000E+00 0. -1.
         21   -1    0    0  503  502 -0.00000000000E+00 -0.00000000000E+00 -0.88315346277E+01  0.88315346277E+01  0.00000000000E+00 0. -1.
          2    1    1    2  501    0 -0.12513572339E+02 -0.21293293239E+02  0.21161577148E+03  0.21305217335E+03  0.00000000000E+00 0. -1.
         21    1    1    2  503  501  0.12513572339E+02  0.21293293239E+02  0.10682695557E+02  0.26909362944E+02  0.00000000000E+00 0. -1.
</event>
<event>
 4    1  0.2281973E+005  0.2382739E+02  0.7546771E-02  0.1482362E+00
          2   -1    0    0  502    0  0.00000000000E+00  0.00000000000E+00  0.37230625447E+02  0.37230625447E+02  0.00000000000E+00 0. -1.
         21   -1    0    0  503  502 -0.00000000000E+00 -0.00000000000E+00 -0.56265567172E+02  0.56265567172E+02  0.00000000000E+00 0. -1.
          2    1    1    2  501    0 -0.34948861429E+01 -0.23569692056E+02  0.30396058237E+02  0.38622078777E+02  0.00000000000E+00 0. -1.
         21    1    1    2  503  501  0.34948861429E+01  0.23569692056E+02 -0.49430999962E+02  0.54874113842E+02  0.00000000000E+00 0. -1.
</event>
<event>
 4    1  0.2281973E+005  0.2229074E+02  0.7546771E-02  0.1501602E+00
          2   -1    0    0  502    0  0.00000000000E+00  0.00000000000E+00  0.24412650860E+03  0.24412650860E+03  0.00000000000E+00 0.  1.
         21   -1    0    0  503  502 -0.00000000000E+00 -0.00000000000E+00 -0.52751111373E+01  0.52751111373E+01  0.00000000000E+00 0. -1.
          2    1    1    2  501    0  0.14223713273E+02 -0.17162845119E+02  0.21715200970E+03  0.21829308874E+03  0.00000000000E+00 0.  1.
         21    1    1    2  503  501 -0.14223713273E+02  0.17162845119E+02  0.21699387757E+02  0.31108530998E+02  0.00000000000E+00 0. -1.
</event>
<event>
 4    1  0.2281973E+005  0.2069952E+02  0.7546771E-02  0.1523599E+00
          2   -1    0    0  503    0  0.00000000000E+00  0.00000000000E+00  0.72377535714E+03  0.72377535714E+03  0.00000000000E+00 0.  1.
         21   -1    0    0  501  502 -0.00000000000E+00 -0.00000000000E+00 -0.85610143181E+00  0.85610143181E+00  0.00000000000E+00 0. -1.
          2    1    1    2  501    0 -0.20668479034E+02  0.11331319903E+01  0.56270024109E+03  0.56308083908E+03  0.00000000000E+00 0.  1.
         21    1    1    2  503  502  0.20668479034E+02 -0.11331319903E+01  0.16021901462E+03  0.16155061949E+03  0.00000000000E+00 0. -1.
</event>
<event>
 4    1  0.2281973E+005  0.6526848E+02  0.7546771E-02  0.1242911E+00
          2   -1    0    0  503    0  0.00000000000E+00  0.00000000000E+00  0.78219952918E+02  0.78219952918E+02  0.00000000000E+00 0. -1.
         21   -1    0    0  501  502 -0.00000000000E+00 -0.00000000000E+00 -0.19804523062E+03  0.19804523062E+03  0.00000000000E+00 0. -1.
          2    1    1    2  501    0  0.64694262604E+02  0.86386814784E+01  0.57703417284E+02  0.87118647819E+02  0.00000000000E+00 0. -1.
         21    1    1    2  503  502 -0.64694262604E+02 -0.86386814784E+01 -0.17752869498E+03  0.18914653572E+03  0.00000000000E+00 0. -1.
</event>
<event>
 4    1  0.2281973E+005  0.2266858E+02  0.7546771E-02  0.1496702E+00
          2   -1    0    0  503    0  0.00000000000E+00  0.00000000000E+00  0.59328311331E+03  0.59328311331E+03  0.00000000000E+00 0. -1.
         21   -1    0    0  501  502 -0.00000000000E+00 -0.00000000000E+00 -0.11449724365E+02  0.11449724365E+02  0.00000000000E+00 0.  1.
          2    1    1    2  501    0  0.22407925211E+02  0.34277138357E+01  0.58162168954E+03  0.58206327326E+03  0.00000000000E+00 0. -1.
         21    1    1    2  503  502 -0.22407925211E+02 -0.34277138357E+01  0.21169941107E+00  0.22669564421E+02  0.00000000000E+00 0.  1.
</event>
<event>
 4    1  0.2281973E+005  0.2535237E+02  0.7546771E-02  0.1464900E+00
          2   -1    0    0  503    0  0.00000000000E+00  0.00000000000E+00  0.35899911365E+03  0.35899911365E+03  0.00000000000E+00 0. -1.
         21   -1    0    0  501  502 -0.00000000000E+00 -0.00000000000E+00 -0.19206565610E+01  0.19206565610E+01  0.00000000000E+00 0. -1.
          2    1    1    2  501    0  0.25108885410E+02  0.35052250124E+01  0.13153913399E+03  0.13396001828E+03  0.00000000000E+00 0. -1.
         21    1    1    2  503  502 -0.25108885410E+02 -0.35052250124E+01  0.22553932310E+03  0.22695975192E+03  0.00000000000E+00 0. -1.
</event>
<event>
 4    1  0.2281973E+005  0.2318797E+02  0.7546771E-02  0.1490151E+00
          2   -1    0    0  502    0  0.00000000000E+00  0.00000000000E+00  0.69964197084E+02  0.69964197084E+02  0.00000000000E+00 0.  1.
         21   -1    0    0  503  502 -0.00000000000E+00 -0.00000000000E+00 -0.28271286743E+02  0.28271286743E+02  0.00000000000E+00 0.  1.
          2    1    1    2  501    0  0.18977378072E+02  0.13324455164E+02  0.62759917611E+02  0.66906570996E+02  0.00000000000E+00 0.  1.
         21    1    1    2  503  501 -0.18977378072E+02 -0.13324455164E+02 -0.21067007269E+02  0.31328912832E+02  0.00000000000E+00 0.  1.
</event>
<event>
 4    1  0.2281973E+005  0.2825882E+02  0.7546771E-02  0.1435357E+00
          2   -1    0    0  502    0  0.00000000000E+00  0.00000000000E+00  0.83084646934E+03  0.83084646934E+03  0.00000000000E+00 0. -1.
         21   -1    0    0  503  502 -0.00000000000E+00 -0.00000000000E+00 -0.46473753602E+01  0.46473753602E+01  0.00000000000E+00 0.  1.
          2    1    1    2  501    0  0.25025383473E+02 -0.13125976067E+02  0.78514913024E+03  0.78565750666E+03  0.00000000000E+00 0. -1.
         21    1    1    2  503  501 -0.25025383473E+02  0.13125976067E+02  0.41049963749E+02  0.49836338043E+02  0.00000000000E+00 0.  1.
</event>
<event>
 4    1  0.2281973E+005  0.2906965E+02  0.7546771E-02  0.1427857E+00
          2   -1    0    0  502    0  0.00000000000E+00  0.00000000000E+00  0.19638703130E+02  0.19638703130E+02  0.00000000000E+00 0. -1.
         21   -1    0    0  503  502 -0.00000000000E+00 -0.00000000000E+00 -0.31219254936E+03  0.31219254936E+03  0.00000000000E+00 0. -1.
          2    1    1    2  501    0  0.28817208788E+02 -0.38226651934E+01  0.77808848157E+01  0.30092963630E+02  0.00000000000E+00 0. -1.
         21    1    1    2  503  501 -0.28817208788E+02  0.38226651934E+01 -0.30033473104E+03  0.30173828886E+03  0.00000000000E+00 0. -1.
</event>
<event>
 4    1  0.2281973E+005  0.2227802E+02  0.7546771E-02  0.1501769E+00
          2   -1    0    0  502    0  0.00000000000E+00  0.00000000000E+00  0.14685724058E+04  0.14685724058E+04  0.00000000000E+00 0. -1.
         21   -1    0    0  503  502 -0.00000000000E+00 -0.00000000000E+00 -0.63906000541E+01  0.63906000541E+01  0.00000000000E+00 0.  1.
          2    1    1    2  501    0 -0.18930398243E+02 -0.11745228714E+02  0.14488074194E+04  0.14489786916E+04  0.00000000000E+00 0. -1.
         21    1    1    2  503  501  0.18930398243E+02  0.11745228714E+02  0.13374386391E+02  0.25984314240E+02  0.00000000000E+00 0.  1.
</event>
<event>
 4    1  0.2281973E+005  0.2306537E+02  0.7546771E-02  0.1491679E+00
          2   -1    0    0  502    0  0.00000000000E+00  0.00000000000E+00  0.74707408422E+02  0.74707408422E+02  0.00000000000E+00 0. -1.
         21   -1    0    0  503  502 -0.00000000000E+00 -0.00000000000E+00 -0.26236771988E+02  0.26236771988E+02  0.00000000000E+00 0. -1.
          2    1    1    2  501    0 -0.22355400858E+02 -0.56786556730E+01  0.67316640765E+02  0.71158563797E+02  0.00000000000E+00 0. -1.
         21    1    1    2  503  501  0.22355400858E+02  0.56786556730E+01 -0.18846004331E+02  0.29785616613E+02  0.00000000000E+00 0. -1.
</event>
<event>
 4    1  0.2281973E+005  0.4911425E+02  0.7546771E-02  0.1302059E+00
          2   -1    0    0  502    0  0.00000000000E+00  0.00000000000E+00  0.26577044823E+04  0.26577044823E+04  0.00000000000E+00 0.  1.
         21   -1    0    0  503  502 -0.00000000000E+00 -0.00000000000E+00 -0.13182209092E+03  0.13182209092E+03  0.00000000000E+00 0.  1.
          2    1    1    2  501    0 -0.58420428850E+01  0.48765564013E+02  0.26528945365E+04  0.26533491348E+04  0.00000000000E+00 0.  1.
         21    1    1    2  503  501  0.58420428850E+01 -0.48765564013E+02 -0.12701214514E+03  0.13617743834E+03  0.00000000000E+00 0.  1.
</event>
<event>
 4    1  0.2281973E+005  0.2072912E+02  0.7546771E-02  0.1523168E+00
          2   -1    0    0  502    0  0.00000000000E+00  0.00000000000E+00  0.55079992240E+03  0.55079992240E+03  0.00000000000E+00 0. -1.
         21   -1    0    0  503  502 -0.00000000000E+00 -0.00000000000E+00 -0.75393156090E+01  0.75393156090E+01  0.00000000000E+00 0. -1.
          2    1    1    2  501    0  0.77550165274E+01 -0.19223841524E+02  0.53596205279E+03  0.53636276753E+03  0.00000000000E+00 0. -1.
         21    1    1    2  503  501 -0.77550165274E+01  0.19223841524E+02  0.72985540068E+01  0.21976470482E+02  0.00000000000E+00 0. -1.
</event>
<event>
 4    1  0.2281973E+005  0.2003302E+02  0.7546771E-02  0.1533532E+00
          2   -1    0    0  503    0  0.00000000000E+00  0.00000000000E+00  0.17394256408E+03  0.17394256408E+03  0.00000000000E+00 0. -1.
         21   -1    0    0  501  502 -0.00000000000E+00 -0.00000000000E+00 -0.10189421067E+02  0.10189421067E+02  0.00000000000E+00 0.  1.
          2    1    1    2  501    0  0.79059960014E+00 -0.20017409173E+02  0.16285112528E+03  0.16407867236E+03  0.00000000000E+00 0. -1.
         21    1    1    2  503  502 -0.79059960014E+00  0.20017409173E+02  0.90201772996E+00  0.20053312787E+02  0.00000000000E+00 0.  1.
</event>
<event>
 4    1  0.2281973E+005  0.2151569E+02  0.7546771E-02  0.1512028E+00
          2   -1    0    0  502    0  0.00000000000E+00  0.00000000000E+00  0.60590285061E+02  0.60590285061E+02  0.00000000000E+00 0.  1.
         21   -1    0    0  503  502 -0.00000000000E+00 -0.00000000000E+00 -0.17805409280E+02  0.17805409280E+02  0.00000000000E+00 0.  1.
          2    1    1    2  501    0 -0.26355624002E+01  0.21353660564E+02  0.51009590253E+02  0.55361568858E+02  0.00000000000E+00 0.  1.
         21    1    1    2  503  501  0.26355624002E+01 -0.21353660564E+02 -0.82247144714E+01  0.23034125483E+02  0.00000000000E+00 0.  1.
</event>
<event>
 4    1  0.2281973E+005  0.2043217E+02  0.7546771E-02  0.1527529E+00
          2   -1    0    0  503    0  0.00000000000E+00  0.00000000000E+00  0.79335323639E+02  0.79335323639E+02  0.00000000000E+00 0. -1.
         21   -1    0    0  501  502 -0.00000000000E+00 -0.00000000000E+00 -0.82277602077E+01  0.82277602077E+01  0.00000000000E+00 0.  1.
          2    1    1    2  501    0  0.13065919626E+02 -0.15708442554E+02  0.61838791957E+02  0.65126873208E+02  0.00000000000E+00 0. -1.
         21    1    1    2  503  502 -0.13065919626E+02  0.15708442554E+02  0.92687714741E+01  0.22436210638E+02  0.00000000000E+00 0.  1.
</event>
<event>
 4    1  0.2281973E+005  0.2180175E+02  0.7546771E-02  0.1508119E+00
          2   -1    0    0  503    0  0.00000000000E+00  0.00000000000E+00  0.22453449288E+03  0.22453449288E+03  0.00000000000E+00 0. -1.
         21   -1    0    0  501  502 -0.00000000000E+00 -0.00000000000E+00 -0.23318247832E+01  0.23318247832E+01  0.00000000000E+00 0. -1.
          2    1    1    2  501    0 -0.20139471187E+02 -0.83497405810E+01  0.76663326243E+02  0.79703086879E+02  0.00000000000E+00 0. -1.
         21    1    1    2  503  502  0.20139471187E+02  0.83497405810E+01  0.14553934186E+03  0.14716323079E+03  0.00000000000E+00 0. -1.
</event>
<event>
 4    1  0.2281973E+005  0.2564619E+02  0.7546771E-02  0.1461703E+00
          2   -1    0    0  503    0  0.00000000000E+00  0.00000000000E+00  0.51411817296E+03  0.51411817296E+03  0.00000000000E+00 0.  1.
         21   -1    0    0  501  502 -0.00000000000E+00 -0.00000000000E+00 -0.25733170329E+01  0.25733170329E+01  0.00000000000E+00 0.  1.
          2    1    1    2  501    0 -0.21935259856E+02 -0.13288024873E+02  0.43896990495E+03  0.43971843796E+03  0.00000000000E+00 0.  1.
         21    1    1    2  503  502  0.21935259856E+02  0.13288024873E+02  0.72574950976E+02  0.76973052032E+02  0.00000000000E+00 0.  1.
</event>
<event>
 4    1  0.2281973E+005  0.2505900E+02  0.7546771E-02  0.1468144E+00
          2   -1    0    0  502    0  0.00000000000E+00  0.00000000000E+00  0.63415125333E+03  0.63415125333E+03  0.00000000000E+00 0.  1.
         21   -1    0    0  503  502 -0.00000000000E+00 -0.00000000000E+00 -0.13733604147E+01  0.13733604147E+01  0.00000000000E+00 0.  1.
          2    1    1    2  501    0 -0.34073502055E+00  0.25056681686E+02  0.48422505308E+03  0.48487303021E+03  0.00000000000E+00 0.  1.
         21    1    1    2  503  501  0.34073502055E+00 -0.25056681686E+02  0.14855283983E+03  0.15065158353E+03  0.00000000000E+00 0.  1.
</event>
<event>
 4    1  0.2281973E+005  0.2248056E+02  0.7546771E-02  0.1499126E+00
          2   -1    0    0  503    0  0.00000000000E+00  0.00000000000E+00  0.51716183146E+03  0.51716183146E+03  0.00000000000E+00 0.  1.
         21   -1    0    0  501  502 -0.00000000000E+00 -0.00000000000E+00 -0.13666479626E+01  0.13666479626E+01  0.00000000000E+00 0. -1.
          2    1    1    2  501    0 -0.22348017585E+02  0.24375935775E+01  0.39629673117E+03  0.39693384195E+03  0.00000000000E+00 0.  1.
         21    1    1    2  503  502  0.22348017585E+02 -0.24375935775E+01  0.11949845233E+03  0.12159463747E+03  0.00000000000E+00 0. -1.
</event>
<event>
 4    1  0.2281973E+005  0.2222501E+02  0.7546771E-02  0.1502466E+00
          2   -1    0    0  503    0  0.00000000000E+00  0.00000000000E+00  0.92973713408E+03  0.92973713408E+03  0.00000000000E+00 0.  1.
         21   -1    0    0  501  502 -0.00000000000E+00 -0.00000000000E+00 -0.59753963269E+01  0.59753963269E+01  0.00000000000E+00 0.  1.
          2    1    1    2  501    0 -0.21751017932E+02  0.45655620555E+01  0.90845418883E+03  0.90872601170E+03  0.00000000000E+00 0.  1.
         21    1    1    2  503  502  0.21751017932E+02 -0.45655620555E+01  0.15307548927E+02  0.26986518710E+02  0.00000000000E+00 0.  1.
</event>
<event>
 4    1  0.2281973E+005  0.2182454E+02  0.7546771E-02  0.1507811E+00
          2   -1    0    0  503    0  0.00000000000E+00  0.00000000000E+00  0.58010796716E+03  0.58010796716E+03  0.00000000000E+00 0. -1.
         21   -1    0    0  501  502 -0.00000000000E+00 -0.00000000000E+00 -0.32353340688E+02  0.32353340688E+02  0.00000000000E+00 0.  1.
          2    1    1    2  501    0  0.18785304164E+02  0.11109579642E+02  0.57619719252E+03  0.57661036678E+03  0.00000000000E+00 0. -1.
         21    1    1    2  503  502 -0.18785304164E+02 -0.11109579642E+02 -0.28442566045E+02  0.35850941069E+02  0.00000000000E+00 0.  1.
</event>
<event>
 4    1  0.2281973E+005  0.2033727E+02  0.7546771E-02  0.1528941E+00
          2   -1    0    0  502    0  0.00000000000E+00  0.00000000000E+00  0.29670758813E+03  0.29670758813E+03  0.00000000000E+00 0.  1.
         21   -1    0    0  503  502 -0.00000000000E+00 -0.00000000000E+00 -0.14151846607E+01  0.14151846607E+01  0.00000000000E+00 0.  1.
          2    1    1    2  501    0  0.20252899262E+02  0.18505354002E+01  0.16589252788E+03  0.16713448243E+03  0.00000000000E+00 0.  1.
         21    1    1    2  503  501 -0.20252899262E+02 -0.18505354002E+01  0.12939987559E+03  0.13098829036E+03  0.00000000000E+00 0.  1.
</event>
<event>
 4    1  0.2281973E+005  0.3340831E+02  0.7546771E-02  0.1392112E+00
          2   -1    0    0  503    0  0.00000000000E+00  0.00000000000E+00  0.82395527880E+03  0.82395527880E+03  0.00000000000E+00 0.  1.
         21   -1    0    0  501  502 -0.00000000000E+00 -0.00000000000E+00 -0.14646138229E+01  0.14646138229E+01  0.00000000000E+00 0.  1.
          2    1    1    2  501    0 -0.25891480875E+02 -0.21112705245E+02  0.52436607558E+03  0.52542924959E+03  0.00000000000E+00 0.  1.
         21    1    1    2  503  502  0.25891480875E+02  0.21112705245E+02  0.29812458940E+03  0.29999064303E+03  0.00000000000E+00 0.  1.
</event>
<event>
 4    1  0.2281973E+005  0.2037642E+02  0.7546771E-02  0.1528357E+00
          2   -1    0    0  503    0  0.00000000000E+00  0.00000000000E+00  0.34078918865E+03  0.34078918865E+03  0.00000000000E+00 0.  1.
         21   -1    0    0  501  502 -0.00000000000E+00 -0.00000000000E+00 -0.13357914460E+01  0.13357914460E+01  0.00000000000E+00 0. -1.
          2    1    1    2  501    0  0.20357051408E+02  0.88824798265E+00  0.22044992915E+03  0.22138963343E+03  0.00000000000E+00 0.  1.
         21    1    1    2  503  502 -0.20357051408E+02 -0.88824798265E+00  0.11900346805E+03  0.12073534667E+03  0.00000000000E+00 0. -1.
</event>
<event>
 4    1  0.2281973E+005  0.2545533E+02  0.7546771E-02  0.1463774E+00
          2   -1    0    0  503    0  0.00000000000E+00  0.00000000000E+00  0.12498032454E+04  0.12498032454E+04  0.00000000000E+00 0.  1.
         21   -1    0    0  501  502 -0.00000000000E+00 -0.00000000000E+00 -0.96898235702E+01  0.96898235702E+01  0.00000000000E+00 0. -1.
          2    1    1    2  501    0 -0.25446725859E+02  0.66183167816E+00  0.12327241356E+04  0.12329869295E+04  0.00000000000E+00 0.  1.
         21    1    1    2  503  502  0.25446725859E+02 -0.66183167816E+00  0.73892862448E+01  0.26506139465E+02  0.00000000000E+00 0. -1.
</event>
<event>
 4    1  0.2281973E+005  0.2263195E+02  0.7546771E-02  0.1497172E+00
          2   -1    0    0  502    0  0.00000000000E+00  0.00000000000E+00  0.14966587612E+03  0.14966587612E+03  0.00000000000E+00 0.  1.
         21   -1    0    0  503  502 -0.00000000000E+00 -0.00000000000E+00 -0.14044401135E+02  0.14044401135E+02  0.00000000000E+00 0.  1.
          2    1    1    2  501    0  0.17729973178E+02  0.14066030088E+02  0.13899746962E+03  0.14082791524E+03  0.00000000000E+00 0.  1.
         21    1    1    2  503  501 -0.17729973178E+02 -0.14066030088E+02 -0.33759946363E+01  0.22882362009E+02  0.00000000000E+00 0.  1.
</event>
<event>
 4    1  0.2281973E+005  0.2416526E+02  0.7546771E-02  0.1478362E+00
          2   -1    0    0  503    0  0.00000000000E+00  0.00000000000E+00  0.16459729789E+04  0.16459729789E+04  0.00000000000E+00 0. -1.
         21   -1    0    0  501  502 -0.00000000000E+00 -0.00000000000E+00 -0.12894354117E+01  0.12894354117E+01  0.00000000000E+00 0. -1.
          2    1    1    2  501    0 -0.21527785696E+02  0.10977907928E+02  0.15235685878E+04  0.15237602179E+04  0.00000000000E+00 0. -1.
         21    1    1    2  503  502  0.21527785696E+02 -0.10977907928E+02  0.12111495571E+03  0.12350219640E+03  0.00000000000E+00 0. -1.
</event>
<event>
 4    1  0.2281973E+005  0.2328826E+02  0.7546771E-02  0.1488910E+00
          2   -1    0    0  503    0  0.00000000000E+00  0.00000000000E+00  0.76822125646E+01  0.76822125646E+01  0.00000000000E+00 0. -1.
         21   -1    0    0  501  502 -0.00000000000E+00 -0.00000000000E+00 -0.71468783278E+02  0.71468783278E+02  0.00000000000E+00 0. -1.
          2    1    1    2  501    0  0.22773843163E+02 -0.48677400547E+01 -0.27522912785E+02  0.36053481854E+02  0.00000000000E+00 0. -1.
         21    1    1    2  503  502 -0.22773843163E+02  0.48677400547E+01 -0.36263657928E+02  0.43097513988E+02  0.00000000000E+00 0. -1.
</event>
<event>
 4    1  0.2281973E+005  0.3535009E+02  0.7546771E-02  0.1378119E+00
          2   -1    0    0  503    0  0.00000000000E+00  0.00000000000E+00  0.70550946548E+03  0.70550946548E+03  0.00000000000E+00 0.  1.
         21   -1    0    0  501  502 -0.00000000000E+00 -0.00000000000E+00 -0.18515396680E+01  0.18515396680E+01  0.00000000000E+00 0.  1.
          2    1    1    2  501    0 -0.33736536776E+02 -0.10558163157E+02  0.42548244625E+03  0.42694840530E+03  0.00000000000E+00 0.  1.
         21    1    1    2  503  502  0.33736536776E+02  0.10558163157E+02  0.27817547957E+03  0.28041259985E+03  0.00000000000E+00 0.  1.
</event>
<event>
 4    1  0.2281973E+005  0.2090761E+02  0.7546771E-02  0.1520588E+00
          2   -1    0    0  503    0  0.00000000000E+00  0.00000000000E+00  0.96886964565E+02  0.96886964565E+02  0.00000000000E+00 0. -1.
         21   -1    0    0  501  502 -0.00000000000E+00 -0.00000000000E+00 -0.33881703870E+02  0.33881703870E+02  0.00000000000E+00 0.  1.
          2    1    1    2  501    0 -0.13079841408E+02 -0.16310915785E+02  0.92378171400E+02  0.94714596427E+02  0.00000000000E+00 0. -1.
         21    1    1    2  503  502  0.13079841408E+02  0.16310915785E+02 -0.29372910706E+02  0.36054072008E+02  0.00000000000E+00 0.  1.
</event>
<event>
 4    1  0.2281973E+005  0.5370964E+02  0.7546771E-02  0.1282843E+00
          2   -1    0    0  502    0  0.00000000000E+00  0.00000000000E+00  0.87417431680E+03  0.87417431680E+03  0.00000000000E+00 0.  1.
         21   -1    0    0  503  502 -0.00000000000E+00 -0.00000000000E+00 -0.16707141050E+02  0.16707141050E+02  0.00000000000E+00 0.  1.
          2    1    1    2  501    0 -0.44468039259E+02 -0.30121733356E+02  0.82776571989E+03  0.82950636668E+03  0.00000000000E+00 0.  1.
         21    1    1    2  503  501  0.44468039259E+02  0.30121733356E+02  0.29701455858E+02  0.61375091169E+02  0.00000000000E+00 0.  1.
</event>
<event>
 4    1  0.2281973E+005  0.2634914E+02  0.7546771E-02  0.1454258E+00
          2   -1    0    0  503    0  0.00000000000E+00  0.00000000000E+00  0.23041478107E+03  0.23041478107E+03  0.00000000000E+00 0. -1.
         21   -1    0    0  501  502 -0.00000000000E+00 -0.00000000000E+00 -0.20103015257E+02  0.20103015257E+02  0.00000000000E+00 0.  1.
          2    1    1    2  501    0 -0.12571522447E+02  0.23156727410E+02  0.22064661788E+03  0.22221432714E+03  0.00000000000E+00 0. -1.
         21    1    1    2  503  502  0.12571522447E+02 -0.23156727410E+02 -0.10334852070E+02  0.28303469192E+02  0.00000000000E+00 0.  1.
</event>
<event>
 4    1  0.2281973E+005  0.2357546E+02  0.7546771E-02  0.1485396E+00
          2   -1    0    0  502    0  0.00000000000E+00  0.00000000000E+00  0.68259667914E+01  0.68259667914E+01  0.00000000000E+00 0.  1.
         21   -1    0    0  503  502 -0.00000000000E+00 -0.00000000000E+00 -0.18081379099E+03  0.18081379099E+03  0.00000000000E+00 0.  1.
          2    1    1    2  501    0 -0.15432456660E+02 -0.17822501550E+02 -0.17435692527E+02  0.29322442838E+02  0.00000000000E+00 0.  1.
         21    1    1    2  503  501  0.15432456660E+02  0.17822501550E+02 -0.15655213167E+03  0.15831731494E+03  0.00000000000E+00 0.  1.
</event>
<event>
 4    1  0.2281973E+005  0.3873565E+02  0.7546771E-02  0.1356058E+00
          2   -1    0    0  502    0  0.00000000000E+00  0.00000000000E+00  0.18930409117E+03  0.18930409117E+03  0.00000000000E+00 0.  1.
         21   -1    0    0  503  502 -0.00000000000E+00 -0.00000000000E+00 -0.17995056372E+02  0.17995056372E+02  0.00000000000E+00 0. -1.
          2    1    1    2  501    0  0.38724048748E+02 -0.94780835995E+00  0.16318675741E+03  0.16772110209E+03  0.00000000000E+00 0.  1.
         21    1    1    2  503  501 -0.38724048748E+02  0.94780835995E+00  0.81222773926E+01  0.39578045457E+02  0.00000000000E+00 0. -1.
</event>
<event>
 4    1  0.2281973E+005  0.5106106E+02  0.7546771E-02  0.1293636E+00
          2   -1    0    0  502    0  0.00000000000E+00  0.00000000000E+00  0.54570836531E+03  0.54570836531E+03  0.00000000000E+00 0.  1.
         21   -1    0    0  503  502 -0.00000000000E+00 -0.00000000000E+00 -0.19595179383E+02  0.19595179383E+02  0.00000000000E+00 0. -1.
          2    1    1    2  501    0 -0.42278101302E+02  0.28632039417E+02  0.50884660959E+03  0.51140209584E+03  0.00000000000E+00 0.  1.
         21    1    1    2  503  501  0.42278101302E+02 -0.28632039417E+02  0.17266576336E+02  0.53901448860E+02  0.00000000000E+00 0. -1.
</event>
<event>
 4    1  0.2281973E+005  0.2208356E+02  0.7546771E-02  0.1504338E+00
          2   -1    0    0  503    0  0.00000000000E+00  0.00000000000E+00  0.61270736875E+03  0.61270736875E+03  0.00000000000E+00 0. -1.
         21   -1    0    0  501  502 -0.00000000000E+00 -0.00000000000E+00 -0.17194438439E+01  0.17194438439E+01  0.00000000000E+00 0. -1.
          2    1    1    2  501    0  0.19318206388E+02  0.10700020989E+02  0.53063958454E+03  0.53109891003E+03  0.00000000000E+00 0. -1.
         21    1    1    2  503  502 -0.19318206388E+02 -0.10700020989E+02  0.80348340363E+02  0.83327902568E+02  0.00000000000E+00 0. -1.
</event>
<event>
 4    1  0.2281973E+005  0.2030649E+02  0.7546771E-02  0.1529401E+00
          2   -1    0    0  503    0  0.00000000000E+00  0.00000000000E+00  0.10724818244E+03  0.10724818244E+03  0.00000000000E+00 0.  1.
         21   -1    0    0  501  502 -0.00000000000E+00 -0.00000000000E+00 -0.64901705568E+01  0.64901705568E+01  0.00000000000E+00 0.  1.
          2    1    1    2  501    0  0.82762515903E+01  0.18543389678E+02  0.86685781509E+02  0.89032456761E+02  0.00000000000E+00 0.  1.
         21    1    1    2  503  502 -0.82762515903E+01 -0.18543389678E+02  0.14072230377E+02  0.24705896238E+02  0.00000000000E+00 0.  1.
</event>
<event>
 4    1  0.2281973E+005  0.2216927E+02  0.7546771E-02  0.1503202E+00
          2   -1    0    0  502    0  0.00000000000E+00  0.00000000000E+00  0.40441189821E+03  0.40441189821E+03  0.00000000000E+00 0. -1.
         21   -1    0    0  503  502 -0.00000000000E+00 -0.00000000000E+00 -0.46267725111E+02  0.46267725111E+02  0.00000000000E+00 0. -1.
          2    1    1    2  501    0  0.15867856483E+02 -0.15481846641E+02  0.40143277191E+03  0.40204445875E+03  0.00000000000E+00 0. -1.
         21    1    1    2  503  501 -0.15867856483E+02  0.15481846641E+02 -0.43288598819E+02  0.48635164568E+02  0.00000000000E+00 0. -1.
</event>
<event>
 4    1  0.2281973E+005  0.7480799E+02  0.7546771E-02  0.1216443E+00
          2   -1    0    0  502    0  0.00000000000E+00  0.00000000000E+00  0.60353579434E+01  0.60353579434E+01  0.00000000000E+00 0.  1.
         21   -1    0    0  503  502 -0.00000000000E+00 -0.00000000000E+00 -0.94788694824E+03  0.94788694824E+03  0.00000000000E+00 0.  1.
          2    1    1    2  501    0 -0.47589026941E+02 -0.57719326000E+02 -0.54131626858E+03  0.54646092148E+03  0.00000000000E+00 0.  1.
         21    1    1    2  503  501  0.47589026941E+02  0.57719326000E+02 -0.40053532172E+03  0.40746138470E+03  0.00000000000E+00 0.  1.
</event>
<event>
 4    1  0.2281973E+005  0.2757510E+02  0.7546771E-02  0.1441915E+00
          2   -1    0    0  503    0  0.00000000000E+00  0.00000000000E+00  0.28818009324E+03  0.28818009324E+03  0.00000000000E+00 0. -1.
         21   -1    0    0  501  502 -0.00000000000E+00 -0.00000000000E+00 -0.27946804325E+02  0.27946804325E+02  0.00000000000E+00 0. -1.
          2    1    1    2  501    0  0.51802165033E+01  0.27084157311E+02  0.28053339918E+03  0.28188539209E+03  0.00000000000E+00 0. -1.
         21    1    1    2  503  502 -0.51802165033E+01 -0.27084157311E+02 -0.20300110265E+02  0.34241505472E+02  0.00000000000E+00 0. -1.
</event>
<event>
 4    1  0.2281973E+005  0.2135306E+02  0.7546771E-02  0.1514283E+00
          2   -1    0    0  502    0  0.00000000000E+00  0.00000000000E+00  0.26928233692E+03  0.26928233692E+03  0.00000000000E+00 0. -1.
         21   -1    0    0  503  502 -0.00000000000E+00 -0.00000000000E+00 -0.35924177902E+01  0.35924177902E+01  0.00000000000E+00 0.  1.
          2    1    1    2  501    0 -0.20114655036E+02  0.71661470392E+01  0.23204813250E+03  0.23302851501E+03  0.00000000000E+00 0. -1.
         21    1    1    2  503  501  0.20114655036E+02 -0.71661470392E+01  0.33641786624E+02  0.39846239695E+02  0.00000000000E+00 0.  1.
</event>
<event>
 4    1  0.2281973E+005  0.2131918E+02  0.7546771E-02  0.1514756E+00
          2   -1    0    0  503    0  0.00000000000E+00  0.00000000000E+00  0.96668490413E+02  0.96668490413E+02  0.00000000000E+00 0. -1.
         21   -1    0    0  501  502 -0.00000000000E+00 -0.00000000000E+00 -0.49863683326E+01  0.49863683326E+01  0.00000000000E+00 0. -1.
          2    1    1    2  501    0 -0.18706731044E+02 -0.10225726072E+02  0.57985221807E+02  0.61780200777E+02  0.00000000000E+00 0. -1.
         21    1    1    2  503  502  0.18706731044E+02  0.10225726072E+02  0.33696900273E+02  0.39874657969E+02  0.00000000000E+00 0. -1.
</event>
<event>
 4    1  0.2281973E+005  0.2460923E+02  0.7546771E-02  0.1473223E+00
          2   -1    0    0  503    0  0.00000000000E+00  0.00000000000E+00  0.20575076951E+03  0.20575076951E+03  0.00000000000E+00 0.  1.
         21   -1    0    0  501  502 -0.00000000000E+00 -0.00000000000E+00 -0.43660737649E+01  0.43660737649E+01  0.00000000000E+00 0.  1.
          2    1    1    2  501    0 -0.10351855229E+02  0.22326064852E+02  0.16066214925E+03  0.16253596611E+03  0.00000000000E+00 0.  1.
         21    1    1    2  503  502  0.10351855229E+02 -0.22326064852E+02  0.40722546490E+02  0.47580877157E+02  0.00000000000E+00 0.  1.
</event>
<event>
 4    1  0.2281973E+005  0.2764097E+02  0.7546771E-02  0.1441274E+00
          2   -1    0    0  503    0  0.00000000000E+00  0.00000000000E+00  0.21661392317E+02  0.21661392317E+02  0.00000000000E+00 0. -1.
         21   -1    0    0  501  502 -0.00000000000E+00 -0.00000000000E+00 -0.36314985865E+02  0.36314985865E+02  0.00000000000E+00 0. -1.
          2    1    1    2  501    0 -0.17271563149E+02 -0.21580461352E+02 -0.24122353932E+01  0.27746028280E+02  0.00000000000E+00 0. -1.
         21    1    1    2  503  502  0.17271563149E+02  0.21580461352E+02 -0.12241358155E+02  0.30230349902E+02  0.00000000000E+00 0. -1.
</event>
<event>
 4    1  0.2281973E+005  0.2251906E+02  0.7546771E-02  0.1498627E+00
          2   -1    0    0  503    0  0.00000000000E+00  0.00000000000E+00  0.21481160037E+03  0.21481160037E+03  0.00000000000E+00 0. -1.
         21   -1    0    0  501  502 -0.00000000000E+00 -0.00000000000E+00 -0.25636551275E+01  0.25636551275E+01  0.00000000000E+00 0.  1.
          2    1    1    2  501    0  0.16965683739E+02  0.14807887047E+02  0.13670410579E+03  0.13854645604E+03  0.00000000000E+00 0. -1.
         21    1    1    2  503  502 -0.16965683739E+02 -0.14807887047E+02  0.75543839455E+02  0.78828799453E+02  0.00000000000E+00 0.  1.
</event>
<event>
 4    1  0.2281973E+005  0.2136461E+02  0.7546771E-02  0.1514122E+00
          2   -1    0    0  503    0  0.00000000000E+00  0.00000000000E+00  0.14667243489E+03  0.14667243489E+03  0.00000000000E+00 0.  1.
         21   -1    0    0  501  502 -0.00000000000E+00 -0.00000000000E+00 -0.42901091670E+01  0.42901091670E+01  0.00000000000E+00 0. -1.
          2    1    1    2  501    0 -0.16610362152E+02  0.13436606248E+02  0.11074561900E+03  0.11278758197E+03  0.00000000000E+00 0.  1.
         21    1    1    2  503  502  0.16610362152E+02 -0.13436606248E+02  0.31636706723E+02  0.38174962089E+02  0.00000000000E+00 0. -1.
</event>
<event>
 4    1  0.2281973E+005  0.2045430E+02  0.7546771E-02  0.1527200E+00
          2   -1    0    0  503    0  0.00000000000E+00  0.00000000000E+00  0.24628773883E+04  0.24628773883E+04  0.00000000000E+00 0. -1.
         21   -1    0    0  501  502 -0.00000000000E+00 -0.00000000000E+00 -0.17270683279E+00  0.17270683279E+00  0.00000000000E+00 0.  1.
          2    1    1    2  501    0 -0.79916955924E+01  0.18828469648E+02  0.13890809020E+04  0.13892314893E+04  0.00000000000E+00 0. -1.
         21    1    1    2  503  502  0.79916955924E+01 -0.18828469648E+02  0.10736237795E+04  0.10738186059E+04  0.00000000000E+00 0.  1.
</event>
<event>
 4    1  0.2281973E+005  0.5540787E+02  0.7546771E-02  0.1276287E+00
          2   -1    0    0  503    0  0.00000000000E+00  0.00000000000E+00  0.28684024934E+03  0.28684024934E+03  0.00000000000E+00 0. -1.
         21   -1    0    0  501  502 -0.00000000000E+00 -0.00000000000E+00 -0.11622362896E+03  0.11622362896E+03  0.00000000000E+00 0.  1.
          2    1    1    2  501    0 -0.11757945704E+02 -0.54145943759E+02  0.27733672084E+03  0.28281741325E+03  0.00000000000E+00 0. -1.
         21    1    1    2  503  502  0.11757945704E+02  0.54145943759E+02 -0.10672010046E+03  0.12024646504E+03  0.00000000000E+00 0.  1.
</event>
<event>
 4    1  0.2281973E+005  0.2331221E+02  0.7546771E-02  0.1488614E+00
          2   -1    0    0  503    0  0.00000000000E+00  0.00000000000E+00  0.11617008934E+02  0.11617008934E+02  0.00000000000E+00 0.  1.
         21   -1    0    0  501  502 -0.00000000000E+00 -0.00000000000E+00 -0.48428911476E+02  0.48428911476E+02  0.00000000000E+00 0.  1.
          2    1    1    2  501    0 -0.22771758913E+02 -0.49906011736E+01 -0.12868309153E+02  0.26628039442E+02  0.00000000000E+00 0.  1.
         21    1    1    2  503  502  0.22771758913E+02  0.49906011736E+01 -0.23943593389E+02  0.33417880968E+02  0.00000000000E+00 0.  1.
</event>
<event>
 4    1  0.2281973E+005  0.3676427E+02  0.7546771E-02  0.1368567E+00
          2   -1    0    0  503    0  0.00000000000E+00  0.00000000000E+00  0.20045602318E+03  0.20045602318E+03  0.00000000000E+00 0.  1.
         21   -1    0    0  501  502 -0.00000000000E+00 -0.00000000000E+00 -0.14684207287E+02  0.14684207287E+02  0.00000000000E+00 0.  1.
          2    1    1    2  501    0 -0.36373864068E+02  0.53435507639E+01  0.17199352470E+03  0.17587889032E+03  0.00000000000E+00 0.  1.
         21    1    1    2  503  502  0.36373864068E+02 -0.53435507639E+01  0.13778291196E+02  0.39261340149E+02  0.00000000000E+00 0.  1.
</event>
<event>
 4    1  0.2281973E+005  0.2281031E+02  0.7546771E-02  0.1494894E+00
          2   -1    0    0  502    0  0.00000000000E+00  0.00000000000E+00  0.31724782384E+03  0.31724782384E+03  0.00000000000E+00 0. -1.
         21   -1    0    0  503  502 -0.00000000000E+00 -0.00000000000E+00 -0.24302556077E+01  0.24302556077E+01  0.00000000000E+00 0.  1.
          2    1    1    2  501    0 -0.22808235188E+02 -0.30731739523E+00  0.24855113608E+03  0.24959562753E+03  0.00000000000E+00 0. -1.
         21    1    1    2  503  501  0.22808235188E+02  0.30731739523E+00  0.66266432157E+02  0.70082451921E+02  0.00000000000E+00 0.  1.
</event>
<event>
 4    1  0.2281973E+005  0.2576523E+02  0.7546771E-02  0.1460422E+00
          2   -1    0    0  503    0  0.00000000000E+00  0.00000000000E+00  0.10610004481E+04  0.10610004481E+04  0.00000000000E+00 0.  1.
         21   -1    0    0  501  502 -0.00000000000E+00 -0.00000000000E+00 -0.94998653927E+01  0.94998653927E+01  0.00000000000E+00 0.  1.
          2    1    1    2  501    0  0.10158764084E+02 -0.23677981063E+02  0.10430739188E+04  0.10433920871E+04  0.00000000000E+00 0.  1.
         21    1    1    2  503  502 -0.10158764084E+02  0.23677981063E+02  0.84266638974E+01  0.27108226415E+02  0.00000000000E+00 0.  1.
</event>
<event>
 4    1  0.2281973E+005  0.2384918E+02  0.7546771E-02  0.1482102E+00
          2   -1    0    0  503    0  0.00000000000E+00  0.00000000000E+00  0.14277679358E+04  0.14277679358E+04  0.00000000000E+00 0. -1.
         21   -1    0    0  501  502 -0.00000000000E+00 -0.00000000000E+00 -0.40059680615E+00  0.40059680615E+00  0.00000000000E+00 0. -1.
          2    1    1    2  501    0  0.11234900592E+02 -0.21037120967E+02  0.66047343144E+03  0.66090387885E+03  0.00000000000E+00 0. -1.
         21    1    1    2  503  502 -0.11234900592E+02  0.21037120967E+02  0.76689390757E+03  0.76726465376E+03  0.00000000000E+00 0. -1.
</event>
<event>
 4    1  0.2281973E+005  0.4209104E+02  0.7546771E-02  0.1336650E+00
          2   -1    0    0  503    0  0.00000000000E+00  0.00000000000E+00  0.17544802294E+04  0.17544802294E+04  0.00000000000E+00 0.  1.
         21   -1    0    0  501  502 -0.00000000000E+00 -0.00000000000E+00 -0.22540619002E+01  0.22540619002E+01  0.00000000000E+00 0. -1.
          2    1    1    2  501    0 -0.41761710171E+02  0.52550502529E+01  0.15287187955E+04  0.15292981434E+04  0.00000000000E+00 0.  1.
         21    1    1    2  503  502  0.41761710171E+02 -0.52550502529E+01  0.22350737206E+03  0.22743614786E+03  0.00000000000E+00 0. -1.
</event>
<event>
 4    1  0.2281973E+005  0.4004879E+02  0.7546771E-02  0.1348200E+00
          2   -1    0    0  502    0  0.00000000000E+00  0.00000000000E+00  0.93194358139E+03  0.93194358139E+03  0.00000000000E+00 0.  1.
         21   -1    0    0  503  502 -0.00000000000E+00 -0.00000000000E+00 -0.19697409801E+01  0.19697409801E+01  0.00000000000E+00 0. -1.
          2    1    1    2  501    0  0.38550309037E+02 -0.10852601111E+02  0.63091398512E+03  0.63218380389E+03  0.00000000000E+00 0.  1.
         21    1    1    2  503  501 -0.38550309037E+02  0.10852601111E+02  0.29905985529E+03  0.30172951848E+03  0.00000000000E+00 0. -1.
</event>
<event>
 4    1  0.2281973E+005  0.2896408E+02  0.7546771E-02  0.1428817E+00
          2   -1    0    0  503    0  0.00000000000E+00  0.00000000000E+00  0.19081392443E+04  0.19081392443E+04  0.00000000000E+00 0.  1.
         21   -1    0    0  501  502 -0.00000000000E+00 -0.00000000000E+00 -0.58774939213E+00  0.58774939213E+00  0.00000000000E+00 0.  1.
          2    1    1    2  501    0  0.26701191287E+02  0.11223381509E+02  0.14328368541E+04  0.14331295714E+04  0.00000000000E+00 0.  1.
         21    1    1    2  503  502 -0.26701191287E+02 -0.11223381509E+02  0.47471464082E+03  0.47559742232E+03  0.00000000000E+00 0.  1.
</event>
<event>
 4    1  0.2281973E+005  0.2056561E+02  0.7546771E-02  0.1525558E+00
          2   -1    0    0  502    0  0.00000000000E+00  0.00000000000E+00  0.75303897781E+03  0.75303897781E+03  0.00000000000E+00 0.  1.
         21   -1    0    0  503  502 -0.00000000000E+00 -0.00000000000E+00 -0.12027206205E+02  0.12027206205E+02  0.00000000000E+00 0. -1.
          2    1    1    2  501    0 -0.10329677876E+02  0.17783191450E+02  0.74400037748E+03  0.74428455972E+03  0.00000000000E+00 0.  1.
         21    1    1    2  503  501  0.10329677876E+02 -0.17783191450E+02 -0.29886058784E+01  0.20781624294E+02  0.00000000000E+00 0. -1.
</event>
<event>
 4    1  0.2281973E+005  0.4428246E+02  0.7546771E-02  0.1325067E+00
          2   -1    0    0  503    0  0.00000000000E+00  0.00000000000E+00  0.29287105919E+04  0.29287105919E+04  0.00000000000E+00 0. -1.
         21   -1    0    0  501  502 -0.00000000000E+00 -0.00000000000E+00 -0.11098091215E+01  0.11098091215E+01  0.00000000000E+00 0.  1.
          2    1    1    2  501    0  0.25603119202E+02 -0.36130550730E+02  0.23864524795E+04  0.23868632917E+04  0.00000000000E+00 0. -1.
         21    1    1    2  503  502 -0.25603119202E+02  0.36130550730E+02  0.54114830331E+03  0.54295710934E+03  0.00000000000E+00 0.  1.
</event>
<event>
 4    1  0.2281973E+005  0.2199200E+02  0.7546771E-02  0.1505559E+00
          2   -1    0    0  503    0  0.00000000000E+00  0.00000000000E+00  0.86003920426E+01  0.86003920426E+01  0.00000000000E+00 0. -1.
         21   -1    0    0  501  502 -0.00000000000E+00 -0.00000000000E+00 -0.66147836115E+02  0.66147836115E+02  0.00000000000E+00 0. -1.
          2    1    1    2  501    0  0.10865113644E+02 -0.19120598453E+02 -0.14306022404E+02  0.26235667644E+02  0.00000000000E+00 0. -1.
         21    1    1    2  503  502 -0.10865113644E+02  0.19120598453E+02 -0.43241421669E+02  0.48512560514E+02  0.00000000000E+00 0. -1.
</event>
<event>
 4    1  0.2281973E+005  0.3372895E+02  0.7546771E-02  0.1389726E+00
          2   -1    0    0  502    0  0.00000000000E+00  0.00000000000E+00  0.11653533799E+04  0.11653533799E+04  0.00000000000E+00 0. -1.
         21   -1    0    0  503  502 -0.00000000000E+00 -0.00000000000E+00 -0.25249691663E+01  0.25249691663E+01  0.00000000000E+00 0.  1.
          2    1    1    2  501    0  0.27656825161E+02  0.19306533444E+02  0.10387445330E+04  0.10392919931E+04  0.00000000000E+00 0. -1.
         21    1    1    2  503  501 -0.27656825161E+02 -0.19306533444E+02  0.12408387775E+03  0.12858635592E+03  0.00000000000E+00 0.  1.
</event>
<event>
 4    1  0.2281973E+005  0.2374214E+02  0.7546771E-02  0.1483384E+00
          2   -1    0    0  502    0  0.00000000000E+00  0.00000000000E+00  0.13893619173E+03  0.13893619173E+03  0.00000000000E+00 0. -1.
         21   -1    0    0  503  502 -0.00000000000E+00 -0.00000000000E+00 -0.16648598228E+02  0.16648598228E+02  0.00000000000E+00 0. -1.
          2    1    1    2  501    0 -0.13161986269E+02 -0.19759836152E+02  0.12879657666E+03  0.13096658798E+03  0.00000000000E+00 0. -1.
         21    1    1    2  503  501  0.13161986269E+02  0.19759836152E+02 -0.65089831531E+01  0.24618201985E+02  0.00000000000E+00 0. -1.
</event>
<event>
 4    1  0.2281973E+005  0.2508855E+02  0.7546771E-02  0.1467815E+00
          2   -1    0    0  503    0  0.00000000000E+00  0.00000000000E+00  0.69823762285E+02  0.69823762285E+02  0.00000000000E+00 0.  1.
         21   -1    0    0  501  502 -0.00000000000E+00 -0.00000000000E+00 -0.13558752398E+02  0.13558752398E+02  0.00000000000E+00 0.  1.
          2    1    1    2  501    0 -0.25031354581E+02  0.16931542993E+01  0.52268214385E+02  0.57977596696E+02  0.00000000000E+00 0.  1.
         21    1    1    2  503  502  0.25031354581E+02 -0.16931542993E+01  0.39967955011E+01  0.25404917987E+02  0.00000000000E+00 0.  1.
</event>
<event>
 4    1  0.2281973E+005  0.2257118E+02  0.7546771E-02  0.1497954E+00
          2   -1    0    0  503    0  0.00000000000E+00  0.00000000000E+00  0.12187085995E+04  0.12187085995E+04  0.00000000000E+00 0.  1.
         21   -1    0    0  501  502 -0.00000000000E+00 -0.00000000000E+00 -0.34846795948E+01  0.34846795948E+01  0.00000000000E+00 0. -1.
          2    1    1    2  501    0 -0.11506160770E+02 -0.19418201577E+02  0.11808836003E+04  0.11810992913E+04  0.00000000000E+00 0.  1.
         21    1    1    2  503  502  0.11506160770E+02  0.19418201577E+02  0.34340319615E+02  0.41093987874E+02  0.00000000000E+00 0. -1.
</event>
<event>
 4    1  0.2281973E+005  0.2648803E+02  0.7546771E-02  0.1452820E+00
          2   -1    0    0  503    0  0.00000000000E+00  0.00000000000E+00  0.53384008853E+03  0.53384008853E+03  0.00000000000E+00 0.  1.
         21   -1    0    0  501  502 -0.00000000000E+00 -0.00000000000E+00 -0.26915229514E+01  0.26915229514E+01  0.00000000000E+00 0. -1.
          2    1    1    2  501    0  0.86858524744E+01  0.25023421192E+02  0.45747273377E+03  0.45823893089E+03  0.00000000000E+00 0.  1.
         21    1    1    2  503  502 -0.86858524744E+01 -0.25023421192E+02  0.73675831812E+02  0.78292680594E+02  0.00000000000E+00 0. -1.
</event>
<event>
 4    1  0.2281973E+005  0.3351134E+02  0.7546771E-02  0.1391342E+00
          2   -1    0    0  503    0  0.00000000000E+00  0.00000000000E+00  0.74682526554E+03  0.74682526554E+03  0.00000000000E+00 0. -1.
         21   -1    0    0  501  502 -0.00000000000E+00 -0.00000000000E+00 -0.61355120663E+01  0.61355120663E+01  0.00000000000E+00 0.  1.
          2    1    1    2  501    0 -0.14256588717E+02 -0.30327534631E+02  0.69745341527E+03  0.69825802977E+03  0.00000000000E+00 0. -1.
         21    1    1    2  503  502  0.14256588717E+02  0.30327534631E+02  0.43236338204E+02  0.54702747828E+02  0.00000000000E+00 0.  1.
</event>
<event>
 4    1  0.2281973E+005  0.2772990E+02  0.7546771E-02  0.1440411E+00
          2   -1    0    0  502    0  0.00000000000E+00  0.00000000000E+00  0.18385535373E+04  0.18385535373E+04  0.00000000000E+00 0. -1.
         21   -1    0    0  503  502 -0.00000000000E+00 -0.00000000000E+00 -0.48767141541E+00  0.48767141541E+00  0.00000000000E+00 0. -1.
          2    1    1    2  501    0 -0.16332534417E+02 -0.22409723142E+02  0.12660026526E+04  0.12663063072E+04  0.00000000000E+00 0. -1.
         21    1    1    2  503  501  0.16332534417E+02  0.22409723142E+02  0.57206321329E+03  0.57273490148E+03  0.00000000000E+00 0. -1.
</event>
<event>
 4    1  0.2281973E+005  0.3445298E+02  0.7546771E-02  0.1384450E+00
          2   -1    0    0  502    0  0.00000000000E+00  0.00000000000E+00  0.46502934780E+03  0.46502934780E+03  0.00000000000E+00 0. -1.
         21   -1    0    0  503  502 -0.00000000000E+00 -0.00000000000E+00 -0.18780566695E+02  0.18780566695E+02  0.00000000000E+00 0. -1.
          2    1    1    2  501    0  0.80080761251E+00  0.34443672803E+02  0.44799009542E+03  0.44931295718E+03  0.00000000000E+00 0. -1.
         21    1    1    2  503  501 -0.80080761251E+00 -0.34443672803E+02 -0.17413143144E+01  0.34496957322E+02  0.00000000000E+00 0. -1.
</event>
<event>
 4    1  0.2281973E+005  0.3874463E+02  0.7546771E-02  0.1356003E+00
          2   -1    0    0  503    0  0.00000000000E+00  0.00000000000E+00  0.13664183611E+04  0.13664183611E+04  0.00000000000E+00 0.  1.
         21   -1    0    0  501  502 -0.00000000000E+00 -0.00000000000E+00 -0.33821616869E+01  0.33821616869E+01  0.00000000000E+00 0.  1.
          2    1    1    2  501    0  0.90665717694E+01  0.37668872022E+02  0.12442953882E+04  0.12448984536E+04  0.00000000000E+00 0.  1.
         21    1    1    2  503  502 -0.90665717694E+01 -0.37668872022E+02  0.11874081119E+03  0.12490206918E+03  0.00000000000E+00 0.  1.
</event>
<event>
 4    1  0.2281973E+005  0.2412146E+02  0.7546771E-02  0.1478876E+00
          2   -1    0    0  502    0  0.00000000000E+00  0.00000000000E+00  0.66077438087E+03  0.66077438087E+03  0.00000000000E+00 0. -1.
         21   -1    0    0  503  502 -0.00000000000E+00 -0.00000000000E+00 -0.90318127199E+01  0.90318127199E+01  0.00000000000E+00 0. -1.
          2    1    1    2  501    0  0.21043489579E+02 -0.11790524936E+02  0.64403023428E+03  0.64448179773E+03  0.00000000000E+00 0. -1.
         21    1    1    2  503  501 -0.21043489579E+02  0.11790524936E+02  0.77123338629E+01  0.25324395858E+02  0.00000000000E+00 0. -1.
</event>
<event>
 4    1  0.2281973E+005  0.2056132E+02  0.7546771E-02  0.1525621E+00
          2   -1    0    0  503    0  0.00000000000E+00  0.00000000000E+00  0.66080341429E+03  0.66080341429E+03  0.00000000000E+00 0. -1.
         21   -1    0    0  501  502 -0.00000000000E+00 -0.00000000000E+00 -0.54166901258E+02  0.54166901258E+02  0.00000000000E+00 0. -1.
          2    1    1    2  501    0  0.44920084571E+01 -0.20064634220E+02  0.65868597171E+03  0.65900681106E+03  0.00000000000E+00 0. -1.
         21    1    1    2  503  502 -0.44920084571E+01  0.20064634220E+02 -0.52049458680E+02  0.55963504494E+02  0.00000000000E+00 0. -1.
</event>
<event>
 4    1  0.2281973E+005  0.2801479E+02  0.7546771E-02  0.1437672E+00
          2   -1    0    0  502    0  0.00000000000E+00  0.00000000000E+00  0.25060400796E+03  0.25060400796E+03  0.00000000000E+00 0.  1.
         21   -1    0    0  503  502 -0.00000000000E+00 -0.00000000000E+00 -0.25550208142E+03  0.25550208142E+03  0.00000000000E+00 0. -1.
          2    1    1    2  501    0  0.21701492558E+02 -0.17716484709E+02  0.24904836147E+03  0.25061906344E+03  0.00000000000E+00 0.  1.
         21    1    1    2  503  501 -0.21701492558E+02  0.17716484709E+02 -0.25394643493E+03  0.25548702593E+03  0.00000000000E+00 0. -1.
</event>
<event>
 4    1  0.2281973E+005  0.3259353E+02  0.7546771E-02  0.1398320E+00
          2   -1    0    0  502    0  0.00000000000E+00  0.00000000000E+00  0.66606197721E+03  0.66606197721E+03  0.00000000000E+00 0. -1.
         21   -1    0    0  503  502 -0.00000000000E+00 -0.00000000000E+00 -0.17244214354E+02  0.17244214354E+02  0.00000000000E+00 0. -1.
          2    1    1    2  501    0  0.15385488793E+02 -0.28733687585E+02  0.64987858243E+03  0.65069540491E+03  0.00000000000E+00 0. -1.
         21    1    1    2  503  501 -0.15385488793E+02  0.28733687585E+02 -0.10608195809E+01  0.32610786648E+02  0.00000000000E+00 0. -1.
</event>
<event>
 4    1  0.2281973E+005  0.3531014E+02  0.7546771E-02  0.1378396E+00
          2   -1    0    0  503    0  0.00000000000E+00  0.00000000000E+00  0.28445685534E+03  0.28445685534E+03  0.00000000000E+00 0.  1.
         21   -1    0    0  501  502 -0.00000000000E+00 -0.00000000000E+00 -0.87081793592E+01  0.87081793592E+01  0.00000000000E+00 0.  1.
          2    1    1    2  501    0  0.18886913348E+02 -0.29834386127E+02  0.24117781991E+03  0.24374894237E+03  0.00000000000E+00 0.  1.
         21    1    1    2  503  502 -0.18886913348E+02  0.29834386127E+02  0.34570856074E+02  0.49416092329E+02  0.00000000000E+00 0.  1.
</event>
<event>
 4    1  0.2281973E+005  0.2361323E+02  0.7546771E-02  0.1484938E+00
          2   -1    0    0  502    0  0.00000000000E+00  0.00000000000E+00  0.43489077330E+03  0.43489077330E+03  0.00000000000E+00 0. -1.
         21   -1    0    0  503  502 -0.00000000000E+00 -0.00000000000E+00 -0.21165092673E+01  0.21165092673E+01  0.00000000000E+00 0.  1.
          2    1    1    2  501    0 -0.16464158290E+02 -0.16926793472E+02  0.35357993777E+03  0.35436754541E+03  0.00000000000E+00 0. -1.
         21    1    1    2  503  501  0.16464158290E+02  0.16926793472E+02  0.79194326262E+02  0.82639737158E+02  0.00000000000E+00 0.  1.
</event>
<event>
 4    1  0.2281973E+005  0.3849727E+02  0.7546771E-02  0.1357524E+00
          2   -1    0    0  502    0  0.00000000000E+00  0.00000000000E+00  0.76571505812E+01  0.76571505812E+01  0.00000000000E+00 0. -1.
         21   -1    0    0  503  502 -0.00000000000E+00 -0.00000000000E+00 -0.26536987463E+03  0.26536987463E+03  0.00000000000E+00 0.  1.
          2    1    1    2  501    0  0.16900539240E+02  0.34589187187E+02 -0.57837664138E+02  0.69478309492E+02  0.00000000000E+00 0. -1.
         21    1    1    2  503  501 -0.16900539240E+02 -0.34589187187E+02 -0.19987505991E+03  0.20354871572E+03  0.00000000000E+00 0.  1.
</event>
<event>
 4    1  0.2281973E+005  0.2774407E+02  0.7546771E-02  0.1440274E+00
          2   -1    0    0  503    0  0.00000000000E+00  0.00000000000E+00  0.16875323979E+04  0.16875323979E+04  0.00000000000E+00 0. -1.
         21   -1    0    0  501  502 -0.00000000000E+00 -0.00000000000E+00 -0.49657063258E+00  0.49657063258E+00  0.00000000000E+00 0.  1.
          2    1    1    2  501    0  0.26825816233E+02 -0.70787581780E+01  0.60265425584E+03  0.60329253710E+03  0.00000000000E+00 0. -1.
         21    1    1    2  503  502 -0.26825816233E+02  0.70787581780E+01  0.10843815714E+04  0.10847364314E+04  0.00000000000E+00 0.  1.
</event>
<event>
 4    1  0.2281973E+005  0.2018926E+02  0.7546771E-02  0.1531162E+00
          2   -1    0    0  502    0  0.00000000000E+00  0.00000000000E+00  0.26262510520E+02  0.26262510520E+02  0.00000000000E+00 0.  1.
         21   -1    0    0  503  502 -0.00000000000E+00 -0.00000000000E+00 -0.26318063743E+02  0.26318063743E+02  0.00000000000E+00 0. -1.
          2    1    1    2  501    0  0.84507606682E+01 -0.18335510639E+02  0.16811832536E+02  0.26272495493E+02  0.00000000000E+00 0.  1.
         21    1    1    2  503  501 -0.84507606682E+01  0.18335510639E+02 -0.16867385758E+02  0.26308078770E+02  0.00000000000E+00 0. -1.
</event>
<event>
 4    1  0.2281973E+005  0.2441697E+02  0.7546771E-02  0.1475433E+00
          2   -1    0    0  503    0  0.00000000000E+00  0.00000000000E+00  0.90649340555E+03  0.90649340555E+03  0.00000000000E+00 0. -1.
         21   -1    0    0  501  502 -0.00000000000E+00 -0.00000000000E+00 -0.40779227326E+01  0.40779227326E+01  0.00000000000E+00 0. -1.
          2    1    1    2  501    0 -0.15468030361E+02  0.18892545382E+02  0.86816596896E+03  0.86850926184E+03  0.00000000000E+00 0. -1.
         21    1    1    2  503  502  0.15468030361E+02 -0.18892545382E+02  0.34249513855E+02  0.42062066445E+02  0.00000000000E+00 0. -1.
</event>
<event>
 4    1  0.2281973E+005  0.2106360E+02  0.7546771E-02  0.1518359E+00
          2   -1    0    0  502    0  0.00000000000E+00  0.00000000000E+00  0.12361375631E+04  0.12361375631E+04  0.00000000000E+00 0.  1.
         21   -1    0    0  503  502 -0.00000000000E+00 -0.00000000000E+00 -0.70639941773E+00  0.70639941773E+00  0.00000000000E+00 0.  1.
          2    1    1    2  501    0  0.12814772695E+02 -0.16716957414E+02  0.10514501195E+04  0.10516610808E+04  0.00000000000E+00 0.  1.
         21    1    1    2  503  501 -0.12814772695E+02  0.16716957414E+02  0.18398104420E+03  0.18518288173E+03  0.00000000000E+00 0.  1.
</event>
<event>
 4    1  0.2281973E+005  0.2275660E+02  0.7546771E-02  0.1495577E+00
          2   -1    0    0  503    0  0.00000000000E+00  0.00000000000E+00  0.78111386129E+03  0.78111386129E+03  0.00000000000E+00 0. -1.
         21   -1    0    0  501  502 -0.00000000000E+00 -0.00000000000E+00 -0.89983480077E+00  0.89983480077E+00  0.00000000000E+00 0. -1.
          2    1    1    2  501    0  0.22751784490E+02 -0.46798215714E+00  0.59071317020E+03  0.59115134454E+03  0.00000000000E+00 0. -1.
         21    1    1    2  503  502 -0.22751784490E+02  0.46798215714E+00  0.18950085629E+03  0.19086235155E+03  0.00000000000E+00 0. -1.
</event>
<event>
 4    1  0.2281973E+005  0.2174028E+02  0.7546771E-02  0.1508953E+00
          2   -1    0    0  503    0  0.00000000000E+00  0.00000000000E+00  0.13085604971E+04  0.13085604971E+04  0.00000000000E+00 0. -1.
         21   -1    0    0  501  502 -0.00000000000E+00 -0.00000000000E+00 -0.29942851260E+02  0.29942851260E+02  0.00000000000E+00 0. -1.
          2    1    1    2  501    0 -0.20522962382E+02  0.71727265690E+01  0.13045117688E+04  0.13046929121E+04  0.00000000000E+00 0. -1.
         21    1    1    2  503  502  0.20522962382E+02 -0.71727265690E+01 -0.25894122991E+02  0.33810436212E+02  0.00000000000E+00 0. -1.
</event>
<event>
 4    1  0.2281973E+005  0.2049477E+02  0.7546771E-02  0.1526602E+00
          2   -1    0    0  503    0  0.00000000000E+00  0.00000000000E+00  0.63265597178E+03  0.63265597178E+03  0.00000000000E+00 0.  1.
         21   -1    0    0  501  502 -0.00000000000E+00 -0.00000000000E+00 -0.22765391685E+01  0.22765391685E+01  0.00000000000E+00 0. -1.
          2    1    1    2  501    0  0.85896599793E+00  0.20476761224E+02  0.58238288926E+03  0.58274339574E+03  0.00000000000E+00 0.  1.
         21    1    1    2  503  502 -0.85896599793E+00 -0.20476761224E+02  0.47996543348E+02  0.52189115208E+02  0.00000000000E+00 0. -1.
</event>
<event>
 4    1  0.2281973E+005  0.4042009E+02  0.7546771E-02  0.1346042E+00
          2   -1    0    0  503    0  0.00000000000E+00  0.00000000000E+00  0.48896990349E+03  0.48896990349E+03  0.00000000000E+00 0.  1.
         21   -1    0    0  501  502 -0.00000000000E+00 -0.00000000000E+00 -0.54224640508E+01  0.54224640508E+01  0.00000000000E+00 0. -1.
          2    1    1    2  501    0 -0.13536021771E+02 -0.38086217900E+02  0.39491736533E+03  0.39698048985E+03  0.00000000000E+00 0.  1.
         21    1    1    2  503  502  0.13536021771E+02  0.38086217900E+02  0.88630074104E+02  0.97411877689E+02  0.00000000000E+00 0. -1.
</event>
<event>
 4    1  0.2281973E+005  0.2347905E+02  0.7546771E-02  0.1486569E+00
          2   -1    0    0  502    0  0.00000000000E+00  0.00000000000E+00  0.85876223058E+02  0.85876223058E+02  0.00000000000E+00 0. -1.
         21   -1    0    0  503  502 -0.00000000000E+00 -0.00000000000E+00 -0.10748011133E+03  0.10748011133E+03  0.00000000000E+00 0. -1.
          2    1    1    2  501    0  0.14759723461E+02  0.18259687226E+02  0.82944701170E+02  0.86203764804E+02  0.00000000000E+00 0. -1.
         21    1    1    2  503  501 -0.14759723461E+02 -0.18259687226E+02 -0.10454858944E+03  0.10715256958E+03  0.00000000000E+00 0. -1.
</event>
<event>
 4    1  0.2281973E+005  0.2226771E+02  0.7546771E-02  0.1501904E+00
          2   -1    0    0  503    0  0.00000000000E+00  0.00000000000E+00  0.17692024210E+03  0.17692024210E+03  0.00000000000E+00 0.  1.
         21   -1    0    0  501  502 -0.00000000000E+00 -0.00000000000E+00 -0.76728516481E+01  0.76728516481E+01  0.00000000000E+00 0. -1.
          2    1    1    2  501    0 -0.21185118364E+02  0.68587047720E+01  0.15815616007E+03  0.15971606694E+03  0.00000000000E+00 0.  1.
         21    1    1    2  503  502  0.21185118364E+02 -0.68587047720E+01  0.11091230379E+02  0.24877026804E+02  0.00000000000E+00 0. -1.
</event>
<event>
 4    1  0.2281973E+005  0.2893236E+02  0.7546771E-02  0.1429107E+00
          2   -1    0    0  503    0  0.00000000000E+00  0.00000000000E+00  0.14978946957E+01  0.14978946957E+01  0.00000000000E+00 0. -1.
         21   -1    0    0  501  502 -0.00000000000E+00 -0.00000000000E+00 -0.71579220820E+03  0.71579220820E+03  0.00000000000E+00 0. -1.
          2    1    1    2  501    0  0.21654635068E+02  0.19187446211E+02 -0.18920602735E+03  0.19140533456E+03  0.00000000000E+00 0. -1.
         21    1    1    2  503  502 -0.21654635068E+02 -0.19187446211E+02 -0.52508828616E+03  0.52588476834E+03  0.00000000000E+00 0. -1.
</event>
<event>
 4    1  0.2281973E+005  0.2354056E+02  0.7546771E-02  0.1485820E+00
          2   -1    0    0  503    0  0.00000000000E+00  0.00000000000E+00  0.47725908683E+03  0.47725908683E+03  0.00000000000E+00 0.  1.
         21   -1    0    0  501  502 -0.00000000000E+00 -0.00000000000E+00 -0.15915532229E+01  0.15915532229E+01  0.00000000000E+00 0. -1.
          2    1    1    2  501    0  0.22608449952E+02  0.65586444868E+01  0.36234526899E+03  0.36310914583E+03  0.00000000000E+00 0.  1.
         21    1    1    2  503  502 -0.22608449952E+02 -0.65586444868E+01  0.11332226462E+03  0.11574149422E+03  0.00000000000E+00 0. -1.
</event>
<event>
 4    1  0.2281973E+005  0.2617965E+02  0.7546771E-02  0.1456027E+00
          2   -1    0    0  503    0  0.00000000000E+00  0.00000000000E+00  0.57121890670E+03  0.57121890670E+03  0.00000000000E+00 0.  1.
         21   -1    0    0  501  502 -0.00000000000E+00 -0.00000000000E+00 -0.36664028411E+01  0.36664028411E+01  0.00000000000E+00 0.  1.
          2    1    1    2  501    0 -0.96324034746E+01 -0.24343188714E+02  0.51953987388E+03  0.52019905285E+03  0.00000000000E+00 0.  1.
         21    1    1    2  503  502  0.96324034746E+01  0.24343188714E+02  0.48012629975E+02  0.54686256688E+02  0.00000000000E+00 0.  1.
</event>
<event>
 4    1  0.2281973E+005  0.2057953E+02  0.7546771E-02  0.1525354E+00
          2   -1    0    0  502    0  0.00000000000E+00  0.00000000000E+00  0.83253403897E+01  0.83253403897E+01  0.00000000000E+00 0. -1.
         21   -1    0    0  503  502 -0.00000000000E+00 -0.00000000000E+00 -0.10090725293E+03  0.10090725293E+03  0.00000000000E+00 0. -1.
          2    1    1    2  501    0 -0.92166479938E+00 -0.20558876412E+02 -0.78314024042E+01  0.22019258137E+02  0.00000000000E+00 0. -1.
         21    1    1    2  503  501  0.92166479938E+00  0.20558876412E+02 -0.84750510139E+02  0.87213335185E+02  0.00000000000E+00 0. -1.
</event>
<event>
 4    1  0.2281973E+005  0.3076785E+02  0.7546771E-02  0.1413039E+00
          2   -1    0    0  503    0  0.00000000000E+00  0.00000000000E+00  0.76516773056E+00  0.76516773056E+00  0.00000000000E+00 0. -1.
         21   -1    0    0  501  502 -0.00000000000E+00 -0.00000000000E+00 -0.12377769976E+04  0.12377769976E+04  0.00000000000E+00 0.  1.
          2    1    1    2  501    0 -0.95323150150E+01  0.29253982500E+02 -0.60506003089E+03  0.60584181228E+03  0.00000000000E+00 0. -1.
         21    1    1    2  503  502  0.95323150150E+01 -0.29253982500E+02 -0.63195179901E+03  0.63270035308E+03  0.00000000000E+00 0.  1.
</event>
<event>
 4    1  0.2281973E+005  0.2051384E+02  0.7546771E-02  0.1526320E+00
          2   -1    0    0  502    0  0.00000000000E+00  0.00000000000E+00  0.10060511060E+04  0.10060511060E+04  0.00000000000E+00 0. -1.
         21   -1    0    0  503  502 -0.00000000000E+00 -0.00000000000E+00 -0.71127424026E+01  0.71127424026E+01  0.00000000000E+00 0. -1.
          2    1    1    2  501    0  0.56801118053E+01 -0.19711772454E+02  0.99092987641E+03  0.99114218839E+03  0.00000000000E+00 0. -1.
         21    1    1    2  503  501 -0.56801118053E+01  0.19711772454E+02  0.80084872126E+01  0.22021660038E+02  0.00000000000E+00 0. -1.
</event>
<event>
 4    1  0.2281973E+005  0.2090454E+02  0.7546771E-02  0.1520632E+00
          2   -1    0    0  502    0  0.00000000000E+00  0.00000000000E+00  0.39884796587E+03  0.39884796587E+03  0.00000000000E+00 0. -1.
         21   -1    0    0  503  502 -0.00000000000E+00 -0.00000000000E+00 -0.46284943592E+01  0.46284943592E+01  0.00000000000E+00 0.  1.
          2    1    1    2  501    0  0.20138046957E+02  0.56088278515E+01  0.37336019774E+03  0.37394496539E+03  0.00000000000E+00 0. -1.
         21    1    1    2  503  501 -0.20138046957E+02 -0.56088278515E+01  0.20859273772E+02  0.29531494839E+02  0.00000000000E+00 0.  1.
</event>
<event>
 4    1  0.2281973E+005  0.2015169E+02  0.7546771E-02  0.1531729E+00
          2   -1    0    0  502    0  0.00000000000E+00  0.00000000000E+00  0.13235733785E+02  0.13235733785E+02  0.00000000000E+00 0.  1.
         21   -1    0    0  503  502 -0.00000000000E+00 -0.00000000000E+00 -0.48561138829E+02  0.48561138829E+02  0.00000000000E+00 0.  1.
          2    1    1    2  501    0  0.14137807436E+02 -0.14360116952E+02  0.10860733061E+01  0.20180934399E+02  0.00000000000E+00 0.  1.
         21    1    1    2  503  501 -0.14137807436E+02  0.14360116952E+02 -0.36411478349E+02  0.41615938216E+02  0.00000000000E+00 0.  1.
</event>
<event>
 4    1  0.2281973E+005  0.5035656E+02  0.7546771E-02  0.1296634E+00
          2   -1    0    0  502    0  0.00000000000E+00  0.00000000000E+00  0.16183254986E+02  0.16183254986E+02  0.00000000000E+00 0.  1.
         21   -1    0    0  503  502 -0.00000000000E+00 -0.00000000000E+00 -0.23117003318E+03  0.23117003318E+03  0.00000000000E+00 0.  1.
          2    1    1    2  501    0  0.27089429092E+02  0.42449328269E+02 -0.37293449871E+02  0.62662461190E+02  0.00000000000E+00 0.  1.
         21    1    1    2  503  501 -0.27089429092E+02 -0.42449328269E+02 -0.17769332833E+03  0.18469082698E+03  0.00000000000E+00 0.  1.
</event>
<event>
 4    1  0.2281973E+005  0.2364250E+02  0.7546771E-02  0.1484584E+00
          2   -1    0    0  503    0  0.00000000000E+00  0.00000000000E+00  0.10256319621E+03  0.10256319621E+03  0.00000000000E+00 0.  1.
         21   -1    0    0  501  502 -0.00000000000E+00 -0.00000000000E+00 -0.57290864784E+02  0.57290864784E+02  0.00000000000E+00 0. -1.
          2    1    1    2  501    0  0.11554954053E+01  0.23614247884E+02  0.98666547471E+02  0.10145962479E+03  0.00000000000E+00 0.  1.
         21    1    1    2  503  502 -0.11554954053E+01 -0.23614247884E+02 -0.53394216044E+02  0.58394436205E+02  0.00000000000E+00 0. -1.
</event>
<event>
 4    1  0.2281973E+005  0.3862198E+02  0.7546771E-02  0.1356756E+00
          2   -1    0    0  503    0  0.00000000000E+00  0.00000000000E+00  0.10622169467E+02  0.10622169467E+02  0.00000000000E+00 0. -1.
         21   -1    0    0  501  502 -0.00000000000E+00 -0.00000000000E+00 -0.24107950768E+03  0.24107950768E+03  0.00000000000E+00 0. -1.
          2    1    1    2  501    0  0.20055677970E+02  0.33006472354E+02 -0.33911060091E+02  0.51396667524E+02  0.00000000000E+00 0. -1.
         21    1    1    2  503  502 -0.20055677970E+02 -0.33006472354E+02 -0.19654627812E+03  0.20030500962E+03  0.00000000000E+00 0. -1.
</event>
<event>
 4    1  0.2281973E+005  0.3328325E+02  0.7546771E-02  0.1393051E+00
          2   -1    0    0  503    0  0.00000000000E+00  0.00000000000E+00  0.28579197136E+04  0.28579197136E+04  0.00000000000E+00 0.  1.
         21   -1    0    0  501  502 -0.00000000000E+00 -0.00000000000E+00 -0.67115535438E+00  0.67115535438E+00  0.00000000000E+00 0. -1.
          2    1    1    2  501    0  0.23862728905E+02 -0.23202256762E+02  0.23576278426E+04  0.23578627650E+04  0.00000000000E+00 0.  1.
         21    1    1    2  503  502 -0.23862728905E+02  0.23202256762E+02  0.49962071571E+03  0.50072810398E+03  0.00000000000E+00 0. -1.
</event>
<event>
 4    1  0.2281973E+005  0.3102567E+02  0.7546771E-02  0.1410888E+00
          2   -1    0    0  502    0  0.00000000000E+00  0.00000000000E+00  0.12321039918E+04  0.12321039918E+04  0.00000000000E+00 0. -1.
         21   -1    0    0  503  502 -0.00000000000E+00 -0.00000000000E+00 -0.60677436144E+01  0.60677436144E+01  0.00000000000E+00 0. -1.
          2    1    1    2  501    0 -0.41969674625E+01 -0.30740487094E+02  0.11908756501E+04  0.11912797346E+04  0.00000000000E+00 0. -1.
         21    1    1    2  503  501  0.41969674625E+01  0.30740487094E+02  0.35160598112E+02  0.46892000835E+02  0.00000000000E+00 0. -1.
</event>
<event>
 4    1  0.2281973E+005  0.2771694E+02  0.7546771E-02  0.1440536E+00
          2   -1    0    0  502    0  0.00000000000E+00  0.00000000000E+00  0.14799775619E+04  0.14799775619E+04  0.00000000000E+00 0.  1.
         21   -1    0    0  503  502 -0.00000000000E+00 -0.00000000000E+00 -0.22905565744E+01  0.22905565744E+01  0.00000000000E+00 0. -1.
          2    1    1    2  501    0  0.13528921960E+02  0.24190840659E+02  0.13906126861E+04  0.13908888781E+04  0.00000000000E+00 0.  1.
         21    1    1    2  503  501 -0.13528921960E+02 -0.24190840659E+02  0.87074319200E+02  0.91379240341E+02  0.00000000000E+00 0. -1.
</event>
<event>
 4    1  0.2281973E+005  0.2330159E+02  0.7546771E-02  0.1488745E+00
          2   -1    0    0  503    0  0.00000000000E+00  0.00000000000E+00  0.73446719330E+03  0.73446719330E+03  0.00000000000E+00 0.  1.
         21   -1    0    0  501  502 -0.00000000000E+00 -0.00000000000E+00 -0.90509096668E+00  0.90509096668E+00  0.00000000000E+00 0. -1.
          2    1    1    2  501    0 -0.21128305740E+02  0.98264334580E+01  0.20939703992E+03  0.21068954513E+03  0.00000000000E+00 0.  1.
         21    1    1    2  503  502  0.21128305740E+02 -0.98264334580E+01  0.52416506241E+03  0.52468273913E+03  0.00000000000E+00 0. -1.
</event>
<event>
 4    1  0.2281973E+005  0.6415378E+02  0.7546771E-02  0.1246337E+00
          2   -1    0    0  503    0  0.00000000000E+00  0.00000000000E+00  0.18779461419E+03  0.18779461419E+03  0.00000000000E+00 0. -1.
         21   -1    0    0  501  502 -0.00000000000E+00 -0.00000000000E+00 -0.22079017450E+02  0.22079017450E+02  0.00000000000E+00 0.  1.
          2    1    1    2  501    0  0.63621901677E+02 -0.82438495013E+01  0.91874555143E+02  0.11205642021E+03  0.00000000000E+00 0. -1.
         21    1    1    2  503  502 -0.63621901677E+02  0.82438495013E+01  0.73841041595E+02  0.97817211427E+02  0.00000000000E+00 0.  1.
</event>
<event>
 4    1  0.2281973E+005  0.2075990E+02  0.7546771E-02  0.1522721E+00
          2   -1    0    0  503    0  0.00000000000E+00  0.00000000000E+00  0.70268793435E+03  0.70268793435E+03  0.00000000000E+00 0.  1.
         21   -1    0    0  501  502 -0.00000000000E+00 -0.00000000000E+00 -0.11535987996E+01  0.11535987996E+01  0.00000000000E+00 0. -1.
          2    1    1    2  501    0 -0.17901223935E+02 -0.10512840540E+02  0.59160563136E+03  0.59196975995E+03  0.00000000000E+00 0.  1.
         21    1    1    2  503  502  0.17901223935E+02  0.10512840540E+02  0.10992870419E+03  0.11187177321E+03  0.00000000000E+00 0. -1.
</event>
<event>
 4    1  0.2281973E+005  0.3370055E+02  0.7546771E-02  0.1389936E+00
          2   -1    0    0  503    0  0.00000000000E+00  0.00000000000E+00  0.20653972848E+04  0.20653972848E+04  0.00000000000E+00 0.  1.
         21   -1    0    0  501  502 -0.00000000000E+00 -0.00000000000E+00 -0.40708541232E+01  0.40708541232E+01  0.00000000000E+00 0. -1.
          2    1    1    2  501    0  0.17672013600E+02 -0.28695415979E+02  0.19929781088E+04  0.19932630205E+04  0.00000000000E+00 0.  1.
         21    1    1    2  503  502 -0.17672013600E+02  0.28695415979E+02  0.68348321939E+02  0.76205118429E+02  0.00000000000E+00 0. -1.
</event>
<event>
 4    1  0.2281973E+005  0.2204145E+02  0.7546771E-02  0.1504899E+00
          2   -1    0    0  502    0  0.00000000000E+00  0.00000000000E+00  0.60937464067E+03  0.60937464067E+03  0.00000000000E+00 0. -1.
         21   -1    0    0  503  502 -0.00000000000E+00 -0.00000000000E+00 -0.10829815405E+02  0.10829815405E+02  0.00000000000E+00 0.  1.
          2    1    1    2  501    0 -0.90154075357E+01  0.20113380043E+02  0.59774214701E+03  0.59814839291E+03  0.00000000000E+00 0. -1.
         21    1    1    2  503  501  0.90154075357E+01 -0.20113380043E+02  0.80267825264E+00  0.22056063161E+02  0.00000000000E+00 0.  1.
</event>
<event>
 4    1  0.2281973E+005  0.2769901E+02  0.7546771E-02  0.1440710E+00
          2   -1    0    0  502    0  0.00000000000E+00  0.00000000000E+00  0.61928000830E+03  0.61928000830E+03  0.00000000000E+00 0. -1.
         21   -1    0    0  503  502 -0.00000000000E+00 -0.00000000000E+00 -0.15488573653E+01  0.15488573653E+01  0.00000000000E+00 0.  1.
          2    1    1    2  501    0  0.37821193104E+01  0.27439580012E+02  0.44772553028E+03  0.44858152597E+03  0.00000000000E+00 0. -1.
         21    1    1    2  503  501 -0.37821193104E+01 -0.27439580012E+02  0.17000562065E+03  0.17224733969E+03  0.00000000000E+00 0.  1.
</event>
<event>
 4    1  0.2281973E+005  0.2323081E+02  0.7546771E-02  0.1489620E+00
          2   -1    0    0  503    0  0.00000000000E+00  0.00000000000E+00  0.12452293835E+04  0.12452293835E+04  0.00000000000E+00 0.  1.
         21   -1    0    0  501  502 -0.00000000000E+00 -0.00000000000E+00 -0.23009414742E+01  0.23009414742E+01  0.00000000000E+00 0. -1.
          2    1    1    2  501    0 -0.21688358189E+02 -0.83238096121E+01  0.11834231190E+04  0.11836511096E+04  0.00000000000E+00 0.  1.
         21    1    1    2  503  502  0.21688358189E+02  0.83238096121E+01  0.59505322993E+02  0.63879215336E+02  0.00000000000E+00 0. -1.
</event>
<event>
 4    1  0.2281973E+005  0.2101616E+02  0.7546771E-02  0.1519034E+00
          2   -1    0    0  503    0  0.00000000000E+00  0.00000000000E+00  0.37045084515E+03  0.37045084515E+03  0.00000000000E+00 0. -1.
         21   -1    0    0  501  502 -0.00000000000E+00 -0.00000000000E+00 -0.12960857762E+01  0.12960857762E+01  0.00000000000E+00 0. -1.
          2    1    1    2  501    0 -0.19477204524E+02  0.78941327095E+01  0.23718205050E+03  0.23811132671E+03  0.00000000000E+00 0. -1.
         21    1    1    2  503  502  0.19477204524E+02 -0.78941327095E+01  0.13197270887E+03  0.13363560422E+03  0.00000000000E+00 0. -1.
</event>
<event>
 4    1  0.2281973E+005  0.2107683E+02  0.7546771E-02  0.1518171E+00
          2   -1    0    0  502    0  0.00000000000E+00  0.00000000000E+00  0.16265350998E+03  0.16265350998E+03  0.00000000000E+00 0.  1.
         21   -1    0    0  503  502 -0.00000000000E+00 -0.00000000000E+00 -0.65980316703E+01  0.65980316703E+01  0.00000000000E+00 0.  1.
          2    1    1    2  501    0  0.20836103131E+02 -0.31763953726E+01  0.14281287095E+03  0.14435978938E+03  0.00000000000E+00 0.  1.
         21    1    1    2  503  501 -0.20836103131E+02  0.31763953726E+01  0.13242607357E+02  0.24891752266E+02  0.00000000000E+00 0.  1.
</event>
<event>
 4    1  0.2281973E+005  0.3033634E+02  0.7546771E-02  0.1416696E+00
          2   -1    0    0  502    0  0.00000000000E+00  0.00000000000E+00  0.42898215919E+02  0.42898215919E+02  0.00000000000E+00 0. -1.
         21   -1    0    0  503  502 -0.00000000000E+00 -0.00000000000E+00 -0.28752527447E+02  0.28752527447E+02  0.00000000000E+00 0.  1.
          2    1    1    2  501    0 -0.80483203076E+00  0.30325660228E+02  0.25123852025E+02  0.39389102090E+02  0.00000000000E+00 0. -1.
         21    1    1    2  503  501  0.80483203076E+00 -0.30325660228E+02 -0.10978163553E+02  0.32261641276E+02  0.00000000000E+00 0.  1.
</event>
<event>
 4    1  0.2281973E+005  0.2005433E+02  0.7546771E-02  0.1533207E+00
          2   -1    0    0  503    0  0.00000000000E+00  0.00000000000E+00  0.66076034851E+03  0.66076034851E+03  0.00000000000E+00 0.  1.
         21   -1    0    0  501  502 -0.00000000000E+00 -0.00000000000E+00 -0.12740015601E+02  0.12740015601E+02  0.00000000000E+00 0.  1.
          2    1    1    2  501    0 -0.10428443197E+02 -0.17129621114E+02  0.65261774965E+03  0.65292580245E+03  0.00000000000E+00 0.  1.
         21    1    1    2  503  502  0.10428443197E+02  0.17129621114E+02 -0.45974167376E+01  0.20574561664E+02  0.00000000000E+00 0.  1.
</event>
<event>
 4    1  0.2281973E+005  0.2203609E+02  0.7546771E-02  0.1504970E+00
          2   -1    0    0  502    0  0.00000000000E+00  0.00000000000E+00  0.32470473297E+02  0.32470473297E+02  0.00000000000E+00 0. -1.
         21   -1    0    0  503  502 -0.00000000000E+00 -0.00000000000E+00 -0.15937634452E+02  0.15937634452E+02  0.00000000000E+00 0. -1.
          2    1    1    2  501    0 -0.19716310251E+02  0.98415642586E+01  0.14277013996E+02  0.26256854450E+02  0.00000000000E+00 0. -1.
         21    1    1    2  503  501  0.19716310251E+02 -0.98415642586E+01  0.22558248502E+01  0.22151253299E+02  0.00000000000E+00 0. -1.
</event>
<event>
 4    1  0.2281973E+005  0.2381021E+02  0.7546771E-02  0.1482567E+00
          2   -1    0    0  502    0  0.00000000000E+00  0.00000000000E+00  0.41487661981E+03  0.41487661981E+03  0.00000000000E+00 0.  1.
         21   -1    0    0  503  502 -0.00000000000E+00 -0.00000000000E+00 -0.11282906563E+02  0.11282906563E+02  0.00000000000E+00 0. -1.
          2    1    1    2  501    0 -0.18368879737E+02  0.15149598688E+02  0.40155708249E+03  0.40226237281E+03  0.00000000000E+00 0.  1.
         21    1    1    2  503  501  0.18368879737E+02 -0.15149598688E+02  0.20366307514E+01  0.23897153555E+02  0.00000000000E+00 0. -1.
</event>
<event>
 4    1  0.2281973E+005  0.2280766E+02  0.7546771E-02  0.1494928E+00
          2   -1    0    0  502    0  0.00000000000E+00  0.00000000000E+00  0.27189485071E+03  0.27189485071E+03  0.00000000000E+00 0. -1.
         21   -1    0    0  503  502 -0.00000000000E+00 -0.00000000000E+00 -0.73005798901E+01  0.73005798901E+01  0.00000000000E+00 0. -1.
          2    1    1    2  501    0  0.20126126200E+01  0.22718691522E+02  0.25221624186E+03  0.25324537944E+03  0.00000000000E+00 0. -1.
         21    1    1    2  503  501 -0.20126126200E+01 -0.22718691522E+02  0.12378028967E+02  0.25950051159E+02  0.00000000000E+00 0. -1.
</event>
<event>
 4    1  0.2281973E+005  0.2329521E+02  0.7546771E-02  0.1488824E+00
          2   -1    0    0  502    0  0.00000000000E+00  0.00000000000E+00  0.13218894772E+03  0.13218894772E+03  0.00000000000E+00 0.  1.
         21   -1    0    0  503  502 -0.00000000000E+00 -0.00000000000E+00 -0.87408465703E+01  0.87408465703E+01  0.00000000000E+00 0.  1.
          2    1    1    2  501    0  0.80976683158E+01  0.21842490869E+02  0.11303967437E+03  0.11541505370E+03  0.00000000000E+00 0.  1.
         21    1    1    2  503  501 -0.80976683158E+01 -0.21842490869E+02  0.10408426789E+02  0.25514740597E+02  0.00000000000E+00 0.  1.
</event>
<event>
 4    1  0.2281973E+005  0.2083383E+02  0.7546771E-02  0.1521651E+00
          2   -1    0    0  502    0  0.00000000000E+00  0.00000000000E+00  0.11088424785E+02  0.11088424785E+02  0.00000000000E+00 0.  1.
         21   -1    0    0  503  502 -0.00000000000E+00 -0.00000000000E+00 -0.56561964837E+02  0.56561964837E+02  0.00000000000E+00 0.  1.
          2    1    1    2  501    0  0.10655584888E+02  0.17902712183E+02 -0.39663900169E+01  0.21208037217E+02  0.00000000000E+00 0.  1.
         21    1    1    2  503  501 -0.10655584888E+02 -0.17902712183E+02 -0.41507150035E+02  0.46442352405E+02  0.00000000000E+00 0.  1.
</event>
<event>
 4    1  0.2281973E+005  0.2073220E+02  0.7546771E-02  0.1523123E+00
          2   -1    0    0  503    0  0.00000000000E+00  0.00000000000E+00  0.26901154510E+03  0.26901154510E+03  0.00000000000E+00 0. -1.
         21   -1    0    0  501  502 -0.00000000000E+00 -0.00000000000E+00 -0.90965773058E+01  0.90965773058E+01  0.00000000000E+00 0.  1.
          2    1    1    2  501    0 -0.20329193162E+02 -0.40679459937E+01  0.25621003229E+03  0.25704747601E+03  0.00000000000E+00 0. -1.
         21    1    1    2  503  502  0.20329193162E+02  0.40679459937E+01  0.37049355013E+01  0.21060646389E+02  0.00000000000E+00 0.  1.
</event>
<event>
 4    1  0.2281973E+005  0.2643406E+02  0.7546771E-02  0.1453377E+00
          2   -1    0    0  503    0  0.00000000000E+00  0.00000000000E+00  0.90758826722E+03  0.90758826722E+03  0.00000000000E+00 0. -1.
         21   -1    0    0  501  502 -0.00000000000E+00 -0.00000000000E+00 -0.99124869844E+01  0.99124869844E+01  0.00000000000E+00 0.  1.
          2    1    1    2  501    0 -0.23670256178E+02  0.11767685387E+02  0.88941251513E+03  0.88980524921E+03  0.00000000000E+00 0. -1.
         21    1    1    2  503  502  0.23670256178E+02 -0.11767685387E+02  0.82632651072E+01  0.27695504999E+02  0.00000000000E+00 0.  1.
</event>
<event>
 4    1  0.2281973E+005  0.2680552E+02  0.7546771E-02  0.1449572E+00
          2   -1    0    0  503    0  0.00000000000E+00  0.00000000000E+00  0.21024441064E+03  0.21024441064E+03  0.00000000000E+00 0. -1.
         21   -1    0    0  501  502 -0.00000000000E+00 -0.00000000000E+00 -0.54170060955E+01  0.54170060955E+01  0.00000000000E+00 0. -1.
          2    1    1    2  501    0  0.26433068664E+02 -0.44529272188E+01  0.16792422100E+03  0.17005022693E+03  0.00000000000E+00 0. -1.
         21    1    1    2  503  502 -0.26433068664E+02  0.44529272188E+01  0.36903183539E+02  0.45611189802E+02  0.00000000000E+00 0. -1.
</event>
<event>
 4    1  0.2281973E+005  0.2436345E+02  0.7546771E-02  0.1476052E+00
          2   -1    0    0  503    0  0.00000000000E+00  0.00000000000E+00  0.97285283410E+03  0.97285283410E+03  0.00000000000E+00 0.  1.
         21   -1    0    0  501  502 -0.00000000000E+00 -0.00000000000E+00 -0.13038887657E+01  0.13038887657E+01  0.00000000000E+00 0.  1.
          2    1    1    2  501    0 -0.15543825586E+02  0.18760789741E+02  0.84106142001E+03  0.84141422022E+03  0.00000000000E+00 0.  1.
         21    1    1    2  503  502  0.15543825586E+02 -0.18760789741E+02  0.13048752532E+03  0.13274250265E+03  0.00000000000E+00 0.  1.
</event>
<event>
 4    1  0.2281973E+005  0.2499863E+02  0.7546771E-02  0.1468819E+00
          2   -1    0    0  503    0  0.00000000000E+00  0.00000000000E+00  0.44837599219E+03  0.44837599219E+03  0.00000000000E+00 0. -1.
         21   -1    0    0  501  502 -0.00000000000E+00 -0.00000000000E+00 -0.27529329403E+01  0.27529329403E+01  0.00000000000E+00 0. -1.
          2    1    1    2  501    0  0.61601696516E+00  0.24991039562E+02  0.38130418745E+03  0.38212277464E+03  0.00000000000E+00 0. -1.
         21    1    1    2  503  502 -0.61601696516E+00 -0.24991039562E+02  0.64318871802E+02  0.69006150488E+02  0.00000000000E+00 0. -1.
</event>
<event>
 4    1  0.2281973E+005  0.2801591E+02  0.7546771E-02  0.1437662E+00
          2   -1    0    0  502    0  0.00000000000E+00  0.00000000000E+00  0.19749703882E+03  0.19749703882E+03  0.00000000000E+00 0.  1.
         21   -1    0    0  503  502 -0.00000000000E+00 -0.00000000000E+00 -0.25538401415E+02  0.25538401415E+02  0.00000000000E+00 0.  1.
          2    1    1    2  501    0  0.26703070596E+02  0.84756828483E+01  0.18845334410E+03  0.19052441860E+03  0.00000000000E+00 0.  1.
         21    1    1    2  503  501 -0.26703070596E+02 -0.84756828483E+01 -0.16494706695E+02  0.32511021639E+02  0.00000000000E+00 0.  1.
</event>
<event>
 4    1  0.2281973E+005  0.2047695E+02  0.7546771E-02  0.1526865E+00
          2   -1    0    0  503    0  0.00000000000E+00  0.00000000000E+00  0.33645404505E+02  0.33645404505E+02  0.00000000000E+00 0. -1.
         21   -1    0    0  501  502 -0.00000000000E+00 -0.00000000000E+00 -0.12664718025E+02  0.12664718025E+02  0.00000000000E+00 0.  1.
          2    1    1    2  501    0  0.10240077626E+02 -0.17732629970E+02  0.13416341102E+02  0.24480677360E+02  0.00000000000E+00 0. -1.
         21    1    1    2  503  502 -0.10240077626E+02  0.17732629970E+02  0.75643453773E+01  0.21829445170E+02  0.00000000000E+00 0.  1.
</event>
<event>
 4    1  0.2281973E+005  0.2233454E+02  0.7546771E-02  0.1501028E+00
          2   -1    0    0  502    0  0.00000000000E+00  0.00000000000E+00  0.15633037431E+04  0.15633037431E+04  0.00000000000E+00 0.  1.
         21   -1    0    0  503  502 -0.00000000000E+00 -0.00000000000E+00 -0.65377389763E+00  0.65377389763E+00  0.00000000000E+00 0.  1.
          2    1    1    2  501    0 -0.20979210129E+02  0.76618770373E+01  0.13408246239E+04  0.13410106277E+04  0.00000000000E+00 0.  1.
         21    1    1    2  503  501  0.20979210129E+02 -0.76618770373E+01  0.22182534530E+03  0.22294688927E+03  0.00000000000E+00 0.  1.
</event>
<event>
 4    1  0.2281973E+005  0.2925834E+02  0.7546771E-02  0.1426153E+00
          2   -1    0    0  502    0  0.00000000000E+00  0.00000000000E+00  0.76318326469E+03  0.76318326469E+03  0.00000000000E+00 0. -1.
         21   -1    0    0  503  502 -0.00000000000E+00 -0.00000000000E+00 -0.48932781841E+01  0.48932781841E+01  0.00000000000E+00 0.  1.
          2    1    1    2  501    0 -0.35717964947E+01  0.29039505097E+02  0.71630575167E+03  0.71690304816E+03  0.00000000000E+00 0. -1.
         21    1    1    2  503  501  0.35717964947E+01 -0.29039505097E+02  0.41984234838E+02  0.51173494715E+02  0.00000000000E+00 0.  1.
</event>
<event>
 4    1  0.2281973E+005  0.3667459E+02  0.7546771E-02  0.1369158E+00
          2   -1    0    0  502    0  0.00000000000E+00  0.00000000000E+00  0.17978101444E+03  0.17978101444E+03  0.00000000000E+00 0.  1.
         21   -1    0    0  503  502 -0.00000000000E+00 -0.00000000000E+00 -0.25942803633E+03  0.25942803633E+03  0.00000000000E+00 0.  1.
          2    1    1    2  501    0 -0.43530615370E+01 -0.36415336389E+02  0.17659133759E+03  0.18035943663E+03  0.00000000000E+00 0.  1.
         21    1    1    2  503  501  0.43530615370E+01  0.36415336389E+02 -0.25623835949E+03  0.25884961414E+03  0.00000000000E+00 0.  1.
</event>
<event>
 4    1  0.2281973E+005  0.2073980E+02  0.7546771E-02  0.1523013E+00
          2   -1    0    0  503    0  0.00000000000E+00  0.00000000000E+00  0.56225695232E+03  0.56225695232E+03  0.00000000000E+00 0. -1.
         21   -1    0    0  501  502 -0.00000000000E+00 -0.00000000000E+00 -0.14585070517E+01  0.14585070517E+01  0.00000000000E+00 0. -1.
          2    1    1    2  501    0  0.87616899540E+01  0.18798188735E+02  0.47475351604E+03  0.47520631319E+03  0.00000000000E+00 0. -1.
         21    1    1    2  503  502 -0.87616899540E+01 -0.18798188735E+02  0.86044929235E+02  0.88509146180E+02  0.00000000000E+00 0. -1.
</event>
<event>
 4    1  0.2281973E+005  0.2592180E+02  0.7546771E-02  0.1458750E+00
          2   -1    0    0  503    0  0.00000000000E+00  0.00000000000E+00  0.57282962020E+03  0.57282962020E+03  0.00000000000E+00 0. -1.
         21   -1    0    0  501  502 -0.00000000000E+00 -0.00000000000E+00 -0.11731764919E+01  0.11731764919E+01  0.00000000000E+00 0. -1.
          2    1    1    2  501    0  0.25892053547E+02 -0.12415703464E+01  0.28915526628E+03  0.29031484280E+03  0.00000000000E+00 0. -1.
         21    1    1    2  503  502 -0.25892053547E+02  0.12415703464E+01  0.28250117743E+03  0.28368795389E+03  0.00000000000E+00 0. -1.
</event>
<event>
 4    1  0.2281973E+005  0.2846824E+02  0.7546771E-02  0.1433392E+00
          2   -1    0    0  502    0  0.00000000000E+00  0.00000000000E+00  0.73362530396E+02  0.73362530396E+02  0.00000000000E+00 0.  1.
         21   -1    0    0  503  502 -0.00000000000E+00 -0.00000000000E+00 -0.10662789832E+03  0.10662789832E+03  0.00000000000E+00 0. -1.
          2    1    1    2  501    0 -0.22510369041E+02 -0.17427675146E+02  0.68573163340E+02  0.74247688892E+02  0.00000000000E+00 0.  1.
         21    1    1    2  503  501  0.22510369041E+02  0.17427675146E+02 -0.10183853126E+03  0.10574273982E+03  0.00000000000E+00 0. -1.
</event>
<event>
 4    1  0.2281973E+005  0.2328639E+02  0.7546771E-02  0.1488933E+00
          2   -1    0    0  503    0  0.00000000000E+00  0.00000000000E+00  0.24714795219E+03  0.24714795219E+03  0.00000000000E+00 0. -1.
         21   -1    0    0  501  502 -0.00000000000E+00 -0.00000000000E+00 -0.31146859958E+02  0.31146859958E+02  0.00000000000E+00 0. -1.
          2    1    1    2  501    0  0.18935551463E+01  0.23209272296E+02  0.24215753808E+03  0.24327459612E+03  0.00000000000E+00 0. -1.
         21    1    1    2  503  502 -0.18935551463E+01 -0.23209272296E+02 -0.26156445841E+02  0.35020216028E+02  0.00000000000E+00 0. -1.
</event>
<event>
 4    1  0.2281973E+005  0.2150196E+02  0.7546771E-02  0.1512217E+00
          2   -1    0    0  503    0  0.00000000000E+00  0.00000000000E+00  0.14042259397E+01  0.14042259397E+01  0.00000000000E+00 0. -1.
         21   -1    0    0  501  502 -0.00000000000E+00 -0.00000000000E+00 -0.10260618049E+04  0.10260618049E+04  0.00000000000E+00 0. -1.
          2    1    1    2  501    0 -0.21124925873E+02  0.40089612078E+01 -0.88968569903E+02  0.91529998873E+02  0.00000000000E+00 0. -1.
         21    1    1    2  503  502  0.21124925873E+02 -0.40089612078E+01 -0.93568900907E+03  0.93593603198E+03  0.00000000000E+00 0. -1.
</event>
<event>
 4    1  0.2281973E+005  0.3582445E+02  0.7546771E-02  0.1374858E+00
          2   -1    0    0  502    0  0.00000000000E+00  0.00000000000E+00  0.18350524366E+04  0.18350524366E+04  0.00000000000E+00 0. -1.
         21   -1    0    0  503  502 -0.00000000000E+00 -0.00000000000E+00 -0.15038248767E+01  0.15038248767E+01  0.00000000000E+00 0.  1.
          2    1    1    2  501    0 -0.11371908242E+02  0.33971624200E+02  0.15883962018E+04  0.15888001402E+04  0.00000000000E+00 0. -1.
         21    1    1    2  503  501  0.11371908242E+02 -0.33971624200E+02  0.24515240988E+03  0.24775612125E+03  0.00000000000E+00 0.  1.
</event>
<event>
 4    1  0.2281973E+005  0.2029725E+02  0.7546771E-02  0.1529539E+00
          2   -1    0    0  502    0  0.00000000000E+00  0.00000000000E+00  0.27454252760E+03  0.27454252760E+03  0.00000000000E+00 0. -1.
         21   -1    0    0  503  502 -0.00000000000E+00 -0.00000000000E+00 -0.71866594780E+01  0.71866594780E+01  0.00000000000E+00 0.  1.
          2    1    1    2  501    0 -0.47990353409E+01 -0.19721753731E+02  0.25897590571E+03  0.25977008690E+03  0.00000000000E+00 0. -1.
         21    1    1    2  503  501  0.47990353409E+01  0.19721753731E+02  0.83799624084E+01  0.21959100173E+02  0.00000000000E+00 0.  1.
</event>
<event>
 4    1  0.2281973E+005  0.2457087E+02  0.7546771E-02  0.1473662E+00
          2   -1    0    0  502    0  0.00000000000E+00  0.00000000000E+00  0.14532276594E+04  0.14532276594E+04  0.00000000000E+00 0. -1.
         21   -1    0    0  503  502 -0.00000000000E+00 -0.00000000000E+00 -0.38317404709E+02  0.38317404709E+02  0.00000000000E+00 0. -1.
          2    1    1    2  501    0 -0.13960891656E+02 -0.20219331281E+02  0.14491737893E+04  0.14493820750E+04  0.00000000000E+00 0. -1.
         21    1    1    2  503  501  0.13960891656E+02  0.20219331281E+02 -0.34263534543E+02  0.42162989134E+02  0.00000000000E+00 0. -1.
</event>
<event>
 4    1  0.2281973E+005  0.2542470E+02  0.7546771E-02  0.1464108E+00
          2   -1    0    0  503    0  0.00000000000E+00  0.00000000000E+00  0.10668627670E+04  0.10668627670E+04  0.00000000000E+00 0.  1.
         21   -1    0    0  501  502 -0.00000000000E+00 -0.00000000000E+00 -0.33176891422E+02  0.33176891422E+02  0.00000000000E+00 0.  1.
          2    1    1    2  501    0  0.21877319359E+02 -0.12953700676E+02  0.10618171717E+04  0.10621215192E+04  0.00000000000E+00 0.  1.
         21    1    1    2  503  502 -0.21877319359E+02  0.12953700676E+02 -0.28131296091E+02  0.37918139238E+02  0.00000000000E+00 0.  1.
</event>
<event>
 4    1  0.2281973E+005  0.2538000E+02  0.7546771E-02  0.1464597E+00
          2   -1    0    0  503    0  0.00000000000E+00  0.00000000000E+00  0.60949639829E+03  0.60949639829E+03  0.00000000000E+00 0.  1.
         21   -1    0    0  501  502 -0.00000000000E+00 -0.00000000000E+00 -0.42884842483E+02  0.42884842483E+02  0.00000000000E+00 0.  1.
          2    1    1    2  501    0 -0.17155210399E+02  0.18704089681E+02  0.60545203312E+03  0.60598375277E+03  0.00000000000E+00 0.  1.
         21    1    1    2  503  502  0.17155210399E+02 -0.18704089681E+02 -0.38840477315E+02  0.46397488000E+02  0.00000000000E+00 0.  1.
</event>
<event>
 4    1  0.2281973E+005  0.2093343E+02  0.7546771E-02  0.1520217E+00
          2   -1    0    0  502    0  0.00000000000E+00  0.00000000000E+00  0.19860176520E+03  0.19860176520E+03  0.00000000000E+00 0. -1.
         21   -1    0    0  503  502 -0.00000000000E+00 -0.00000000000E+00 -0.85468638307E+01  0.85468638307E+01  0.00000000000E+00 0.  1.
          2    1    1    2  501    0  0.12836262590E+02  0.16535981539E+02  0.18423608304E+03  0.18542152684E+03  0.00000000000E+00 0. -1.
         21    1    1    2  503  501 -0.12836262590E+02 -0.16535981539E+02  0.58188183292E+01  0.21727102188E+02  0.00000000000E+00 0.  1.
</event>
<event>
 4    1  0.2281973E+005  0.2023066E+02  0.7546771E-02  0.1530538E+00
          2   -1    0    0  503    0  0.00000000000E+00  0.00000000000E+00  0.33336371123E+03  0.33336371123E+03  0.00000000000E+00 0. -1.
         21   -1    0    0  501  502 -0.00000000000E+00 -0.00000000000E+00 -0.21338046765E+01  0.21338046765E+01  0.00000000000E+00 0.  1.
          2    1    1    2  501    0  0.17825115923E+01 -0.20151982083E+02  0.27492614401E+03  0.27566948396E+03  0.00000000000E+00 0. -1.
         21    1    1    2  503  502 -0.17825115923E+01  0.20151982083E+02  0.56303762546E+02  0.59828031944E+02  0.00000000000E+00 0.  1.
</event>
<event>
 4    1  0.2281973E+005  0.2988532E+02  0.7546771E-02  0.1420596E+00
          2   -1    0    0  502    0  0.00000000000E+00  0.00000000000E+00  0.25001048273E+02  0.25001048273E+02  0.00000000000E+00 0. -1.
         21   -1    0    0  503  502 -0.00000000000E+00 -0.00000000000E+00 -0.66794936002E+02  0.66794936002E+02  0.00000000000E+00 0.  1.
          2    1    1    2  501    0 -0.18083711488E+02 -0.23793096879E+02  0.10407110349E+02  0.31645537222E+02  0.00000000000E+00 0. -1.
         21    1    1    2  503  501  0.18083711488E+02  0.23793096879E+02 -0.52200998078E+02  0.60150447053E+02  0.00000000000E+00 0.  1.
</event>
<event>
 4    1  0.2281973E+005  0.2004501E+02  0.7546771E-02  0.1533349E+00
          2   -1    0    0  502    0  0.00000000000E+00  0.00000000000E+00  0.12442317748E+03  0.12442317748E+03  0.00000000000E+00 0. -1.
         21   -1    0    0  503  502 -0.00000000000E+00 -0.00000000000E+00 -0.10697746851E+03  0.10697746851E+03  0.00000000000E+00 0.  1.
          2    1    1    2  501    0  0.19967408940E+02 -0.17620785760E+01  0.12266347732E+03  0.12429051053E+03  0.00000000000E+00 0. -1.
         21    1    1    2  503  501 -0.19967408940E+02  0.17620785760E+01 -0.10521776835E+03  0.10711013545E+03  0.00000000000E+00 0.  1.
</event>
<event>
 4    1  0.2281973E+005  0.2583056E+02  0.7546771E-02  0.1459723E+00
          2   -1    0    0  503    0  0.00000000000E+00  0.00000000000E+00  0.67010512289E+03  0.67010512289E+03  0.00000000000E+00 0.  1.
         21   -1    0    0  501  502 -0.00000000000E+00 -0.00000000000E+00 -0.99709915567E+00  0.99709915567E+00  0.00000000000E+00 0.  1.
          2    1    1    2  501    0  0.25103522190E+02 -0.60853230526E+01  0.32194631154E+03  0.32298087482E+03  0.00000000000E+00 0.  1.
         21    1    1    2  503  502 -0.25103522190E+02  0.60853230526E+01  0.34716171219E+03  0.34812134723E+03  0.00000000000E+00 0.  1.
</event>
<event>
 4    1  0.2281973E+005  0.2909082E+02  0.7546771E-02  0.1427665E+00
          2   -1    0    0  503    0  0.00000000000E+00  0.00000000000E+00  0.15465571167E+04  0.15465571167E+04  0.00000000000E+00 0. -1.
         21   -1    0    0  501  502 -0.00000000000E+00 -0.00000000000E+00 -0.32290108673E+01  0.32290108673E+01  0.00000000000E+00 0.  1.
          2    1    1    2  501    0 -0.26593938341E+02  0.11791443436E+02  0.14778533190E+04  0.14781396105E+04  0.00000000000E+00 0. -1.
         21    1    1    2  503  502  0.26593938341E+02 -0.11791443436E+02  0.65474786827E+02  0.71646517046E+02  0.00000000000E+00 0.  1.
</event>
<event>
 4    1  0.2281973E+005  0.3453188E+02  0.7546771E-02  0.1383884E+00
          2   -1    0    0  503    0  0.00000000000E+00  0.00000000000E+00  0.21929878293E+03  0.21929878293E+03  0.00000000000E+00 0.  1.
         21   -1    0    0  501  502 -0.00000000000E+00 -0.00000000000E+00 -0.50950456644E+02  0.50950456644E+02  0.00000000000E+00 0. -1.
          2    1    1    2  501    0 -0.35299052959E+01 -0.34350990467E+02  0.21188497697E+03  0.21468044681E+03  0.00000000000E+00 0.  1.
         21    1    1    2  503  502  0.35299052959E+01  0.34350990467E+02 -0.43536650678E+02  0.55568792768E+02  0.00000000000E+00 0. -1.
</event>
<event>
 4    1  0.2281973E+005  0.6640143E+02  0.7546771E-02  0.1239508E+00
          2   -1    0    0  503    0  0.00000000000E+00  0.00000000000E+00  0.69218728045E+03  0.69218728045E+03  0.00000000000E+00 0. -1.
         21   -1    0    0  501  502 -0.00000000000E+00 -0.00000000000E+00 -0.18013944627E+02  0.18013944627E+02  0.00000000000E+00 0. -1.
          2    1    1    2  501    0 -0.35755995857E+02 -0.55952291060E+02  0.62258219465E+03  0.62611319999E+03  0.00000000000E+00 0. -1.
         21    1    1    2  503  502  0.35755995857E+02  0.55952291060E+02  0.51591141175E+02  0.84088025083E+02  0.00000000000E+00 0. -1.
</event>
<event>
 4    1  0.2281973E+005  0.2091791E+02  0.7546771E-02  0.1520440E+00
          2   -1    0    0  503    0  0.00000000000E+00  0.00000000000E+00  0.30723551341E+02  0.30723551341E+02  0.00000000000E+00 0. -1.
         21   -1    0    0  501  502 -0.00000000000E+00 -0.00000000000E+00 -0.23821358906E+02  0.23821358906E+02  0.00000000000E+00 0. -1.
          2    1    1    2  501    0 -0.20491140904E+02 -0.42038359844E+01  0.20745811491E+02  0.29460953599E+02  0.00000000000E+00 0. -1.
         21    1    1    2  503  502  0.20491140904E+02  0.42038359844E+01 -0.13843619056E+02  0.25083956648E+02  0.00000000000E+00 0. -1.
</event>
<event>
 4    1  0.2281973E+005  0.5197089E+02  0.7546771E-02  0.1289846E+00
          2   -1    0    0  503    0  0.00000000000E+00  0.00000000000E+00  0.41511745815E+03  0.41511745815E+03  0.00000000000E+00 0. -1.
         21   -1    0    0  501  502 -0.00000000000E+00 -0.00000000000E+00 -0.66360555383E+01  0.66360555383E+01  0.00000000000E+00 0. -1.
          2    1    1    2  501    0  0.50057787873E+02 -0.13971102353E+02  0.17477933432E+03  0.18234250611E+03  0.00000000000E+00 0. -1.
         21    1    1    2  503  502 -0.50057787873E+02  0.13971102353E+02  0.23370206828E+03  0.23941100758E+03  0.00000000000E+00 0. -1.
</event>
<event>
 4    1  0.2281973E+005  0.2481685E+02  0.7546771E-02  0.1470863E+00
          2   -1    0    0  502    0  0.00000000000E+00  0.00000000000E+00  0.18104414267E+04  0.18104414267E+04  0.00000000000E+00 0. -1.
         21   -1    0    0  503  502 -0.00000000000E+00 -0.00000000000E+00 -0.17884324489E+03  0.17884324489E+03  0.00000000000E+00 0.  1.
          2    1    1    2  501    0  0.10832203505E+02  0.22327992974E+02  0.18094950156E+04  0.18096651866E+04  0.00000000000E+00 0. -1.
         21    1    1    2  503  501 -0.10832203505E+02 -0.22327992974E+02 -0.17789683383E+03  0.17961948500E+03  0.00000000000E+00 0.  1.
</event>
<event>
 4    1  0.2281973E+005  0.2032762E+02  0.7546771E-02  0.1529085E+00
          2   -1    0    0  503    0  0.00000000000E+00  0.00000000000E+00  0.79225348427E+03  0.79225348427E+03  0.00000000000E+00 0.  1.
         21   -1    0    0  501  502 -0.00000000000E+00 -0.00000000000E+00 -0.12987187328E+02  0.12987187328E+02  0.00000000000E+00 0.  1.
          2    1    1    2  501    0 -0.18843848510E+02  0.76237571701E+01  0.78408602120E+03  0.78434947628E+03  0.00000000000E+00 0.  1.
         21    1    1    2  503  502  0.18843848510E+02 -0.76237571701E+01 -0.48197242548E+01  0.20891195321E+02  0.00000000000E+00 0.  1.
</event>
<event>
 4    1  0.2281973E+005  0.2352000E+02  0.7546771E-02  0.1486070E+00
          2   -1    0    0  503    0  0.00000000000E+00  0.00000000000E+00  0.14384936602E+03  0.14384936602E+03  0.00000000000E+00 0.  1.
         21   -1    0    0  501  502 -0.00000000000E+00 -0.00000000000E+00 -0.57768370294E+02  0.57768370294E+02  0.00000000000E+00 0. -1.
          2    1    1    2  501    0 -0.19743569407E+02  0.12782084603E+02  0.14043617741E+03  0.14239210001E+03  0.00000000000E+00 0.  1.
         21    1    1    2  503  502  0.19743569407E+02 -0.12782084603E+02 -0.54355181684E+02  0.59225636304E+02  0.00000000000E+00 0. -1.
</event>
<event>
 4    1  0.2281973E+005  0.4274747E+02  0.7546771E-02  0.1333097E+00
          2   -1    0    0  503    0  0.00000000000E+00  0.00000000000E+00  0.63815091578E+01  0.63815091578E+01  0.00000000000E+00 0. -1.
         21   -1    0    0  501  502 -0.00000000000E+00 -0.00000000000E+00 -0.34745287662E+03  0.34745287662E+03  0.00000000000E+00 0.  1.
          2    1    1    2  501    0 -0.41230086849E+02 -0.11288326887E+02 -0.24472685422E+03  0.24843224340E+03  0.00000000000E+00 0. -1.
         21    1    1    2  503  502  0.41230086849E+02  0.11288326887E+02 -0.96344513242E+02  0.10540214238E+03  0.00000000000E+00 0.  1.
</event>
<event>
 4    1  0.2281973E+005  0.2181064E+02  0.7546771E-02  0.1507999E+00
          2   -1    0    0  503    0  0.00000000000E+00  0.00000000000E+00  0.14597175669E+02  0.14597175669E+02  0.00000000000E+00 0.  1.
         21   -1    0    0  501  502 -0.00000000000E+00 -0.00000000000E+00 -0.78707066968E+02  0.78707066968E+02  0.00000000000E+00 0.  1.
          2    1    1    2  501    0 -0.21154089040E+02 -0.53111602192E+01  0.36559870508E+01  0.22114930416E+02  0.00000000000E+00 0.  1.
         21    1    1    2  503  502  0.21154089040E+02  0.53111602192E+01 -0.67765878350E+02  0.71189312221E+02  0.00000000000E+00 0.  1.
</event>
<event>
 4    1  0.2281973E+005  0.2138230E+02  0.7546771E-02  0.1513876E+00
          2   -1    0    0  503    0  0.00000000000E+00  0.00000000000E+00  0.79948739126E+03  0.79948739126E+03  0.00000000000E+00 0. -1.
         21   -1    0    0  501  502 -0.00000000000E+00 -0.00000000000E+00 -0.17259372705E+01  0.17259372705E+01  0.00000000000E+00 0. -1.
          2    1    1    2  501    0 -0.87766883623E+00  0.21364277809E+02  0.72646366380E+03  0.72677827257E+03  0.00000000000E+00 0. -1.
         21    1    1    2  503  502  0.87766883623E+00 -0.21364277809E+02  0.71297790197E+02  0.74435055961E+02  0.00000000000E+00 0. -1.
</event>
<event>
 4    1  0.2281973E+005  0.3334571E+02  0.7546771E-02  0.1392582E+00
          2   -1    0    0  503    0  0.00000000000E+00  0.00000000000E+00  0.51554579636E+03  0.51554579636E+03  0.00000000000E+00 0. -1.
         21   -1    0    0  501  502 -0.00000000000E+00 -0.00000000000E+00 -0.30368641881E+01  0.30368641881E+01  0.00000000000E+00 0.  1.
          2    1    1    2  501    0 -0.14864372303E+02  0.29849398530E+02  0.39583637811E+03  0.39723843519E+03  0.00000000000E+00 0. -1.
         21    1    1    2  503  502  0.14864372303E+02 -0.29849398530E+02  0.11667255406E+03  0.12134422536E+03  0.00000000000E+00 0.  1.
</event>
<event>
 4    1  0.2281973E+005  0.2119596E+02  0.7546771E-02  0.1516485E+00
          2   -1    0    0  502    0  0.00000000000E+00  0.00000000000E+00  0.59140155764E+02  0.59140155764E+02  0.00000000000E+00 0.  1.
         21   -1    0    0  503  502 -0.00000000000E+00 -0.00000000000E+00 -0.85710817783E+03  0.85710817783E+03  0.00000000000E+00 0. -1.
          2    1    1    2  501    0 -0.91046406178E+01 -0.19140908450E+02  0.57105425067E+02  0.60912219046E+02  0.00000000000E+00 0.  1.
         21    1    1    2  503  501  0.91046406178E+01  0.19140908450E+02 -0.85507344714E+03  0.85533611455E+03  0.00000000000E+00 0. -1.
</event>
<event>
 4    1  0.2281973E+005  0.2252986E+02  0.7546771E-02  0.1498488E+00
          2   -1    0    0  503    0  0.00000000000E+00  0.00000000000E+00  0.24145754518E+02  0.24145754518E+02  0.00000000000E+00 0. -1.
         21   -1    0    0  501  502 -0.00000000000E+00 -0.00000000000E+00 -0.25336356029E+02  0.25336356029E+02  0.00000000000E+00 0. -1.
          2    1    1    2  501    0 -0.22528702095E+02  0.22818606371E+00  0.96140719059E+01  0.24495404989E+02  0.00000000000E+00 0. -1.
         21    1    1    2  503  502  0.22528702095E+02 -0.22818606371E+00 -0.10804673417E+02  0.24986705558E+02  0.00000000000E+00 0. -1.
</event>
<event>
 4    1  0.2281973E+005  0.2145162E+02  0.7546771E-02  0.1512914E+00
          2   -1    0    0  503    0  0.00000000000E+00  0.00000000000E+00  0.16880234408E+04  0.16880234408E+04  0.00000000000E+00 0.  1.
         21   -1    0    0  501  502 -0.00000000000E+00 -0.00000000000E+00 -0.44704020430E+00  0.44704020430E+00  0.00000000000E+00 0.  1.
          2    1    1    2  501    0  0.15507157508E+02  0.14822281065E+02  0.13711408332E+04  0.13713086292E+04  0.00000000000E+00 0.  1.
         21    1    1    2  503  502 -0.15507157508E+02 -0.14822281065E+02  0.31643556733E+03  0.31716185178E+03  0.00000000000E+00 0.  1.
</event>
<event>
 4    1  0.2281973E+005  0.2142960E+02  0.7546771E-02  0.1513219E+00
          2   -1    0    0  502    0  0.00000000000E+00  0.00000000000E+00  0.35074199301E+02  0.35074199301E+02  0.00000000000E+00 0.  1.
         21   -1    0    0  503  502 -0.00000000000E+00 -0.00000000000E+00 -0.65361370789E+02  0.65361370789E+02  0.00000000000E+00 0.  1.
          2    1    1    2  501    0 -0.12558744475E+01  0.21392764463E+02  0.29763650597E+02  0.36675638902E+02  0.00000000000E+00 0.  1.
         21    1    1    2  503  501  0.12558744475E+01 -0.21392764463E+02 -0.60050822085E+02  0.63759931188E+02  0.00000000000E+00 0.  1.
</event>
<event>
 4    1  0.2281973E+005  0.2922633E+02  0.7546771E-02  0.1426441E+00
          2   -1    0    0  502    0  0.00000000000E+00  0.00000000000E+00  0.20757881123E+03  0.20757881123E+03  0.00000000000E+00 0.  1.
         21   -1    0    0  503  502 -0.00000000000E+00 -0.00000000000E+00 -0.21637669392E+02  0.21637669392E+02  0.00000000000E+00 0.  1.
          2    1    1    2  501    0 -0.25109161141E+02  0.14956892101E+02  0.19610679511E+03  0.19827267508E+03  0.00000000000E+00 0.  1.
         21    1    1    2  503  501  0.25109161141E+02 -0.14956892101E+02 -0.10165653279E+02  0.30943805537E+02  0.00000000000E+00 0.  1.
</event>
<event>
 4    1  0.2281973E+005  0.1006662E+03  0.7546771E-02  0.1162659E+00
          2   -1    0    0  503    0  0.00000000000E+00  0.00000000000E+00  0.26900245665E+03  0.26900245665E+03  0.00000000000E+00 0.  1.
         21   -1    0    0  501  502 -0.00000000000E+00 -0.00000000000E+00 -0.38064106747E+02  0.38064106747E+02  0.00000000000E+00 0.  1.
          2    1    1    2  501    0  0.98749774760E+01 -0.10018065947E+03  0.99872973537E+02  0.14180370431E+03  0.00000000000E+00 0.  1.
         21    1    1    2  503  502 -0.98749774760E+01  0.10018065947E+03  0.13106537636E+03  0.16526285909E+03  0.00000000000E+00 0.  1.
</event>
<event>
 4    1  0.2281973E+005  0.2087157E+02  0.7546771E-02  0.1521106E+00
          2   -1    0    0  502    0  0.00000000000E+00  0.00000000000E+00  0.85569329350E+02  0.85569329350E+02  0.00000000000E+00 0.  1.
         21   -1    0    0  503  502 -0.00000000000E+00 -0.00000000000E+00 -0.73976240916E+01  0.73976240916E+01  0.00000000000E+00 0.  1.
          2    1    1    2  501    0 -0.14707682627E+02  0.14809004167E+02  0.65042757339E+02  0.68309463583E+02  0.00000000000E+00 0.  1.
         21    1    1    2  503  501  0.14707682627E+02 -0.14809004167E+02  0.13128947919E+02  0.24657489859E+02  0.00000000000E+00 0.  1.
</event>
<event>
 4    1  0.2281973E+005  0.2255616E+02  0.7546771E-02  0.1498148E+00
          2   -1    0    0  503    0  0.00000000000E+00  0.00000000000E+00  0.14133176026E+04  0.14133176026E+04  0.00000000000E+00 0. -1.
         21   -1    0    0  501  502 -0.00000000000E+00 -0.00000000000E+00 -0.21259692616E+01  0.21259692616E+01  0.00000000000E+00 0. -1.
          2    1    1    2  501    0 -0.12201036698E+02 -0.18971431880E+02  0.13506212602E+04  0.13508095976E+04  0.00000000000E+00 0. -1.
         21    1    1    2  503  502  0.12201036698E+02  0.18971431880E+02  0.60570373170E+02  0.64633974270E+02  0.00000000000E+00 0. -1.
</event>
<event>
 4    1  0.2281973E+005  0.3713651E+02  0.7546771E-02  0.1366135E+00
          2   -1    0    0  503    0  0.00000000000E+00  0.00000000000E+00  0.13753022858E+04  0.13753022858E+04  0.00000000000E+00 0. -1.
         21   -1    0    0  501  502 -0.00000000000E+00 -0.00000000000E+00 -0.13981674649E+01  0.13981674649E+01  0.00000000000E+00 0. -1.
          2    1    1    2  501    0  0.36949726746E+02  0.37199159238E+01  0.10530046849E+04  0.10536593313E+04  0.00000000000E+00 0. -1.
         21    1    1    2  503  502 -0.36949726746E+02 -0.37199159238E+01  0.32089943348E+03  0.32304112198E+03  0.00000000000E+00 0. -1.
</event>
<event>
 4    1  0.2281973E+005  0.2792127E+02  0.7546771E-02  0.1438567E+00
          2   -1    0    0  503    0  0.00000000000E+00  0.00000000000E+00  0.12011829710E+04  0.12011829710E+04  0.00000000000E+00 0.  1.
         21   -1    0    0  501  502 -0.00000000000E+00 -0.00000000000E+00 -0.12442434632E+01  0.12442434632E+01  0.00000000000E+00 0.  1.
          2    1    1    2  501    0 -0.11115881872E+02  0.25613174002E+02  0.10157980013E+04  0.10161816653E+04  0.00000000000E+00 0.  1.
         21    1    1    2  503  502  0.11115881872E+02 -0.25613174002E+02  0.18414072628E+03  0.18624554917E+03  0.00000000000E+00 0.  1.
</event>
<event>
 4    1  0.2281973E+005  0.3766811E+02  0.7546771E-02  0.1362720E+00
          2   -1    0    0  502    0  0.00000000000E+00  0.00000000000E+00  0.46288174700E+01  0.46288174700E+01  0.00000000000E+00 0.  1.
         21   -1    0    0  503  502 -0.00000000000E+00 -0.00000000000E+00 -0.30794887724E+03  0.30794887724E+03  0.00000000000E+00 0.  1.
          2    1    1    2  501    0  0.26026037882E+02  0.27231080187E+02 -0.16225661683E+03  0.16657159446E+03  0.00000000000E+00 0.  1.
         21    1    1    2  503  501 -0.26026037882E+02 -0.27231080187E+02 -0.14106344293E+03  0.14600610024E+03  0.00000000000E+00 0.  1.
</event>
<event>
 4    1  0.2281973E+005  0.2005586E+02  0.7546771E-02  0.1533184E+00
          2   -1    0    0  503    0  0.00000000000E+00  0.00000000000E+00  0.69272321283E+02  0.69272321283E+02  0.00000000000E+00 0.  1.
         21   -1    0    0  501  502 -0.00000000000E+00 -0.00000000000E+00 -0.62843668620E+01  0.62843668620E+01  0.00000000000E+00 0.  1.
          2    1    1    2  501    0 -0.15712646436E+02  0.12463951377E+02  0.41910330355E+02  0.46461953600E+02  0.00000000000E+00 0.  1.
         21    1    1    2  503  502  0.15712646436E+02 -0.12463951377E+02  0.21077624067E+02  0.29094734545E+02  0.00000000000E+00 0.  1.
</event>
<event>
 4    1  0.2281973E+005  0.2075161E+02  0.7546771E-02  0.1522841E+00
          2   -1    0    0  503    0  0.00000000000E+00  0.00000000000E+00  0.16605663538E+02  0.16605663538E+02  0.00000000000E+00 0.  1.
         21   -1    0    0  501  502 -0.00000000000E+00 -0.00000000000E+00 -0.23077788807E+03  0.23077788807E+03  0.00000000000E+00 0.  1.
          2    1    1    2  501    0 -0.20199390026E+02  0.47554098781E+01  0.94489564949E+01  0.22801580194E+02  0.00000000000E+00 0.  1.
         21    1    1    2  503  502  0.20199390026E+02 -0.47554098781E+01 -0.22362118103E+03  0.22458197142E+03  0.00000000000E+00 0.  1.
</event>
<event>
 4    1  0.2281973E+005  0.4046054E+02  0.7546771E-02  0.1345808E+00
          2   -1    0    0  503    0  0.00000000000E+00  0.00000000000E+00  0.67975894172E+03  0.67975894172E+03  0.00000000000E+00 0. -1.
         21   -1    0    0  501  502 -0.00000000000E+00 -0.00000000000E+00 -0.62572305613E+01  0.62572305613E+01  0.00000000000E+00 0. -1.
          2    1    1    2  501    0  0.29731025229E+02  0.27443060356E+02  0.60577049387E+03  0.60712020776E+03  0.00000000000E+00 0. -1.
         21    1    1    2  503  502 -0.29731025229E+02 -0.27443060356E+02  0.67731217288E+02  0.78895964524E+02  0.00000000000E+00 0. -1.
</event>
<event>
 4    1  0.2281973E+005  0.2340958E+02  0.7546771E-02  0.1487418E+00
          2   -1    0    0  503    0  0.00000000000E+00  0.00000000000E+00  0.19247838629E+04  0.19247838629E+04  0.00000000000E+00 0.  1.
         21   -1    0    0  501  502 -0.00000000000E+00 -0.00000000000E+00 -0.47932367727E+00  0.47932367727E+00  0.00000000000E+00 0.  1.
          2    1    1    2  501    0 -0.20827428192E+02 -0.10687680276E+02  0.15755336304E+04  0.15757075327E+04  0.00000000000E+00 0.  1.
         21    1    1    2  503  502  0.20827428192E+02  0.10687680276E+02  0.34877090888E+03  0.34955565387E+03  0.00000000000E+00 0.  1.
</event>
<event>
 4    1  0.2281973E+005  0.2869857E+02  0.7546771E-02  0.1431253E+00
          2   -1    0    0  503    0  0.00000000000E+00  0.00000000000E+00  0.64334826936E+03  0.64334826936E+03  0.00000000000E+00 0. -1.
         21   -1    0    0  501  502 -0.00000000000E+00 -0.00000000000E+00 -0.32635065636E+01  0.32635065636E+01  0.00000000000E+00 0.  1.
          2    1    1    2  501    0  0.47743580102E+01 -0.28298648132E+02  0.57208117665E+03  0.57280055924E+03  0.00000000000E+00 0. -1.
         21    1    1    2  503  502 -0.47743580102E+01  0.28298648132E+02  0.68003586144E+02  0.73811216688E+02  0.00000000000E+00 0.  1.
</event>
<event>
 4    1  0.2281973E+005  0.2931170E+02  0.7546771E-02  0.1425674E+00
          2   -1    0    0  503    0  0.00000000000E+00  0.00000000000E+00  0.22788274674E+03  0.22788274674E+03  0.00000000000E+00 0. -1.
         21   -1    0    0  501  502 -0.00000000000E+00 -0.00000000000E+00 -0.64639750916E+01  0.64639750916E+01  0.00000000000E+00 0. -1.
          2    1    1    2  501    0 -0.25406321728E+02 -0.14618295629E+02  0.18635006052E+03  0.18864124895E+03  0.00000000000E+00 0. -1.
         21    1    1    2  503  502  0.25406321728E+02  0.14618295629E+02  0.35068711131E+02  0.45705472880E+02  0.00000000000E+00 0. -1.
</event>
<event>
 4    1  0.2281973E+005  0.2192221E+02  0.7546771E-02  0.1506494E+00
          2   -1    0    0  503    0  0.00000000000E+00  0.00000000000E+00  0.90099268215E+03  0.90099268215E+03  0.00000000000E+00 0. -1.
         21   -1    0    0  501  502 -0.00000000000E+00 -0.00000000000E+00 -0.18962001809E+03  0.18962001809E+03  0.00000000000E+00 0.  1.
          2    1    1    2  501    0 -0.15591680890E+02  0.15410481721E+02  0.90022517988E+03  0.90049206435E+03  0.00000000000E+00 0. -1.
         21    1    1    2  503  502  0.15591680890E+02 -0.15410481721E+02 -0.18885251582E+03  0.19012063589E+03  0.00000000000E+00 0.  1.
</event>
<event>
 4    1  0.2281973E+005  0.3598598E+02  0.7546771E-02  0.1373761E+00
          2   -1    0    0  502    0  0.00000000000E+00  0.00000000000E+00  0.22556133257E+04  0.22556133257E+04  0.00000000000E+00 0.  1.
         21   -1    0    0  503  502 -0.00000000000E+00 -0.00000000000E+00 -0.12830279646E+01  0.12830279646E+01  0.00000000000E+00 0.  1.
          2    1    1    2  501    0  0.27594680441E+02 -0.23098149112E+02  0.19659657557E+04  0.19662950805E+04  0.00000000000E+00 0.  1.
         21    1    1    2  503  501 -0.27594680441E+02  0.23098149112E+02  0.28836454201E+03  0.29060127317E+03  0.00000000000E+00 0.  1.
</event>
<event>
 4    1  0.2281973E+005  0.3618585E+02  0.7546771E-02  0.1372413E+00
          2   -1    0    0  503    0  0.00000000000E+00  0.00000000000E+00  0.64027220340E+03  0.64027220340E+03  0.00000000000E+00 0. -1.
         21   -1    0    0  501  502 -0.00000000000E+00 -0.00000000000E+00 -0.34550618232E+01  0.34550618232E+01  0.00000000000E+00 0.  1.
          2    1    1    2  501    0  0.20032747007E+02  0.30134775023E+02  0.52402077658E+03  0.52526868354E+03  0.00000000000E+00 0. -1.
         21    1    1    2  503  502 -0.20032747007E+02 -0.30134775023E+02  0.11279636499E+03  0.11845858168E+03  0.00000000000E+00 0.  1.
</event>
<event>
 4    1  0.2281973E+005  0.5404392E+02  0.7546771E-02  0.1281531E+00
          2   -1    0    0  502    0  0.00000000000E+00  0.00000000000E+00  0.99110891896E+01  0.99110891896E+01  0.00000000000E+00 0. -1.
         21   -1    0    0  503  502 -0.00000000000E+00 -0.00000000000E+00 -0.57789835491E+03  0.57789835491E+03  0.00000000000E+00 0. -1.
          2    1    1    2  501    0  0.32946164225E+02  0.42840344574E+02 -0.78248150667E+02  0.95097412916E+02  0.00000000000E+00 0. -1.
         21    1    1    2  503  501 -0.32946164225E+02 -0.42840344574E+02 -0.48973911505E+03  0.49271203118E+03  0.00000000000E+00 0. -1.
</event>
<event>
 4    1  0.2281973E+005  0.2781951E+02  0.7546771E-02  0.1439545E+00
          2   -1    0    0  503    0  0.00000000000E+00  0.00000000000E+00  0.10503676250E+04  0.10503676250E+04  0.00000000000E+00 0.  1.
         21   -1    0    0  501  502 -0.00000000000E+00 -0.00000000000E+00 -0.11152469311E+01  0.11152469311E+01  0.00000000000E+00 0. -1.
          2    1    1    2  501    0 -0.10688466452E+02  0.25684271374E+02  0.83087992880E+03  0.83134552456E+03  0.00000000000E+00 0.  1.
         21    1    1    2  503  502  0.10688466452E+02 -0.25684271374E+02  0.21837244929E+03  0.22013734740E+03  0.00000000000E+00 0. -1.
</event>
<event>
 4    1  0.2281973E+005  0.3789204E+02  0.7546771E-02  0.1361302E+00
          2   -1    0    0  503    0  0.00000000000E+00  0.00000000000E+00  0.20239902682E+02  0.20239902682E+02  0.00000000000E+00 0.  1.
         21   -1    0    0  501  502 -0.00000000000E+00 -0.00000000000E+00 -0.11911034814E+03  0.11911034814E+03  0.00000000000E+00 0.  1.
          2    1    1    2  501    0 -0.27225782778E+02  0.26354572982E+02 -0.51258540738E+01  0.38237169677E+02  0.00000000000E+00 0.  1.
         21    1    1    2  503  502  0.27225782778E+02 -0.26354572982E+02 -0.93744591381E+02  0.10111308114E+03  0.00000000000E+00 0.  1.
</event>
<event>
 4    1  0.2281973E+005  0.4146582E+02  0.7546771E-02  0.1340104E+00
          2   -1    0    0  502    0  0.00000000000E+00  0.00000000000E+00  0.27908771440E+02  0.27908771440E+02  0.00000000000E+00 0. -1.
         21   -1    0    0  503  502 -0.00000000000E+00 -0.00000000000E+00 -0.95059928660E+02  0.95059928660E+02  0.00000000000E+00 0. -1.
          2    1    1    2  501    0 -0.38049020670E+02  0.16482903914E+02  0.28976309700E+01  0.41566938312E+02  0.00000000000E+00 0. -1.
         21    1    1    2  503  501  0.38049020670E+02 -0.16482903914E+02 -0.70048788190E+02  0.81401761788E+02  0.00000000000E+00 0. -1.
</event>
<event>
 4    1  0.2281973E+005  0.2926556E+02  0.7546771E-02  0.1426088E+00
          2   -1    0    0  503    0  0.00000000000E+00  0.00000000000E+00  0.96008425805E+03  0.96008425805E+03  0.00000000000E+00 0. -1.
         21   -1    0    0  501  502 -0.00000000000E+00 -0.00000000000E+00 -0.31115716754E+01  0.31115716754E+01  0.00000000000E+00 0.  1.
          2    1    1    2  501    0  0.14988400279E+02  0.25136046353E+02  0.88523052661E+03  0.88571415152E+03  0.00000000000E+00 0. -1.
         21    1    1    2  503  502 -0.14988400279E+02 -0.25136046353E+02  0.71742159773E+02  0.77481678209E+02  0.00000000000E+00 0.  1.
</event>
<event>
 4    1  0.2281973E+005  0.3546944E+02  0.7546771E-02  0.1377293E+00
          2   -1    0    0  502    0  0.00000000000E+00  0.00000000000E+00  0.60301170899E+03  0.60301170899E+03  0.00000000000E+00 0.  1.
         21   -1    0    0  503  502 -0.00000000000E+00 -0.00000000000E+00 -0.22835145104E+02  0.22835145104E+02  0.00000000000E+00 0. -1.
          2    1    1    2  501    0  0.34648043392E+02  0.75890942097E+01  0.58837426325E+03  0.58944241018E+03  0.00000000000E+00 0.  1.
         21    1    1    2  503  501 -0.34648043392E+02 -0.75890942097E+01 -0.81976993659E+01  0.36404443915E+02  0.00000000000E+00 0. -1.
</event>
<event>
 4    1  0.2281973E+005  0.2076712E+02  0.7546771E-02  0.1522616E+00
          2   -1    0    0  502    0  0.00000000000E+00  0.00000000000E+00  0.13606802664E+03  0.13606802664E+03  0.00000000000E+00 0.  1.
         21   -1    0    0  503  502 -0.00000000000E+00 -0.00000000000E+00 -0.22003063502E+03  0.22003063502E+03  0.00000000000E+00 0. -1.
          2    1    1    2  501    0 -0.20766912865E+02  0.92190813248E-01  0.13478097471E+03  0.13637149377E+03  0.00000000000E+00 0.  1.
         21    1    1    2  503  501  0.20766912865E+02 -0.92190813248E-01 -0.21874358309E+03  0.21972716790E+03  0.00000000000E+00 0. -1.
</event>
<event>
 4    1  0.2281973E+005  0.6427069E+02  0.7546771E-02  0.1245974E+00
          2   -1    0    0  502    0  0.00000000000E+00  0.00000000000E+00  0.22372407710E+03  0.22372407710E+03  0.00000000000E+00 0. -1.
         21   -1    0    0  503  502 -0.00000000000E+00 -0.00000000000E+00 -0.29549426321E+02  0.29549426321E+02  0.00000000000E+00 0. -1.
          2    1    1    2  501    0 -0.41737307614E+02 -0.48874515843E+02  0.17465342621E+03  0.18610357448E+03  0.00000000000E+00 0. -1.
         21    1    1    2  503  501  0.41737307614E+02  0.48874515843E+02  0.19521224567E+02  0.67169928944E+02  0.00000000000E+00 0. -1.
</event>
<event>
 4    1  0.2281973E+005  0.2181380E+02  0.7546771E-02  0.1507956E+00
          2   -1    0    0  502    0  0.00000000000E+00  0.00000000000E+00  0.37658164037E+02  0.37658164037E+02  0.00000000000E+00 0. -1.
         21   -1    0    0  503  502 -0.00000000000E+00 -0.00000000000E+00 -0.49043349838E+02  0.49043349838E+02  0.00000000000E+00 0. -1.
          2    1    1    2  501    0  0.21322481132E+02  0.46036655706E+01  0.31658404558E+02  0.38446020827E+02  0.00000000000E+00 0. -1.
         21    1    1    2  503  501 -0.21322481132E+02 -0.46036655706E+01 -0.43043590359E+02  0.48255493048E+02  0.00000000000E+00 0. -1.
</event>
<event>
 4    1  0.2281973E+005  0.2033693E+02  0.7546771E-02  0.1528946E+00
          2   -1    0    0  503    0  0.00000000000E+00  0.00000000000E+00  0.15859098360E+04  0.15859098360E+04  0.00000000000E+00 0. -1.
         21   -1    0    0  501  502 -0.00000000000E+00 -0.00000000000E+00 -0.10652488325E+01  0.10652488325E+01  0.00000000000E+00 0. -1.
          2    1    1    2  501    0  0.19409762269E+02 -0.60705616357E+01  0.14819731361E+04  0.14821126701E+04  0.00000000000E+00 0. -1.
         21    1    1    2  503  502 -0.19409762269E+02  0.60705616357E+01  0.10287145102E+03  0.10486241474E+03  0.00000000000E+00 0. -1.
</event>
<event>
 4    1  0.2281973E+005  0.2082989E+02  0.7546771E-02  0.1521708E+00
          2   -1    0    0  503    0  0.00000000000E+00  0.00000000000E+00  0.71112830283E+03  0.71112830283E+03  0.00000000000E+00 0.  1.
         21   -1    0    0  501  502 -0.00000000000E+00 -0.00000000000E+00 -0.12935675096E+01  0.12935675096E+01  0.00000000000E+00 0. -1.
          2    1    1    2  501    0  0.21901426231E+00 -0.20828738463E+02  0.61383432468E+03  0.61418764435E+03  0.00000000000E+00 0.  1.
         21    1    1    2  503  502 -0.21901426231E+00  0.20828738463E+02  0.96000410640E+02  0.98234225992E+02  0.00000000000E+00 0. -1.
</event>
<event>
 4    1  0.2281973E+005  0.4455918E+02  0.7546771E-02  0.1323658E+00
          2   -1    0    0  502    0  0.00000000000E+00  0.00000000000E+00  0.23482509924E+04  0.23482509924E+04  0.00000000000E+00 0. -1.
         21   -1    0    0  503  502 -0.00000000000E+00 -0.00000000000E+00 -0.25158693324E+01  0.25158693324E+01  0.00000000000E+00 0.  1.
          2    1    1    2  501    0  0.42896194826E+02 -0.12059720281E+02  0.21305856091E+04  0.21310515146E+04  0.00000000000E+00 0. -1.
         21    1    1    2  503  501 -0.42896194826E+02  0.12059720281E+02  0.21514951400E+03  0.21971534712E+03  0.00000000000E+00 0.  1.
</event>
<event>
 4    1  0.2281973E+005  0.2286162E+02  0.7546771E-02  0.1494243E+00
          2   -1    0    0  503    0  0.00000000000E+00  0.00000000000E+00  0.11350698660E+03  0.11350698660E+03  0.00000000000E+00 0. -1.
         21   -1    0    0  501  502 -0.00000000000E+00 -0.00000000000E+00 -0.93177502575E+01  0.93177502575E+01  0.00000000000E+00 0. -1.
          2    1    1    2  501    0 -0.97388165584E+01 -0.20683551303E+02  0.95771953012E+02  0.98462789043E+02  0.00000000000E+00 0. -1.
         21    1    1    2  503  502  0.97388165584E+01  0.20683551303E+02  0.84172833258E+01  0.24361947809E+02  0.00000000000E+00 0. -1.
</event>
<event>
 4    1  0.2281973E+005  0.2592043E+02  0.7546771E-02  0.1458765E+00
          2   -1    0    0  502    0  0.00000000000E+00  0.00000000000E+00  0.77495273594E+02  0.77495273594E+02  0.00000000000E+00 0. -1.
         21   -1    0    0  503  502 -0.00000000000E+00 -0.00000000000E+00 -0.23907612446E+02  0.23907612446E+02  0.00000000000E+00 0.  1.
          2    1    1    2  501    0 -0.77569425927E+01  0.24732535625E+02  0.67271317096E+02  0.72092292103E+02  0.00000000000E+00 0. -1.
         21    1    1    2  503  501  0.77569425927E+01 -0.24732535625E+02 -0.13683655948E+02  0.29310593937E+02  0.00000000000E+00 0.  1.
</event>
<event>
 4    1  0.2281973E+005  0.4943740E+02  0.7546771E-02  0.1300630E+00
          2   -1    0    0  503    0  0.00000000000E+00  0.00000000000E+00  0.84696059040E+03  0.84696059040E+03  0.00000000000E+00 0.  1.
         21   -1    0    0  501  502 -0.00000000000E+00 -0.00000000000E+00 -0.56025813740E+01  0.56025813740E+01  0.00000000000E+00 0. -1.
          2    1    1    2  501    0 -0.92045500014E+01  0.48572959977E+02  0.71753069230E+03  0.71923177806E+03  0.00000000000E+00 0.  1.
         21    1    1    2  503  502  0.92045500014E+01 -0.48572959977E+02  0.12382731672E+03  0.13333139371E+03  0.00000000000E+00 0. -1.
</event>
<event>
 4    1  0.2281973E+005  0.2008813E+02  0.7546771E-02  0.1532693E+00
          2   -1    0    0  503    0  0.00000000000E+00  0.00000000000E+00  0.36191088530E+03  0.36191088530E+03  0.00000000000E+00 0.  1.
         21   -1    0    0  501  502 -0.00000000000E+00 -0.00000000000E+00 -0.29323773323E+01  0.29323773323E+01  0.00000000000E+00 0.  1.
          2    1    1    2  501    0 -0.18034768473E+02 -0.88476132061E+01  0.32310039660E+03  0.32372426449E+03  0.00000000000E+00 0.  1.
         21    1    1    2  503  502  0.18034768473E+02  0.88476132061E+01  0.35878111369E+02  0.41118998148E+02  0.00000000000E+00 0.  1.
</event>
<event>
 4    1  0.2281973E+005  0.2329151E+02  0.7546771E-02  0.1488870E+00
          2   -1    0    0  502    0  0.00000000000E+00  0.00000000000E+00  0.13267938391E+04  0.13267938391E+04  0.00000000000E+00 0. -1.
         21   -1    0    0  503  502 -0.00000000000E+00 -0.00000000000E+00 -0.95627323823E+00  0.95627323823E+00  0.00000000000E+00 0.  1.
          2    1    1    2  501    0  0.16877217470E+02  0.16051598774E+02  0.11651996217E+04  0.11654323887E+04  0.00000000000E+00 0. -1.
         21    1    1    2  503  501 -0.16877217470E+02 -0.16051598774E+02  0.16063794420E+03  0.16231772365E+03  0.00000000000E+00 0.  1.
</event>
<event>
 4    1  0.2281973E+005  0.2181840E+02  0.7546771E-02  0.1507893E+00
          2   -1    0    0  503    0  0.00000000000E+00  0.00000000000E+00  0.78888998066E+03  0.78888998066E+03  0.00000000000E+00 0.  1.
         21   -1    0    0  501  502 -0.00000000000E+00 -0.00000000000E+00 -0.60929344135E+00  0.60929344135E+00  0.00000000000E+00 0. -1.
          2    1    1    2  501    0 -0.15089382676E+02  0.15759229523E+02  0.35542809249E+03  0.35609713804E+03  0.00000000000E+00 0.  1.
         21    1    1    2  503  502  0.15089382676E+02 -0.15759229523E+02  0.43285259472E+03  0.43340213606E+03  0.00000000000E+00 0. -1.
</event>
<event>
 4    1  0.2281973E+005  0.2346130E+02  0.7546771E-02  0.1486785E+00
          2   -1    0    0  502    0  0.00000000000E+00  0.00000000000E+00  0.51320047763E+03  0.51320047763E+03  0.00000000000E+00 0. -1.
         21   -1    0    0  503  502 -0.00000000000E+00 -0.00000000000E+00 -0.10136246320E+02  0.10136246320E+02  0.00000000000E+00 0. -1.
          2    1    1    2  501    0 -0.11349749763E+02 -0.20533283588E+02  0.49896951346E+03  0.49952077826E+03  0.00000000000E+00 0. -1.
         21    1    1    2  503  501  0.11349749763E+02  0.20533283588E+02  0.40947178473E+01  0.23815945684E+02  0.00000000000E+00 0. -1.
</event>
<event>
 4    1  0.2281973E+005  0.3227190E+02  0.7546771E-02  0.1400829E+00
          2   -1    0    0  502    0  0.00000000000E+00  0.00000000000E+00  0.14771704846E+03  0.14771704846E+03  0.00000000000E+00 0. -1.
         21   -1    0    0  503  502 -0.00000000000E+00 -0.00000000000E+00 -0.14688376537E+02  0.14688376537E+02  0.00000000000E+00 0.  1.
          2    1    1    2  501    0 -0.13919572602E+01 -0.32241866687E+02  0.12507023266E+03  0.12916670859E+03  0.00000000000E+00 0. -1.
         21    1    1    2  503  501  0.13919572602E+01  0.32241866687E+02  0.79584392645E+01  0.33238716401E+02  0.00000000000E+00 0.  1.
</event>
<event>
 4    1  0.2281973E+005  0.2317266E+02  0.7546771E-02  0.1490341E+00
          2   -1    0    0  503    0  0.00000000000E+00  0.00000000000E+00  0.37511898900E+03  0.37511898900E+03  0.00000000000E+00 0.  1.
         21   -1    0    0  501  502 -0.00000000000E+00 -0.00000000000E+00 -0.46470732558E+01  0.46470732558E+01  0.00000000000E+00 0.  1.
          2    1    1    2  501    0 -0.10365157521E+02 -0.20725244621E+02  0.34318882177E+03  0.34397025982E+03  0.00000000000E+00 0.  1.
         21    1    1    2  503  502  0.10365157521E+02  0.20725244621E+02  0.27283093977E+02  0.35795802435E+02  0.00000000000E+00 0.  1.
</event>
<event>
 4    1  0.2281973E+005  0.2928056E+02  0.7546771E-02  0.1425953E+00
          2   -1    0    0  503    0  0.00000000000E+00  0.00000000000E+00  0.42555133548E+03  0.42555133548E+03  0.00000000000E+00 0. -1.
         21   -1    0    0  501  502 -0.00000000000E+00 -0.00000000000E+00 -0.53032560639E+02  0.53032560639E+02  0.00000000000E+00 0.  1.
          2    1    1    2  501    0  0.28884091408E+02  0.48021609620E+01  0.42096202820E+03  0.42197912351E+03  0.00000000000E+00 0. -1.
         21    1    1    2  503  502 -0.28884091408E+02 -0.48021609620E+01 -0.48443253361E+02  0.56604772613E+02  0.00000000000E+00 0.  1.
</event>
<event>
 4    1  0.2281973E+005  0.2153866E+02  0.7546771E-02  0.1511711E+00
          2   -1    0    0  502    0  0.00000000000E+00  0.00000000000E+00  0.67081361312E+03  0.67081361312E+03  0.00000000000E+00 0. -1.
         21   -1    0    0  503  502 -0.00000000000E+00 -0.00000000000E+00 -0.10102094103E+02  0.10102094103E+02  0.00000000000E+00 0. -1.
          2    1    1    2  501    0 -0.16355573326E+02 -0.14014597972E+02  0.65895351029E+03  0.65930542426E+03  0.00000000000E+00 0. -1.
         21    1    1    2  503  501  0.16355573326E+02  0.14014597972E+02  0.17580087283E+01  0.21610282965E+02  0.00000000000E+00 0. -1.
</event>
<event>
 4    1  0.2281973E+005  0.2294333E+02  0.7546771E-02  0.1493211E+00
          2   -1    0    0  503    0  0.00000000000E+00  0.00000000000E+00  0.46704836525E+02  0.46704836525E+02  0.00000000000E+00 0.  1.
         21   -1    0    0  501  502 -0.00000000000E+00 -0.00000000000E+00 -0.19217137972E+02  0.19217137972E+02  0.00000000000E+00 0.  1.
          2    1    1    2  501    0 -0.20807996998E+02  0.96655853669E+01  0.34939270898E+02  0.41798910637E+02  0.00000000000E+00 0.  1.
         21    1    1    2  503  502  0.20807996998E+02 -0.96655853669E+01 -0.74515723460E+01  0.24123063860E+02  0.00000000000E+00 0.  1.
</event>
<event>
 4    1  0.2281973E+005  0.2446103E+02  0.7546771E-02  0.1474924E+00
          2   -1    0    0  502    0  0.00000000000E+00  0.00000000000E+00  0.36440013413E+03  0.36440013413E+03  0.00000000000E+00 0.  1.
         21   -1    0    0  503  502 -0.00000000000E+00 -0.00000000000E+00 -0.14151119194E+03  0.14151119194E+03  0.00000000000E+00 0. -1.
          2    1    1    2  501    0 -0.21614535054E+02 -0.11452240464E+02  0.36292829664E+03  0.36375168788E+03  0.00000000000E+00 0.  1.
         21    1    1    2  503  501  0.21614535054E+02  0.11452240464E+02 -0.14003935444E+03  0.14215963819E+03  0.00000000000E+00 0. -1.
</event>
<event>
 4    1  0.2281973E+005  0.3294839E+02  0.7546771E-02  0.1395590E+00
          2   -1    0    0  503    0  0.00000000000E+00  0.00000000000E+00  0.29274549684E+03  0.29274549684E+03  0.00000000000E+00 0.  1.
         21   -1    0    0  501  502 -0.00000000000E+00 -0.00000000000E+00 -0.14719948145E+03  0.14719948145E+03  0.00000000000E+00 0. -1.
          2    1    1    2  501    0 -0.25590112092E+01 -0.32848867355E+02  0.28995698940E+03  0.29182298115E+03  0.00000000000E+00 0.  1.
         21    1    1    2  503  502  0.25590112092E+01  0.32848867355E+02 -0.14441097401E+03  0.14812199715E+03  0.00000000000E+00 0. -1.
</event>
<event>
 4    1  0.2281973E+005  0.2634063E+02  0.7546771E-02  0.1454346E+00
          2   -1    0    0  503    0  0.00000000000E+00  0.00000000000E+00  0.14218080712E+02  0.14218080712E+02  0.00000000000E+00 0.  1.
         21   -1    0    0  501  502 -0.00000000000E+00 -0.00000000000E+00 -0.11688554700E+03  0.11688554700E+03  0.00000000000E+00 0. -1.
          2    1    1    2  501    0 -0.17200602196E+02 -0.19949142066E+02 -0.13032418697E+01  0.26372853930E+02  0.00000000000E+00 0.  1.
         21    1    1    2  503  502  0.17200602196E+02  0.19949142066E+02 -0.10136422442E+03  0.10473077378E+03  0.00000000000E+00 0. -1.
</event>
<event>
 4    1  0.2281973E+005  0.2927207E+02  0.7546771E-02  0.1426029E+00
          2   -1    0    0  502    0  0.00000000000E+00  0.00000000000E+00  0.41766034519E+03  0.41766034519E+03  0.00000000000E+00 0. -1.
         21   -1    0    0  503  502 -0.00000000000E+00 -0.00000000000E+00 -0.20696433358E+01  0.20696433358E+01  0.00000000000E+00 0. -1.
          2    1    1    2  501    0  0.24279797245E+02  0.16350702204E+02  0.18817678771E+03  0.19043990509E+03  0.00000000000E+00 0. -1.
         21    1    1    2  503  501 -0.24279797245E+02 -0.16350702204E+02  0.22741391414E+03  0.22929008343E+03  0.00000000000E+00 0. -1.
</event>
<event>
 4    1  0.2281973E+005  0.3373685E+02  0.7546771E-02  0.1389668E+00
          2   -1    0    0  502    0  0.00000000000E+00  0.00000000000E+00  0.23750736742E+03  0.23750736742E+03  0.00000000000E+00 0. -1.
         21   -1    0    0  503  502 -0.00000000000E+00 -0.00000000000E+00 -0.28208520634E+02  0.28208520634E+02  0.00000000000E+00 0.  1.
          2    1    1    2  501    0 -0.80027614360E+01 -0.32773936925E+02  0.22569725103E+03  0.22820478579E+03  0.00000000000E+00 0. -1.
         21    1    1    2  503  501  0.80027614360E+01  0.32773936925E+02 -0.16398404240E+02  0.37511102273E+02  0.00000000000E+00 0.  1.
</event>
<event>
 4    1  0.2281973E+005  0.2544553E+02  0.7546771E-02  0.1463880E+00
          2   -1    0    0  503    0  0.00000000000E+00  0.00000000000E+00  0.49918091274E+03  0.49918091274E+03  0.00000000000E+00 0.  1.
         21   -1    0    0  501  502 -0.00000000000E+00 -0.00000000000E+00 -0.16503952983E+01  0.16503952983E+01  0.00000000000E+00 0.  1.
          2    1    1    2  501    0 -0.10194449584E+02  0.23314122423E+02  0.36463012094E+03  0.36551689455E+03  0.00000000000E+00 0.  1.
         21    1    1    2  503  502  0.10194449584E+02 -0.23314122423E+02  0.13290039650E+03  0.13531441348E+03  0.00000000000E+00 0.  1.
</event>
<event>
 4    1  0.2281973E+005  0.2153094E+02  0.7546771E-02  0.1511818E+00
          2   -1    0    0  503    0  0.00000000000E+00  0.00000000000E+00  0.56147355343E+02  0.56147355343E+02  0.00000000000E+00 0. -1.
         21   -1    0    0  501  502 -0.00000000000E+00 -0.00000000000E+00 -0.45215499676E+02  0.45215499676E+02  0.00000000000E+00 0.  1.
          2    1    1    2  501    0  0.11827943112E+02 -0.17991140766E+02  0.51286994798E+02  0.55623171607E+02  0.00000000000E+00 0. -1.
         21    1    1    2  503  502 -0.11827943112E+02  0.17991140766E+02 -0.40355139131E+02  0.45739683412E+02  0.00000000000E+00 0.  1.
</event>
<event>
 4    1  0.2281973E+005  0.2894486E+02  0.7546771E-02  0.1428992E+00
          2   -1    0    0  503    0  0.00000000000E+00  0.00000000000E+00  0.89955398294E+03  0.89955398294E+03  0.00000000000E+00 0. -1.
         21   -1    0    0  501  502 -0.00000000000E+00 -0.00000000000E+00 -0.12013958293E+01  0.12013958293E+01  0.00000000000E+00 0. -1.
          2    1    1    2  501    0  0.14263955782E+02 -0.25186201318E+02  0.66270072153E+03  0.66333253462E+03  0.00000000000E+00 0. -1.
         21    1    1    2  503  502 -0.14263955782E+02  0.25186201318E+02  0.23565186558E+03  0.23742284415E+03  0.00000000000E+00 0. -1.
</event>
<event>
 4    1  0.2281973E+005  0.2458227E+02  0.7546771E-02  0.1473531E+00
          2   -1    0    0  503    0  0.00000000000E+00  0.00000000000E+00  0.33190055601E+02  0.33190055601E+02  0.00000000000E+00 0.  1.
         21   -1    0    0  501  502 -0.00000000000E+00 -0.00000000000E+00 -0.62212753942E+02  0.62212753942E+02  0.00000000000E+00 0.  1.
          2    1    1    2  501    0 -0.24580420948E+02 -0.30130450341E+00  0.25607337150E+02  0.35496811044E+02  0.00000000000E+00 0.  1.
         21    1    1    2  503  502  0.24580420948E+02  0.30130450341E+00 -0.54630035491E+02  0.59905998499E+02  0.00000000000E+00 0.  1.
</event>
<event>
 4    1  0.2281973E+005  0.2051315E+02  0.7546771E-02  0.1526331E+00
          2   -1    0    0  503    0  0.00000000000E+00  0.00000000000E+00  0.12057494789E+04  0.12057494789E+04  0.00000000000E+00 0.  1.
         21   -1    0    0  501  502 -0.00000000000E+00 -0.00000000000E+00 -0.16161475029E+01  0.16161475029E+01  0.00000000000E+00 0.  1.
          2    1    1    2  501    0 -0.17720961703E+02  0.10332311857E+02  0.11366117932E+04  0.11367968850E+04  0.00000000000E+00 0.  1.
         21    1    1    2  503  502  0.17720961703E+02 -0.10332311857E+02  0.67521538170E+02  0.70568741443E+02  0.00000000000E+00 0.  1.
</event>
<event>
 4    1  0.2281973E+005  0.2394172E+02  0.7546771E-02  0.1481000E+00
          2   -1    0    0  503    0  0.00000000000E+00  0.00000000000E+00  0.16957061082E+04  0.16957061082E+04  0.00000000000E+00 0. -1.
         21   -1    0    0  501  502 -0.00000000000E+00 -0.00000000000E+00 -0.16552806758E+01  0.16552806758E+01  0.00000000000E+00 0.  1.
          2    1    1    2  501    0  0.63025109631E+01 -0.23097275017E+02  0.16041060017E+04  0.16042846601E+04  0.00000000000E+00 0. -1.
         21    1    1    2  503  502 -0.63025109631E+01  0.23097275017E+02  0.89944825812E+02  0.93076728821E+02  0.00000000000E+00 0.  1.
</event>
<event>
 4    1  0.2281973E+005  0.2278489E+02  0.7546771E-02  0.1495217E+00
          2   -1    0    0  503    0  0.00000000000E+00  0.00000000000E+00  0.25108325808E+03  0.25108325808E+03  0.00000000000E+00 0.  1.
         21   -1    0    0  501  502 -0.00000000000E+00 -0.00000000000E+00 -0.79436482135E+01  0.79436482135E+01  0.00000000000E+00 0. -1.
          2    1    1    2  501    0 -0.22782378238E+02 -0.33833285553E+00  0.23295971840E+03  0.23407131739E+03  0.00000000000E+00 0.  1.
         21    1    1    2  503  502  0.22782378238E+02  0.33833285553E+00  0.10179891467E+02  0.24955588905E+02  0.00000000000E+00 0. -1.
</event>
<event>
 4    1  0.2281973E+005  0.3299684E+02  0.7546771E-02  0.1395221E+00
          2   -1    0    0  503    0  0.00000000000E+00  0.00000000000E+00  0.39902222159E+02  0.39902222159E+02  0.00000000000E+00 0.  1.
         21   -1    0    0  501  502 -0.00000000000E+00 -0.00000000000E+00 -0.99019157841E+02  0.99019157841E+02  0.00000000000E+00 0. -1.
          2    1    1    2  501    0 -0.15391544239E+02 -0.29187183113E+02  0.29562017795E+02  0.44302417408E+02  0.00000000000E+00 0.  1.
         21    1    1    2  503  502  0.15391544239E+02  0.29187183113E+02 -0.88678953478E+02  0.94618962592E+02  0.00000000000E+00 0. -1.
</event>
<event>
 4    1  0.2281973E+005  0.2208200E+02  0.7546771E-02  0.1504359E+00
          2   -1    0    0  502    0  0.00000000000E+00  0.00000000000E+00  0.99600429656E+03  0.99600429656E+03  0.00000000000E+00 0.  1.
         21   -1    0    0  503  502 -0.00000000000E+00 -0.00000000000E+00 -0.77334072261E+00  0.77334072261E+00  0.00000000000E+00 0.  1.
          2    1    1    2  501    0  0.82937154648E+01 -0.20465315968E+02  0.79951737111E+03  0.79982225624E+03  0.00000000000E+00 0.  1.
         21    1    1    2  503  501 -0.82937154648E+01  0.20465315968E+02  0.19571358473E+03  0.19695538104E+03  0.00000000000E+00 0.  1.
</event>
<event>
 4    1  0.2281973E+005  0.3578055E+02  0.7546771E-02  0.1375157E+00
          2   -1    0    0  503    0  0.00000000000E+00  0.00000000000E+00  0.17033307430E+04  0.17033307430E+04  0.00000000000E+00 0.  1.
         21   -1    0    0  501  502 -0.00000000000E+00 -0.00000000000E+00 -0.40740881381E+01  0.40740881381E+01  0.00000000000E+00 0. -1.
          2    1    1    2  501    0  0.31190644055E+02  0.17532576591E+02  0.16205710155E+04  0.16209659662E+04  0.00000000000E+00 0.  1.
         21    1    1    2  503  502 -0.31190644055E+02 -0.17532576591E+02  0.78685639372E+02  0.86438864881E+02  0.00000000000E+00 0. -1.
</event>
<event>
 4    1  0.2281973E+005  0.3983359E+02  0.7546771E-02  0.1349464E+00
          2   -1    0    0  503    0  0.00000000000E+00  0.00000000000E+00  0.15728440080E+04  0.15728440080E+04  0.00000000000E+00 0.  1.
         21   -1    0    0  501  502 -0.00000000000E+00 -0.00000000000E+00 -0.22787789385E+01  0.22787789385E+01  0.00000000000E+00 0.  1.
          2    1    1    2  501    0  0.39487471570E+02 -0.52397359514E+01  0.13732162349E+04  0.13737938503E+04  0.00000000000E+00 0.  1.
         21    1    1    2  503  502 -0.39487471570E+02  0.52397359514E+01  0.19734899415E+03  0.20132893666E+03  0.00000000000E+00 0.  1.
</event>
<event>
 4    1  0.2281973E+005  0.2634008E+02  0.7546771E-02  0.1454352E+00
          2   -1    0    0  503    0  0.00000000000E+00  0.00000000000E+00  0.21319995019E+04  0.21319995019E+04  0.00000000000E+00 0.  1.
         21   -1    0    0  501  502 -0.00000000000E+00 -0.00000000000E+00 -0.55052890252E+00  0.55052890252E+00  0.00000000000E+00 0. -1.
          2    1    1    2  501    0 -0.25772063654E+02 -0.54406483309E+01  0.17475502482E+04  0.17477487434E+04  0.00000000000E+00 0.  1.
         21    1    1    2  503  502  0.25772063654E+02  0.54406483309E+01  0.38389872482E+03  0.38480128746E+03  0.00000000000E+00 0. -1.
</event>
<event>
 4    1  0.2281973E+005  0.2213227E+02  0.7546771E-02  0.1503691E+00
          2   -1    0    0  503    0  0.00000000000E+00  0.00000000000E+00  0.34154855215E+02  0.34154855215E+02  0.00000000000E+00 0. -1.
         21   -1    0    0  501  502 -0.00000000000E+00 -0.00000000000E+00 -0.14506626935E+02  0.14506626935E+02  0.00000000000E+00 0. -1.
          2    1    1    2  501    0 -0.21421110588E+02  0.55653825383E+01  0.12418682655E+02  0.25378359689E+02  0.00000000000E+00 0. -1.
         21    1    1    2  503  502  0.21421110588E+02 -0.55653825383E+01  0.72295456249E+01  0.23283122461E+02  0.00000000000E+00 0. -1.
</event>
<event>
 4    1  0.2281973E+005  0.4405649E+02  0.7546771E-02  0.1326225E+00
          2   -1    0    0  502    0  0.00000000000E+00  0.00000000000E+00  0.42479010811E+03  0.42479010811E+03  0.00000000000E+00 0. -1.
         21   -1    0    0  503  502 -0.00000000000E+00 -0.00000000000E+00 -0.19865247047E+02  0.19865247047E+02  0.00000000000E+00 0. -1.
          2    1    1    2  501    0 -0.24884853150E+02  0.36355448635E+02  0.39755258962E+03  0.39998629486E+03  0.00000000000E+00 0. -1.
         21    1    1    2  503  501  0.24884853150E+02 -0.36355448635E+02  0.73722714439E+01  0.44669060299E+02  0.00000000000E+00 0. -1.
</event>
<event>
 4    1  0.2281973E+005  0.2796126E+02  0.7546771E-02  0.1438184E+00
          2   -1    0    0  502    0  0.00000000000E+00  0.00000000000E+00  0.15287240389E+02  0.15287240389E+02  0.00000000000E+00 0.  1.
         21   -1    0    0  503  502 -0.00000000000E+00 -0.00000000000E+00 -0.17036397538E+03  0.17036397538E+03  0.00000000000E+00 0.  1.
          2    1    1    2  501    0 -0.96459625766E+01 -0.26244764208E+02  0.11416480701E+00  0.27961496311E+02  0.00000000000E+00 0.  1.
         21    1    1    2  503  501  0.96459625766E+01  0.26244764208E+02 -0.15519089980E+03  0.15768971945E+03  0.00000000000E+00 0.  1.
</event>
<event>
 4    1  0.2281973E+005  0.2844625E+02  0.7546771E-02  0.1433597E+00
          2   -1    0    0  503    0  0.00000000000E+00  0.00000000000E+00  0.74624027555E+02  0.74624027555E+02  0.00000000000E+00 0. -1.
         21   -1    0    0  501  502 -0.00000000000E+00 -0.00000000000E+00 -0.30963218179E+02  0.30963218179E+02  0.00000000000E+00 0.  1.
          2    1    1    2  501    0 -0.23137308398E+02  0.16548539578E+02  0.64387193584E+02  0.70391049854E+02  0.00000000000E+00 0. -1.
         21    1    1    2  503  502  0.23137308398E+02 -0.16548539578E+02 -0.20726384208E+02  0.35196195880E+02  0.00000000000E+00 0.  1.
</event>
<event>
 4    1  0.2281973E+005  0.2032401E+02  0.7546771E-02  0.1529139E+00
          2   -1    0    0  502    0  0.00000000000E+00  0.00000000000E+00  0.57243877114E+02  0.57243877114E+02  0.00000000000E+00 0.  1.
         21   -1    0    0  503  502 -0.00000000000E+00 -0.00000000000E+00 -0.80561883032E+01  0.80561883032E+01  0.00000000000E+00 0.  1.
          2    1    1    2  501    0 -0.17261146335E+02  0.10729321848E+02  0.35138576760E+02  0.40592919294E+02  0.00000000000E+00 0.  1.
         21    1    1    2  503  501  0.17261146335E+02 -0.10729321848E+02  0.14049112051E+02  0.24707146123E+02  0.00000000000E+00 0.  1.
</event>
<event>
 4    1  0.2281973E+005  0.2262784E+02  0.7546771E-02  0.1497225E+00
          2   -1    0    0  503    0  0.00000000000E+00  0.00000000000E+00  0.10390892514E+04  0.10390892514E+04  0.00000000000E+00 0.  1.
         21   -1    0    0  501  502 -0.00000000000E+00 -0.00000000000E+00 -0.76089290160E+00  0.76089290160E+00  0.00000000000E+00 0.  1.
          2    1    1    2  501    0 -0.51997142506E+01 -0.22022307398E+02  0.82780690796E+03  0.82811611258E+03  0.00000000000E+00 0.  1.
         21    1    1    2  503  502  0.51997142506E+01  0.22022307398E+02  0.21052145051E+03  0.21173403170E+03  0.00000000000E+00 0.  1.
</event>
<event>
 4    1  0.2281973E+005  0.2643318E+02  0.7546771E-02  0.1453387E+00
          2   -1    0    0  503    0  0.00000000000E+00  0.00000000000E+00  0.13726343783E+04  0.13726343783E+04  0.00000000000E+00 0. -1.
         21   -1    0    0  501  502 -0.00000000000E+00 -0.00000000000E+00 -0.51022190577E+00  0.51022190577E+00  0.00000000000E+00 0. -1.
          2    1    1    2  501    0  0.46212854859E+00  0.26429137813E+02  0.65288638137E+03  0.65342125759E+03  0.00000000000E+00 0. -1.
         21    1    1    2  503  502 -0.46212854859E+00 -0.26429137813E+02  0.71923777507E+03  0.71972334266E+03  0.00000000000E+00 0. -1.
</event>
<event>
 4    1  0.2281973E+005  0.2111658E+02  0.7546771E-02  0.1517607E+00
          2   -1    0    0  503    0  0.00000000000E+00  0.00000000000E+00  0.25951326176E+02  0.25951326176E+02  0.00000000000E+00 0.  1.
         21   -1    0    0  501  502 -0.00000000000E+00 -0.00000000000E+00 -0.17988206528E+02  0.17988206528E+02  0.00000000000E+00 0.  1.
          2    1    1    2  501    0  0.49869889891E+01 -0.20519257137E+02  0.86310607189E+01  0.22812390970E+02  0.00000000000E+00 0.  1.
         21    1    1    2  503  502 -0.49869889891E+01  0.20519257137E+02 -0.66794107055E+00  0.21127141735E+02  0.00000000000E+00 0.  1.
</event>
<event>
 4    1  0.2281973E+005  0.3131885E+02  0.7546771E-02  0.1408472E+00
          2   -1    0    0  503    0  0.00000000000E+00  0.00000000000E+00  0.12310248334E+03  0.12310248334E+03  0.00000000000E+00 0. -1.
         21   -1    0    0  501  502 -0.00000000000E+00 -0.00000000000E+00 -0.35165507670E+02  0.35165507670E+02  0.00000000000E+00 0.  1.
          2    1    1    2  501    0 -0.26433787470E+02  0.16796589396E+02  0.11356217620E+03  0.11780169098E+03  0.00000000000E+00 0. -1.
         21    1    1    2  503  502  0.26433787470E+02 -0.16796589396E+02 -0.25625200532E+02  0.40466300024E+02  0.00000000000E+00 0.  1.
</event>
<event>
 4    1  0.2281973E+005  0.2229468E+02  0.7546771E-02  0.1501550E+00
          2   -1    0    0  502    0  0.00000000000E+00  0.00000000000E+00  0.72186457821E+03  0.72186457821E+03  0.00000000000E+00 0. -1.
         21   -1    0    0  503  502 -0.00000000000E+00 -0.00000000000E+00 -0.89899071116E+01  0.89899071116E+01  0.00000000000E+00 0.  1.
          2    1    1    2  501    0  0.18388557772E+02 -0.12606102760E+02  0.70759115385E+03  0.70794229559E+03  0.00000000000E+00 0. -1.
         21    1    1    2  503  501 -0.18388557772E+02  0.12606102760E+02  0.52835172522E+01  0.22912189732E+02  0.00000000000E+00 0.  1.
</event>
<event>
 4    1  0.2281973E+005  0.2193733E+02  0.7546771E-02  0.1506291E+00
          2   -1    0    0  503    0  0.00000000000E+00  0.00000000000E+00  0.63413676807E+02  0.63413676807E+02  0.00000000000E+00 0. -1.
         21   -1    0    0  501  502 -0.00000000000E+00 -0.00000000000E+00 -0.15231090708E+02  0.15231090708E+02  0.00000000000E+00 0. -1.
          2    1    1    2  501    0 -0.20453349137E+02  0.79313892155E+01  0.51944834049E+02  0.56387163523E+02  0.00000000000E+00 0. -1.
         21    1    1    2  503  502  0.20453349137E+02 -0.79313892155E+01 -0.37622479502E+01  0.22257603992E+02  0.00000000000E+00 0. -1.
</event>
<event>
 4    1  0.2281973E+005  0.2020321E+02  0.7546771E-02  0.1530952E+00
          2   -1    0    0  503    0  0.00000000000E+00  0.00000000000E+00  0.48608082606E+02  0.48608082606E+02  0.00000000000E+00 0. -1.
         21   -1    0    0  501  502 -0.00000000000E+00 -0.00000000000E+00 -0.24860654099E+02  0.24860654099E+02  0.00000000000E+00 0.  1.
          2    1    1    2  501    0  0.20134201465E+02  0.16684329691E+01  0.41767253541E+02  0.46396909440E+02  0.00000000000E+00 0. -1.
         21    1    1    2  503  502 -0.20134201465E+02 -0.16684329691E+01 -0.18019825034E+02  0.27071827265E+02  0.00000000000E+00 0.  1.
</event>
<event>
 4    1  0.2281973E+005  0.3295429E+02  0.7546771E-02  0.1395545E+00
          2   -1    0    0  502    0  0.00000000000E+00  0.00000000000E+00  0.42177345289E+03  0.42177345289E+03  0.00000000000E+00 0. -1.
         21   -1    0    0  503  502 -0.00000000000E+00 -0.00000000000E+00 -0.83694376052E+02  0.83694376052E+02  0.00000000000E+00 0. -1.
          2    1    1    2  501    0  0.75956248736E+01 -0.32066983540E+02  0.41785548181E+03  0.41915294181E+03  0.00000000000E+00 0. -1.
         21    1    1    2  503  501 -0.75956248736E+01  0.32066983540E+02 -0.79776404971E+02  0.86314887132E+02  0.00000000000E+00 0. -1.
</event>
<event>
 4    1  0.2281973E+005  0.3979345E+02  0.7546771E-02  0.1349700E+00
          2   -1    0    0  502    0  0.00000000000E+00  0.00000000000E+00  0.24706521164E+03  0.24706521164E+03  0.00000000000E+00 0. -1.
         21   -1    0    0  503  502 -0.00000000000E+00 -0.00000000000E+00 -0.28820243834E+02  0.28820243834E+02  0.00000000000E+00 0. -1.
          2    1    1    2  501    0 -0.39740128361E+02 -0.20594175912E+01  0.23076346190E+03  0.23416937108E+03  0.00000000000E+00 0. -1.
         21    1    1    2  503  501  0.39740128361E+02  0.20594175912E+01 -0.12518494094E+02  0.41716084396E+02  0.00000000000E+00 0. -1.
</event>
<event>
 4    1  0.2281973E+005  0.2823259E+02  0.7546771E-02  0.1435604E+00
          2   -1    0    0  502    0  0.00000000000E+00  0.00000000000E+00  0.57504352095E+03  0.57504352095E+03  0.00000000000E+00 0.  1.
         21   -1    0    0  503  502 -0.00000000000E+00 -0.00000000000E+00 -0.22212269077E+01  0.22212269077E+01  0.00000000000E+00 0.  1.
          2    1    1    2  501    0 -0.27987913631E+02 -0.37089200750E+01  0.46338926963E+03  0.46424852677E+03  0.00000000000E+00 0.  1.
         21    1    1    2  503  501  0.27987913631E+02  0.37089200750E+01  0.10943302442E+03  0.11301622109E+03  0.00000000000E+00 0.  1.
</event>
<event>
 4    1  0.2281973E+005  0.2063304E+02  0.7546771E-02  0.1524569E+00
          2   -1    0    0  503    0  0.00000000000E+00  0.00000000000E+00  0.14875089017E+03  0.14875089017E+03  0.00000000000E+00 0. -1.
         21   -1    0    0  501  502 -0.00000000000E+00 -0.00000000000E+00 -0.37967231483E+02  0.37967231483E+02  0.00000000000E+00 0.  1.
          2    1    1    2  501    0  0.14701816342E+02 -0.14476846878E+02  0.14516323709E+03  0.14662226264E+03  0.00000000000E+00 0. -1.
         21    1    1    2  503  502 -0.14701816342E+02  0.14476846878E+02 -0.34379578400E+02  0.40095859016E+02  0.00000000000E+00 0.  1.
</event>
<event>
 4    1  0.2281973E+005  0.2000267E+02  0.7546771E-02  0.1533995E+00
          2   -1    0    0  503    0  0.00000000000E+00  0.00000000000E+00  0.85307317958E+03  0.85307317958E+03  0.00000000000E+00 0.  1.
         21   -1    0    0  501  502 -0.00000000000E+00 -0.00000000000E+00 -0.18568663981E+01  0.18568663981E+01  0.00000000000E+00 0. -1.
          2    1    1    2  501    0  0.19409832847E+02  0.48337756167E+01  0.79516496804E+03  0.79541651567E+03  0.00000000000E+00 0.  1.
         21    1    1    2  503  502 -0.19409832847E+02 -0.48337756167E+01  0.56051345143E+02  0.59513530312E+02  0.00000000000E+00 0. -1.
</event>
<event>
 4    1  0.2281973E+005  0.3296734E+02  0.7546771E-02  0.1395446E+00
          2   -1    0    0  502    0  0.00000000000E+00  0.00000000000E+00  0.14178727082E+04  0.14178727082E+04  0.00000000000E+00 0.  1.
         21   -1    0    0  503  502 -0.00000000000E+00 -0.00000000000E+00 -0.20380454514E+01  0.20380454514E+01  0.00000000000E+00 0. -1.
          2    1    1    2  501    0 -0.31755480766E+02  0.88563598814E+01  0.12686869743E+04  0.12691152368E+04  0.00000000000E+00 0.  1.
         21    1    1    2  503  501  0.31755480766E+02 -0.88563598814E+01  0.14714768846E+03  0.15079551681E+03  0.00000000000E+00 0. -1.
</event>
<event>
 4    1  0.2281973E+005  0.2389128E+02  0.7546771E-02  0.1481600E+00
          2   -1    0    0  502    0  0.00000000000E+00  0.00000000000E+00  0.16281640722E+02  0.16281640722E+02  0.00000000000E+00 0.  1.
         21   -1    0    0  503  502 -0.00000000000E+00 -0.00000000000E+00 -0.35199131584E+02  0.35199131584E+02  0.00000000000E+00 0. -1.
          2    1    1    2  501    0  0.23196075050E+02 -0.57214696984E+01 -0.78257806514E+01  0.25140325297E+02  0.00000000000E+00 0.  1.
         21    1    1    2  503  501 -0.23196075050E+02  0.57214696984E+01 -0.11091710211E+02  0.26340447009E+02  0.00000000000E+00 0. -1.
</event>
<event>
 4    1  0.2281973E+005  0.2425192E+02  0.7546771E-02  0.1477349E+00
          2   -1    0    0  502    0  0.00000000000E+00  0.00000000000E+00  0.15353091045E+04  0.15353091045E+04  0.00000000000E+00 0.  1.
         21   -1    0    0  503  502 -0.00000000000E+00 -0.00000000000E+00 -0.14096041125E+01  0.14096041125E+01  0.00000000000E+00 0.  1.
          2    1    1    2  501    0  0.24030196002E+02  0.32718966864E+01  0.14226405411E+04  0.14228472387E+04  0.00000000000E+00 0.  1.
         21    1    1    2  503  501 -0.24030196002E+02 -0.32718966864E+01  0.11125895931E+03  0.11387146989E+03  0.00000000000E+00 0.  1.
</event>
<event>
 4    1  0.2281973E+005  0.2181381E+02  0.7546771E-02  0.1507956E+00
          2   -1    0    0  502    0  0.00000000000E+00  0.00000000000E+00  0.14873448045E+03  0.14873448045E+03  0.00000000000E+00 0.  1.
         21   -1    0    0  503  502 -0.00000000000E+00 -0.00000000000E+00 -0.15828607520E+03  0.15828607520E+03  0.00000000000E+00 0.  1.
          2    1    1    2  501    0  0.12460616037E+02 -0.17904616121E+02  0.14717518870E+03  0.14878299096E+03  0.00000000000E+00 0.  1.
         21    1    1    2  503  501 -0.12460616037E+02  0.17904616121E+02 -0.15672678345E+03  0.15823756469E+03  0.00000000000E+00 0.  1.
</event>
<event>
 4    1  0.2281973E+005  0.2118650E+02  0.7546771E-02  0.1516619E+00
          2   -1    0    0  502    0  0.00000000000E+00  0.00000000000E+00  0.20453437016E+01  0.20453437016E+01  0.00000000000E+00 0.  1.
         21   -1    0    0  503  502 -0.00000000000E+00 -0.00000000000E+00 -0.36851686291E+03  0.36851686291E+03  0.00000000000E+00 0. -1.
          2    1    1    2  501    0  0.10122275079E+02 -0.18612021023E+02 -0.65398992375E+02  0.68745152433E+02  0.00000000000E+00 0.  1.
         21    1    1    2  503  501 -0.10122275079E+02  0.18612021023E+02 -0.30107252684E+03  0.30181705418E+03  0.00000000000E+00 0. -1.
</event>
<event>
 4    1  0.2281973E+005  0.2988211E+02  0.7546771E-02  0.1420624E+00
          2   -1    0    0  503    0  0.00000000000E+00  0.00000000000E+00  0.19654402905E+03  0.19654402905E+03  0.00000000000E+00 0.  1.
         21   -1    0    0  501  502 -0.00000000000E+00 -0.00000000000E+00 -0.11326328473E+02  0.11326328473E+02  0.00000000000E+00 0. -1.
          2    1    1    2  501    0 -0.98482454398E+01 -0.28212626747E+02  0.17304157525E+03  0.17560275343E+03  0.00000000000E+00 0.  1.
         21    1    1    2  503  502  0.98482454398E+01  0.28212626747E+02  0.12176125328E+02  0.32267604098E+02  0.00000000000E+00 0. -1.
</event>
<event>
 4    1  0.2281973E+005  0.2063117E+02  0.7546771E-02  0.1524596E+00
          2   -1    0    0  502    0  0.00000000000E+00  0.00000000000E+00  0.26403750712E+02  0.26403750712E+02  0.00000000000E+00 0. -1.
         21   -1    0    0  503  502 -0.00000000000E+00 -0.00000000000E+00 -0.26926743990E+02  0.26926743990E+02  0.00000000000E+00 0.  1.
          2    1    1    2  501    0 -0.20336842864E+02  0.34724566177E+01  0.16630789923E+02  0.26499590678E+02  0.00000000000E+00 0. -1.
         21    1    1    2  503  501  0.20336842864E+02 -0.34724566177E+01 -0.17153783201E+02  0.26830904024E+02  0.00000000000E+00 0.  1.
</event>
<event>
 4    1  0.2281973E+005  0.2684281E+02  0.7546771E-02  0.1449194E+00
          2   -1    0    0  502    0  0.00000000000E+00  0.00000000000E+00  0.31099338606E+03  0.31099338606E+03  0.00000000000E+00 0. -1.
         21   -1    0    0  503  502 -0.00000000000E+00 -0.00000000000E+00 -0.35005006948E+03  0.35005006948E+03  0.00000000000E+00 0.  1.
          2    1    1    2  501    0 -0.16717012702E+02 -0.21001857561E+02  0.30989775304E+03  0.31105811976E+03  0.00000000000E+00 0. -1.
         21    1    1    2  503  501  0.16717012702E+02  0.21001857561E+02 -0.34895443646E+03  0.34998533578E+03  0.00000000000E+00 0.  1.
</event>
<event>
 4    1  0.2281973E+005  0.2164568E+02  0.7546771E-02  0.1510242E+00
          2   -1    0    0  502    0  0.00000000000E+00  0.00000000000E+00  0.25608482335E+02  0.25608482335E+02  0.00000000000E+00 0.  1.
         21   -1    0    0  503  502 -0.00000000000E+00 -0.00000000000E+00 -0.29915961726E+02  0.29915961726E+02  0.00000000000E+00 0. -1.
          2    1    1    2  501    0 -0.18657656806E+02 -0.10973939264E+02  0.15148531372E+02  0.26419945177E+02  0.00000000000E+00 0.  1.
         21    1    1    2  503  501  0.18657656806E+02  0.10973939264E+02 -0.19456010763E+02  0.29104498883E+02  0.00000000000E+00 0. -1.
</event>
<event>
 4    1  0.2281973E+005  0.2177861E+02  0.7546771E-02  0.1508432E+00
          2   -1    0    0  503    0  0.00000000000E+00  0.00000000000E+00  0.16603176864E+03  0.16603176864E+03  0.00000000000E+00 0.  1.
         21   -1    0    0  501  502 -0.00000000000E+00 -0.00000000000E+00 -0.16600754804E+02  0.16600754804E+02  0.00000000000E+00 0.  1.
          2    1    1    2  501    0 -0.51855293120E+01 -0.21152261520E+02  0.15780405630E+03  0.15929980561E+03  0.00000000000E+00 0.  1.
         21    1    1    2  503  502  0.51855293120E+01  0.21152261520E+02 -0.83730424619E+01  0.23332717838E+02  0.00000000000E+00 0.  1.
</event>
<event>
 4    1  0.2281973E+005  0.2257239E+02  0.7546771E-02  0.1497939E+00
          2   -1    0    0  502    0  0.00000000000E+00  0.00000000000E+00  0.85403646247E+01  0.85403646247E+01  0.00000000000E+00 0.  1.
         21   -1    0    0  503  502 -0.00000000000E+00 -0.00000000000E+00 -0.13130540919E+03  0.13130540919E+03  0.00000000000E+00 0.  1.
          2    1    1    2  501    0  0.20011685432E+02  0.10442470405E+02 -0.97320679349E+01  0.24581006657E+02  0.00000000000E+00 0.  1.
         21    1    1    2  503  501 -0.20011685432E+02 -0.10442470405E+02 -0.11303297663E+03  0.11526476716E+03  0.00000000000E+00 0.  1.
</event>
<event>
 4    1  0.2281973E+005  0.2694256E+02  0.7546771E-02  0.1448186E+00
          2   -1    0    0  502    0  0.00000000000E+00  0.00000000000E+00  0.72371975482E+03  0.72371975482E+03  0.00000000000E+00 0. -1.
         21   -1    0    0  503  502 -0.00000000000E+00 -0.00000000000E+00 -0.21226239504E+02  0.21226239504E+02  0.00000000000E+00 0.  1.
          2    1    1    2  501    0 -0.25687116281E+02  0.81285741292E+01  0.71481292892E+03  0.71532050510E+03  0.00000000000E+00 0. -1.
         21    1    1    2  503  501  0.25687116281E+02 -0.81285741292E+01 -0.12319413607E+02  0.29625489225E+02  0.00000000000E+00 0.  1.
</event>
<event>
 4    1  0.2281973E+005  0.4690537E+02  0.7546771E-02  0.1312178E+00
          2   -1    0    0  502    0  0.00000000000E+00  0.00000000000E+00  0.48322152439E+03  0.48322152439E+03  0.00000000000E+00 0. -1.
         21   -1    0    0  503  502 -0.00000000000E+00 -0.00000000000E+00 -0.21605688296E+03  0.21605688296E+03  0.00000000000E+00 0. -1.
          2    1    1    2  501    0 -0.44194559358E+02 -0.15714803467E+02  0.47951789732E+03  0.48180652546E+03  0.00000000000E+00 0. -1.
         21    1    1    2  503  501  0.44194559358E+02  0.15714803467E+02 -0.21235325589E+03  0.21747188189E+03  0.00000000000E+00 0. -1.
</event>
<event>
 4    1  0.2281973E+005  0.2310996E+02  0.7546771E-02  0.1491122E+00
          2   -1    0    0  503    0  0.00000000000E+00  0.00000000000E+00  0.48941645087E+01  0.48941645087E+01  0.00000000000E+00 0.  1.
         21   -1    0    0  501  502 -0.00000000000E+00 -0.00000000000E+00 -0.11576263218E+03  0.11576263218E+03  0.00000000000E+00 0.  1.
          2    1    1    2  501    0  0.23080323698E+02  0.11699063171E+01 -0.40987084930E+02  0.47053279948E+02  0.00000000000E+00 0.  1.
         21    1    1    2  503  502 -0.23080323698E+02 -0.11699063171E+01 -0.69881382739E+02  0.73603516739E+02  0.00000000000E+00 0.  1.
</event>
<event>
 4    1  0.2281973E+005  0.2158199E+02  0.7546771E-02  0.1511115E+00
          2   -1    0    0  503    0  0.00000000000E+00  0.00000000000E+00  0.69751378567E+03  0.69751378567E+03  0.00000000000E+00 0. -1.
         21   -1    0    0  501  502 -0.00000000000E+00 -0.00000000000E+00 -0.45082265343E+01  0.45082265343E+01  0.00000000000E+00 0. -1.
          2    1    1    2  501    0  0.10905246072E+02  0.18624118183E+02  0.67047593146E+03  0.67082319342E+03  0.00000000000E+00 0. -1.
         21    1    1    2  503  502 -0.10905246072E+02 -0.18624118183E+02  0.22529627676E+02  0.31198818779E+02  0.00000000000E+00 0. -1.
</event>
<event>
 4    1  0.2281973E+005  0.2418774E+02  0.7546771E-02  0.1478099E+00
          2   -1    0    0  503    0  0.00000000000E+00  0.00000000000E+00  0.11287574605E+03  0.11287574605E+03  0.00000000000E+00 0.  1.
         21   -1    0    0  501  502 -0.00000000000E+00 -0.00000000000E+00 -0.58335439853E+01  0.58335439853E+01  0.00000000000E+00 0. -1.
          2    1    1    2  501    0  0.71750969934E+01  0.23099019838E+02  0.73340572958E+02  0.77226202653E+02  0.00000000000E+00 0.  1.
         21    1    1    2  503  502 -0.71750969934E+01 -0.23099019838E+02  0.33701629108E+02  0.41483087384E+02  0.00000000000E+00 0. -1.
</event>
<event>
 4    1  0.2281973E+005  0.2029945E+02  0.7546771E-02  0.1529506E+00
          2   -1    0    0  503    0  0.00000000000E+00  0.00000000000E+00  0.13135562706E+04  0.13135562706E+04  0.00000000000E+00 0. -1.
         21   -1    0    0  501  502 -0.00000000000E+00 -0.00000000000E+00 -0.31523199872E+00  0.31523199872E+00  0.00000000000E+00 0. -1.
          2    1    1    2  501    0  0.20176175755E+02 -0.22337543408E+01  0.61088187557E+03  0.61121905535E+03  0.00000000000E+00 0. -1.
         21    1    1    2  503  502 -0.20176175755E+02  0.22337543408E+01  0.70235916304E+03  0.70265244726E+03  0.00000000000E+00 0. -1.
</event>
<event>
 4    1  0.2281973E+005  0.2546096E+02  0.7546771E-02  0.1463712E+00
          2   -1    0    0  502    0  0.00000000000E+00  0.00000000000E+00  0.72445835705E+03  0.72445835705E+03  0.00000000000E+00 0. -1.
         21   -1    0    0  503  502 -0.00000000000E+00 -0.00000000000E+00 -0.18278402259E+01  0.18278402259E+01  0.00000000000E+00 0. -1.
          2    1    1    2  501    0  0.15259852426E+01 -0.25415188275E+02  0.62076546237E+03  0.62128738897E+03  0.00000000000E+00 0. -1.
         21    1    1    2  503  501 -0.15259852426E+01  0.25415188275E+02  0.10186505445E+03  0.10499880830E+03  0.00000000000E+00 0. -1.
</event>
<event>
 4    1  0.2281973E+005  0.2233593E+02  0.7546771E-02  0.1501010E+00
          2   -1    0    0  502    0  0.00000000000E+00  0.00000000000E+00  0.27748542611E+03  0.27748542611E+03  0.00000000000E+00 0. -1.
         21   -1    0    0  503  502 -0.00000000000E+00 -0.00000000000E+00 -0.33488854735E+01  0.33488854735E+01  0.00000000000E+00 0. -1.
          2    1    1    2  501    0 -0.22287681686E+02 -0.14673113087E+01  0.23262747400E+03  0.23369731581E+03  0.00000000000E+00 0. -1.
         21    1    1    2  503  501  0.22287681686E+02  0.14673113087E+01  0.41509066632E+02  0.47136995768E+02  0.00000000000E+00 0. -1.
</event>
<event>
 4    1  0.2281973E+005  0.4106333E+02  0.7546771E-02  0.1342365E+00
          2   -1    0    0  503    0  0.00000000000E+00  0.00000000000E+00  0.53369664051E+03  0.53369664051E+03  0.00000000000E+00 0.  1.
         21   -1    0    0  501  502 -0.00000000000E+00 -0.00000000000E+00 -0.22025301970E+02  0.22025301970E+02  0.00000000000E+00 0. -1.
          2    1    1    2  501    0 -0.39591550631E+02 -0.10895234817E+02  0.51299638579E+03  0.51463724006E+03  0.00000000000E+00 0.  1.
         21    1    1    2  503  502  0.39591550631E+02  0.10895234817E+02 -0.13250472458E+01  0.41084702425E+02  0.00000000000E+00 0. -1.
</event>
<event>
 4    1  0.2281973E+005  0.3138051E+02  0.7546771E-02  0.1407968E+00
          2   -1    0    0  502    0  0.00000000000E+00  0.00000000000E+00  0.12171312316E+04  0.12171312316E+04  0.00000000000E+00 0. -1.
         21   -1    0    0  503  502 -0.00000000000E+00 -0.00000000000E+00 -0.27924940839E+01  0.27924940839E+01  0.00000000000E+00 0.  1.
          2    1    1    2  501    0  0.92840608267E+01 -0.29975696081E+02  0.11212308724E+04  0.11216699182E+04  0.00000000000E+00 0. -1.
         21    1    1    2  503  501 -0.92840608267E+01  0.29975696081E+02  0.93107865085E+02  0.98253807466E+02  0.00000000000E+00 0.  1.
</event>
<event>
 4    1  0.2281973E+005  0.2251566E+02  0.7546771E-02  0.1498671E+00
          2   -1    0    0  502    0  0.00000000000E+00  0.00000000000E+00  0.37362873980E+03  0.37362873980E+03  0.00000000000E+00 0. -1.
         21   -1    0    0  503  502 -0.00000000000E+00 -0.00000000000E+00 -0.77849309376E+02  0.77849309376E+02  0.00000000000E+00 0.  1.
          2    1    1    2  501    0 -0.22322204496E+02  0.29452078818E+01  0.37165288102E+03  0.37233428399E+03  0.00000000000E+00 0. -1.
         21    1    1    2  503  501  0.22322204496E+02 -0.29452078818E+01 -0.75873450595E+02  0.79143765189E+02  0.00000000000E+00 0.  1.
</event>
<event>
 4    1  0.2281973E+005  0.3938388E+02  0.7546771E-02  0.1352135E+00
          2   -1    0    0  502    0  0.00000000000E+00  0.00000000000E+00  0.38218066610E+03  0.38218066610E+03  0.00000000000E+00 0.  1.
         21   -1    0    0  503  502 -0.00000000000E+00 -0.00000000000E+00 -0.70761293036E+01  0.70761293036E+01  0.00000000000E+00 0.  1.
          2    1    1    2  501    0 -0.95001648964E+00  0.39372423743E+02  0.31465046231E+03  0.31710566648E+03  0.00000000000E+00 0.  1.
         21    1    1    2  503  501  0.95001648964E+00 -0.39372423743E+02  0.60454074485E+02  0.72151128921E+02  0.00000000000E+00 0.  1.
</event>
<event>
 4    1  0.2281973E+005  0.2768927E+02  0.7546771E-02  0.1440804E+00
          2   -1    0    0  503    0  0.00000000000E+00  0.00000000000E+00  0.36795005854E+02  0.36795005854E+02  0.00000000000E+00 0. -1.
         21   -1    0    0  501  502 -0.00000000000E+00 -0.00000000000E+00 -0.41133078344E+02  0.41133078344E+02  0.00000000000E+00 0.  1.
          2    1    1    2  501    0 -0.36606944744E+01  0.27446219318E+02  0.25200977454E+02  0.37440418046E+02  0.00000000000E+00 0. -1.
         21    1    1    2  503  502  0.36606944744E+01 -0.27446219318E+02 -0.29539049943E+02  0.40487666152E+02  0.00000000000E+00 0.  1.
</event>
<event>
 4    1  0.2281973E+005  0.2401479E+02  0.7546771E-02  0.1480134E+00
          2   -1    0    0  502    0  0.00000000000E+00  0.00000000000E+00  0.62017053912E+03  0.62017053912E+03  0.00000000000E+00 0.  1.
         21   -1    0    0  503  502 -0.00000000000E+00 -0.00000000000E+00 -0.23479770295E+02  0.23479770295E+02  0.00000000000E+00 0. -1.
          2    1    1    2  501    0 -0.15697415031E+02 -0.18174194636E+02  0.61373317563E+03  0.61420283381E+03  0.00000000000E+00 0.  1.
         21    1    1    2  503  501  0.15697415031E+02  0.18174194636E+02 -0.17042406810E+02  0.29447475600E+02  0.00000000000E+00 0. -1.
</event>
<event>
 4    1  0.2281973E+005  0.3254979E+02  0.7546771E-02  0.1398659E+00
          2   -1    0    0  503    0  0.00000000000E+00  0.00000000000E+00  0.55400102765E+03  0.55400102765E+03  0.00000000000E+00 0. -1.
         21   -1    0    0  501  502 -0.00000000000E+00 -0.00000000000E+00 -0.27593711051E+03  0.27593711051E+03  0.00000000000E+00 0.  1.
          2    1    1    2  501    0 -0.24919780020E+02  0.20940234534E+02  0.55256051892E+03  0.55351839710E+03  0.00000000000E+00 0. -1.
         21    1    1    2  503  502  0.24919780020E+02 -0.20940234534E+02 -0.27449660179E+03  0.27641974106E+03  0.00000000000E+00 0.  1.
</event>
<event>
 4    1  0.2281973E+005  0.2070079E+02  0.7546771E-02  0.1523580E+00
          2   -1    0    0  503    0  0.00000000000E+00  0.00000000000E+00  0.78870239346E+03  0.78870239346E+03  0.00000000000E+00 0.  1.
         21   -1    0    0  501  502 -0.00000000000E+00 -0.00000000000E+00 -0.82986314682E+02  0.82986314682E+02  0.00000000000E+00 0. -1.
          2    1    1    2  501    0  0.20570841804E+02 -0.23158268254E+01  0.78727327538E+03  0.78754538455E+03  0.00000000000E+00 0.  1.
         21    1    1    2  503  502 -0.20570841804E+02  0.23158268254E+01 -0.81557196609E+02  0.84143323592E+02  0.00000000000E+00 0. -1.
</event>
<event>
 4    1  0.2281973E+005  0.2051703E+02  0.7546771E-02  0.1526273E+00
          2   -1    0    0  503    0  0.00000000000E+00  0.00000000000E+00  0.78681914780E+03  0.78681914780E+03  0.00000000000E+00 0. -1.
         21   -1    0    0  501  502 -0.00000000000E+00 -0.00000000000E+00 -0.30765430766E+02  0.30765430766E+02  0.00000000000E+00 0.  1.
          2    1    1    2  501    0 -0.14122496633E+02  0.14883001738E+02  0.78324917922E+03  0.78351785264E+03  0.00000000000E+00 0. -1.
         21    1    1    2  503  502  0.14122496633E+02 -0.14883001738E+02 -0.27195462188E+02  0.34066725928E+02  0.00000000000E+00 0.  1.
</event>
<event>
 4    1  0.2281973E+005  0.2771985E+02  0.7546771E-02  0.1440508E+00
          2   -1    0    0  503    0  0.00000000000E+00  0.00000000000E+00  0.17190495247E+04  0.17190495247E+04  0.00000000000E+00 0.  1.
         21   -1    0    0  501  502 -0.00000000000E+00 -0.00000000000E+00 -0.11521552276E+03  0.11521552276E+03  0.00000000000E+00 0. -1.
          2    1    1    2  501    0 -0.58121228053E+01  0.27103673223E+02  0.17172687614E+04  0.17174924713E+04  0.00000000000E+00 0.  1.
         21    1    1    2  503  502  0.58121228053E+01 -0.27103673223E+02 -0.11343475952E+03  0.11677257616E+03  0.00000000000E+00 0. -1.
</event>
<event>
 4    1  0.2281973E+005  0.2071140E+02  0.7546771E-02  0.1523425E+00
          2   -1    0    0  502    0  0.00000000000E+00  0.00000000000E+00  0.27197949187E+02  0.27197949187E+02  0.00000000000E+00 0. -1.
         21   -1    0    0  503  502 -0.00000000000E+00 -0.00000000000E+00 -0.53258706459E+02  0.53258706459E+02  0.00000000000E+00 0. -1.
          2    1    1    2  501    0  0.10012171497E+01  0.20687186163E+02  0.20719806303E+02  0.29296287826E+02  0.00000000000E+00 0. -1.
         21    1    1    2  503  501 -0.10012171497E+01 -0.20687186163E+02 -0.46780563575E+02  0.51160367820E+02  0.00000000000E+00 0. -1.
</event>
<event>
 4    1  0.2281973E+005  0.2450719E+02  0.7546771E-02  0.1474392E+00
          2   -1    0    0  503    0  0.00000000000E+00  0.00000000000E+00  0.29243212028E+03  0.29243212028E+03  0.00000000000E+00 0.  1.
         21   -1    0    0  501  502 -0.00000000000E+00 -0.00000000000E+00 -0.24206244542E+01  0.24206244542E+01  0.00000000000E+00 0.  1.
          2    1    1    2  501    0 -0.15239687089E+02  0.19192564584E+02  0.20239485379E+03  0.20387319450E+03  0.00000000000E+00 0.  1.
         21    1    1    2  503  502  0.15239687089E+02 -0.19192564584E+02  0.87616642034E+02  0.90979550226E+02  0.00000000000E+00 0.  1.
</event>
<event>
 4    1  0.2281973E+005  0.2583020E+02  0.7546771E-02  0.1459727E+00
          2   -1    0    0  503    0  0.00000000000E+00  0.00000000000E+00  0.90066860294E+03  0.90066860294E+03  0.00000000000E+00 0.  1.
         21   -1    0    0  501  502 -0.00000000000E+00 -0.00000000000E+00 -0.11188472636E+01  0.11188472636E+01  0.00000000000E+00 0. -1.
          2    1    1    2  501    0  0.23522592364E+02  0.10671768802E+02  0.71187802391E+03  0.71234648867E+03  0.00000000000E+00 0.  1.
         21    1    1    2  503  502 -0.23522592364E+02 -0.10671768802E+02  0.18767173176E+03  0.18944096153E+03  0.00000000000E+00 0. -1.
</event>
<event>
 4    1  0.2281973E+005  0.3214736E+02  0.7546771E-02  0.1401810E+00
          2   -1    0    0  503    0  0.00000000000E+00  0.00000000000E+00  0.23494953642E+03  0.23494953642E+03  0.00000000000E+00 0. -1.
         21   -1    0    0  501  502 -0.00000000000E+00 -0.00000000000E+00 -0.37957524934E+02  0.37957524934E+02  0.00000000000E+00 0. -1.
          2    1    1    2  501    0  0.31936338134E+02  0.36774040159E+01  0.22679987248E+03  0.22906687921E+03  0.00000000000E+00 0. -1.
         21    1    1    2  503  502 -0.31936338134E+02 -0.36774040159E+01 -0.29807860993E+02  0.43840182147E+02  0.00000000000E+00 0. -1.
</event>
<event>
 4    1  0.2281973E+005  0.3239366E+02  0.7546771E-02  0.1399875E+00
          2   -1    0    0  503    0  0.00000000000E+00  0.00000000000E+00  0.46831563081E+01  0.46831563081E+01  0.00000000000E+00 0.  1.
         21   -1    0    0  501  502 -0.00000000000E+00 -0.00000000000E+00 -0.22588852301E+03  0.22588852301E+03  0.00000000000E+00 0.  1.
          2    1    1    2  501    0 -0.32230506219E+02  0.32470738240E+01 -0.10025515829E+03  0.10535865310E+03  0.00000000000E+00 0.  1.
         21    1    1    2  503  502  0.32230506219E+02 -0.32470738240E+01 -0.12095020841E+03  0.12521302622E+03  0.00000000000E+00 0.  1.
</event>
<event>
 4    1  0.2281973E+005  0.2712889E+02  0.7546771E-02  0.1446318E+00
          2   -1    0    0  503    0  0.00000000000E+00  0.00000000000E+00  0.14462441899E+04  0.14462441899E+04  0.00000000000E+00 0.  1.
         21   -1    0    0  501  502 -0.00000000000E+00 -0.00000000000E+00 -0.34861629280E+01  0.34861629280E+01  0.00000000000E+00 0.  1.
          2    1    1    2  501    0 -0.27062356196E+02 -0.18988897295E+01  0.13912525731E+04  0.13915170495E+04  0.00000000000E+00 0.  1.
         21    1    1    2  503  502  0.27062356196E+02  0.18988897295E+01  0.51505453861E+02  0.58213303312E+02  0.00000000000E+00 0.  1.
</event>
<event>
 4    1  0.2281973E+005  0.2447689E+02  0.7546771E-02  0.1474741E+00
          2   -1    0    0  502    0  0.00000000000E+00  0.00000000000E+00  0.80821654852E+03  0.80821654852E+03  0.00000000000E+00 0.  1.
         21   -1    0    0  503  502 -0.00000000000E+00 -0.00000000000E+00 -0.36855553107E+02  0.36855553107E+02  0.00000000000E+00 0.  1.
          2    1    1    2  501    0  0.18517482900E+02 -0.16006908085E+02  0.80394568105E+03  0.80431820591E+03  0.00000000000E+00 0.  1.
         21    1    1    2  503  501 -0.18517482900E+02  0.16006908085E+02 -0.32584685627E+02  0.40753895726E+02  0.00000000000E+00 0.  1.
</event>
<event>
 4    1  0.2281973E+005  0.2077784E+02  0.7546771E-02  0.1522460E+00
          2   -1    0    0  503    0  0.00000000000E+00  0.00000000000E+00  0.12153807918E+03  0.12153807918E+03  0.00000000000E+00 0. -1.
         21   -1    0    0  501  502 -0.00000000000E+00 -0.00000000000E+00 -0.12582235533E+03  0.12582235533E+03  0.00000000000E+00 0.  1.
          2    1    1    2  501    0  0.19703381118E+02  0.65951085415E+01  0.11977975458E+03  0.12156853331E+03  0.00000000000E+00 0. -1.
         21    1    1    2  503  502 -0.19703381118E+02 -0.65951085415E+01 -0.12406403073E+03  0.12579190119E+03  0.00000000000E+00 0.  1.
</event>
<event>
 4    1  0.2281973E+005  0.2599822E+02  0.7546771E-02  0.1457939E+00
          2   -1    0    0  503    0  0.00000000000E+00  0.00000000000E+00  0.17965146768E+04  0.17965146768E+04  0.00000000000E+00 0.  1.
         21   -1    0    0  501  502 -0.00000000000E+00 -0.00000000000E+00 -0.10503308872E+02  0.10503308872E+02  0.00000000000E+00 0. -1.
          2    1    1    2  501    0  0.24324824271E+02  0.91766299921E+01  0.17801850833E+04  0.17803749152E+04  0.00000000000E+00 0.  1.
         21    1    1    2  503  502 -0.24324824271E+02 -0.91766299921E+01  0.58262845908E+01  0.26643070506E+02  0.00000000000E+00 0. -1.
</event>
<event>
 4    1  0.2281973E+005  0.2140800E+02  0.7546771E-02  0.1513519E+00
          2   -1    0    0  503    0  0.00000000000E+00  0.00000000000E+00  0.20589877403E+03  0.20589877403E+03  0.00000000000E+00 0. -1.
         21   -1    0    0  501  502 -0.00000000000E+00 -0.00000000000E+00 -0.16777870469E+02  0.16777870469E+02  0.00000000000E+00 0.  1.
          2    1    1    2  501    0 -0.18855318149E+02 -0.10138019775E+02  0.19825065084E+03  0.19940316705E+03  0.00000000000E+00 0. -1.
         21    1    1    2  503  502  0.18855318149E+02  0.10138019775E+02 -0.91297472817E+01  0.23273477456E+02  0.00000000000E+00 0.  1.
</event>
<event>
 4    1  0.2281973E+005  0.2043071E+02  0.7546771E-02  0.1527550E+00
          2   -1    0    0  503    0  0.00000000000E+00  0.00000000000E+00  0.77328992799E+03  0.77328992799E+03  0.00000000000E+00 0. -1.
         21   -1    0    0  501  502 -0.00000000000E+00 -0.00000000000E+00 -0.29213477027E+03  0.29213477027E+03  0.00000000000E+00 0.  1.
          2    1    1    2  501    0  0.64816837274E+01  0.19375280661E+02  0.77279754318E+03  0.77306756268E+03  0.00000000000E+00 0. -1.
         21    1    1    2  503  502 -0.64816837274E+01 -0.19375280661E+02 -0.29164238546E+03  0.29235713558E+03  0.00000000000E+00 0.  1.
</event>
<event>
 4    1  0.2281973E+005  0.2423523E+02  0.7546771E-02  0.1477544E+00
          2   -1    0    0  503    0  0.00000000000E+00  0.00000000000E+00  0.18191600723E+04  0.18191600723E+04  0.00000000000E+00 0. -1.
         21   -1    0    0  501  502 -0.00000000000E+00 -0.00000000000E+00 -0.34772227561E+00  0.34772227561E+00  0.00000000000E+00 0. -1.
          2    1    1    2  501    0  0.23579458181E+02  0.55996184709E+01  0.11526365582E+04  0.11528913140E+04  0.00000000000E+00 0. -1.
         21    1    1    2  503  502 -0.23579458181E+02 -0.55996184709E+01  0.66617579185E+03  0.66661648061E+03  0.00000000000E+00 0. -1.
</event>
<event>
 4    1  0.2281973E+005  0.2091918E+02  0.7546771E-02  0.1520422E+00
          2   -1    0    0  502    0  0.00000000000E+00  0.00000000000E+00  0.45967753339E+01  0.45967753339E+01  0.00000000000E+00 0.  1.
         21   -1    0    0  503  502 -0.00000000000E+00 -0.00000000000E+00 -0.39828131557E+03  0.39828131557E+03  0.00000000000E+00 0. -1.
          2    1    1    2  501    0 -0.88725224163E+01  0.18944408146E+02 -0.21119359461E+02  0.29726076063E+02  0.00000000000E+00 0.  1.
         21    1    1    2  503  501  0.88725224163E+01 -0.18944408146E+02 -0.37256518078E+03  0.37315201484E+03  0.00000000000E+00 0. -1.
</event>
<event>
 4    1  0.2281973E+005  0.2207671E+02  0.7546771E-02  0.1504429E+00
          2   -1    0    0  503    0  0.00000000000E+00  0.00000000000E+00  0.35161448026E+03  0.35161448026E+03  0.00000000000E+00 0. -1.
         21   -1    0    0  501  502 -0.00000000000E+00 -0.00000000000E+00 -0.81194026925E+01  0.81194026925E+01  0.00000000000E+00 0. -1.
          2    1    1    2  501    0  0.17108216333E+02  0.13953143477E+02  0.33554327919E+03  0.33626875187E+03  0.00000000000E+00 0. -1.
         21    1    1    2  503  502 -0.17108216333E+02 -0.13953143477E+02  0.79517983773E+01  0.23465131076E+02  0.00000000000E+00 0. -1.
</event>
<event>
 4    1  0.2281973E+005  0.6338841E+02  0.7546771E-02  0.1248735E+00
          2   -1    0    0  502    0  0.00000000000E+00  0.00000000000E+00  0.18165491292E+04  0.18165491292E+04  0.00000000000E+00 0. -1.
         21   -1    0    0  503  502 -0.00000000000E+00 -0.00000000000E+00 -0.79901832935E+02  0.79901832935E+02  0.00000000000E+00 0.  1.
          2    1    1    2  501    0 -0.92133417573E+01  0.62715267940E+02  0.18033320710E+04  0.18044458010E+04  0.00000000000E+00 0. -1.
         21    1    1    2  503  501  0.92133417573E+01 -0.62715267940E+02 -0.66684774710E+02  0.92005161145E+02  0.00000000000E+00 0.  1.
</event>
<event>
 4    1  0.2281973E+005  0.2569864E+02  0.7546771E-02  0.1461137E+00
          2   -1    0    0  502    0  0.00000000000E+00  0.00000000000E+00  0.11942461765E+04  0.11942461765E+04  0.00000000000E+00 0. -1.
         21   -1    0    0  503  502 -0.00000000000E+00 -0.00000000000E+00 -0.67738873508E+00  0.67738873508E+00  0.00000000000E+00 0. -1.
          2    1    1    2  501    0 -0.23156779822E+02 -0.11143781664E+02  0.85280709530E+03  0.85319421125E+03  0.00000000000E+00 0. -1.
         21    1    1    2  503  501  0.23156779822E+02  0.11143781664E+02  0.34076169247E+03  0.34172935399E+03  0.00000000000E+00 0. -1.
</event>
<event>
 4    1  0.2281973E+005  0.2450673E+02  0.7546771E-02  0.1474398E+00
          2   -1    0    0  503    0  0.00000000000E+00  0.00000000000E+00  0.14325646446E+03  0.14325646446E+03  0.00000000000E+00 0.  1.
         21   -1    0    0  501  502 -0.00000000000E+00 -0.00000000000E+00 -0.10141281102E+02  0.10141281102E+02  0.00000000000E+00 0.  1.
          2    1    1    2  501    0 -0.22547033135E+02 -0.96026724740E+01  0.12530143414E+03  0.12767548480E+03  0.00000000000E+00 0.  1.
         21    1    1    2  503  502  0.22547033135E+02  0.96026724740E+01  0.78137492202E+01  0.25722260762E+02  0.00000000000E+00 0.  1.
</event>
<event>
 4    1  0.2281973E+005  0.2199770E+02  0.7546771E-02  0.1505483E+00
          2   -1    0    0  503    0  0.00000000000E+00  0.00000000000E+00  0.30610387238E+03  0.30610387238E+03  0.00000000000E+00 0.  1.
         21   -1    0    0  501  502 -0.00000000000E+00 -0.00000000000E+00 -0.24821954243E+01  0.24821954243E+01  0.00000000000E+00 0.  1.
          2    1    1    2  501    0 -0.16174284941E+02 -0.14909433601E+02  0.24478844718E+03  0.24577486156E+03  0.00000000000E+00 0.  1.
         21    1    1    2  503  502  0.16174284941E+02  0.14909433601E+02  0.58833229778E+02  0.62811206243E+02  0.00000000000E+00 0.  1.
</event>
<event>
 4    1  0.2281973E+005  0.2016607E+02  0.7546771E-02  0.1531512E+00
          2   -1    0    0  502    0  0.00000000000E+00  0.00000000000E+00  0.25490977529E+03  0.25490977529E+03  0.00000000000E+00 0.  1.
         21   -1    0    0  503  502 -0.00000000000E+00 -0.00000000000E+00 -0.20829952195E+03  0.20829952195E+03  0.00000000000E+00 0. -1.
          2    1    1    2  501    0  0.19218361440E+02  0.61094304109E+01  0.25402114892E+03  0.25482035761E+03  0.00000000000E+00 0.  1.
         21    1    1    2  503  501 -0.19218361440E+02 -0.61094304109E+01 -0.20741089557E+03  0.20838893962E+03  0.00000000000E+00 0. -1.
</event>
<event>
 4    1  0.2281973E+005  0.2225691E+02  0.7546771E-02  0.1502046E+00
          2   -1    0    0  502    0  0.00000000000E+00  0.00000000000E+00  0.15384230939E+01  0.15384230939E+01  0.00000000000E+00 0. -1.
         21   -1    0    0  503  502 -0.00000000000E+00 -0.00000000000E+00 -0.43202618990E+03  0.43202618990E+03  0.00000000000E+00 0. -1.
          2    1    1    2  501    0 -0.19084907202E+02  0.11451478024E+02 -0.10584329441E+03  0.10815809264E+03  0.00000000000E+00 0. -1.
         21    1    1    2  503  501  0.19084907202E+02 -0.11451478024E+02 -0.32464447239E+03  0.32540652035E+03  0.00000000000E+00 0. -1.
</event>
<event>
 4    1  0.2281973E+005  0.2271191E+02  0.7546771E-02  0.1496148E+00
          2   -1    0    0  502    0  0.00000000000E+00  0.00000000000E+00  0.46151051098E+01  0.46151051098E+01  0.00000000000E+00 0.  1.
         21   -1    0    0  503  502 -0.00000000000E+00 -0.00000000000E+00 -0.33608805751E+03  0.33608805751E+03  0.00000000000E+00 0.  1.
          2    1    1    2  501    0 -0.18362000613E+02  0.13366672252E+02 -0.26564561926E+02  0.34950063576E+02  0.00000000000E+00 0.  1.
         21    1    1    2  503  501  0.18362000613E+02 -0.13366672252E+02 -0.30490839047E+03  0.30575309904E+03  0.00000000000E+00 0.  1.
</event>
<event>
 4    1  0.2281973E+005  0.2060898E+02  0.7546771E-02  0.1524922E+00
          2   -1    0    0  502    0  0.00000000000E+00  0.00000000000E+00  0.16024720429E+04  0.16024720429E+04  0.00000000000E+00 0. -1.
         21   -1    0    0  503  502 -0.00000000000E+00 -0.00000000000E+00 -0.38958101153E+00  0.38958101153E+00  0.00000000000E+00 0.  1.
          2    1    1    2  501    0 -0.81223619577E+01 -0.18940884057E+02  0.12541596722E+04  0.12543289893E+04  0.00000000000E+00 0. -1.
         21    1    1    2  503  501  0.81223619577E+01  0.18940884057E+02  0.34792278965E+03  0.34853263464E+03  0.00000000000E+00 0.  1.
</event>
<event>
 4    1  0.2281973E+005  0.3332059E+02  0.7546771E-02  0.1392771E+00
          2   -1    0    0  503    0  0.00000000000E+00  0.00000000000E+00  0.10607847389E+04  0.10607847389E+04  0.00000000000E+00 0. -1.
         21   -1    0    0  501  502 -0.00000000000E+00 -0.00000000000E+00 -0.12402579896E+01  0.12402579896E+01  0.00000000000E+00 0.  1.
          2    1    1    2  501    0 -0.32447131307E+02  0.75792579576E+01  0.31996535451E+03  0.32169564742E+03  0.00000000000E+00 0. -1.
         21    1    1    2  503  502  0.32447131307E+02 -0.75792579576E+01  0.73957912642E+03  0.74032934949E+03  0.00000000000E+00 0.  1.
</event>
<event>
 4    1  0.2281973E+005  0.2252185E+02  0.7546771E-02  0.1498591E+00
          2   -1    0    0  502    0  0.00000000000E+00  0.00000000000E+00  0.83713901960E+02  0.83713901960E+02  0.00000000000E+00 0. -1.
         21   -1    0    0  503  502 -0.00000000000E+00 -0.00000000000E+00 -0.73897324287E+01  0.73897324287E+01  0.00000000000E+00 0. -1.
          2    1    1    2  501    0 -0.10060617808E+02 -0.20149886150E+02  0.57491311360E+02  0.61745322288E+02  0.00000000000E+00 0. -1.
         21    1    1    2  503  501  0.10060617808E+02  0.20149886150E+02  0.18832858171E+02  0.29358312101E+02  0.00000000000E+00 0. -1.
</event>
<event>
 4    1  0.2281973E+005  0.2421565E+02  0.7546771E-02  0.1477772E+00
          2   -1    0    0  502    0  0.00000000000E+00  0.00000000000E+00  0.17144059739E+04  0.17144059739E+04  0.00000000000E+00 0.  1.
         21   -1    0    0  503  502 -0.00000000000E+00 -0.00000000000E+00 -0.38769836795E+02  0.38769836795E+02  0.00000000000E+00 0.  1.
          2    1    1    2  501    0  0.22675642924E+02 -0.84978246040E+01  0.17105306212E+04  0.17107020208E+04  0.00000000000E+00 0.  1.
         21    1    1    2  503  501 -0.22675642924E+02  0.84978246040E+01 -0.34894484129E+02  0.42473789890E+02  0.00000000000E+00 0.  1.
</event>
<event>
 4    1  0.2281973E+005  0.5480551E+02  0.7546771E-02  0.1278582E+00
          2   -1    0    0  502    0  0.00000000000E+00  0.00000000000E+00  0.23540529138E+03  0.23540529138E+03  0.00000000000E+00 0.  1.
         21   -1    0    0  503  502 -0.00000000000E+00 -0.00000000000E+00 -0.23680067234E+02  0.23680067234E+02  0.00000000000E+00 0.  1.
          2    1    1    2  501    0  0.46936295371E+02 -0.28295379333E+02  0.19383468198E+03  0.20143368202E+03  0.00000000000E+00 0.  1.
         21    1    1    2  503  501 -0.46936295371E+02  0.28295379333E+02  0.17890542164E+02  0.57651676590E+02  0.00000000000E+00 0.  1.
</event>
<event>
 4    1  0.2281973E+005  0.2694751E+02  0.7546771E-02  0.1448136E+00
          2   -1    0    0  503    0  0.00000000000E+00  0.00000000000E+00  0.58115278815E+02  0.58115278815E+02  0.00000000000E+00 0.  1.
         21   -1    0    0  501  502 -0.00000000000E+00 -0.00000000000E+00 -0.12639357153E+02  0.12639357153E+02  0.00000000000E+00 0. -1.
          2    1    1    2  501    0 -0.21912688994E+02  0.15684466729E+02  0.26514678036E+02  0.37804716464E+02  0.00000000000E+00 0.  1.
         21    1    1    2  503  502  0.21912688994E+02 -0.15684466729E+02  0.18961243625E+02  0.32949919504E+02  0.00000000000E+00 0. -1.
</event>
<event>
 4    1  0.2281973E+005  0.2797868E+02  0.7546771E-02  0.1438017E+00
          2   -1    0    0  503    0  0.00000000000E+00  0.00000000000E+00  0.35394182647E+02  0.35394182647E+02  0.00000000000E+00 0.  1.
         21   -1    0    0  501  502 -0.00000000000E+00 -0.00000000000E+00 -0.11227228163E+03  0.11227228163E+03  0.00000000000E+00 0.  1.
          2    1    1    2  501    0  0.26152976790E+02 -0.99412545085E+01  0.27723408174E+02  0.39387740440E+02  0.00000000000E+00 0.  1.
         21    1    1    2  503  502 -0.26152976790E+02  0.99412545085E+01 -0.10460150715E+03  0.10827872383E+03  0.00000000000E+00 0.  1.
</event>
<event>
 4    1  0.2281973E+005  0.2092937E+02  0.7546771E-02  0.1520276E+00
          2   -1    0    0  502    0  0.00000000000E+00  0.00000000000E+00  0.14591869126E+04  0.14591869126E+04  0.00000000000E+00 0. -1.
         21   -1    0    0  503  502 -0.00000000000E+00 -0.00000000000E+00 -0.55123127955E+00  0.55123127955E+00  0.00000000000E+00 0.  1.
          2    1    1    2  501    0  0.18676962528E+02  0.94450867100E+01  0.12218646139E+04  0.12220438508E+04  0.00000000000E+00 0. -1.
         21    1    1    2  503  501 -0.18676962528E+02 -0.94450867100E+01  0.23677106742E+03  0.23769429307E+03  0.00000000000E+00 0.  1.
</event>
<event>
 4    1  0.2281973E+005  0.3400349E+02  0.7546771E-02  0.1387708E+00
          2   -1    0    0  503    0  0.00000000000E+00  0.00000000000E+00  0.31923750259E+02  0.31923750259E+02  0.00000000000E+00 0.  1.
         21   -1    0    0  501  502 -0.00000000000E+00 -0.00000000000E+00 -0.18872000357E+03  0.18872000357E+03  0.00000000000E+00 0. -1.
          2    1    1    2  501    0 -0.33988413407E+02  0.10125002896E+01  0.20773953335E+02  0.39847139671E+02  0.00000000000E+00 0.  1.
         21    1    1    2  503  502  0.33988413407E+02 -0.10125002896E+01 -0.17757020665E+03  0.18079661416E+03  0.00000000000E+00 0. -1.
</event>
<event>
 4    1  0.2281973E+005  0.2257361E+02  0.7546771E-02  0.1497923E+00
          2   -1    0    0  502    0  0.00000000000E+00  0.00000000000E+00  0.57545864808E+03  0.57545864808E+03  0.00000000000E+00 0.  1.
         21   -1    0    0  503  502 -0.00000000000E+00 -0.00000000000E+00 -0.28534912463E+01  0.28534912463E+01  0.00000000000E+00 0.  1.
          2    1    1    2  501    0  0.21179825105E+02  0.78091465913E+01  0.52643775822E+03  0.52692151317E+03  0.00000000000E+00 0.  1.
         21    1    1    2  503  501 -0.21179825105E+02 -0.78091465913E+01  0.46167398616E+02  0.51390626158E+02  0.00000000000E+00 0.  1.
</event>
<event>
 4    1  0.2281973E+005  0.2250270E+02  0.7546771E-02  0.1498839E+00
          2   -1    0    0  503    0  0.00000000000E+00  0.00000000000E+00  0.76051707169E+02  0.76051707169E+02  0.00000000000E+00 0. -1.
         21   -1    0    0  501  502 -0.00000000000E+00 -0.00000000000E+00 -0.68909887760E+01  0.68909887760E+01  0.00000000000E+00 0. -1.
          2    1    1    2  501    0 -0.16309912529E+02 -0.15503498726E+02  0.26958931168E+02  0.35116316566E+02  0.00000000000E+00 0. -1.
         21    1    1    2  503  502  0.16309912529E+02  0.15503498726E+02  0.42201787225E+02  0.47826379378E+02  0.00000000000E+00 0. -1.
</event>
<event>
 4    1  0.2281973E+005  0.2893858E+02  0.7546771E-02  0.1429050E+00
          2   -1    0    0  503    0  0.00000000000E+00  0.00000000000E+00  0.64173699659E+03  0.64173699659E+03  0.00000000000E+00 0.  1.
         21   -1    0    0  501  502 -0.00000000000E+00 -0.00000000000E+00 -0.12513839263E+02  0.12513839263E+02  0.00000000000E+00 0.  1.
          2    1    1    2  501    0  0.28036608434E+02 -0.71686858202E+01  0.62421096354E+03  0.62488140352E+03  0.00000000000E+00 0.  1.
         21    1    1    2  503  502 -0.28036608434E+02  0.71686858202E+01  0.50121937922E+01  0.29369432332E+02  0.00000000000E+00 0.  1.
</event>
<event>
 4    1  0.2281973E+005  0.2217628E+02  0.7546771E-02  0.1503109E+00
          2   -1    0    0  503    0  0.00000000000E+00  0.00000000000E+00  0.82078722904E+03  0.82078722904E+03  0.00000000000E+00 0.  1.
         21   -1    0    0  501  502 -0.00000000000E+00 -0.00000000000E+00 -0.13067945706E+03  0.13067945706E+03  0.00000000000E+00 0.  1.
          2    1    1    2  501    0  0.74425187562E+01  0.20890101108E+02  0.81969535697E+03  0.81999528392E+03  0.00000000000E+00 0.  1.
         21    1    1    2  503  502 -0.74425187562E+01 -0.20890101108E+02 -0.12958758499E+03  0.13147140219E+03  0.00000000000E+00 0.  1.
</event>
<event>
 4    1  0.2281973E+005  0.2657291E+02  0.7546771E-02  0.1451946E+00
          2   -1    0    0  502    0  0.00000000000E+00  0.00000000000E+00  0.18631781665E+04  0.18631781665E+04  0.00000000000E+00 0. -1.
         21   -1    0    0  503  502 -0.00000000000E+00 -0.00000000000E+00 -0.27940941957E+01  0.27940941957E+01  0.00000000000E+00 0.  1.
          2    1    1    2  501    0  0.24099382375E+02 -0.11195501105E+02  0.17975990149E+04  0.17977954104E+04  0.00000000000E+00 0. -1.
         21    1    1    2  503  501 -0.24099382375E+02  0.11195501105E+02  0.62785057410E+02  0.68176850248E+02  0.00000000000E+00 0.  1.
</event>
<event>
 4    1  0.2281973E+005  0.2178490E+02  0.7546771E-02  0.1508347E+00
          2   -1    0    0  503    0  0.00000000000E+00  0.00000000000E+00  0.16277147398E+04  0.16277147398E+04  0.00000000000E+00 0. -1.
         21   -1    0    0  501  502 -0.00000000000E+00 -0.00000000000E+00 -0.30027104329E+00  0.30027104329E+00  0.00000000000E+00 0. -1.
          2    1    1    2  501    0 -0.21243828018E+02  0.48250943401E+01  0.95232735739E+03  0.95257649425E+03  0.00000000000E+00 0. -1.
         21    1    1    2  503  502  0.21243828018E+02 -0.48250943401E+01  0.67508711134E+03  0.67543851657E+03  0.00000000000E+00 0. -1.
</event>
<event>
 4    1  0.2281973E+005  0.4379839E+02  0.7546771E-02  0.1327558E+00
          2   -1    0    0  503    0  0.00000000000E+00  0.00000000000E+00  0.28280352574E+03  0.28280352574E+03  0.00000000000E+00 0.  1.
         21   -1    0    0  501  502 -0.00000000000E+00 -0.00000000000E+00 -0.12334284072E+02  0.12334284072E+02  0.00000000000E+00 0. -1.
          2    1    1    2  501    0 -0.34949979590E+02 -0.26396925059E+02  0.23423314968E+03  0.23829281805E+03  0.00000000000E+00 0.  1.
         21    1    1    2  503  502  0.34949979590E+02  0.26396925059E+02  0.36236091994E+02  0.56844991766E+02  0.00000000000E+00 0. -1.
</event>
<event>
 4    1  0.2281973E+005  0.3525652E+02  0.7546771E-02  0.1378769E+00
          2   -1    0    0  502    0  0.00000000000E+00  0.00000000000E+00  0.16352331558E+04  0.16352331558E+04  0.00000000000E+00 0. -1.
         21   -1    0    0  503  502 -0.00000000000E+00 -0.00000000000E+00 -0.17476192427E+01  0.17476192427E+01  0.00000000000E+00 0.  1.
          2    1    1    2  501    0 -0.16416481712E+02  0.31201298680E+02  0.14319933599E+04  0.14324273122E+04  0.00000000000E+00 0. -1.
         21    1    1    2  503  501  0.16416481712E+02 -0.31201298680E+02  0.20149217671E+03  0.20455346290E+03  0.00000000000E+00 0.  1.
</event>
<event>
 4    1  0.2281973E+005  0.2621732E+02  0.7546771E-02  0.1455633E+00
          2   -1    0    0  503    0  0.00000000000E+00  0.00000000000E+00  0.26040842381E+02  0.26040842381E+02  0.00000000000E+00 0.  1.
         21   -1    0    0  501  502 -0.00000000000E+00 -0.00000000000E+00 -0.29309367861E+02  0.29309367861E+02  0.00000000000E+00 0.  1.
          2    1    1    2  501    0 -0.22495564657E+02 -0.13464677082E+02 -0.10361131738E+02  0.28190441803E+02  0.00000000000E+00 0.  1.
         21    1    1    2  503  502  0.22495564657E+02  0.13464677082E+02  0.70926062584E+01  0.27159768439E+02  0.00000000000E+00 0.  1.
</event>
<event>
 4    1  0.2281973E+005  0.2623449E+02  0.7546771E-02  0.1455453E+00
          2   -1    0    0  503    0  0.00000000000E+00  0.00000000000E+00  0.58229980474E+03  0.58229980474E+03  0.00000000000E+00 0. -1.
         21   -1    0    0  501  502 -0.00000000000E+00 -0.00000000000E+00 -0.50706997583E+01  0.50706997583E+01  0.00000000000E+00 0.  1.
          2    1    1    2  501    0 -0.19789752346E+02  0.17222483615E+02  0.54580408331E+03  0.54643420976E+03  0.00000000000E+00 0. -1.
         21    1    1    2  503  502  0.19789752346E+02 -0.17222483615E+02  0.31425021674E+02  0.40936294739E+02  0.00000000000E+00 0.  1.
</event>
<event>
 4    1  0.2281973E+005  0.2309435E+02  0.7546771E-02  0.1491317E+00
          2   -1    0    0  502    0  0.00000000000E+00  0.00000000000E+00  0.88405809926E+03  0.88405809926E+03  0.00000000000E+00 0.  1.
         21   -1    0    0  503  502 -0.00000000000E+00 -0.00000000000E+00 -0.72715882824E+02  0.72715882824E+02  0.00000000000E+00 0. -1.
          2    1    1    2  501    0 -0.23061072262E+02  0.12393087474E+01  0.88206946772E+03  0.88237174412E+03  0.00000000000E+00 0.  1.
         21    1    1    2  503  501  0.23061072262E+02 -0.12393087474E+01 -0.70727251282E+02  0.74402237964E+02  0.00000000000E+00 0. -1.
</event>
<event>
 4    1  0.2281973E+005  0.2415701E+02  0.7546771E-02  0.1478459E+00
          2   -1    0    0  503    0  0.00000000000E+00  0.00000000000E+00  0.13726931512E+01  0.13726931512E+01  0.00000000000E+00 0.  1.
         21   -1    0    0  501  502 -0.00000000000E+00 -0.00000000000E+00 -0.61539883821E+03  0.61539883821E+03  0.00000000000E+00 0.  1.
          2    1    1    2  501    0 -0.15807464928E+01  0.24105237114E+02 -0.13553458234E+03  0.13767056412E+03  0.00000000000E+00 0.  1.
         21    1    1    2  503  502  0.15807464928E+01 -0.24105237114E+02 -0.47849156273E+03  0.47910096725E+03  0.00000000000E+00 0.  1.
</event>
<event>
 4    1  0.2281973E+005  0.2124936E+02  0.7546771E-02  0.1515734E+00
          2   -1    0    0  503    0  0.00000000000E+00  0.00000000000E+00  0.41206656053E+02  0.41206656053E+02  0.00000000000E+00 0. -1.
         21   -1    0    0  501  502 -0.00000000000E+00 -0.00000000000E+00 -0.36304000659E+02  0.36304000659E+02  0.00000000000E+00 0.  1.
          2    1    1    2  501    0  0.96933454644E+01 -0.18909633076E+02  0.34833831882E+02  0.40803566179E+02  0.00000000000E+00 0. -1.
         21    1    1    2  503  502 -0.96933454644E+01  0.18909633076E+02 -0.29931176489E+02  0.36707090533E+02  0.00000000000E+00 0.  1.
</event>
<event>
 4    1  0.2281973E+005  0.4070387E+02  0.7546771E-02  0.1344410E+00
          2   -1    0    0  502    0  0.00000000000E+00  0.00000000000E+00  0.11281203173E+04  0.11281203173E+04  0.00000000000E+00 0. -1.
         21   -1    0    0  503  502 -0.00000000000E+00 -0.00000000000E+00 -0.12846754872E+02  0.12846754872E+02  0.00000000000E+00 0. -1.
          2    1    1    2  501    0 -0.37854793949E+02  0.14960612299E+02  0.10945220744E+04  0.10952786754E+04  0.00000000000E+00 0. -1.
         21    1    1    2  503  501  0.37854793949E+02 -0.14960612299E+02  0.20751487971E+02  0.45688396758E+02  0.00000000000E+00 0. -1.
</event>
<event>
 4    1  0.2281973E+005  0.2379525E+02  0.7546771E-02  0.1482747E+00
          2   -1    0    0  503    0  0.00000000000E+00  0.00000000000E+00  0.16955365515E+03  0.16955365515E+03  0.00000000000E+00 0. -1.
         21   -1    0    0  501  502 -0.00000000000E+00 -0.00000000000E+00 -0.39094662012E+01  0.39094662012E+01  0.00000000000E+00 0. -1.
          2    1    1    2  501    0 -0.23646362200E+02  0.26576980936E+01  0.11594030470E+03  0.11835695188E+03  0.00000000000E+00 0. -1.
         21    1    1    2  503  502  0.23646362200E+02 -0.26576980936E+01  0.49703884256E+02  0.55106169479E+02  0.00000000000E+00 0. -1.
</event>
<event>
 4    1  0.2281973E+005  0.2522130E+02  0.7546771E-02  0.1466343E+00
          2   -1    0    0  502    0  0.00000000000E+00  0.00000000000E+00  0.17866410045E+03  0.17866410045E+03  0.00000000000E+00 0.  1.
         21   -1    0    0  503  502 -0.00000000000E+00 -0.00000000000E+00 -0.36327494105E+03  0.36327494105E+03  0.00000000000E+00 0. -1.
          2    1    1    2  501    0  0.25218016916E+02 -0.40683713512E+00  0.17733296995E+03  0.17911754835E+03  0.00000000000E+00 0.  1.
         21    1    1    2  503  501 -0.25218016916E+02  0.40683713512E+00 -0.36194381055E+03  0.36282149315E+03  0.00000000000E+00 0. -1.
</event>
<event>
 4    1  0.2281973E+005  0.2071912E+02  0.7546771E-02  0.1523313E+00
          2   -1    0    0  503    0  0.00000000000E+00  0.00000000000E+00  0.59332415053E+03  0.59332415053E+03  0.00000000000E+00 0. -1.
         21   -1    0    0  501  502 -0.00000000000E+00 -0.00000000000E+00 -0.32263099943E+01  0.32263099943E+01  0.00000000000E+00 0.  1.
          2    1    1    2  501    0  0.10230263553E+02 -0.18017312945E+02  0.55775876788E+03  0.55814346275E+03  0.00000000000E+00 0. -1.
         21    1    1    2  503  502 -0.10230263553E+02  0.18017312945E+02  0.32339072650E+02  0.38406997774E+02  0.00000000000E+00 0.  1.
</event>
<event>
 4    1  0.2281973E+005  0.2016111E+02  0.7546771E-02  0.1531587E+00
          2   -1    0    0  503    0  0.00000000000E+00  0.00000000000E+00  0.23859132194E+02  0.23859132194E+02  0.00000000000E+00 0.  1.
         21   -1    0    0  501  502 -0.00000000000E+00 -0.00000000000E+00 -0.22175872204E+02  0.22175872204E+02  0.00000000000E+00 0.  1.
          2    1    1    2  501    0 -0.19230878215E+02  0.60534155680E+01  0.11922727351E+02  0.23422680130E+02  0.00000000000E+00 0.  1.
         21    1    1    2  503  502  0.19230878215E+02 -0.60534155680E+01 -0.10239467362E+02  0.22612324269E+02  0.00000000000E+00 0.  1.
</event>
<event>
 4    1  0.2281973E+005  0.2016235E+02  0.7546771E-02  0.1531568E+00
          2   -1    0    0  502    0  0.00000000000E+00  0.00000000000E+00  0.36979024505E+03  0.36979024505E+03  0.00000000000E+00 0. -1.
         21   -1    0    0  503  502 -0.00000000000E+00 -0.00000000000E+00 -0.55528476063E+02  0.55528476063E+02  0.00000000000E+00 0.  1.
          2    1    1    2  501    0  0.18982806734E+02 -0.67950900420E+01  0.36767465722E+03  0.36822706821E+03  0.00000000000E+00 0. -1.
         21    1    1    2  503  501 -0.18982806734E+02  0.67950900420E+01 -0.53412888241E+02  0.57091652896E+02  0.00000000000E+00 0.  1.
</event>
<event>
 4    1  0.2281973E+005  0.4103710E+02  0.7546771E-02  0.1342513E+00
          2   -1    0    0  502    0  0.00000000000E+00  0.00000000000E+00  0.36707408054E+03  0.36707408054E+03  0.00000000000E+00 0. -1.
         21   -1    0    0  503  502 -0.00000000000E+00 -0.00000000000E+00 -0.17398334803E+02  0.17398334803E+02  0.00000000000E+00 0. -1.
          2    1    1    2  501    0 -0.26545930865E+02  0.31294688576E+02  0.33979300520E+03  0.34226207847E+03  0.00000000000E+00 0. -1.
         21    1    1    2  503  501  0.26545930865E+02 -0.31294688576E+02  0.98827405446E+01  0.42210336877E+02  0.00000000000E+00 0. -1.
</event>
<event>
 4    1  0.2281973E+005  0.2879890E+02  0.7546771E-02  0.1430329E+00
          2   -1    0    0  503    0  0.00000000000E+00  0.00000000000E+00  0.13887494797E+04  0.13887494797E+04  0.00000000000E+00 0.  1.
         21   -1    0    0  501  502 -0.00000000000E+00 -0.00000000000E+00 -0.64248021614E+01  0.64248021614E+01  0.00000000000E+00 0. -1.
          2    1    1    2  501    0  0.20407070134E+02 -0.20320632853E+02  0.13555370918E+04  0.13558429790E+04  0.00000000000E+00 0.  1.
         21    1    1    2  503  502 -0.20407070134E+02  0.20320632853E+02  0.26787585776E+02  0.39331302835E+02  0.00000000000E+00 0. -1.
</event>
<event>
 4    1  0.2281973E+005  0.2254096E+02  0.7546771E-02  0.1498344E+00
          2   -1    0    0  502    0  0.00000000000E+00  0.00000000000E+00  0.28263834857E+03  0.28263834857E+03  0.00000000000E+00 0.  1.
         21   -1    0    0  503  502 -0.00000000000E+00 -0.00000000000E+00 -0.32040713640E+02  0.32040713640E+02  0.00000000000E+00 0.  1.
          2    1    1    2  501    0 -0.14676055422E+02 -0.17108725666E+02  0.27816076630E+03  0.27907258376E+03  0.00000000000E+00 0.  1.
         21    1    1    2  503  501  0.14676055422E+02  0.17108725666E+02 -0.27563131371E+02  0.35606478450E+02  0.00000000000E+00 0.  1.
</event>
<event>
 4    1  0.2281973E+005  0.2111788E+02  0.7546771E-02  0.1517588E+00
          2   -1    0    0  503    0  0.00000000000E+00  0.00000000000E+00  0.13253563457E+03  0.13253563457E+03  0.00000000000E+00 0. -1.
         21   -1    0    0  501  502 -0.00000000000E+00 -0.00000000000E+00 -0.70575066578E+01  0.70575066578E+01  0.00000000000E+00 0.  1.
          2    1    1    2  501    0  0.19911325903E+02 -0.70359193886E+01  0.11322573993E+03  0.11517826723E+03  0.00000000000E+00 0. -1.
         21    1    1    2  503  502 -0.19911325903E+02  0.70359193886E+01  0.12252387986E+02  0.24414873995E+02  0.00000000000E+00 0.  1.
</event>
<event>
 4    1  0.2281973E+005  0.2623955E+02  0.7546771E-02  0.1455400E+00
          2   -1    0    0  503    0  0.00000000000E+00  0.00000000000E+00  0.16353014982E+04  0.16353014982E+04  0.00000000000E+00 0. -1.
         21   -1    0    0  501  502 -0.00000000000E+00 -0.00000000000E+00 -0.42938917262E+00  0.42938917262E+00  0.00000000000E+00 0. -1.
          2    1    1    2  501    0 -0.23916350156E+02  0.10794543037E+02  0.70333472442E+03  0.70382401816E+03  0.00000000000E+00 0. -1.
         21    1    1    2  503  502  0.23916350156E+02 -0.10794543037E+02  0.93153738462E+03  0.93190686923E+03  0.00000000000E+00 0. -1.
</event>
<event>
 4    1  0.2281973E+005  0.2457072E+02  0.7546771E-02  0.1473663E+00
          2   -1    0    0  502    0  0.00000000000E+00  0.00000000000E+00  0.10708061948E+04  0.10708061948E+04  0.00000000000E+00 0. -1.
         21   -1    0    0  503  502 -0.00000000000E+00 -0.00000000000E+00 -0.74569695970E+01  0.74569695970E+01  0.00000000000E+00 0.  1.
          2    1    1    2  501    0 -0.14177863420E+02 -0.20067602341E+02  0.10500245744E+04  0.10503120142E+04  0.00000000000E+00 0. -1.
         21    1    1    2  503  501  0.14177863420E+02  0.20067602341E+02  0.13324650819E+02  0.27951150144E+02  0.00000000000E+00 0.  1.
</event>
<event>
 4    1  0.2281973E+005  0.3095293E+02  0.7546771E-02  0.1411492E+00
          2   -1    0    0  503    0  0.00000000000E+00  0.00000000000E+00  0.70460778783E+03  0.70460778783E+03  0.00000000000E+00 0. -1.
         21   -1    0    0  501  502 -0.00000000000E+00 -0.00000000000E+00 -0.17120817012E+02  0.17120817012E+02  0.00000000000E+00 0. -1.
          2    1    1    2  501    0  0.21961601633E+02 -0.21812191356E+02  0.68998139792E+03  0.69067533119E+03  0.00000000000E+00 0. -1.
         21    1    1    2  503  502 -0.21961601633E+02  0.21812191356E+02 -0.24944271013E+01  0.31053273654E+02  0.00000000000E+00 0. -1.
</event>
<event>
 4    1  0.2281973E+005  0.2100967E+02  0.7546771E-02  0.1519127E+00
          2   -1    0    0  503    0  0.00000000000E+00  0.00000000000E+00  0.14228018181E+03  0.14228018181E+03  0.00000000000E+00 0.  1.
         21   -1    0    0  501  502 -0.00000000000E+00 -0.00000000000E+00 -0.42328335841E+02  0.42328335841E+02  0.00000000000E+00 0. -1.
          2    1    1    2  501    0 -0.11014869229E+02 -0.17890745168E+02  0.13883319009E+03  0.14041389097E+03  0.00000000000E+00 0.  1.
         21    1    1    2  503  502  0.11014869229E+02  0.17890745168E+02 -0.38881344122E+02  0.44194626681E+02  0.00000000000E+00 0. -1.
</event>
<event>
 4    1  0.2281973E+005  0.3006359E+02  0.7546771E-02  0.1419045E+00
          2   -1    0    0  503    0  0.00000000000E+00  0.00000000000E+00  0.16408721535E+04  0.16408721535E+04  0.00000000000E+00 0.  1.
         21   -1    0    0  501  502 -0.00000000000E+00 -0.00000000000E+00 -0.33408344492E+02  0.33408344492E+02  0.00000000000E+00 0. -1.
          2    1    1    2  501    0  0.29363438476E+02 -0.64504310904E+01  0.16339423401E+04  0.16342188930E+04  0.00000000000E+00 0.  1.
         21    1    1    2  503  502 -0.29363438476E+02  0.64504310904E+01 -0.26478531112E+02  0.40061604938E+02  0.00000000000E+00 0. -1.
</event>
<event>
 4    1  0.2281973E+005  0.5727798E+02  0.7546771E-02  0.1269372E+00
          2   -1    0    0  503    0  0.00000000000E+00  0.00000000000E+00  0.37482389705E+03  0.37482389705E+03  0.00000000000E+00 0. -1.
         21   -1    0    0  501  502 -0.00000000000E+00 -0.00000000000E+00 -0.38268882391E+02  0.38268882391E+02  0.00000000000E+00 0.  1.
          2    1    1    2  501    0 -0.40049034038E+02  0.40949261478E+02  0.34967192095E+03  0.35433207510E+03  0.00000000000E+00 0. -1.
         21    1    1    2  503  502  0.40049034038E+02 -0.40949261478E+02 -0.13116906300E+02  0.58760704334E+02  0.00000000000E+00 0.  1.
</event>
<event>
 4    1  0.2281973E+005  0.2140310E+02  0.7546771E-02  0.1513587E+00
          2   -1    0    0  503    0  0.00000000000E+00  0.00000000000E+00  0.58418495155E+03  0.58418495155E+03  0.00000000000E+00 0.  1.
         21   -1    0    0  501  502 -0.00000000000E+00 -0.00000000000E+00 -0.92924484895E+00  0.92924484895E+00  0.00000000000E+00 0.  1.
          2    1    1    2  501    0  0.21386457731E+02 -0.84387163985E+00  0.40722873455E+03  0.40779079800E+03  0.00000000000E+00 0.  1.
         21    1    1    2  503  502 -0.21386457731E+02  0.84387163985E+00  0.17602697215E+03  0.17732339839E+03  0.00000000000E+00 0.  1.
</event>
<event>
 4    1  0.2281973E+005  0.3128691E+02  0.7546771E-02  0.1408733E+00
          2   -1    0    0  502    0  0.00000000000E+00  0.00000000000E+00  0.47855186121E+03  0.47855186121E+03  0.00000000000E+00 0.  1.
         21   -1    0    0  503  502 -0.00000000000E+00 -0.00000000000E+00 -0.50580243637E+01  0.50580243637E+01  0.00000000000E+00 0.  1.
          2    1    1    2  501    0 -0.29769180308E+02  0.96263461175E+01  0.42335956990E+03  0.42451407051E+03  0.00000000000E+00 0.  1.
         21    1    1    2  503  501  0.29769180308E+02 -0.96263461175E+01  0.50134266951E+02  0.59095815067E+02  0.00000000000E+00 0.  1.
</event>
<event>
 4    1  0.2281973E+005  0.2395242E+02  0.7546771E-02  0.1480873E+00
          2   -1    0    0  503    0  0.00000000000E+00  0.00000000000E+00  0.14125945468E+04  0.14125945468E+04  0.00000000000E+00 0.  1.
         21   -1    0    0  501  502 -0.00000000000E+00 -0.00000000000E+00 -0.40666173901E+00  0.40666173901E+00  0.00000000000E+00 0.  1.
          2    1    1    2  501    0 -0.10133619565E+02  0.21703178646E+02  0.73127839441E+03  0.73167055998E+03  0.00000000000E+00 0.  1.
         21    1    1    2  503  502  0.10133619565E+02 -0.21703178646E+02  0.68090949061E+03  0.68133064852E+03  0.00000000000E+00 0.  1.
</event>
<event>
 4    1  0.2281973E+005  0.2079645E+02  0.7546771E-02  0.1522191E+00
          2   -1    0    0  502    0  0.00000000000E+00  0.00000000000E+00  0.41331632993E+01  0.41331632993E+01  0.00000000000E+00 0. -1.
         21   -1    0    0  503  502 -0.00000000000E+00 -0.00000000000E+00 -0.31823563365E+03  0.31823563365E+03  0.00000000000E+00 0.  1.
          2    1    1    2  501    0 -0.20414877832E+02  0.39654876145E+01 -0.24999155073E+02  0.32518457579E+02  0.00000000000E+00 0. -1.
         21    1    1    2  503  501  0.20414877832E+02 -0.39654876145E+01 -0.28910331528E+03  0.28985033937E+03  0.00000000000E+00 0.  1.
</event>
<event>
 4    1  0.2281973E+005  0.2144069E+02  0.7546771E-02  0.1513065E+00
          2   -1    0    0  503    0  0.00000000000E+00  0.00000000000E+00  0.15240585929E+04  0.15240585929E+04  0.00000000000E+00 0. -1.
         21   -1    0    0  501  502 -0.00000000000E+00 -0.00000000000E+00 -0.34900266143E+00  0.34900266143E+00  0.00000000000E+00 0. -1.
          2    1    1    2  501    0 -0.12826088172E+02  0.17181224089E+02  0.10426676631E+04  0.10428880854E+04  0.00000000000E+00 0. -1.
         21    1    1    2  503  502  0.12826088172E+02 -0.17181224089E+02  0.48104192715E+03  0.48151951017E+03  0.00000000000E+00 0. -1.
</event>
<event>
 4    1  0.2281973E+005  0.2358915E+02  0.7546771E-02  0.1485230E+00
          2   -1    0    0  502    0  0.00000000000E+00  0.00000000000E+00  0.10169091012E+04  0.10169091012E+04  0.00000000000E+00 0.  1.
         21   -1    0    0  503  502 -0.00000000000E+00 -0.00000000000E+00 -0.48260100464E+01  0.48260100464E+01  0.00000000000E+00 0.  1.
          2    1    1    2  501    0 -0.14139238233E+02  0.18882002800E+02  0.98707573294E+03  0.98735755967E+03  0.00000000000E+00 0.  1.
         21    1    1    2  503  501  0.14139238233E+02 -0.18882002800E+02  0.25007358231E+02  0.34377551589E+02  0.00000000000E+00 0.  1.
</event>
<event>
 4    1  0.2281973E+005  0.2006949E+02  0.7546771E-02  0.1532976E+00
          2   -1    0    0  502    0  0.00000000000E+00  0.00000000000E+00  0.65521404093E+03  0.65521404093E+03  0.00000000000E+00 0. -1.
         21   -1    0    0  503  502 -0.00000000000E+00 -0.00000000000E+00 -0.13503292523E+01  0.13503292523E+01  0.00000000000E+00 0.  1.
          2    1    1    2  501    0  0.32182029911E+01 -0.19809786797E+02  0.56922770507E+03  0.56958139428E+03  0.00000000000E+00 0. -1.
         21    1    1    2  503  501 -0.32182029911E+01  0.19809786797E+02  0.84636006602E+02  0.86982975903E+02  0.00000000000E+00 0.  1.
</event>
<event>
 4    1  0.2281973E+005  0.2485286E+02  0.7546771E-02  0.1470456E+00
          2   -1    0    0  503    0  0.00000000000E+00  0.00000000000E+00  0.25068045208E+03  0.25068045208E+03  0.00000000000E+00 0.  1.
         21   -1    0    0  501  502 -0.00000000000E+00 -0.00000000000E+00 -0.42411333066E+03  0.42411333066E+03  0.00000000000E+00 0. -1.
          2    1    1    2  501    0 -0.22604511897E+02  0.10329601547E+02  0.24969894469E+03  0.25093271529E+03  0.00000000000E+00 0.  1.
         21    1    1    2  503  502  0.22604511897E+02 -0.10329601547E+02 -0.42313182328E+03  0.42386106745E+03  0.00000000000E+00 0. -1.
</event>
<event>
 4    1  0.2281973E+005  0.4965664E+02  0.7546771E-02  0.1299668E+00
          2   -1    0    0  503    0  0.00000000000E+00  0.00000000000E+00  0.14582687223E+04  0.14582687223E+04  0.00000000000E+00 0.  1.
         21   -1    0    0  501  502 -0.00000000000E+00 -0.00000000000E+00 -0.48038969851E+01  0.48038969851E+01  0.00000000000E+00 0.  1.
          2    1    1    2  501    0  0.33703152300E+02  0.36467512374E+02  0.13156148695E+04  0.13165516575E+04  0.00000000000E+00 0.  1.
         21    1    1    2  503  502 -0.33703152300E+02 -0.36467512374E+02  0.13784995583E+03  0.14652096183E+03  0.00000000000E+00 0.  1.
</event>
<event>
 4    1  0.2281973E+005  0.2973387E+02  0.7546771E-02  0.1421923E+00
          2   -1    0    0  502    0  0.00000000000E+00  0.00000000000E+00  0.43284983712E+03  0.43284983712E+03  0.00000000000E+00 0.  1.
         21   -1    0    0  503  502 -0.00000000000E+00 -0.00000000000E+00 -0.11149329435E+03  0.11149329435E+03  0.00000000000E+00 0. -1.
          2    1    1    2  501    0  0.78920808619E+01 -0.28667374017E+02  0.43034527053E+03  0.43137124978E+03  0.00000000000E+00 0.  1.
         21    1    1    2  503  501 -0.78920808619E+01  0.28667374017E+02 -0.10898872776E+03  0.11297188169E+03  0.00000000000E+00 0. -1.
</event>
<event>
 4    1  0.2281973E+005  0.2413608E+02  0.7546771E-02  0.1478705E+00
          2   -1    0    0  503    0  0.00000000000E+00  0.00000000000E+00  0.96562816955E+03  0.96562816955E+03  0.00000000000E+00 0. -1.
         21   -1    0    0  501  502 -0.00000000000E+00 -0.00000000000E+00 -0.62552250265E+00  0.62552250265E+00  0.00000000000E+00 0. -1.
          2    1    1    2  501    0  0.17889768170E+02 -0.16202056839E+02  0.39141190362E+03  0.39215536302E+03  0.00000000000E+00 0. -1.
         21    1    1    2  503  502 -0.17889768170E+02  0.16202056839E+02  0.57359074343E+03  0.57409832903E+03  0.00000000000E+00 0. -1.
</event>
<event>
 4    1  0.2281973E+005  0.2146683E+02  0.7546771E-02  0.1512703E+00
          2   -1    0    0  503    0  0.00000000000E+00  0.00000000000E+00  0.11089194644E+04  0.11089194644E+04  0.00000000000E+00 0. -1.
         21   -1    0    0  501  502 -0.00000000000E+00 -0.00000000000E+00 -0.45826885113E+00  0.45826885113E+00  0.00000000000E+00 0. -1.
          2    1    1    2  501    0  0.19605771046E+02 -0.87429137781E+01  0.72356219812E+03  0.72388056981E+03  0.00000000000E+00 0. -1.
         21    1    1    2  503  502 -0.19605771046E+02  0.87429137781E+01  0.38489899738E+03  0.38549716339E+03  0.00000000000E+00 0. -1.
</event>
<event>
 4    1  0.2281973E+005  0.2338734E+02  0.7546771E-02  0.1487691E+00
          2   -1    0    0  503    0  0.00000000000E+00  0.00000000000E+00  0.98877667010E+01  0.98877667010E+01  0.00000000000E+00 0.  1.
         21   -1    0    0  501  502 -0.00000000000E+00 -0.00000000000E+00 -0.60288312106E+02  0.60288312106E+02  0.00000000000E+00 0.  1.
          2    1    1    2  501    0 -0.12288503634E+01 -0.23355034352E+02 -0.15125133590E+02  0.27852062202E+02  0.00000000000E+00 0.  1.
         21    1    1    2  503  502  0.12288503634E+01  0.23355034352E+02 -0.35275411815E+02  0.42324016604E+02  0.00000000000E+00 0.  1.
</event>
<event>
 4    1  0.2281973E+005  0.2896238E+02  0.7546771E-02  0.1428833E+00
          2   -1    0    0  502    0  0.00000000000E+00  0.00000000000E+00  0.21327739959E+04  0.21327739959E+04  0.00000000000E+00 0. -1.
         21   -1    0    0  503  502 -0.00000000000E+00 -0.00000000000E+00 -0.84440462013E+01  0.84440462013E+01  0.00000000000E+00 0. -1.
          2    1    1    2  501    0 -0.18671277671E+02 -0.22140526100E+02  0.21075437360E+04  0.21077427306E+04  0.00000000000E+00 0. -1.
         21    1    1    2  503  501  0.18671277671E+02  0.22140526100E+02  0.16786213706E+02  0.33475311447E+02  0.00000000000E+00 0. -1.
</event>
<event>
 4    1  0.2281973E+005  0.2367296E+02  0.7546771E-02  0.1484216E+00
          2   -1    0    0  503    0  0.00000000000E+00  0.00000000000E+00  0.17297196735E+04  0.17297196735E+04  0.00000000000E+00 0. -1.
         21   -1    0    0  501  502 -0.00000000000E+00 -0.00000000000E+00 -0.93334986060E+00  0.93334986060E+00  0.00000000000E+00 0. -1.
          2    1    1    2  501    0  0.19903486271E+02  0.12816411129E+02  0.15635832413E+04  0.15637624377E+04  0.00000000000E+00 0. -1.
         21    1    1    2  503  502 -0.19903486271E+02 -0.12816411129E+02  0.16520308235E+03  0.16689058565E+03  0.00000000000E+00 0. -1.
</event>
<event>
 4    1  0.2281973E+005  0.2899717E+02  0.7546771E-02  0.1428516E+00
          2   -1    0    0  503    0  0.00000000000E+00  0.00000000000E+00  0.18526590139E+04  0.18526590139E+04  0.00000000000E+00 0.  1.
         21   -1    0    0  501  502 -0.00000000000E+00 -0.00000000000E+00 -0.39984094127E+01  0.39984094127E+01  0.00000000000E+00 0. -1.
          2    1    1    2  501    0 -0.24072940775E+02  0.16165688090E+02  0.17983859073E+04  0.17986196673E+04  0.00000000000E+00 0.  1.
         21    1    1    2  503  502  0.24072940775E+02 -0.16165688090E+02  0.50274697244E+02  0.58037756090E+02  0.00000000000E+00 0. -1.
</event>
<event>
 4    1  0.2281973E+005  0.2762066E+02  0.7546771E-02  0.1441471E+00
          2   -1    0    0  503    0  0.00000000000E+00  0.00000000000E+00  0.36931294030E+03  0.36931294030E+03  0.00000000000E+00 0.  1.
         21   -1    0    0  501  502 -0.00000000000E+00 -0.00000000000E+00 -0.11649996832E+02  0.11649996832E+02  0.00000000000E+00 0. -1.
          2    1    1    2  501    0  0.24539207714E+01 -0.27511431581E+02  0.35160185196E+03  0.35268507609E+03  0.00000000000E+00 0.  1.
         21    1    1    2  503  502 -0.24539207714E+01  0.27511431581E+02  0.60610915070E+01  0.28277861040E+02  0.00000000000E+00 0. -1.
</event>
<event>
 4    1  0.2281973E+005  0.2298561E+02  0.7546771E-02  0.1492679E+00
          2   -1    0    0  503    0  0.00000000000E+00  0.00000000000E+00  0.19516378453E+03  0.19516378453E+03  0.00000000000E+00 0. -1.
         21   -1    0    0  501  502 -0.00000000000E+00 -0.00000000000E+00 -0.10637128375E+02  0.10637128375E+02  0.00000000000E+00 0.  1.
          2    1    1    2  501    0  0.22984535578E+02 -0.22200352806E+00  0.18110997235E+03  0.18256275700E+03  0.00000000000E+00 0. -1.
         21    1    1    2  503  502 -0.22984535578E+02  0.22200352806E+00  0.34166838042E+01  0.23238155898E+02  0.00000000000E+00 0.  1.
</event>
<event>
 4    1  0.2281973E+005  0.3322737E+02  0.7546771E-02  0.1393473E+00
          2   -1    0    0  503    0  0.00000000000E+00  0.00000000000E+00  0.10491761799E+03  0.10491761799E+03  0.00000000000E+00 0. -1.
         21   -1    0    0  501  502 -0.00000000000E+00 -0.00000000000E+00 -0.19305891259E+02  0.19305891259E+02  0.00000000000E+00 0.  1.
          2    1    1    2  501    0 -0.16758537102E+02 -0.28691630908E+02  0.84699226845E+02  0.90983609942E+02  0.00000000000E+00 0. -1.
         21    1    1    2  503  502  0.16758537102E+02  0.28691630908E+02  0.91249988746E+00  0.33239899308E+02  0.00000000000E+00 0.  1.
</event>
<event>
 4    1  0.2281973E+005  0.2026187E+02  0.7546771E-02  0.1530070E+00
          2   -1    0    0  502    0  0.00000000000E+00  0.00000000000E+00  0.11764692002E+04  0.11764692002E+04  0.00000000000E+00 0. -1.
         21   -1    0    0  503  502 -0.00000000000E+00 -0.00000000000E+00 -0.45795851853E+00  0.45795851853E+00  0.00000000000E+00 0. -1.
          2    1    1    2  501    0  0.13661812304E+02 -0.14963227592E+02  0.87509188071E+03  0.87532642082E+03  0.00000000000E+00 0. -1.
         21    1    1    2  503  501 -0.13661812304E+02  0.14963227592E+02  0.30091936098E+03  0.30160073791E+03  0.00000000000E+00 0. -1.
</event>
<event>
 4    1  0.2281973E+005  0.2546359E+02  0.7546771E-02  0.1463683E+00
          2   -1    0    0  502    0  0.00000000000E+00  0.00000000000E+00  0.10641315934E+03  0.10641315934E+03  0.00000000000E+00 0. -1.
         21   -1    0    0  503  502 -0.00000000000E+00 -0.00000000000E+00 -0.18581603215E+02  0.18581603215E+02  0.00000000000E+00 0.  1.
          2    1    1    2  501    0 -0.78745888357E+01 -0.24215394184E+02  0.95151639735E+02  0.98499893447E+02  0.00000000000E+00 0. -1.
         21    1    1    2  503  501  0.78745888357E+01  0.24215394184E+02 -0.73200836120E+01  0.26494869105E+02  0.00000000000E+00 0.  1.
</event>
<event>
 4    1  0.2281973E+005  0.2940012E+02  0.7546771E-02  0.1424882E+00
          2   -1    0    0  503    0  0.00000000000E+00  0.00000000000E+00  0.17186296475E+04  0.17186296475E+04  0.00000000000E+00 0. -1.
         21   -1    0    0  501  502 -0.00000000000E+00 -0.00000000000E+00 -0.50545705869E+00  0.50545705869E+00  0.00000000000E+00 0. -1.
          2    1    1    2  501    0 -0.28914341893E+02 -0.53223923279E+01  0.79840060887E+03  0.79894173709E+03  0.00000000000E+00 0. -1.
         21    1    1    2  503  502  0.28914341893E+02  0.53223923279E+01  0.91972358159E+03  0.92019336748E+03  0.00000000000E+00 0. -1.
</event>
<event>
 4    1  0.2281973E+005  0.5325603E+02  0.7546771E-02  0.1284641E+00
          2   -1    0    0  503    0  0.00000000000E+00  0.00000000000E+00  0.59284427272E+03  0.59284427272E+03  0.00000000000E+00 0. -1.
         21   -1    0    0  501  502 -0.00000000000E+00 -0.00000000000E+00 -0.16040049277E+03  0.16040049277E+03  0.00000000000E+00 0.  1.
          2    1    1    2  501    0  0.47093434407E+02 -0.24867919458E+02  0.58718523564E+03  0.58959537475E+03  0.00000000000E+00 0. -1.
         21    1    1    2  503  502 -0.47093434407E+02  0.24867919458E+02 -0.15474145568E+03  0.16364939073E+03  0.00000000000E+00 0.  1.
</event>
<event>
 4    1  0.2281973E+005  0.2693691E+02  0.7546771E-02  0.1448243E+00
          2   -1    0    0  502    0  0.00000000000E+00  0.00000000000E+00  0.20421143190E+04  0.20421143190E+04  0.00000000000E+00 0.  1.
         21   -1    0    0  503  502 -0.00000000000E+00 -0.00000000000E+00 -0.86384799430E+00  0.86384799430E+00  0.00000000000E+00 0.  1.
          2    1    1    2  501    0 -0.69832168601E+01  0.26015986471E+02  0.18043688246E+04  0.18045698801E+04  0.00000000000E+00 0.  1.
         21    1    1    2  503  501  0.69832168601E+01 -0.26015986471E+02  0.23688164633E+03  0.23840828684E+03  0.00000000000E+00 0.  1.
</event>
<event>
 4    1  0.2281973E+005  0.2420577E+02  0.7546771E-02  0.1477888E+00
          2   -1    0    0  503    0  0.00000000000E+00  0.00000000000E+00  0.21541243302E+03  0.21541243302E+03  0.00000000000E+00 0.  1.
         21   -1    0    0  501  502 -0.00000000000E+00 -0.00000000000E+00 -0.38084474492E+01  0.38084474492E+01  0.00000000000E+00 0. -1.
          2    1    1    2  501    0  0.19263166562E+02  0.14657754238E+02  0.16440015035E+03  0.16617258733E+03  0.00000000000E+00 0.  1.
         21    1    1    2  503  502 -0.19263166562E+02 -0.14657754238E+02  0.47203835221E+02  0.53048293138E+02  0.00000000000E+00 0. -1.
</event>
<event>
 4    1  0.2281973E+005  0.2123352E+02  0.7546771E-02  0.1515957E+00
          2   -1    0    0  502    0  0.00000000000E+00  0.00000000000E+00  0.14882312100E+04  0.14882312100E+04  0.00000000000E+00 0.  1.
         21   -1    0    0  503  502 -0.00000000000E+00 -0.00000000000E+00 -0.16618754406E+01  0.16618754406E+01  0.00000000000E+00 0.  1.
          2    1    1    2  501    0 -0.20308023366E+02  0.62005254642E+01  0.14169177389E+04  0.14170768296E+04  0.00000000000E+00 0.  1.
         21    1    1    2  503  501  0.20308023366E+02 -0.62005254642E+01  0.69651595658E+02  0.72816255787E+02  0.00000000000E+00 0.  1.
</event>
<event>
 4    1  0.2281973E+005  0.2474982E+02  0.7546771E-02  0.1471622E+00
          2   -1    0    0  502    0  0.00000000000E+00  0.00000000000E+00  0.16685742982E+04  0.16685742982E+04  0.00000000000E+00 0. -1.
         21   -1    0    0  503  502 -0.00000000000E+00 -0.00000000000E+00 -0.19875412591E+02  0.19875412591E+02  0.00000000000E+00 0. -1.
          2    1    1    2  501    0 -0.27214275013E+00 -0.24748319780E+02  0.16607412672E+04  0.16609256786E+04  0.00000000000E+00 0. -1.
         21    1    1    2  503  501  0.27214275013E+00  0.24748319780E+02 -0.12042381562E+02  0.27524032177E+02  0.00000000000E+00 0. -1.
</event>
<event>
 4    1  0.2281973E+005  0.6094973E+02  0.7546771E-02  0.1256639E+00
          2   -1    0    0  503    0  0.00000000000E+00  0.00000000000E+00  0.26013509163E+04  0.26013509163E+04  0.00000000000E+00 0.  1.
         21   -1    0    0  501  502 -0.00000000000E+00 -0.00000000000E+00 -0.13429985875E+03  0.13429985875E+03  0.00000000000E+00 0.  1.
          2    1    1    2  501    0 -0.25597791735E+02 -0.55313852601E+02  0.25940592157E+04  0.25947751510E+04  0.00000000000E+00 0.  1.
         21    1    1    2  503  502  0.25597791735E+02  0.55313852601E+02 -0.12700815817E+03  0.14087562412E+03  0.00000000000E+00 0.  1.
</event>
<event>
 4    1  0.2281973E+005  0.2330607E+02  0.7546771E-02  0.1488690E+00
          2   -1    0    0  503    0  0.00000000000E+00  0.00000000000E+00  0.12152929316E+03  0.12152929316E+03  0.00000000000E+00 0. -1.
         21   -1    0    0  501  502 -0.00000000000E+00 -0.00000000000E+00 -0.62285728685E+01  0.62285728685E+01  0.00000000000E+00 0.  1.
          2    1    1    2  501    0  0.14531968487E+02 -0.18220724273E+02  0.91597845075E+02  0.94516337866E+02  0.00000000000E+00 0. -1.
         21    1    1    2  503  502 -0.14531968487E+02  0.18220724273E+02  0.23702875219E+02  0.33241528166E+02  0.00000000000E+00 0.  1.
</event>
<event>
 4    1  0.2281973E+005  0.2932547E+02  0.7546771E-02  0.1425550E+00
          2   -1    0    0  503    0  0.00000000000E+00  0.00000000000E+00  0.44312962091E+01  0.44312962091E+01  0.00000000000E+00 0. -1.
         21   -1    0    0  501  502 -0.00000000000E+00 -0.00000000000E+00 -0.21544064912E+03  0.21544064912E+03  0.00000000000E+00 0. -1.
          2    1    1    2  501    0  0.48388400129E+01 -0.28923502273E+02 -0.70880380204E+02  0.76707311609E+02  0.00000000000E+00 0. -1.
         21    1    1    2  503  502 -0.48388400129E+01  0.28923502273E+02 -0.14012897271E+03  0.14316463372E+03  0.00000000000E+00 0. -1.
</event>
<event>
 4    1  0.2281973E+005  0.2378406E+02  0.7546771E-02  0.1482881E+00
          2   -1    0    0  503    0  0.00000000000E+00  0.00000000000E+00  0.11994271574E+04  0.11994271574E+04  0.00000000000E+00 0.  1.
         21   -1    0    0  501  502 -0.00000000000E+00 -0.00000000000E+00 -0.62810310293E+00  0.62810310293E+00  0.00000000000E+00 0.  1.
          2    1    1    2  501    0 -0.10908466381E+01  0.23759029568E+02  0.89888841680E+03  0.89920301783E+03  0.00000000000E+00 0.  1.
         21    1    1    2  503  502  0.10908466381E+01 -0.23759029568E+02  0.29991063751E+03  0.30085224268E+03  0.00000000000E+00 0.  1.
</event>
<event>
 4    1  0.2281973E+005  0.3826066E+02  0.7546771E-02  0.1358991E+00
          2   -1    0    0  503    0  0.00000000000E+00  0.00000000000E+00  0.10669260262E+03  0.10669260262E+03  0.00000000000E+00 0.  1.
         21   -1    0    0  501  502 -0.00000000000E+00 -0.00000000000E+00 -0.40294117163E+02  0.40294117163E+02  0.00000000000E+00 0.  1.
          2    1    1    2  501    0  0.38253621238E+02 -0.73408278940E+00  0.92882486766E+02  0.10045414259E+03  0.00000000000E+00 0.  1.
         21    1    1    2  503  502 -0.38253621238E+02  0.73408278940E+00 -0.26484001307E+02  0.46532577197E+02  0.00000000000E+00 0.  1.
</event>
<event>
 4    1  0.2281973E+005  0.2043869E+02  0.7546771E-02  0.1527432E+00
          2   -1    0    0  502    0  0.00000000000E+00  0.00000000000E+00  0.67939548224E+03  0.67939548224E+03  0.00000000000E+00 0. -1.
         21   -1    0    0  503  502 -0.00000000000E+00 -0.00000000000E+00 -0.12409034210E+03  0.12409034210E+03  0.00000000000E+00 0.  1.
          2    1    1    2  501    0 -0.10772650087E+02 -0.17369223896E+02  0.67839892427E+03  0.67870674107E+03  0.00000000000E+00 0. -1.
         21    1    1    2  503  501  0.10772650087E+02  0.17369223896E+02 -0.12309378413E+03  0.12477908326E+03  0.00000000000E+00 0.  1.
</event>
<event>
 4    1  0.2281973E+005  0.2071662E+02  0.7546771E-02  0.1523349E+00
          2   -1    0    0  502    0  0.00000000000E+00  0.00000000000E+00  0.16767154214E+03  0.16767154214E+03  0.00000000000E+00 0. -1.
         21   -1    0    0  503  502 -0.00000000000E+00 -0.00000000000E+00 -0.66473625470E+01  0.66473625470E+01  0.00000000000E+00 0. -1.
          2    1    1    2  501    0  0.82011001598E+00  0.20700381260E+02  0.14886085116E+03  0.15029548022E+03  0.00000000000E+00 0. -1.
         21    1    1    2  503  501 -0.82011001598E+00 -0.20700381260E+02  0.12163328430E+02  0.24023424470E+02  0.00000000000E+00 0. -1.
</event>
<event>
 4    1  0.2281973E+005  0.3043434E+02  0.7546771E-02  0.1415859E+00
          2   -1    0    0  503    0  0.00000000000E+00  0.00000000000E+00  0.11434008406E+03  0.11434008406E+03  0.00000000000E+00 0.  1.
         21   -1    0    0  501  502 -0.00000000000E+00 -0.00000000000E+00 -0.82779416844E+01  0.82779416844E+01  0.00000000000E+00 0.  1.
          2    1    1    2  501    0 -0.28558863112E+02  0.10518572677E+02  0.61999010155E+02  0.69066100901E+02  0.00000000000E+00 0.  1.
         21    1    1    2  503  502  0.28558863112E+02 -0.10518572677E+02  0.44063132223E+02  0.53551924846E+02  0.00000000000E+00 0.  1.
</event>
<event>
 4    1  0.2281973E+005  0.3507737E+02  0.7546771E-02  0.1380020E+00
          2   -1    0    0  502    0  0.00000000000E+00  0.00000000000E+00  0.83333132355E+03  0.83333132355E+03  0.00000000000E+00 0.  1.
         21   -1    0    0  503  502 -0.00000000000E+00 -0.00000000000E+00 -0.47358397134E+01  0.47358397134E+01  0.00000000000E+00 0. -1.
          2    1    1    2  501    0  0.13501100364E+02  0.32375023549E+02  0.76192553646E+03  0.76273255140E+03  0.00000000000E+00 0.  1.
         21    1    1    2  503  501 -0.13501100364E+02 -0.32375023549E+02  0.66669947375E+02  0.75334611858E+02  0.00000000000E+00 0. -1.
</event>
<event>
 4    1  0.2281973E+005  0.2195458E+02  0.7546771E-02  0.1506060E+00
          2   -1    0    0  502    0  0.00000000000E+00  0.00000000000E+00  0.77786749143E+02  0.77786749143E+02  0.00000000000E+00 0.  1.
         21   -1    0    0  503  502 -0.00000000000E+00 -0.00000000000E+00 -0.24712834102E+02  0.24712834102E+02  0.00000000000E+00 0.  1.
          2    1    1    2  501    0  0.20854621556E+01  0.21855311139E+02  0.70898700847E+02  0.74220142543E+02  0.00000000000E+00 0.  1.
         21    1    1    2  503  501 -0.20854621556E+01 -0.21855311139E+02 -0.17824785806E+02  0.28279440702E+02  0.00000000000E+00 0.  1.
</event>
<event>
 4    1  0.2281973E+005  0.4190915E+02  0.7546771E-02  0.1337647E+00
          2   -1    0    0  503    0  0.00000000000E+00  0.00000000000E+00  0.27605484872E+02  0.27605484872E+02  0.00000000000E+00 0. -1.
         21   -1    0    0  501  502 -0.00000000000E+00 -0.00000000000E+00 -0.34629055241E+03  0.34629055241E+03  0.00000000000E+00 0. -1.
          2    1    1    2  501    0  0.25295981206E+02 -0.33413927388E+02  0.95605557374E+01  0.42985828300E+02  0.00000000000E+00 0. -1.
         21    1    1    2  503  502 -0.25295981206E+02  0.33413927388E+02 -0.32824562328E+03  0.33091020898E+03  0.00000000000E+00 0. -1.
</event>
<event>
 4    1  0.2281973E+005  0.2078574E+02  0.7546771E-02  0.1522346E+00
          2   -1    0    0  502    0  0.00000000000E+00  0.00000000000E+00  0.44453352874E+03  0.44453352874E+03  0.00000000000E+00 0. -1.
         21   -1    0    0  503  502 -0.00000000000E+00 -0.00000000000E+00 -0.47802581198E+02  0.47802581198E+02  0.00000000000E+00 0.  1.
          2    1    1    2  501    0  0.19816066265E+02 -0.62745792977E+01  0.44201816287E+03  0.44250661366E+03  0.00000000000E+00 0. -1.
         21    1    1    2  503  501 -0.19816066265E+02  0.62745792977E+01 -0.45287215325E+02  0.49829496279E+02  0.00000000000E+00 0.  1.
</event>
<event>
 4    1  0.2281973E+005  0.1235546E+03  0.7546771E-02  0.1128291E+00
          2   -1    0    0  503    0  0.00000000000E+00  0.00000000000E+00  0.10313195309E+04  0.10313195309E+04  0.00000000000E+00 0.  1.
         21   -1    0    0  501  502 -0.00000000000E+00 -0.00000000000E+00 -0.15388106050E+02  0.15388106050E+02  0.00000000000E+00 0.  1.
          2    1    1    2  501    0  0.54642291795E+02  0.11081501180E+03  0.61009143770E+03  0.62247675398E+03  0.00000000000E+00 0.  1.
         21    1    1    2  503  502 -0.54642291795E+02 -0.11081501180E+03  0.40583998711E+03  0.42423088292E+03  0.00000000000E+00 0.  1.
</event>
<event>
 4    1  0.2281973E+005  0.2640210E+02  0.7546771E-02  0.1453708E+00
          2   -1    0    0  503    0  0.00000000000E+00  0.00000000000E+00  0.28648549644E+03  0.28648549644E+03  0.00000000000E+00 0.  1.
         21   -1    0    0  501  502 -0.00000000000E+00 -0.00000000000E+00 -0.25666976237E+01  0.25666976237E+01  0.00000000000E+00 0. -1.
          2    1    1    2  501    0  0.24766948384E+02 -0.91470800809E+01  0.17492250106E+03  0.17690379358E+03  0.00000000000E+00 0.  1.
         21    1    1    2  503  502 -0.24766948384E+02  0.91470800809E+01  0.10899629776E+03  0.11214840049E+03  0.00000000000E+00 0. -1.
</event>
<event>
 4    1  0.2281973E+005  0.2549223E+02  0.7546771E-02  0.1463371E+00
          2   -1    0    0  502    0  0.00000000000E+00  0.00000000000E+00  0.27269460031E+03  0.27269460031E+03  0.00000000000E+00 0.  1.
         21   -1    0    0  503  502 -0.00000000000E+00 -0.00000000000E+00 -0.11503521373E+02  0.11503521373E+02  0.00000000000E+00 0.  1.
          2    1    1    2  501    0  0.25326077534E+02  0.29058048772E+01  0.25712267000E+03  0.25838328377E+03  0.00000000000E+00 0.  1.
         21    1    1    2  503  501 -0.25326077534E+02 -0.29058048772E+01  0.40684089402E+01  0.25814837914E+02  0.00000000000E+00 0.  1.
</event>
<event>
 4    1  0.2281973E+005  0.2379115E+02  0.7546771E-02  0.1482796E+00
          2   -1    0    0  503    0  0.00000000000E+00  0.00000000000E+00  0.90019545062E+03  0.90019545062E+03  0.00000000000E+00 0. -1.
         21   -1    0    0  501  502 -0.00000000000E+00 -0.00000000000E+00 -0.30552802194E+01  0.30552802194E+01  0.00000000000E+00 0.  1.
          2    1    1    2  501    0  0.56839564894E+01  0.23102194578E+02  0.85104941359E+03  0.85138189030E+03  0.00000000000E+00 0. -1.
         21    1    1    2  503  502 -0.56839564894E+01 -0.23102194578E+02  0.46090756810E+02  0.51868840541E+02  0.00000000000E+00 0.  1.
</event>
<event>
 4    1  0.2281973E+005  0.2441368E+02  0.7546771E-02  0.1475471E+00
          2   -1    0    0  502    0  0.00000000000E+00  0.00000000000E+00  0.10230347691E+03  0.10230347691E+03  0.00000000000E+00 0.  1.
         21   -1    0    0  503  502 -0.00000000000E+00 -0.00000000000E+00 -0.10730749915E+02  0.10730749915E+02  0.00000000000E+00 0.  1.
          2    1    1    2  501    0 -0.23593501055E+02  0.62749082913E+01  0.83995747239E+02  0.87471785853E+02  0.00000000000E+00 0.  1.
         21    1    1    2  503  501  0.23593501055E+02 -0.62749082913E+01  0.75769797545E+01  0.25562440969E+02  0.00000000000E+00 0.  1.
</event>
<event>
 4    1  0.2281973E+005  0.2264348E+02  0.7546771E-02  0.1497024E+00
          2   -1    0    0  502    0  0.00000000000E+00  0.00000000000E+00  0.15342938145E+03  0.15342938145E+03  0.00000000000E+00 0.  1.
         21   -1    0    0  503  502 -0.00000000000E+00 -0.00000000000E+00 -0.84263957013E+01  0.84263957013E+01  0.00000000000E+00 0.  1.
          2    1    1    2  501    0 -0.20954315840E+02 -0.85815919450E+01  0.13536612784E+03  0.13724691487E+03  0.00000000000E+00 0.  1.
         21    1    1    2  503  501  0.20954315840E+02  0.85815919450E+01  0.96368579020E+01  0.24608862283E+02  0.00000000000E+00 0.  1.
</event>
<event>
 4    1  0.2281973E+005  0.3990364E+02  0.7546771E-02  0.1349051E+00
          2   -1    0    0  502    0  0.00000000000E+00  0.00000000000E+00  0.14933233497E+04  0.14933233497E+04  0.00000000000E+00 0.  1.
         21   -1    0    0  503  502 -0.00000000000E+00 -0.00000000000E+00 -0.58945836313E+01  0.58945836313E+01  0.00000000000E+00 0. -1.
          2    1    1    2  501    0 -0.29743991014E+02  0.26600665105E+02  0.14221451042E+04  0.14227048175E+04  0.00000000000E+00 0.  1.
         21    1    1    2  503  501  0.29743991014E+02 -0.26600665105E+02  0.65283661903E+02  0.76513115849E+02  0.00000000000E+00 0. -1.
</event>
<event>
 4    1  0.2281973E+005  0.4212257E+02  0.7546771E-02  0.1336477E+00
          2   -1    0    0  503    0  0.00000000000E+00  0.00000000000E+00  0.16438904253E+04  0.16438904253E+04  0.00000000000E+00 0.  1.
         21   -1    0    0  501  502 -0.00000000000E+00 -0.00000000000E+00 -0.51232864233E+01  0.51232864233E+01  0.00000000000E+00 0.  1.
          2    1    1    2  501    0 -0.14939468784E+02 -0.39384299290E+02  0.15519092312E+04  0.15524807801E+04  0.00000000000E+00 0.  1.
         21    1    1    2  503  502  0.14939468784E+02  0.39384299290E+02  0.86857907684E+02  0.96532931611E+02  0.00000000000E+00 0.  1.
</event>
<event>
 4    1  0.2281973E+005  0.2248736E+02  0.7546771E-02  0.1499038E+00
          2   -1    0    0  503    0  0.00000000000E+00  0.00000000000E+00  0.21805676266E+03  0.21805676266E+03  0.00000000000E+00 0.  1.
         21   -1    0    0  501  502 -0.00000000000E+00 -0.00000000000E+00 -0.28923293369E+01  0.28923293369E+01  0.00000000000E+00 0.  1.
          2    1    1    2  501    0  0.93484054805E+01  0.20452102758E+02  0.15676660850E+03  0.15837124339E+03  0.00000000000E+00 0.  1.
         21    1    1    2  503  502 -0.93484054805E+01 -0.20452102758E+02  0.58397824826E+02  0.62577848610E+02  0.00000000000E+00 0.  1.
</event>
<event>
 4    1  0.2281973E+005  0.2382448E+02  0.7546771E-02  0.1482397E+00
          2   -1    0    0  503    0  0.00000000000E+00  0.00000000000E+00  0.48437803793E+03  0.48437803793E+03  0.00000000000E+00 0. -1.
         21   -1    0    0  501  502 -0.00000000000E+00 -0.00000000000E+00 -0.37580418804E+01  0.37580418804E+01  0.00000000000E+00 0. -1.
          2    1    1    2  501    0  0.23786916171E+02  0.13373811065E+01  0.44278090716E+03  0.44342139970E+03  0.00000000000E+00 0. -1.
         21    1    1    2  503  502 -0.23786916171E+02 -0.13373811065E+01  0.37839088891E+02  0.44714680109E+02  0.00000000000E+00 0. -1.
</event>
<event>
 4    1  0.2281973E+005  0.2465908E+02  0.7546771E-02  0.1472654E+00
          2   -1    0    0  502    0  0.00000000000E+00  0.00000000000E+00  0.34706212562E+02  0.34706212562E+02  0.00000000000E+00 0.  1.
         21   -1    0    0  503  502 -0.00000000000E+00 -0.00000000000E+00 -0.41334179788E+02  0.41334179788E+02  0.00000000000E+00 0.  1.
          2    1    1    2  501    0 -0.20613965530E+02 -0.13532728694E+02  0.25544460564E+02  0.35504785400E+02  0.00000000000E+00 0.  1.
         21    1    1    2  503  501  0.20613965530E+02  0.13532728694E+02 -0.32172427791E+02  0.40535606949E+02  0.00000000000E+00 0.  1.
</event>
<event>
 4    1  0.2281973E+005  0.2097306E+02  0.7546771E-02  0.1519650E+00
          2   -1    0    0  502    0  0.00000000000E+00  0.00000000000E+00  0.78577780663E+01  0.78577780663E+01  0.00000000000E+00 0. -1.
         21   -1    0    0  503  502 -0.00000000000E+00 -0.00000000000E+00 -0.64450634355E+02  0.64450634355E+02  0.00000000000E+00 0. -1.
          2    1    1    2  501    0 -0.58009977924E+01  0.20154841964E+02 -0.15188526701E+02  0.25895184365E+02  0.00000000000E+00 0. -1.
         21    1    1    2  503  501  0.58009977924E+01 -0.20154841964E+02 -0.41404329587E+02  0.46413228056E+02  0.00000000000E+00 0. -1.
</event>
<event>
 4    1  0.2281973E+005  0.2076165E+02  0.7546771E-02  0.1522695E+00
          2   -1    0    0  503    0  0.00000000000E+00  0.00000000000E+00  0.17365753000E+03  0.17365753000E+03  0.00000000000E+00 0.  1.
         21   -1    0    0  501  502 -0.00000000000E+00 -0.00000000000E+00 -0.31841557204E+01  0.31841557204E+01  0.00000000000E+00 0.  1.
          2    1    1    2  501    0  0.15577113123E+02  0.13725871597E+02  0.12675353039E+03  0.12844260769E+03  0.00000000000E+00 0.  1.
         21    1    1    2  503  502 -0.15577113123E+02 -0.13725871597E+02  0.43719843894E+02  0.48399078033E+02  0.00000000000E+00 0.  1.
</event>
<event>
 4    1  0.2281973E+005  0.2132454E+02  0.7546771E-02  0.1514681E+00
          2   -1    0    0  502    0  0.00000000000E+00  0.00000000000E+00  0.94969045909E+02  0.94969045909E+02  0.00000000000E+00 0.  1.
         21   -1    0    0  503  502 -0.00000000000E+00 -0.00000000000E+00 -0.14054057984E+02  0.14054057984E+02  0.00000000000E+00 0.  1.
          2    1    1    2  501    0  0.18233970847E+01  0.21246439787E+02  0.84719308482E+02  0.87361875038E+02  0.00000000000E+00 0.  1.
         21    1    1    2  503  501 -0.18233970847E+01 -0.21246439787E+02 -0.38043205574E+01  0.21661228854E+02  0.00000000000E+00 0.  1.
</event>
<event>
 4    1  0.2281973E+005  0.2678111E+02  0.7546771E-02  0.1449819E+00
          2   -1    0    0  502    0  0.00000000000E+00  0.00000000000E+00  0.84069924479E+02  0.84069924479E+02  0.00000000000E+00 0.  1.
         21   -1    0    0  503  502 -0.00000000000E+00 -0.00000000000E+00 -0.15323037380E+02  0.15323037380E+02  0.00000000000E+00 0. -1.
          2    1    1    2  501    0  0.23563493453E+02  0.12727510796E+02  0.67459338379E+02  0.72580920973E+02  0.00000000000E+00 0.  1.
         21    1    1    2  503  501 -0.23563493453E+02 -0.12727510796E+02  0.12875487204E+01  0.26812040886E+02  0.00000000000E+00 0. -1.
</event>
<event>
 4    1  0.2281973E+005  0.3664392E+02  0.7546771E-02  0.1369360E+00
          2   -1    0    0  503    0  0.00000000000E+00  0.00000000000E+00  0.46848903861E+03  0.46848903861E+03  0.00000000000E+00 0.  1.
         21   -1    0    0  501  502 -0.00000000000E+00 -0.00000000000E+00 -0.37403596167E+01  0.37403596167E+01  0.00000000000E+00 0.  1.
          2    1    1    2  501    0 -0.35850222501E+02 -0.75854245312E+01  0.34652146591E+03  0.34845358866E+03  0.00000000000E+00 0.  1.
         21    1    1    2  503  502  0.35850222501E+02  0.75854245312E+01  0.11822721309E+03  0.12377580957E+03  0.00000000000E+00 0.  1.
</event>
<event>
 4    1  0.2281973E+005  0.2285986E+02  0.7546771E-02  0.1494265E+00
          2   -1    0    0  502    0  0.00000000000E+00  0.00000000000E+00  0.31629058086E+03  0.31629058086E+03  0.00000000000E+00 0.  1.
         21   -1    0    0  503  502 -0.00000000000E+00 -0.00000000000E+00 -0.24319918810E+01  0.24319918810E+01  0.00000000000E+00 0. -1.
          2    1    1    2  501    0  0.20458867718E+02 -0.10198437518E+02  0.24716798721E+03  0.24822285813E+03  0.00000000000E+00 0.  1.
         21    1    1    2  503  501 -0.20458867718E+02  0.10198437518E+02  0.66690601769E+02  0.70499714612E+02  0.00000000000E+00 0. -1.
</event>
<event>
 4    1  0.2281973E+005  0.2855536E+02  0.7546771E-02  0.1432580E+00
          2   -1    0    0  502    0  0.00000000000E+00  0.00000000000E+00  0.10837966420E+04  0.10837966420E+04  0.00000000000E+00 0. -1.
         21   -1    0    0  503  502 -0.00000000000E+00 -0.00000000000E+00 -0.14452827099E+01  0.14452827099E+01  0.00000000000E+00 0. -1.
          2    1    1    2  501    0  0.10862274055E+02 -0.26408699380E+02  0.91689337337E+03  0.91733792385E+03  0.00000000000E+00 0. -1.
         21    1    1    2  503  501 -0.10862274055E+02  0.26408699380E+02  0.16545798591E+03  0.16790400086E+03  0.00000000000E+00 0. -1.
</event>
<event>
 4    1  0.2281973E+005  0.3876363E+02  0.7546771E-02  0.1355887E+00
          2   -1    0    0  502    0  0.00000000000E+00  0.00000000000E+00  0.22266792732E+04  0.22266792732E+04  0.00000000000E+00 0.  1.
         21   -1    0    0  503  502 -0.00000000000E+00 -0.00000000000E+00 -0.15251435565E+01  0.15251435565E+01  0.00000000000E+00 0.  1.
          2    1    1    2  501    0 -0.37267779330E+02 -0.10664499762E+02  0.19444566967E+04  0.19448430436E+04  0.00000000000E+00 0.  1.
         21    1    1    2  503  501  0.37267779330E+02  0.10664499762E+02  0.28069743297E+03  0.28336137317E+03  0.00000000000E+00 0.  1.
</event>
<event>
 4    1  0.2281973E+005  0.2124278E+02  0.7546771E-02  0.1515827E+00
          2   -1    0    0  503    0  0.00000000000E+00  0.00000000000E+00  0.42332866522E+03  0.42332866522E+03  0.00000000000E+00 0.  1.
         21   -1    0    0  501  502 -0.00000000000E+00 -0.00000000000E+00 -0.16480503439E+01  0.16480503439E+01  0.00000000000E+00 0. -1.
          2    1    1    2  501    0  0.19025119115E+02  0.94498921985E+01  0.33712229332E+03  0.33779090614E+03  0.00000000000E+00 0.  1.
         21    1    1    2  503  502 -0.19025119115E+02 -0.94498921985E+01  0.84558321560E+02  0.87185809424E+02  0.00000000000E+00 0. -1.
</event>
<event>
 4    1  0.2281973E+005  0.3795010E+02  0.7546771E-02  0.1360936E+00
          2   -1    0    0  502    0  0.00000000000E+00  0.00000000000E+00  0.79651346541E+01  0.79651346541E+01  0.00000000000E+00 0. -1.
         21   -1    0    0  503  502 -0.00000000000E+00 -0.00000000000E+00 -0.19106179723E+03  0.19106179723E+03  0.00000000000E+00 0. -1.
          2    1    1    2  501    0 -0.31900339511E+02 -0.20556714424E+02 -0.68501881393E+02  0.78311671692E+02  0.00000000000E+00 0. -1.
         21    1    1    2  503  501  0.31900339511E+02  0.20556714424E+02 -0.11459478119E+03  0.12071526019E+03  0.00000000000E+00 0. -1.
</event>
<event>
 4    1  0.2281973E+005  0.2127763E+02  0.7546771E-02  0.1515338E+00
          2   -1    0    0  503    0  0.00000000000E+00  0.00000000000E+00  0.10710781174E+04  0.10710781174E+04  0.00000000000E+00 0. -1.
         21   -1    0    0  501  502 -0.00000000000E+00 -0.00000000000E+00 -0.32919402846E+01  0.32919402846E+01  0.00000000000E+00 0.  1.
          2    1    1    2  501    0 -0.17713996734E+02 -0.11787792696E+02  0.10354057242E+04  0.10356243293E+04  0.00000000000E+00 0. -1.
         21    1    1    2  503  502  0.17713996734E+02  0.11787792696E+02  0.32380452922E+02  0.38745728389E+02  0.00000000000E+00 0.  1.
</event>
<event>
 4    1  0.2281973E+005  0.2253064E+02  0.7546771E-02  0.1498478E+00
          2   -1    0    0  503    0  0.00000000000E+00  0.00000000000E+00  0.24308692435E+02  0.24308692435E+02  0.00000000000E+00 0.  1.
         21   -1    0    0  501  502 -0.00000000000E+00 -0.00000000000E+00 -0.23585732854E+02  0.23585732854E+02  0.00000000000E+00 0.  1.
          2    1    1    2  501    0  0.97366128247E+01 -0.20318167768E+02  0.84684971530E+01  0.24069586925E+02  0.00000000000E+00 0.  1.
         21    1    1    2  503  502 -0.97366128247E+01  0.20318167768E+02 -0.77455375721E+01  0.23824838363E+02  0.00000000000E+00 0.  1.
</event>
<event>
 4    1  0.2281973E+005  0.2548621E+02  0.7546771E-02  0.1463437E+00
          2   -1    0    0  503    0  0.00000000000E+00  0.00000000000E+00  0.36630914673E+03  0.36630914673E+03  0.00000000000E+00 0. -1.
         21   -1    0    0  501  502 -0.00000000000E+00 -0.00000000000E+00 -0.20288449127E+01  0.20288449127E+01  0.00000000000E+00 0.  1.
          2    1    1    2  501    0  0.18087494250E+02  0.17955201858E+02  0.24751243276E+03  0.24882112268E+03  0.00000000000E+00 0. -1.
         21    1    1    2  503  502 -0.18087494250E+02 -0.17955201858E+02  0.11676786906E+03  0.11951686896E+03  0.00000000000E+00 0.  1.
</event>
<event>
 4    1  0.2281973E+005  0.2512776E+02  0.7546771E-02  0.1467379E+00
          2   -1    0    0  503    0  0.00000000000E+00  0.00000000000E+00  0.21191714397E+03  0.21191714397E+03  0.00000000000E+00 0. -1.
         21   -1    0    0  501  502 -0.00000000000E+00 -0.00000000000E+00 -0.68237232596E+01  0.68237232596E+01  0.00000000000E+00 0.  1.
          2    1    1    2  501    0 -0.25011577903E+02 -0.24135198058E+01  0.18463748203E+03  0.18633948555E+03  0.00000000000E+00 0. -1.
         21    1    1    2  503  502  0.25011577903E+02  0.24135198058E+01  0.20455938681E+02  0.32401381674E+02  0.00000000000E+00 0.  1.
</event>
<event>
 4    1  0.2281973E+005  0.2142348E+02  0.7546771E-02  0.1513304E+00
          2   -1    0    0  502    0  0.00000000000E+00  0.00000000000E+00  0.29706514433E+03  0.29706514433E+03  0.00000000000E+00 0.  1.
         21   -1    0    0  503  502 -0.00000000000E+00 -0.00000000000E+00 -0.10800680892E+03  0.10800680892E+03  0.00000000000E+00 0. -1.
          2    1    1    2  501    0  0.18864663090E+02 -0.10153315781E+02  0.29561132400E+03  0.29638660599E+03  0.00000000000E+00 0.  1.
         21    1    1    2  503  501 -0.18864663090E+02  0.10153315781E+02 -0.10655298858E+03  0.10868534726E+03  0.00000000000E+00 0. -1.
</event>
<event>
 4    1  0.2281973E+005  0.2124589E+02  0.7546771E-02  0.1515783E+00
          2   -1    0    0  503    0  0.00000000000E+00  0.00000000000E+00  0.13586940613E+02  0.13586940613E+02  0.00000000000E+00 0.  1.
         21   -1    0    0  501  502 -0.00000000000E+00 -0.00000000000E+00 -0.17774263763E+03  0.17774263763E+03  0.00000000000E+00 0. -1.
          2    1    1    2  501    0  0.21078809099E+02  0.26592942613E+01  0.41844337822E+01  0.21654041772E+02  0.00000000000E+00 0.  1.
         21    1    1    2  503  502 -0.21078809099E+02 -0.26592942613E+01 -0.16834013080E+03  0.16967553647E+03  0.00000000000E+00 0. -1.
</event>
<event>
 4    1  0.2281973E+005  0.2147781E+02  0.7546771E-02  0.1512551E+00
          2   -1    0    0  503    0  0.00000000000E+00  0.00000000000E+00  0.13958021046E+02  0.13958021046E+02  0.00000000000E+00 0. -1.
         21   -1    0    0  501  502 -0.00000000000E+00 -0.00000000000E+00 -0.50036665710E+02  0.50036665710E+02  0.00000000000E+00 0. -1.
          2    1    1    2  501    0 -0.17800470031E+02 -0.12018297300E+02  0.60466603569E+00  0.21486317142E+02  0.00000000000E+00 0. -1.
         21    1    1    2  503  502  0.17800470031E+02  0.12018297300E+02 -0.36683310700E+02  0.42508369614E+02  0.00000000000E+00 0. -1.
</event>
<event>
 4    1  0.2281973E+005  0.2185266E+02  0.7546771E-02  0.1507431E+00
          2   -1    0    0  503    0  0.00000000000E+00  0.00000000000E+00  0.10792629760E+04  0.10792629760E+04  0.00000000000E+00 0. -1.
         21   -1    0    0  501  502 -0.00000000000E+00 -0.00000000000E+00 -0.55954963786E+00  0.55954963786E+00  0.00000000000E+00 0. -1.
          2    1    1    2  501    0  0.21108887083E+02 -0.56527508114E+01  0.78632418368E+03  0.78662777764E+03  0.00000000000E+00 0. -1.
         21    1    1    2  503  502 -0.21108887083E+02  0.56527508114E+01  0.29237924272E+03  0.29319474804E+03  0.00000000000E+00 0. -1.
</event>
<event>
 4    1  0.2281973E+005  0.2183824E+02  0.7546771E-02  0.1507625E+00
          2   -1    0    0  503    0  0.00000000000E+00  0.00000000000E+00  0.15119487144E+04  0.15119487144E+04  0.00000000000E+00 0. -1.
         21   -1    0    0  501  502 -0.00000000000E+00 -0.00000000000E+00 -0.41617345612E+02  0.41617345612E+02  0.00000000000E+00 0.  1.
          2    1    1    2  501    0  0.12965866786E+02  0.17572558400E+02  0.15089994166E+04  0.15091574298E+04  0.00000000000E+00 0. -1.
         21    1    1    2  503  502 -0.12965866786E+02 -0.17572558400E+02 -0.38668047865E+02  0.44408630196E+02  0.00000000000E+00 0.  1.
</event>
<event>
 4    1  0.2281973E+005  0.2838326E+02  0.7546771E-02  0.1434187E+00
          2   -1    0    0  503    0  0.00000000000E+00  0.00000000000E+00  0.12801016185E+04  0.12801016185E+04  0.00000000000E+00 0.  1.
         21   -1    0    0  501  502 -0.00000000000E+00 -0.00000000000E+00 -0.18500081839E+01  0.18500081839E+01  0.00000000000E+00 0.  1.
          2    1    1    2  501    0 -0.25621619772E+02 -0.12212378637E+02  0.11597866976E+04  0.11601339550E+04  0.00000000000E+00 0.  1.
         21    1    1    2  503  502  0.25621619772E+02  0.12212378637E+02  0.11846491268E+03  0.12181767166E+03  0.00000000000E+00 0.  1.
</event>
<event>
 4    1  0.2281973E+005  0.3184820E+02  0.7546771E-02  0.1404188E+00
          2   -1    0    0  503    0  0.00000000000E+00  0.00000000000E+00  0.16608677560E+04  0.16608677560E+04  0.00000000000E+00 0.  1.
         21   -1    0    0  501  502 -0.00000000000E+00 -0.00000000000E+00 -0.11435141241E+03  0.11435141241E+03  0.00000000000E+00 0. -1.
          2    1    1    2  501    0  0.31719520430E+02 -0.28600537514E+01  0.16584943818E+04  0.16588001454E+04  0.00000000000E+00 0.  1.
         21    1    1    2  503  502 -0.31719520430E+02  0.28600537514E+01 -0.11197803820E+03  0.11641902303E+03  0.00000000000E+00 0. -1.
</event>
<event>
 4    1  0.2281973E+005  0.2288309E+02  0.7546771E-02  0.1493971E+00
          2   -1    0    0  502    0  0.00000000000E+00  0.00000000000E+00  0.22533975342E+03  0.22533975342E+03  0.00000000000E+00 0. -1.
         21   -1    0    0  503  502 -0.00000000000E+00 -0.00000000000E+00 -0.11149592258E+03  0.11149592258E+03  0.00000000000E+00 0. -1.
          2    1    1    2  501    0  0.19177130002E+02  0.12484922443E+02  0.22357545840E+03  0.22474345642E+03  0.00000000000E+00 0. -1.
         21    1    1    2  503  501 -0.19177130002E+02 -0.12484922443E+02 -0.10973162756E+03  0.11209221958E+03  0.00000000000E+00 0. -1.
</event>
<event>
 4    1  0.2281973E+005  0.2580700E+02  0.7546771E-02  0.1459975E+00
          2   -1    0    0  503    0  0.00000000000E+00  0.00000000000E+00  0.10568902113E+04  0.10568902113E+04  0.00000000000E+00 0.  1.
         21   -1    0    0  501  502 -0.00000000000E+00 -0.00000000000E+00 -0.79680272322E+01  0.79680272322E+01  0.00000000000E+00 0.  1.
          2    1    1    2  501    0 -0.70627559872E+01  0.24821742307E+02  0.10354030385E+04  0.10357246032E+04  0.00000000000E+00 0.  1.
         21    1    1    2  503  502  0.70627559872E+01 -0.24821742307E+02  0.13519145535E+02  0.29133635360E+02  0.00000000000E+00 0.  1.
</event>
<event>
 4    1  0.2281973E+005  0.2058197E+02  0.7546771E-02  0.1525318E+00
          2   -1    0    0  503    0  0.00000000000E+00  0.00000000000E+00  0.10561179676E+04  0.10561179676E+04  0.00000000000E+00 0.  1.
         21   -1    0    0  501  502 -0.00000000000E+00 -0.00000000000E+00 -0.13123667717E+01  0.13123667717E+01  0.00000000000E+00 0.  1.
          2    1    1    2  501    0 -0.22245714447E+01 -0.20461395845E+02  0.96797288125E+03  0.96819167331E+03  0.00000000000E+00 0.  1.
         21    1    1    2  503  502  0.22245714447E+01  0.20461395845E+02  0.86832719567E+02  0.89238661047E+02  0.00000000000E+00 0.  1.
</event>
<event>
 4    1  0.2281973E+005  0.3196219E+02  0.7546771E-02  0.1403278E+00
          2   -1    0    0  503    0  0.00000000000E+00  0.00000000000E+00  0.14130780147E+04  0.14130780147E+04  0.00000000000E+00 0. -1.
         21   -1    0    0  501  502 -0.00000000000E+00 -0.00000000000E+00 -0.21285189913E+01  0.21285189913E+01  0.00000000000E+00 0.  1.
          2    1    1    2  501    0  0.54341002949E+00  0.31957573399E+02  0.12804874941E+04  0.12808863354E+04  0.00000000000E+00 0. -1.
         21    1    1    2  503  502 -0.54341002949E+00 -0.31957573399E+02  0.13046200158E+03  0.13432019821E+03  0.00000000000E+00 0.  1.
</event>
<event>
 4    1  0.2281973E+005  0.2401194E+02  0.7546771E-02  0.1480168E+00
          2   -1    0    0  502    0  0.00000000000E+00  0.00000000000E+00  0.80900944694E+03  0.80900944694E+03  0.00000000000E+00 0.  1.
         21   -1    0    0  503  502 -0.00000000000E+00 -0.00000000000E+00 -0.61474250957E+01  0.61474250957E+01  0.00000000000E+00 0.  1.
          2    1    1    2  501    0 -0.21683498477E+02  0.10314997237E+02  0.78465593721E+03  0.78502325639E+03  0.00000000000E+00 0.  1.
         21    1    1    2  503  501  0.21683498477E+02 -0.10314997237E+02  0.18206084635E+02  0.30133615646E+02  0.00000000000E+00 0.  1.
</event>
<event>
 4    1  0.2281973E+005  0.4226469E+02  0.7546771E-02  0.1335702E+00
          2   -1    0    0  502    0  0.00000000000E+00  0.00000000000E+00  0.27734144812E+04  0.27734144812E+04  0.00000000000E+00 0.  1.
         21   -1    0    0  503  502 -0.00000000000E+00 -0.00000000000E+00 -0.74773876433E+00  0.74773876433E+00  0.00000000000E+00 0.  1.
          2    1    1    2  501    0 -0.36615807674E+02 -0.21108928218E+02  0.19027822484E+04  0.19032515832E+04  0.00000000000E+00 0.  1.
         21    1    1    2  503  501  0.36615807674E+02  0.21108928218E+02  0.86988449404E+03  0.87091063674E+03  0.00000000000E+00 0.  1.
</event>
<event>
 4    1  0.2281973E+005  0.2020445E+02  0.7546771E-02  0.1530933E+00
          2   -1    0    0  503    0  0.00000000000E+00  0.00000000000E+00  0.40210063505E+03  0.40210063505E+03  0.00000000000E+00 0. -1.
         21   -1    0    0  501  502 -0.00000000000E+00 -0.00000000000E+00 -0.42364940770E+01  0.42364940770E+01  0.00000000000E+00 0. -1.
          2    1    1    2  501    0  0.20126953971E+02 -0.17679648574E+01  0.37609267560E+03  0.37663499654E+03  0.00000000000E+00 0. -1.
         21    1    1    2  503  502 -0.20126953971E+02  0.17679648574E+01  0.21771465370E+02  0.29702132588E+02  0.00000000000E+00 0. -1.
</event>
<event>
 4    1  0.2281973E+005  0.2181410E+02  0.7546771E-02  0.1507952E+00
          2   -1    0    0  503    0  0.00000000000E+00  0.00000000000E+00  0.11897443749E+04  0.11897443749E+04  0.00000000000E+00 0. -1.
         21   -1    0    0  501  502 -0.00000000000E+00 -0.00000000000E+00 -0.40628935623E+00  0.40628935623E+00  0.00000000000E+00 0. -1.
          2    1    1    2  501    0 -0.87174939262E+01  0.19996508544E+02  0.66891842067E+03  0.66927401605E+03  0.00000000000E+00 0. -1.
         21    1    1    2  503  502  0.87174939262E+01 -0.19996508544E+02  0.52041966484E+03  0.52087664817E+03  0.00000000000E+00 0. -1.
</event>
<event>
 4    1  0.2281973E+005  0.2626384E+02  0.7546771E-02  0.1455146E+00
          2   -1    0    0  502    0  0.00000000000E+00  0.00000000000E+00  0.65414451627E+03  0.65414451627E+03  0.00000000000E+00 0.  1.
         21   -1    0    0  503  502 -0.00000000000E+00 -0.00000000000E+00 -0.10004559018E+02  0.10004559018E+02  0.00000000000E+00 0.  1.
          2    1    1    2  501    0  0.59968528969E+00  0.26256995496E+02  0.63615684158E+03  0.63669876435E+03  0.00000000000E+00 0.  1.
         21    1    1    2  503  501 -0.59968528969E+00 -0.26256995496E+02  0.79831156741E+01  0.27450310942E+02  0.00000000000E+00 0.  1.
</event>
<event>
 4    1  0.2281973E+005  0.4690022E+02  0.7546771E-02  0.1312202E+00
          2   -1    0    0  502    0  0.00000000000E+00  0.00000000000E+00  0.22312446015E+03  0.22312446015E+03  0.00000000000E+00 0. -1.
         21   -1    0    0  503  502 -0.00000000000E+00 -0.00000000000E+00 -0.13710411877E+02  0.13710411877E+02  0.00000000000E+00 0.  1.
          2    1    1    2  501    0  0.45211221079E+02 -0.12473005135E+02  0.16747515788E+03  0.17391825342E+03  0.00000000000E+00 0. -1.
         21    1    1    2  503  501 -0.45211221079E+02  0.12473005135E+02  0.41938890393E+02  0.62916618599E+02  0.00000000000E+00 0.  1.
</event>
<event>
 4    1  0.2281973E+005  0.2297992E+02  0.7546771E-02  0.1492750E+00
          2   -1    0    0  503    0  0.00000000000E+00  0.00000000000E+00  0.16621021081E+03  0.16621021081E+03  0.00000000000E+00 0.  1.
         21   -1    0    0  501  502 -0.00000000000E+00 -0.00000000000E+00 -0.45096053483E+02  0.45096053483E+02  0.00000000000E+00 0.  1.
          2    1    1    2  501    0  0.16518615455E+01  0.22920469823E+02  0.16242044125E+03  0.16403803315E+03  0.00000000000E+00 0.  1.
         21    1    1    2  503  502 -0.16518615455E+01 -0.22920469823E+02 -0.41306283926E+02  0.47268231141E+02  0.00000000000E+00 0.  1.
</event>
<event>
 4    1  0.2281973E+005  0.3112222E+02  0.7546771E-02  0.1410089E+00
          2   -1    0    0  503    0  0.00000000000E+00  0.00000000000E+00  0.34192969923E+02  0.34192969923E+02  0.00000000000E+00 0.  1.
         21   -1    0    0  501  502 -0.00000000000E+00 -0.00000000000E+00 -0.12801158529E+03  0.12801158529E+03  0.00000000000E+00 0. -1.
          2    1    1    2  501    0 -0.30376892616E+01 -0.30973616135E+02  0.24659188866E+02  0.39707279535E+02  0.00000000000E+00 0.  1.
         21    1    1    2  503  502  0.30376892616E+01  0.30973616135E+02 -0.11847780423E+03  0.12249727567E+03  0.00000000000E+00 0. -1.
</event>
<event>
 4    1  0.2281973E+005  0.2291958E+02  0.7546771E-02  0.1493510E+00
          2   -1    0    0  502    0  0.00000000000E+00  0.00000000000E+00  0.21371993995E+03  0.21371993995E+03  0.00000000000E+00 0.  1.
         21   -1    0    0  503  502 -0.00000000000E+00 -0.00000000000E+00 -0.87431662160E+01  0.87431662160E+01  0.00000000000E+00 0. -1.
          2    1    1    2  501    0 -0.22570745553E+02 -0.39835389146E+01  0.19679772149E+03  0.19812786356E+03  0.00000000000E+00 0.  1.
         21    1    1    2  503  501  0.22570745553E+02  0.39835389146E+01  0.81790522512E+01  0.24335242608E+02  0.00000000000E+00 0. -1.
</event>
<event>
 4    1  0.2281973E+005  0.3252929E+02  0.7546771E-02  0.1398818E+00
          2   -1    0    0  503    0  0.00000000000E+00  0.00000000000E+00  0.12128581900E+03  0.12128581900E+03  0.00000000000E+00 0.  1.
         21   -1    0    0  501  502 -0.00000000000E+00 -0.00000000000E+00 -0.41223137089E+02  0.41223137089E+02  0.00000000000E+00 0. -1.
          2    1    1    2  501    0  0.14441524953E+02  0.29147843551E+02  0.11217689344E+03  0.11679815858E+03  0.00000000000E+00 0.  1.
         21    1    1    2  503  502 -0.14441524953E+02 -0.29147843551E+02 -0.32114211528E+02  0.45710797507E+02  0.00000000000E+00 0. -1.
</event>
<event>
 4    1  0.2281973E+005  0.2217401E+02  0.7546771E-02  0.1503139E+00
          2   -1    0    0  503    0  0.00000000000E+00  0.00000000000E+00  0.10023916133E+03  0.10023916133E+03  0.00000000000E+00 0. -1.
         21   -1    0    0  501  502 -0.00000000000E+00 -0.00000000000E+00 -0.29279842845E+02  0.29279842845E+02  0.00000000000E+00 0. -1.
          2    1    1    2  501    0  0.20936058279E+02  0.73053383470E+01  0.94566238788E+02  0.97131148573E+02  0.00000000000E+00 0. -1.
         21    1    1    2  503  502 -0.20936058279E+02 -0.73053383470E+01 -0.23606920301E+02  0.32387855605E+02  0.00000000000E+00 0. -1.
</event>
<event>
 4    1  0.2281973E+005  0.2975598E+02  0.7546771E-02  0.1421729E+00
          2   -1    0    0  503    0  0.00000000000E+00  0.00000000000E+00  0.99156672281E+02  0.99156672281E+02  0.00000000000E+00 0.  1.
         21   -1    0    0  501  502 -0.00000000000E+00 -0.00000000000E+00 -0.14007272659E+02  0.14007272659E+02  0.00000000000E+00 0.  1.
          2    1    1    2  501    0  0.70238692896E+01  0.28915112694E+02  0.76642050373E+02  0.82215706329E+02  0.00000000000E+00 0.  1.
         21    1    1    2  503  502 -0.70238692896E+01 -0.28915112694E+02  0.85073492491E+01  0.30948238611E+02  0.00000000000E+00 0.  1.
</event>
<event>
 4    1  0.2281973E+005  0.2037847E+02  0.7546771E-02  0.1528327E+00
          2   -1    0    0  502    0  0.00000000000E+00  0.00000000000E+00  0.13930169256E+03  0.13930169256E+03  0.00000000000E+00 0.  1.
         21   -1    0    0  503  502 -0.00000000000E+00 -0.00000000000E+00 -0.47212025319E+02  0.47212025319E+02  0.00000000000E+00 0.  1.
          2    1    1    2  501    0  0.92941273013E+00 -0.20357262165E+02  0.13630936672E+03  0.13782425543E+03  0.00000000000E+00 0.  1.
         21    1    1    2  503  501 -0.92941273013E+00  0.20357262165E+02 -0.44219699480E+02  0.48689462443E+02  0.00000000000E+00 0.  1.
</event>
<event>
 4    1  0.2281973E+005  0.3239954E+02  0.7546771E-02  0.1399829E+00
          2   -1    0    0  502    0  0.00000000000E+00  0.00000000000E+00  0.91688200586E+02  0.91688200586E+02  0.00000000000E+00 0.  1.
         21   -1    0    0  503  502 -0.00000000000E+00 -0.00000000000E+00 -0.16904289471E+02  0.16904289471E+02  0.00000000000E+00 0. -1.
          2    1    1    2  501    0 -0.26253971712E+02  0.18985765314E+02  0.68236876569E+02  0.75538080722E+02  0.00000000000E+00 0.  1.
         21    1    1    2  503  501  0.26253971712E+02 -0.18985765314E+02  0.65470345454E+01  0.33054409336E+02  0.00000000000E+00 0. -1.
</event>
<event>
 4    1  0.2281973E+005  0.6044412E+02  0.7546771E-02  0.1258331E+00
          2   -1    0    0  502    0  0.00000000000E+00  0.00000000000E+00  0.38369936176E+03  0.38369936176E+03  0.00000000000E+00 0.  1.
         21   -1    0    0  503  502 -0.00000000000E+00 -0.00000000000E+00 -0.28593711548E+02  0.28593711548E+02  0.00000000000E+00 0.  1.
          2    1    1    2  501    0 -0.14957936221E+02  0.58564080817E+02  0.34591262400E+03  0.35115386209E+03  0.00000000000E+00 0.  1.
         21    1    1    2  503  501  0.14957936221E+02 -0.58564080817E+02  0.91930262162E+01  0.61139211222E+02  0.00000000000E+00 0.  1.
</event>
<event>
 4    1  0.2281973E+005  0.2107560E+02  0.7546771E-02  0.1518188E+00
          2   -1    0    0  503    0  0.00000000000E+00  0.00000000000E+00  0.11875638790E+04  0.11875638790E+04  0.00000000000E+00 0. -1.
         21   -1    0    0  501  502 -0.00000000000E+00 -0.00000000000E+00 -0.39222532743E+00  0.39222532743E+00  0.00000000000E+00 0. -1.
          2    1    1    2  501    0 -0.15251754231E+02 -0.14545272265E+02  0.72152936130E+03  0.72183710086E+03  0.00000000000E+00 0. -1.
         21    1    1    2  503  502  0.15251754231E+02  0.14545272265E+02  0.46564229238E+03  0.46611900348E+03  0.00000000000E+00 0. -1.
</event>
<event>
 4    1  0.2281973E+005  0.3425600E+02  0.7546771E-02  0.1385870E+00
          2   -1    0    0  502    0  0.00000000000E+00  0.00000000000E+00  0.20007435038E+04  0.20007435038E+04  0.00000000000E+00 0. -1.
         21   -1    0    0  503  502 -0.00000000000E+00 -0.00000000000E+00 -0.29319203559E+01  0.29319203559E+01  0.00000000000E+00 0.  1.
          2    1    1    2  501    0 -0.24635359201E+02 -0.23802787753E+02  0.18949509515E+04  0.18952605579E+04  0.00000000000E+00 0. -1.
         21    1    1    2  503  501  0.24635359201E+02  0.23802787753E+02  0.10286063194E+03  0.10841486629E+03  0.00000000000E+00 0.  1.
</event>
<event>
 4    1  0.2281973E+005  0.3356236E+02  0.7546771E-02  0.1390962E+00
          2   -1    0    0  503    0  0.00000000000E+00  0.00000000000E+00  0.14865515706E+02  0.14865515706E+02  0.00000000000E+00 0.  1.
         21   -1    0    0  501  502 -0.00000000000E+00 -0.00000000000E+00 -0.81497676891E+03  0.81497676891E+03  0.00000000000E+00 0. -1.
          2    1    1    2  501    0 -0.20985975265E+02 -0.26192005735E+02 -0.48942487371E+01  0.33917340594E+02  0.00000000000E+00 0.  1.
         21    1    1    2  503  502  0.20985975265E+02  0.26192005735E+02 -0.79521700447E+03  0.79592494402E+03  0.00000000000E+00 0. -1.
</event>
<event>
 4    1  0.2281973E+005  0.2399498E+02  0.7546771E-02  0.1480368E+00
          2   -1    0    0  503    0  0.00000000000E+00  0.00000000000E+00  0.15407947931E+04  0.15407947931E+04  0.00000000000E+00 0.  1.
         21   -1    0    0  501  502 -0.00000000000E+00 -0.00000000000E+00 -0.71718816256E+01  0.71718816256E+01  0.00000000000E+00 0. -1.
          2    1    1    2  501    0  0.23707292913E+02 -0.37045021586E+01  0.15203616419E+04  0.15205509795E+04  0.00000000000E+00 0.  1.
         21    1    1    2  503  502 -0.23707292913E+02  0.37045021586E+01  0.13261269542E+02  0.27415695201E+02  0.00000000000E+00 0. -1.
</event>
<event>
 4    1  0.2281973E+005  0.6879923E+02  0.7546771E-02  0.1232549E+00
          2   -1    0    0  502    0  0.00000000000E+00  0.00000000000E+00  0.64819531181E+03  0.64819531181E+03  0.00000000000E+00 0.  1.
         21   -1    0    0  503  502 -0.00000000000E+00 -0.00000000000E+00 -0.10536123615E+02  0.10536123615E+02  0.00000000000E+00 0. -1.
          2    1    1    2  501    0  0.25860986398E+02 -0.63753773966E+02  0.50130078079E+03  0.50599980942E+03  0.00000000000E+00 0.  1.
         21    1    1    2  503  501 -0.25860986398E+02  0.63753773966E+02  0.13635840741E+03  0.15273162601E+03  0.00000000000E+00 0. -1.
</event>
<event>
 4    1  0.2281973E+005  0.3420452E+02  0.7546771E-02  0.1386243E+00
          2   -1    0    0  503    0  0.00000000000E+00  0.00000000000E+00  0.25219366289E+03  0.25219366289E+03  0.00000000000E+00 0.  1.
         21   -1    0    0  501  502 -0.00000000000E+00 -0.00000000000E+00 -0.81107756401E+01  0.81107756401E+01  0.00000000000E+00 0.  1.
          2    1    1    2  501    0  0.21626653025E+02  0.26499757573E+02  0.20719259749E+03  0.20999695647E+03  0.00000000000E+00 0.  1.
         21    1    1    2  503  502 -0.21626653025E+02 -0.26499757573E+02  0.36890289759E+02  0.50307482058E+02  0.00000000000E+00 0.  1.
</event>
<event>
 4    1  0.2281973E+005  0.2628327E+02  0.7546771E-02  0.1454944E+00
          2   -1    0    0  503    0  0.00000000000E+00  0.00000000000E+00  0.17767424050E+03  0.17767424050E+03  0.00000000000E+00 0. -1.
         21   -1    0    0  501  502 -0.00000000000E+00 -0.00000000000E+00 -0.98903501692E+01  0.98903501692E+01  0.00000000000E+00 0. -1.
          2    1    1    2  501    0 -0.27517011301E+01  0.26138827130E+02  0.15695084076E+03  0.15913634581E+03  0.00000000000E+00 0. -1.
         21    1    1    2  503  502  0.27517011301E+01 -0.26138827130E+02  0.10833049575E+02  0.28428244862E+02  0.00000000000E+00 0. -1.
</event>
<event>
 4    1  0.2281973E+005  0.3386629E+02  0.7546771E-02  0.1388713E+00
          2   -1    0    0  502    0  0.00000000000E+00  0.00000000000E+00  0.38216977329E+03  0.38216977329E+03  0.00000000000E+00 0.  1.
         21   -1    0    0  503  502 -0.00000000000E+00 -0.00000000000E+00 -0.86772161462E+01  0.86772161462E+01  0.00000000000E+00 0.  1.
          2    1    1    2  501    0  0.24208070235E+02  0.23683221353E+02  0.34480286988E+03  0.34646203936E+03  0.00000000000E+00 0.  1.
         21    1    1    2  503  501 -0.24208070235E+02 -0.23683221353E+02  0.28689687263E+02  0.44384950078E+02  0.00000000000E+00 0.  1.
</event>
<event>
 4    1  0.2281973E+005  0.2250080E+02  0.7546771E-02  0.1498864E+00
          2   -1    0    0  503    0  0.00000000000E+00  0.00000000000E+00  0.10260462647E+03  0.10260462647E+03  0.00000000000E+00 0. -1.
         21   -1    0    0  501  502 -0.00000000000E+00 -0.00000000000E+00 -0.49847018952E+01  0.49847018952E+01  0.00000000000E+00 0.  1.
          2    1    1    2  501    0 -0.67187794666E+01  0.21474268929E+02  0.54217081844E+02  0.58700751164E+02  0.00000000000E+00 0. -1.
         21    1    1    2  503  502  0.67187794666E+01 -0.21474268929E+02  0.43402842727E+02  0.48888577197E+02  0.00000000000E+00 0.  1.
</event>
<event>
 4    1  0.2281973E+005  0.2893508E+02  0.7546771E-02  0.1429082E+00
          2   -1    0    0  503    0  0.00000000000E+00  0.00000000000E+00  0.21952782203E+04  0.21952782203E+04  0.00000000000E+00 0.  1.
         21   -1    0    0  501  502 -0.00000000000E+00 -0.00000000000E+00 -0.48416118536E+00  0.48416118536E+00  0.00000000000E+00 0.  1.
          2    1    1    2  501    0 -0.27017064877E+02  0.10359406390E+02  0.16032373330E+04  0.16034984207E+04  0.00000000000E+00 0.  1.
         21    1    1    2  503  502  0.27017064877E+02 -0.10359406390E+02  0.59155672604E+03  0.59226396077E+03  0.00000000000E+00 0.  1.
</event>
<event>
 4    1  0.2281973E+005  0.2086497E+02  0.7546771E-02  0.1521202E+00
          2   -1    0    0  502    0  0.00000000000E+00  0.00000000000E+00  0.83237661443E+03  0.83237661443E+03  0.00000000000E+00 0. -1.
         21   -1    0    0  503  502 -0.00000000000E+00 -0.00000000000E+00 -0.19499777866E+01  0.19499777866E+01  0.00000000000E+00 0. -1.
          2    1    1    2  501    0 -0.57725821313E+01  0.20050538827E+02  0.77207287686E+03  0.77235475916E+03  0.00000000000E+00 0. -1.
         21    1    1    2  503  501  0.57725821313E+01 -0.20050538827E+02  0.58353759781E+02  0.61971833056E+02  0.00000000000E+00 0. -1.
</event>
<event>
 4    1  0.2281973E+005  0.4322329E+02  0.7546771E-02  0.1330567E+00
          2   -1    0    0  502    0  0.00000000000E+00  0.00000000000E+00  0.46459695517E+03  0.46459695517E+03  0.00000000000E+00 0. -1.
         21   -1    0    0  503  502 -0.00000000000E+00 -0.00000000000E+00 -0.42937903487E+01  0.42937903487E+01  0.00000000000E+00 0.  1.
          2    1    1    2  501    0  0.87814175184E+01  0.42321851425E+02  0.28921934890E+03  0.29243133242E+03  0.00000000000E+00 0. -1.
         21    1    1    2  503  501 -0.87814175184E+01 -0.42321851425E+02  0.17108381592E+03  0.17645941310E+03  0.00000000000E+00 0.  1.
</event>
<event>
 4    1  0.2281973E+005  0.2473230E+02  0.7546771E-02  0.1471820E+00
          2   -1    0    0  503    0  0.00000000000E+00  0.00000000000E+00  0.87166800311E+02  0.87166800311E+02  0.00000000000E+00 0. -1.
         21   -1    0    0  501  502 -0.00000000000E+00 -0.00000000000E+00 -0.74663786737E+01  0.74663786737E+01  0.00000000000E+00 0. -1.
          2    1    1    2  501    0 -0.14343593618E+02 -0.20148152255E+02  0.28247541981E+02  0.37544777868E+02  0.00000000000E+00 0. -1.
         21    1    1    2  503  502  0.14343593618E+02  0.20148152255E+02  0.51452879657E+02  0.57088401118E+02  0.00000000000E+00 0. -1.
</event>
<event>
 4    1  0.2281973E+005  0.2925305E+02  0.7546771E-02  0.1426200E+00
          2   -1    0    0  502    0  0.00000000000E+00  0.00000000000E+00  0.73721052028E+03  0.73721052028E+03  0.00000000000E+00 0.  1.
         21   -1    0    0  503  502 -0.00000000000E+00 -0.00000000000E+00 -0.14921287402E+02  0.14921287402E+02  0.00000000000E+00 0. -1.
          2    1    1    2  501    0 -0.28895048360E+02 -0.45625994660E+01  0.72228661353E+03  0.72287875416E+03  0.00000000000E+00 0.  1.
         21    1    1    2  503  501  0.28895048360E+02  0.45625994660E+01  0.26193512791E-02  0.29253053524E+02  0.00000000000E+00 0. -1.
</event>
<event>
 4    1  0.2281973E+005  0.2061064E+02  0.7546771E-02  0.1524897E+00
          2   -1    0    0  503    0  0.00000000000E+00  0.00000000000E+00  0.99065044631E+02  0.99065044631E+02  0.00000000000E+00 0.  1.
         21   -1    0    0  501  502 -0.00000000000E+00 -0.00000000000E+00 -0.16863993165E+02  0.16863993165E+02  0.00000000000E+00 0. -1.
          2    1    1    2  501    0 -0.20489898774E+02 -0.22277175747E+01  0.91156027544E+02  0.93457049146E+02  0.00000000000E+00 0.  1.
         21    1    1    2  503  502  0.20489898774E+02  0.22277175747E+01 -0.89549760789E+01  0.22471988651E+02  0.00000000000E+00 0. -1.
</event>
<event>
 4    1  0.2281973E+005  0.2351631E+02  0.7546771E-02  0.1486115E+00
          2   -1    0    0  503    0  0.00000000000E+00  0.00000000000E+00  0.15155514476E+04  0.15155514476E+04  0.00000000000E+00 0. -1.
         21   -1    0    0  501  502 -0.00000000000E+00 -0.00000000000E+00 -0.39421196920E+00  0.39421196920E+00  0.00000000000E+00 0. -1.
          2    1    1    2  501    0  0.17732363578E+02 -0.15446032755E+02  0.96428348922E+03  0.96457019663E+03  0.00000000000E+00 0. -1.
         21    1    1    2  503  502 -0.17732363578E+02  0.15446032755E+02  0.55087374637E+03  0.55137546289E+03  0.00000000000E+00 0. -1.
</event>
<event>
 4    1  0.2281973E+005  0.2246629E+02  0.7546771E-02  0.1499311E+00
          2   -1    0    0  503    0  0.00000000000E+00  0.00000000000E+00  0.48224600547E+02  0.48224600547E+02  0.00000000000E+00 0. -1.
         21   -1    0    0  501  502 -0.00000000000E+00 -0.00000000000E+00 -0.31727111330E+02  0.31727111330E+02  0.00000000000E+00 0. -1.
          2    1    1    2  501    0  0.21588586012E+02  0.62182997885E+01  0.40973181029E+02  0.46728319699E+02  0.00000000000E+00 0. -1.
         21    1    1    2  503  502 -0.21588586012E+02 -0.62182997885E+01 -0.24475691811E+02  0.33223392179E+02  0.00000000000E+00 0. -1.
</event>
<event>
 4    1  0.2281973E+005  0.2328424E+02  0.7546771E-02  0.1488959E+00
          2   -1    0    0  503    0  0.00000000000E+00  0.00000000000E+00  0.53179152697E+02  0.53179152697E+02  0.00000000000E+00 0.  1.
         21   -1    0    0  501  502 -0.00000000000E+00 -0.00000000000E+00 -0.16923545550E+03  0.16923545550E+03  0.00000000000E+00 0. -1.
          2    1    1    2  501    0  0.47910838535E+01 -0.22785987542E+02  0.49777514967E+02  0.54954132775E+02  0.00000000000E+00 0.  1.
         21    1    1    2  503  502 -0.47910838535E+01  0.22785987542E+02 -0.16583381777E+03  0.16746047542E+03  0.00000000000E+00 0. -1.
</event>
<event>
 4    1  0.2281973E+005  0.2932775E+02  0.7546771E-02  0.1425530E+00
          2   -1    0    0  503    0  0.00000000000E+00  0.00000000000E+00  0.63782914184E+03  0.63782914184E+03  0.00000000000E+00 0. -1.
         21   -1    0    0  501  502 -0.00000000000E+00 -0.00000000000E+00 -0.38296674228E+01  0.38296674228E+01  0.00000000000E+00 0. -1.
          2    1    1    2  501    0  0.16915236553E+02 -0.23958125729E+02  0.57523828099E+03  0.57598541382E+03  0.00000000000E+00 0. -1.
         21    1    1    2  503  502 -0.16915236553E+02  0.23958125729E+02  0.58761193426E+02  0.65673395442E+02  0.00000000000E+00 0. -1.
</event>
<event>
 4    1  0.2281973E+005  0.2045301E+02  0.7546771E-02  0.1527220E+00
          2   -1    0    0  503    0  0.00000000000E+00  0.00000000000E+00  0.50412412377E+03  0.50412412377E+03  0.00000000000E+00 0. -1.
         21   -1    0    0  501  502 -0.00000000000E+00 -0.00000000000E+00 -0.28601102281E+01  0.28601102281E+01  0.00000000000E+00 0.  1.
          2    1    1    2  501    0 -0.13476620482E+02 -0.15385256410E+02  0.46420856895E+03  0.46465892965E+03  0.00000000000E+00 0. -1.
         21    1    1    2  503  502  0.13476620482E+02  0.15385256410E+02  0.37055444588E+02  0.42325304346E+02  0.00000000000E+00 0.  1.
</event>
<event>
 4    1  0.2281973E+005  0.2077536E+02  0.7546771E-02  0.1522496E+00
          2   -1    0    0  503    0  0.00000000000E+00  0.00000000000E+00  0.92154500942E+03  0.92154500942E+03  0.00000000000E+00 0.  1.
         21   -1    0    0  501  502 -0.00000000000E+00 -0.00000000000E+00 -0.15717716367E+02  0.15717716367E+02  0.00000000000E+00 0. -1.
          2    1    1    2  501    0 -0.14893554500E+02 -0.14484397337E+02  0.91450999986E+03  0.91474595138E+03  0.00000000000E+00 0.  1.
         21    1    1    2  503  502  0.14893554500E+02  0.14484397337E+02 -0.86827068092E+01  0.22516774400E+02  0.00000000000E+00 0. -1.
</event>
<event>
 4    1  0.2281973E+005  0.2595602E+02  0.7546771E-02  0.1458387E+00
          2   -1    0    0  502    0  0.00000000000E+00  0.00000000000E+00  0.10267626359E+04  0.10267626359E+04  0.00000000000E+00 0.  1.
         21   -1    0    0  503  502 -0.00000000000E+00 -0.00000000000E+00 -0.27556662048E+02  0.27556662048E+02  0.00000000000E+00 0.  1.
          2    1    1    2  501    0 -0.52638310150E+01 -0.25416669829E+02  0.10204486969E+04  0.10207787508E+04  0.00000000000E+00 0.  1.
         21    1    1    2  503  501  0.52638310150E+01  0.25416669829E+02 -0.21242723051E+02  0.33540547174E+02  0.00000000000E+00 0.  1.
</event>
<event>
 4    1  0.2281973E+005  0.7285847E+02  0.7546771E-02  0.1221474E+00
          2   -1    0    0  503    0  0.00000000000E+00  0.00000000000E+00  0.10468766138E+04  0.10468766138E+04  0.00000000000E+00 0.  1.
         21   -1    0    0  501  502 -0.00000000000E+00 -0.00000000000E+00 -0.42005444334E+02  0.42005444334E+02  0.00000000000E+00 0.  1.
          2    1    1    2  501    0  0.26217828288E+02  0.67977801467E+02  0.10129591986E+04  0.10155760405E+04  0.00000000000E+00 0.  1.
         21    1    1    2  503  502 -0.26217828288E+02 -0.67977801467E+02 -0.80880290942E+01  0.73306017673E+02  0.00000000000E+00 0.  1.
</event>
<event>
 4    1  0.2281973E+005  0.2068578E+02  0.7546771E-02  0.1523799E+00
          2   -1    0    0  503    0  0.00000000000E+00  0.00000000000E+00  0.24400772951E+03  0.24400772951E+03  0.00000000000E+00 0. -1.
         21   -1    0    0  501  502 -0.00000000000E+00 -0.00000000000E+00 -0.41269074881E+01  0.41269074881E+01  0.00000000000E+00 0. -1.
          2    1    1    2  501    0 -0.20203634331E+02  0.44401344939E+01  0.21402498094E+03  0.21502231071E+03  0.00000000000E+00 0. -1.
         21    1    1    2  503  502  0.20203634331E+02 -0.44401344939E+01  0.25855841083E+02  0.33112326294E+02  0.00000000000E+00 0. -1.
</event>
<event>
 4    1  0.2281973E+005  0.3252251E+02  0.7546771E-02  0.1398871E+00
          2   -1    0    0  503    0  0.00000000000E+00  0.00000000000E+00  0.10730765037E+04  0.10730765037E+04  0.00000000000E+00 0.  1.
         21   -1    0    0  501  502 -0.00000000000E+00 -0.00000000000E+00 -0.38999168828E+01  0.38999168828E+01  0.00000000000E+00 0.  1.
          2    1    1    2  501    0 -0.32501825539E+02  0.11597174165E+01  0.10000786644E+04  0.10006073398E+04  0.00000000000E+00 0.  1.
         21    1    1    2  503  502  0.32501825539E+02 -0.11597174165E+01  0.69097922476E+02  0.76369080775E+02  0.00000000000E+00 0.  1.
</event>
<event>
 4    1  0.2281973E+005  0.2523414E+02  0.7546771E-02  0.1466201E+00
          2   -1    0    0  502    0  0.00000000000E+00  0.00000000000E+00  0.67329581203E+03  0.67329581203E+03  0.00000000000E+00 0. -1.
         21   -1    0    0  503  502 -0.00000000000E+00 -0.00000000000E+00 -0.13965477255E+01  0.13965477255E+01  0.00000000000E+00 0. -1.
          2    1    1    2  501    0 -0.23014104693E+02 -0.10349530452E+02  0.52761528197E+03  0.52821837109E+03  0.00000000000E+00 0. -1.
         21    1    1    2  503  501  0.23014104693E+02  0.10349530452E+02  0.14428398233E+03  0.14647398866E+03  0.00000000000E+00 0. -1.
</event>
<event>
 4    1  0.2281973E+005  0.1398728E+03  0.7546771E-02  0.1108475E+00
          2   -1    0    0  502    0  0.00000000000E+00  0.00000000000E+00  0.10184488692E+04  0.10184488692E+04  0.00000000000E+00 0. -1.
         21   -1    0    0  503  502 -0.00000000000E+00 -0.00000000000E+00 -0.63366015652E+02  0.63366015652E+02  0.00000000000E+00 0. -1.
          2    1    1    2  501    0 -0.10239423710E+03  0.95288136022E+02  0.92907460547E+03  0.93954458712E+03  0.00000000000E+00 0. -1.
         21    1    1    2  503  501  0.10239423710E+03 -0.95288136022E+02  0.26008248120E+02  0.14227029777E+03  0.00000000000E+00 0. -1.
</event>
<event>
 4    1  0.2281973E+005  0.2124009E+02  0.7546771E-02  0.1515865E+00
          2   -1    0    0  503    0  0.00000000000E+00  0.00000000000E+00  0.97964919890E+02  0.97964919890E+02  0.00000000000E+00 0.  1.
         21   -1    0    0  501  502 -0.00000000000E+00 -0.00000000000E+00 -0.12255816557E+02  0.12255816557E+02  0.00000000000E+00 0.  1.
          2    1    1    2  501    0 -0.20517072258E+02 -0.54946318641E+01  0.86396953315E+02  0.88969515990E+02  0.00000000000E+00 0.  1.
         21    1    1    2  503  502  0.20517072258E+02  0.54946318641E+01 -0.68784998181E+00  0.21251220458E+02  0.00000000000E+00 0.  1.
</event>
<event>
 4    1  0.2281973E+005  0.2473814E+02  0.7546771E-02  0.1471754E+00
          2   -1    0    0  503    0  0.00000000000E+00  0.00000000000E+00  0.27572688407E+03  0.27572688407E+03  0.00000000000E+00 0.  1.
         21   -1    0    0  501  502 -0.00000000000E+00 -0.00000000000E+00 -0.13902152118E+02  0.13902152118E+02  0.00000000000E+00 0.  1.
          2    1    1    2  501    0 -0.16394183921E+02 -0.18525822731E+02  0.26366459975E+03  0.26482257558E+03  0.00000000000E+00 0.  1.
         21    1    1    2  503  502  0.16394183921E+02  0.18525822731E+02 -0.18398678024E+01  0.24806460606E+02  0.00000000000E+00 0.  1.
</event>
<event>
 4    1  0.2281973E+005  0.2607054E+02  0.7546771E-02  0.1457175E+00
          2   -1    0    0  502    0  0.00000000000E+00  0.00000000000E+00  0.31453474903E+03  0.31453474903E+03  0.00000000000E+00 0. -1.
         21   -1    0    0  503  502 -0.00000000000E+00 -0.00000000000E+00 -0.45495685900E+02  0.45495685900E+02  0.00000000000E+00 0. -1.
          2    1    1    2  501    0  0.13991399741E+02  0.21998043889E+02  0.31020770080E+03  0.31130128627E+03  0.00000000000E+00 0. -1.
         21    1    1    2  503  501 -0.13991399741E+02 -0.21998043889E+02 -0.41168637666E+02  0.48729148658E+02  0.00000000000E+00 0. -1.
</event>
<event>
 4    1  0.2281973E+005  0.3143414E+02  0.7546771E-02  0.1407530E+00
          2   -1    0    0  503    0  0.00000000000E+00  0.00000000000E+00  0.62567480433E+03  0.62567480433E+03  0.00000000000E+00 0. -1.
         21   -1    0    0  501  502 -0.00000000000E+00 -0.00000000000E+00 -0.48530637327E+01  0.48530637327E+01  0.00000000000E+00 0.  1.
          2    1    1    2  501    0 -0.30905756706E+02  0.57392660674E+01  0.56934686398E+03  0.57021395677E+03  0.00000000000E+00 0. -1.
         21    1    1    2  503  502  0.30905756706E+02 -0.57392660674E+01  0.51474876617E+02  0.60313911291E+02  0.00000000000E+00 0.  1.
</event>
<event>
 4    1  0.2281973E+005  0.4695438E+02  0.7546771E-02  0.1311946E+00
          2   -1    0    0  503    0  0.00000000000E+00  0.00000000000E+00  0.13064798106E+04  0.13064798106E+04  0.00000000000E+00 0.  1.
         21   -1    0    0  501  502 -0.00000000000E+00 -0.00000000000E+00 -0.93895131913E+01  0.93895131913E+01  0.00000000000E+00 0. -1.
          2    1    1    2  501    0 -0.46931239129E+02 -0.14738757878E+01  0.12444305360E+04  0.12453160532E+04  0.00000000000E+00 0.  1.
         21    1    1    2  503  502  0.46931239129E+02  0.14738757878E+01  0.52659761451E+02  0.70553270598E+02  0.00000000000E+00 0. -1.
</event>
<event>
 4    1  0.2281973E+005  0.3172528E+02  0.7546771E-02  0.1405174E+00
          2   -1    0    0  503    0  0.00000000000E+00  0.00000000000E+00  0.17496729016E+03  0.17496729016E+03  0.00000000000E+00 0. -1.
         21   -1    0    0  501  502 -0.00000000000E+00 -0.00000000000E+00 -0.58605075431E+01  0.58605075431E+01  0.00000000000E+00 0. -1.
          2    1    1    2  501    0 -0.29612065419E+02 -0.11385019596E+02  0.96829660330E+02  0.10189443660E+03  0.00000000000E+00 0. -1.
         21    1    1    2  503  502  0.29612065419E+02  0.11385019596E+02  0.72277122288E+02  0.78933361108E+02  0.00000000000E+00 0. -1.
</event>
<event>
 4    1  0.2281973E+005  0.1181576E+03  0.7546771E-02  0.1135603E+00
          2   -1    0    0  503    0  0.00000000000E+00  0.00000000000E+00  0.21000898585E+04  0.21000898585E+04  0.00000000000E+00 0.  1.
         21   -1    0    0  501  502 -0.00000000000E+00 -0.00000000000E+00 -0.76806439615E+02  0.76806439615E+02  0.00000000000E+00 0. -1.
          2    1    1    2  501    0 -0.10375570319E+03  0.56532848271E+02  0.20519191172E+04  0.20553182898E+04  0.00000000000E+00 0.  1.
         21    1    1    2  503  502  0.10375570319E+03 -0.56532848271E+02 -0.28635698341E+02  0.12157800828E+03  0.00000000000E+00 0. -1.
</event>
<event>
 4    1  0.2281973E+005  0.4193154E+02  0.7546771E-02  0.1337524E+00
          2   -1    0    0  503    0  0.00000000000E+00  0.00000000000E+00  0.10379117554E+03  0.10379117554E+03  0.00000000000E+00 0.  1.
         21   -1    0    0  501  502 -0.00000000000E+00 -0.00000000000E+00 -0.27429105899E+02  0.27429105899E+02  0.00000000000E+00 0. -1.
          2    1    1    2  501    0 -0.19973271721E+02  0.36868986515E+02  0.78753196568E+02  0.89220623847E+02  0.00000000000E+00 0.  1.
         21    1    1    2  503  502  0.19973271721E+02 -0.36868986515E+02 -0.23911269269E+01  0.41999657592E+02  0.00000000000E+00 0. -1.
</event>
<event>
 4    1  0.2281973E+005  0.3664787E+02  0.7546771E-02  0.1369334E+00
          2   -1    0    0  503    0  0.00000000000E+00  0.00000000000E+00  0.27427764753E+02  0.27427764753E+02  0.00000000000E+00 0. -1.
         21   -1    0    0  501  502 -0.00000000000E+00 -0.00000000000E+00 -0.91892382501E+02  0.91892382501E+02  0.00000000000E+00 0. -1.
          2    1    1    2  501    0  0.25003877725E+02 -0.26793140175E+02  0.85431732446E+01  0.37630467321E+02  0.00000000000E+00 0. -1.
         21    1    1    2  503  502 -0.25003877725E+02  0.26793140175E+02 -0.73007790993E+02  0.81689679932E+02  0.00000000000E+00 0. -1.
</event>
<event>
 4    1  0.2281973E+005  0.2208802E+02  0.7546771E-02  0.1504279E+00
          2   -1    0    0  502    0  0.00000000000E+00  0.00000000000E+00  0.54310690313E+03  0.54310690313E+03  0.00000000000E+00 0.  1.
         21   -1    0    0  503  502 -0.00000000000E+00 -0.00000000000E+00 -0.12567959338E+01  0.12567959338E+01  0.00000000000E+00 0. -1.
          2    1    1    2  501    0 -0.20676768459E+02  0.77686515600E+01  0.41629017946E+03  0.41687575393E+03  0.00000000000E+00 0.  1.
         21    1    1    2  503  501  0.20676768459E+02 -0.77686515600E+01  0.12555992774E+03  0.12748794513E+03  0.00000000000E+00 0. -1.
</event>
<event>
 4    1  0.2281973E+005  0.3395878E+02  0.7546771E-02  0.1388035E+00
          2   -1    0    0  502    0  0.00000000000E+00  0.00000000000E+00  0.32349441681E+04  0.32349441681E+04  0.00000000000E+00 0.  1.
         21   -1    0    0  503  502 -0.00000000000E+00 -0.00000000000E+00 -0.40551801923E+00  0.40551801923E+00  0.00000000000E+00 0.  1.
          2    1    1    2  501    0  0.13138224351E+02 -0.31314305221E+02  0.21797980928E+04  0.21800625964E+04  0.00000000000E+00 0.  1.
         21    1    1    2  503  501 -0.13138224351E+02  0.31314305221E+02  0.10547405573E+04  0.10552870898E+04  0.00000000000E+00 0.  1.
</event>
<event>
 4    1  0.2281973E+005  0.3447897E+02  0.7546771E-02  0.1384264E+00
          2   -1    0    0  503    0  0.00000000000E+00  0.00000000000E+00  0.89367527696E+02  0.89367527696E+02  0.00000000000E+00 0. -1.
         21   -1    0    0  501  502 -0.00000000000E+00 -0.00000000000E+00 -0.25593653927E+02  0.25593653927E+02  0.00000000000E+00 0. -1.
          2    1    1    2  501    0  0.34223844643E+02 -0.41866051534E+01  0.71720929955E+02  0.79578206807E+02  0.00000000000E+00 0. -1.
         21    1    1    2  503  502 -0.34223844643E+02  0.41866051534E+01 -0.79470561866E+01  0.35382974817E+02  0.00000000000E+00 0. -1.
</event>
<event>
 4    1  0.2281973E+005  0.5925566E+02  0.7546771E-02  0.1262383E+00
          2   -1    0    0  503    0  0.00000000000E+00  0.00000000000E+00  0.10663365874E+04  0.10663365874E+04  0.00000000000E+00 0. -1.
         21   -1    0    0  501  502 -0.00000000000E+00 -0.00000000000E+00 -0.45526152393E+02  0.45526152393E+02  0.00000000000E+00 0. -1.
          2    1    1    2  501    0 -0.27900898905E+00  0.59255002494E+02  0.10458546774E+04  0.10475319754E+04  0.00000000000E+00 0. -1.
         21    1    1    2  503  502  0.27900898905E+00 -0.59255002494E+02 -0.25044242441E+02  0.64330764382E+02  0.00000000000E+00 0. -1.
</event>
<event>
 4    1  0.2281973E+005  0.2414106E+02  0.7546771E-02  0.1478646E+00
          2   -1    0    0  503    0  0.00000000000E+00  0.00000000000E+00  0.59840850120E+03  0.59840850120E+03  0.00000000000E+00 0.  1.
         21   -1    0    0  501  502 -0.00000000000E+00 -0.00000000000E+00 -0.11698436228E+01  0.11698436228E+01  0.00000000000E+00 0.  1.
          2    1    1    2  501    0  0.46591027729E+01  0.23687206093E+02  0.42131122494E+03  0.42200229766E+03  0.00000000000E+00 0.  1.
         21    1    1    2  503  502 -0.46591027729E+01 -0.23687206093E+02  0.17592743263E+03  0.17757604716E+03  0.00000000000E+00 0.  1.
</event>
<event>
 4    1  0.2281973E+005  0.2081699E+02  0.7546771E-02  0.1521894E+00
          2   -1    0    0  503    0  0.00000000000E+00  0.00000000000E+00  0.69988199481E+02  0.69988199481E+02  0.00000000000E+00 0. -1.
         21   -1    0    0  501  502 -0.00000000000E+00 -0.00000000000E+00 -0.89268023667E+02  0.89268023667E+02  0.00000000000E+00 0.  1.
          2    1    1    2  501    0 -0.75903854509E+01 -0.19383841807E+02  0.67177034645E+02  0.70328523788E+02  0.00000000000E+00 0. -1.
         21    1    1    2  503  502  0.75903854509E+01  0.19383841807E+02 -0.86456858831E+02  0.88927699360E+02  0.00000000000E+00 0.  1.
</event>
<event>
 4    1  0.2281973E+005  0.2034948E+02  0.7546771E-02  0.1528759E+00
          2   -1    0    0  503    0  0.00000000000E+00  0.00000000000E+00  0.79986658154E+03  0.79986658154E+03  0.00000000000E+00 0.  1.
         21   -1    0    0  501  502 -0.00000000000E+00 -0.00000000000E+00 -0.56582368896E+00  0.56582368896E+00  0.00000000000E+00 0.  1.
          2    1    1    2  501    0 -0.23227485576E+01 -0.20216478987E+02  0.51635168185E+03  0.51675251381E+03  0.00000000000E+00 0.  1.
         21    1    1    2  503  502  0.23227485576E+01  0.20216478987E+02  0.28294907601E+03  0.28367989142E+03  0.00000000000E+00 0.  1.
</event>
<event>
 4    1  0.2281973E+005  0.2317901E+02  0.7546771E-02  0.1490262E+00
          2   -1    0    0  503    0  0.00000000000E+00  0.00000000000E+00  0.26373789065E+03  0.26373789065E+03  0.00000000000E+00 0. -1.
         21   -1    0    0  501  502 -0.00000000000E+00 -0.00000000000E+00 -0.26533046692E+01  0.26533046692E+01  0.00000000000E+00 0. -1.
          2    1    1    2  501    0  0.75167366928E+01  0.21926357377E+02  0.19472983677E+03  0.19610450226E+03  0.00000000000E+00 0. -1.
         21    1    1    2  503  502 -0.75167366928E+01 -0.21926357377E+02  0.66354749210E+02  0.70286693058E+02  0.00000000000E+00 0. -1.
</event>
<event>
 4    1  0.2281973E+005  0.2070294E+02  0.7546771E-02  0.1523549E+00
          2   -1    0    0  502    0  0.00000000000E+00  0.00000000000E+00  0.12535644542E+04  0.12535644542E+04  0.00000000000E+00 0. -1.
         21   -1    0    0  503  502 -0.00000000000E+00 -0.00000000000E+00 -0.45419453882E+01  0.45419453882E+01  0.00000000000E+00 0. -1.
          2    1    1    2  501    0 -0.16867770446E+02  0.12003758843E+02  0.12294238982E+04  0.12295982000E+04  0.00000000000E+00 0. -1.
         21    1    1    2  503  501  0.16867770446E+02 -0.12003758843E+02  0.19598610538E+02  0.28508199543E+02  0.00000000000E+00 0. -1.
</event>
<event>
 4    1  0.2281973E+005  0.2688242E+02  0.7546771E-02  0.1448793E+00
          2   -1    0    0  503    0  0.00000000000E+00  0.00000000000E+00  0.98735547113E+03  0.98735547113E+03  0.00000000000E+00 0.  1.
         21   -1    0    0  501  502 -0.00000000000E+00 -0.00000000000E+00 -0.49157274603E+01  0.49157274603E+01  0.00000000000E+00 0.  1.
          2    1    1    2  501    0 -0.15228664596E+01  0.26839248597E+02  0.94893195806E+03  0.94931265946E+03  0.00000000000E+00 0.  1.
         21    1    1    2  503  502  0.15228664596E+01 -0.26839248597E+02  0.33507785606E+02  0.42958539124E+02  0.00000000000E+00 0.  1.
</event>
<event>
 4    1  0.2281973E+005  0.3220636E+02  0.7546771E-02  0.1401344E+00
          2   -1    0    0  503    0  0.00000000000E+00  0.00000000000E+00  0.13329176808E+02  0.13329176808E+02  0.00000000000E+00 0. -1.
         21   -1    0    0  501  502 -0.00000000000E+00 -0.00000000000E+00 -0.24970013549E+03  0.24970013549E+03  0.00000000000E+00 0. -1.
          2    1    1    2  501    0 -0.96263148756E+01 -0.30734078651E+02 -0.90715567856E+01  0.33459567707E+02  0.00000000000E+00 0. -1.
         21    1    1    2  503  502  0.96263148756E+01  0.30734078651E+02 -0.22729940190E+03  0.22956974459E+03  0.00000000000E+00 0. -1.
</event>
<event>
 4    1  0.2281973E+005  0.5992720E+02  0.7546771E-02  0.1260080E+00
          2   -1    0    0  503    0  0.00000000000E+00  0.00000000000E+00  0.19513269602E+04  0.19513269602E+04  0.00000000000E+00 0.  1.
         21   -1    0    0  501  502 -0.00000000000E+00 -0.00000000000E+00 -0.87110178770E+01  0.87110178770E+01  0.00000000000E+00 0. -1.
          2    1    1    2  501    0 -0.55664112025E+02  0.22198561908E+02  0.18416644537E+04  0.18426392022E+04  0.00000000000E+00 0.  1.
         21    1    1    2  503  502  0.55664112025E+02 -0.22198561908E+02  0.10095148862E+03  0.11739877585E+03  0.00000000000E+00 0. -1.
</event>
<event>
 4    1  0.2281973E+005  0.2282460E+02  0.7546771E-02  0.1494712E+00
          2   -1    0    0  503    0  0.00000000000E+00  0.00000000000E+00  0.55354509268E+03  0.55354509268E+03  0.00000000000E+00 0.  1.
         21   -1    0    0  501  502 -0.00000000000E+00 -0.00000000000E+00 -0.22754193827E+01  0.22754193827E+01  0.00000000000E+00 0. -1.
          2    1    1    2  501    0  0.22800296581E+02  0.10530291785E+01  0.48844753548E+03  0.48898052856E+03  0.00000000000E+00 0.  1.
         21    1    1    2  503  502 -0.22800296581E+02 -0.10530291785E+01  0.62822137814E+02  0.66839983499E+02  0.00000000000E+00 0. -1.
</event>
<event>
 4    1  0.2281973E+005  0.3039743E+02  0.7546771E-02  0.1416174E+00
          2   -1    0    0  502    0  0.00000000000E+00  0.00000000000E+00  0.56923678076E+02  0.56923678076E+02  0.00000000000E+00 0.  1.
         21   -1    0    0  503  502 -0.00000000000E+00 -0.00000000000E+00 -0.19833826628E+02  0.19833826628E+02  0.00000000000E+00 0. -1.
          2    1    1    2  501    0 -0.28840088416E+02  0.96048492104E+01  0.34899122058E+02  0.46281233222E+02  0.00000000000E+00 0.  1.
         21    1    1    2  503  501  0.28840088416E+02 -0.96048492104E+01  0.21907293904E+01  0.30476271482E+02  0.00000000000E+00 0. -1.
</event>
<event>
 4    1  0.2281973E+005  0.2239156E+02  0.7546771E-02  0.1500283E+00
          2   -1    0    0  502    0  0.00000000000E+00  0.00000000000E+00  0.38977784829E+02  0.38977784829E+02  0.00000000000E+00 0. -1.
         21   -1    0    0  503  502 -0.00000000000E+00 -0.00000000000E+00 -0.80521798696E+03  0.80521798696E+03  0.00000000000E+00 0. -1.
          2    1    1    2  501    0 -0.46540657539E+01 -0.21902552901E+02  0.35592724865E+02  0.42050258203E+02  0.00000000000E+00 0. -1.
         21    1    1    2  503  501  0.46540657539E+01  0.21902552901E+02 -0.80183292699E+03  0.80214551358E+03  0.00000000000E+00 0. -1.
</event>
<event>
 4    1  0.2281973E+005  0.2975255E+02  0.7546771E-02  0.1421759E+00
          2   -1    0    0  503    0  0.00000000000E+00  0.00000000000E+00  0.10208609211E+04  0.10208609211E+04  0.00000000000E+00 0.  1.
         21   -1    0    0  501  502 -0.00000000000E+00 -0.00000000000E+00 -0.64126013660E+03  0.64126013660E+03  0.00000000000E+00 0.  1.
          2    1    1    2  501    0 -0.29476670061E+02  0.40422698618E+01  0.10202988426E+04  0.10207325518E+04  0.00000000000E+00 0.  1.
         21    1    1    2  503  502  0.29476670061E+02 -0.40422698618E+01 -0.64069805805E+03  0.64138850599E+03  0.00000000000E+00 0.  1.
</event>
<event>
 4    1  0.2281973E+005  0.2118978E+02  0.7546771E-02  0.1516572E+00
          2   -1    0    0  503    0  0.00000000000E+00  0.00000000000E+00  0.89632506892E+03  0.89632506892E+03  0.00000000000E+00 0. -1.
         21   -1    0    0  501  502 -0.00000000000E+00 -0.00000000000E+00 -0.26642329810E+03  0.26642329810E+03  0.00000000000E+00 0. -1.
          2    1    1    2  501    0  0.21188844544E+02 -0.19890923795E+00  0.89577824801E+03  0.89602883676E+03  0.00000000000E+00 0. -1.
         21    1    1    2  503  502 -0.21188844544E+02  0.19890923795E+00 -0.26587647719E+03  0.26671953026E+03  0.00000000000E+00 0. -1.
</event>
<event>
 4    1  0.2281973E+005  0.4041715E+02  0.7546771E-02  0.1346059E+00
          2   -1    0    0  502    0  0.00000000000E+00  0.00000000000E+00  0.37720903949E+03  0.37720903949E+03  0.00000000000E+00 0.  1.
         21   -1    0    0  503  502 -0.00000000000E+00 -0.00000000000E+00 -0.66136079074E+01  0.66136079074E+01  0.00000000000E+00 0.  1.
          2    1    1    2  501    0 -0.34513689507E+02  0.21032143153E+02  0.29805224394E+03  0.30078012887E+03  0.00000000000E+00 0.  1.
         21    1    1    2  503  501  0.34513689507E+02 -0.21032143153E+02  0.72543187643E+02  0.83042518522E+02  0.00000000000E+00 0.  1.
</event>
<event>
 4    1  0.2281973E+005  0.3253788E+02  0.7546771E-02  0.1398751E+00
          2   -1    0    0  503    0  0.00000000000E+00  0.00000000000E+00  0.10466792307E+03  0.10466792307E+03  0.00000000000E+00 0.  1.
         21   -1    0    0  501  502 -0.00000000000E+00 -0.00000000000E+00 -0.14753817286E+02  0.14753817286E+02  0.00000000000E+00 0.  1.
          2    1    1    2  501    0  0.32501440614E+02  0.15395498461E+01  0.78438622620E+02  0.84919558255E+02  0.00000000000E+00 0.  1.
         21    1    1    2  503  502 -0.32501440614E+02 -0.15395498461E+01  0.11475483160E+02  0.34502182097E+02  0.00000000000E+00 0.  1.
</event>
<event>
 4    1  0.2281973E+005  0.2319186E+02  0.7546771E-02  0.1490103E+00
          2   -1    0    0  502    0  0.00000000000E+00  0.00000000000E+00  0.14226007695E+03  0.14226007695E+03  0.00000000000E+00 0.  1.
         21   -1    0    0  503  502 -0.00000000000E+00 -0.00000000000E+00 -0.89147433665E+01  0.89147433665E+01  0.00000000000E+00 0.  1.
          2    1    1    2  501    0  0.15762877896E+02  0.17011584783E+02  0.12403396382E+03  0.12618354298E+03  0.00000000000E+00 0.  1.
         21    1    1    2  503  501 -0.15762877896E+02 -0.17011584783E+02  0.93113697633E+01  0.24991277343E+02  0.00000000000E+00 0.  1.
</event>
<event>
 4    1  0.2281973E+005  0.4104134E+02  0.7546771E-02  0.1342489E+00
          2   -1    0    0  503    0  0.00000000000E+00  0.00000000000E+00  0.78531093053E+03  0.78531093053E+03  0.00000000000E+00 0. -1.
         21   -1    0    0  501  502 -0.00000000000E+00 -0.00000000000E+00 -0.32414578765E+01  0.32414578765E+01  0.00000000000E+00 0.  1.
          2    1    1    2  501    0  0.19532969195E+02 -0.36095082187E+02  0.62035983206E+03  0.62171594244E+03  0.00000000000E+00 0. -1.
         21    1    1    2  503  502 -0.19532969195E+02  0.36095082187E+02  0.16170964059E+03  0.16683644597E+03  0.00000000000E+00 0.  1.
</event>
<event>
 4    1  0.2281973E+005  0.2210058E+02  0.7546771E-02  0.1504112E+00
          2   -1    0    0  502    0  0.00000000000E+00  0.00000000000E+00  0.39101523048E+03  0.39101523048E+03  0.00000000000E+00 0. -1.
         21   -1    0    0  503  502 -0.00000000000E+00 -0.00000000000E+00 -0.12138369766E+02  0.12138369766E+02  0.00000000000E+00 0. -1.
          2    1    1    2  501    0 -0.88373417312E+01  0.20256781714E+02  0.38036166807E+03  0.38100319467E+03  0.00000000000E+00 0. -1.
         21    1    1    2  503  501  0.88373417312E+01 -0.20256781714E+02 -0.14848073531E+01  0.22150405575E+02  0.00000000000E+00 0. -1.
</event>
<event>
 4    1  0.2281973E+005  0.2341255E+02  0.7546771E-02  0.1487382E+00
          2   -1    0    0  502    0  0.00000000000E+00  0.00000000000E+00  0.50125541888E+03  0.50125541888E+03  0.00000000000E+00 0.  1.
         21   -1    0    0  503  502 -0.00000000000E+00 -0.00000000000E+00 -0.23160540079E+01  0.23160540079E+01  0.00000000000E+00 0. -1.
          2    1    1    2  501    0 -0.23400357856E+02  0.75535889538E+00  0.43239849816E+03  0.43303187934E+03  0.00000000000E+00 0.  1.
         21    1    1    2  503  501  0.23400357856E+02 -0.75535889538E+00  0.66540866707E+02  0.70539593542E+02  0.00000000000E+00 0. -1.
</event>
<event>
 4    1  0.2281973E+005  0.2202278E+02  0.7546771E-02  0.1505148E+00
          2   -1    0    0  503    0  0.00000000000E+00  0.00000000000E+00  0.16658929006E+03  0.16658929006E+03  0.00000000000E+00 0.  1.
         21   -1    0    0  501  502 -0.00000000000E+00 -0.00000000000E+00 -0.38200497597E+03  0.38200497597E+03  0.00000000000E+00 0.  1.
          2    1    1    2  501    0 -0.23198151036E+01 -0.21900255408E+02  0.16554204287E+03  0.16700051104E+03  0.00000000000E+00 0.  1.
         21    1    1    2  503  502  0.23198151036E+01  0.21900255408E+02 -0.38095772878E+03  0.38159375499E+03  0.00000000000E+00 0.  1.
</event>
<event>
 4    1  0.2281973E+005  0.4348706E+02  0.7546771E-02  0.1329180E+00
          2   -1    0    0  502    0  0.00000000000E+00  0.00000000000E+00  0.31640061961E+03  0.31640061961E+03  0.00000000000E+00 0. -1.
         21   -1    0    0  503  502 -0.00000000000E+00 -0.00000000000E+00 -0.11889987465E+02  0.11889987465E+02  0.00000000000E+00 0.  1.
          2    1    1    2  501    0 -0.35081689348E+02  0.25698230972E+02  0.26801078867E+03  0.27151594216E+03  0.00000000000E+00 0. -1.
         21    1    1    2  503  501  0.35081689348E+02 -0.25698230972E+02  0.36499843475E+02  0.56774664916E+02  0.00000000000E+00 0.  1.
</event>
<event>
 4    1  0.2281973E+005  0.2327552E+02  0.7546771E-02  0.1489067E+00
          2   -1    0    0  502    0  0.00000000000E+00  0.00000000000E+00  0.12246719397E+04  0.12246719397E+04  0.00000000000E+00 0. -1.
         21   -1    0    0  503  502 -0.00000000000E+00 -0.00000000000E+00 -0.20853869625E+02  0.20853869625E+02  0.00000000000E+00 0. -1.
          2    1    1    2  501    0 -0.11499773280E+02 -0.20236236466E+02  0.12180313455E+04  0.12182537128E+04  0.00000000000E+00 0. -1.
         21    1    1    2  503  501  0.11499773280E+02  0.20236236466E+02 -0.14213275431E+02  0.27272096551E+02  0.00000000000E+00 0. -1.
</event>
<event>
 4    1  0.2281973E+005  0.2190092E+02  0.7546771E-02  0.1506781E+00
          2   -1    0    0  503    0  0.00000000000E+00  0.00000000000E+00  0.47672613734E+01  0.47672613734E+01  0.00000000000E+00 0. -1.
         21   -1    0    0  501  502 -0.00000000000E+00 -0.00000000000E+00 -0.48584738643E+03  0.48584738643E+03  0.00000000000E+00 0.  1.
          2    1    1    2  501    0  0.21028763486E+02  0.61189343912E+01 -0.22104728362E+02  0.31117025369E+02  0.00000000000E+00 0. -1.
         21    1    1    2  503  502 -0.21028763486E+02 -0.61189343912E+01 -0.45897539669E+03  0.45949762243E+03  0.00000000000E+00 0.  1.
</event>
<event>
 4    1  0.2281973E+005  0.2297282E+02  0.7546771E-02  0.1492840E+00
          2   -1    0    0  503    0  0.00000000000E+00  0.00000000000E+00  0.59007203878E+03  0.59007203878E+03  0.00000000000E+00 0.  1.
         21   -1    0    0  501  502 -0.00000000000E+00 -0.00000000000E+00 -0.94292544513E+00  0.94292544513E+00  0.00000000000E+00 0.  1.
          2    1    1    2  501    0  0.16422051898E+02 -0.16064447291E+02  0.22751564596E+03  0.22867251564E+03  0.00000000000E+00 0.  1.
         21    1    1    2  503  502 -0.16422051898E+02  0.16064447291E+02  0.36161346738E+03  0.36234244858E+03  0.00000000000E+00 0.  1.
</event>
<event>
 4    1  0.2281973E+005  0.2348769E+02  0.7546771E-02  0.1486463E+00
          2   -1    0    0  502    0  0.00000000000E+00  0.00000000000E+00  0.99089480174E+01  0.99089480174E+01  0.00000000000E+00 0. -1.
         21   -1    0    0  503  502 -0.00000000000E+00 -0.00000000000E+00 -0.23888752241E+03  0.23888752241E+03  0.00000000000E+00 0.  1.
          2    1    1    2  501    0  0.22726101553E+02  0.59326317126E+01 -0.55470915076E+01  0.24133835895E+02  0.00000000000E+00 0. -1.
         21    1    1    2  503  501 -0.22726101553E+02 -0.59326317126E+01 -0.22343148288E+03  0.22466263453E+03  0.00000000000E+00 0.  1.
</event>
<event>
 4    1  0.2281973E+005  0.2205647E+02  0.7546771E-02  0.1504699E+00
          2   -1    0    0  503    0  0.00000000000E+00  0.00000000000E+00  0.17347087887E+03  0.17347087887E+03  0.00000000000E+00 0.  1.
         21   -1    0    0  501  502 -0.00000000000E+00 -0.00000000000E+00 -0.16376628876E+02  0.16376628876E+02  0.00000000000E+00 0.  1.
          2    1    1    2  501    0 -0.23380310388E+01  0.21932203206E+02  0.16496183305E+03  0.16642984796E+03  0.00000000000E+00 0.  1.
         21    1    1    2  503  502  0.23380310388E+01 -0.21932203206E+02 -0.78675830631E+01  0.23417659786E+02  0.00000000000E+00 0.  1.
</event>
<event>
 4    1  0.2281973E+005  0.2492831E+02  0.7546771E-02  0.1469607E+00
          2   -1    0    0  502    0  0.00000000000E+00  0.00000000000E+00  0.76500675910E+02  0.76500675910E+02  0.00000000000E+00 0.  1.
         21   -1    0    0  503  502 -0.00000000000E+00 -0.00000000000E+00 -0.13106749219E+02  0.13106749219E+02  0.00000000000E+00 0.  1.
          2    1    1    2  501    0 -0.24873470981E+02  0.16526703773E+01  0.59324441518E+02  0.64349127729E+02  0.00000000000E+00 0.  1.
         21    1    1    2  503  501  0.24873470981E+02 -0.16526703773E+01  0.40694851733E+01  0.25258297401E+02  0.00000000000E+00 0.  1.
</event>
<event>
 4    1  0.2281973E+005  0.2008978E+02  0.7546771E-02  0.1532668E+00
          2   -1    0    0  503    0  0.00000000000E+00  0.00000000000E+00  0.11353412559E+02  0.11353412559E+02  0.00000000000E+00 0. -1.
         21   -1    0    0  501  502 -0.00000000000E+00 -0.00000000000E+00 -0.67051073514E+02  0.67051073514E+02  0.00000000000E+00 0.  1.
          2    1    1    2  501    0 -0.19326479522E+02 -0.54851205386E+01 -0.97809803682E+00  0.20113578344E+02  0.00000000000E+00 0. -1.
         21    1    1    2  503  502  0.19326479522E+02  0.54851205386E+01 -0.54719562918E+02  0.58290907730E+02  0.00000000000E+00 0.  1.
</event>
<event>
 4    1  0.2281973E+005  0.2599949E+02  0.7546771E-02  0.1457926E+00
          2   -1    0    0  502    0  0.00000000000E+00  0.00000000000E+00  0.13188783961E+03  0.13188783961E+03  0.00000000000E+00 0. -1.
         21   -1    0    0  503  502 -0.00000000000E+00 -0.00000000000E+00 -0.45863699347E+02  0.45863699347E+02  0.00000000000E+00 0. -1.
          2    1    1    2  501    0  0.10954482784E+01  0.25976400494E+02  0.12677473082E+03  0.12941331371E+03  0.00000000000E+00 0. -1.
         21    1    1    2  503  501 -0.10954482784E+01 -0.25976400494E+02 -0.40750590558E+02  0.48338225251E+02  0.00000000000E+00 0. -1.
</event>
<event>
 4    1  0.2281973E+005  0.3814809E+02  0.7546771E-02  0.1359693E+00
          2   -1    0    0  502    0  0.00000000000E+00  0.00000000000E+00  0.17114665863E+04  0.17114665863E+04  0.00000000000E+00 0.  1.
         21   -1    0    0  503  502 -0.00000000000E+00 -0.00000000000E+00 -0.94667508255E+00  0.94667508255E+00  0.00000000000E+00 0. -1.
          2    1    1    2  501    0  0.37762536800E+02 -0.54099508978E+01  0.11284334057E+04  0.11290780433E+04  0.00000000000E+00 0.  1.
         21    1    1    2  503  501 -0.37762536800E+02  0.54099508978E+01  0.58208650559E+03  0.58333521816E+03  0.00000000000E+00 0. -1.
</event>
<event>
 4    1  0.2281973E+005  0.3286036E+02  0.7546771E-02  0.1396263E+00
          2   -1    0    0  503    0  0.00000000000E+00  0.00000000000E+00  0.82694472509E+01  0.82694472509E+01  0.00000000000E+00 0. -1.
         21   -1    0    0  501  502 -0.00000000000E+00 -0.00000000000E+00 -0.13304773397E+03  0.13304773397E+03  0.00000000000E+00 0. -1.
          2    1    1    2  501    0 -0.12800627948E+02  0.30264622418E+02 -0.72017085881E+02  0.79159737902E+02  0.00000000000E+00 0. -1.
         21    1    1    2  503  502  0.12800627948E+02 -0.30264622418E+02 -0.52761200833E+02  0.62157443314E+02  0.00000000000E+00 0. -1.
</event>
<event>
 4    1  0.2281973E+005  0.2516966E+02  0.7546771E-02  0.1466914E+00
          2   -1    0    0  503    0  0.00000000000E+00  0.00000000000E+00  0.18258951053E+04  0.18258951053E+04  0.00000000000E+00 0.  1.
         21   -1    0    0  501  502 -0.00000000000E+00 -0.00000000000E+00 -0.14068452819E+01  0.14068452819E+01  0.00000000000E+00 0.  1.
          2    1    1    2  501    0 -0.15763584705E+02  0.19621955952E+02  0.17052687568E+04  0.17054544980E+04  0.00000000000E+00 0.  1.
         21    1    1    2  503  502  0.15763584705E+02 -0.19621955952E+02  0.11921950319E+03  0.12184745258E+03  0.00000000000E+00 0.  1.
</event>
<event>
 4    1  0.2281973E+005  0.2756274E+02  0.7546771E-02  0.1442036E+00
          2   -1    0    0  502    0  0.00000000000E+00  0.00000000000E+00  0.25414934057E+04  0.25414934057E+04  0.00000000000E+00 0.  1.
         21   -1    0    0  503  502 -0.00000000000E+00 -0.00000000000E+00 -0.32349865369E+00  0.32349865369E+00  0.00000000000E+00 0.  1.
          2    1    1    2  501    0  0.27168149568E+02 -0.46471863557E+01  0.16208944564E+04  0.16211287868E+04  0.00000000000E+00 0.  1.
         21    1    1    2  503  501 -0.27168149568E+02  0.46471863557E+01  0.92027545067E+03  0.92068811755E+03  0.00000000000E+00 0.  1.
</event>
<event>
 4    1  0.2281973E+005  0.3155791E+02  0.7546771E-02  0.1406525E+00
          2   -1    0    0  503    0  0.00000000000E+00  0.00000000000E+00  0.12701834915E+04  0.12701834915E+04  0.00000000000E+00 0. -1.
         21   -1    0    0  501  502 -0.00000000000E+00 -0.00000000000E+00 -0.34977315076E+01  0.34977315076E+01  0.00000000000E+00 0. -1.
          2    1    1    2  501    0  0.22631224314E+02 -0.21993846710E+02  0.11942824233E+04  0.11946992962E+04  0.00000000000E+00 0. -1.
         21    1    1    2  503  502 -0.22631224314E+02  0.21993846710E+02  0.72403336718E+02  0.78981926888E+02  0.00000000000E+00 0. -1.
</event>
<event>
 4    1  0.2281973E+005  0.2012013E+02  0.7546771E-02  0.1532207E+00
          2   -1    0    0  502    0  0.00000000000E+00  0.00000000000E+00  0.34913434590E+03  0.34913434590E+03  0.00000000000E+00 0.  1.
         21   -1    0    0  503  502 -0.00000000000E+00 -0.00000000000E+00 -0.10717372765E+02  0.10717372765E+02  0.00000000000E+00 0. -1.
          2    1    1    2  501    0 -0.19012329987E+02 -0.65841419163E+01  0.33912287149E+03  0.33971920991E+03  0.00000000000E+00 0.  1.
         21    1    1    2  503  501  0.19012329987E+02  0.65841419163E+01 -0.70589835175E+00  0.20132508756E+02  0.00000000000E+00 0. -1.
</event>
<event>
 4    1  0.2281973E+005  0.3470691E+02  0.7546771E-02  0.1382635E+00
          2   -1    0    0  503    0  0.00000000000E+00  0.00000000000E+00  0.23704302710E+02  0.23704302710E+02  0.00000000000E+00 0.  1.
         21   -1    0    0  501  502 -0.00000000000E+00 -0.00000000000E+00 -0.89740995646E+03  0.89740995646E+03  0.00000000000E+00 0.  1.
          2    1    1    2  501    0 -0.33741280625E+02 -0.81299210881E+01  0.10474595399E+02  0.36253093438E+02  0.00000000000E+00 0.  1.
         21    1    1    2  503  502  0.33741280625E+02  0.81299210881E+01 -0.88418024915E+03  0.88486116573E+03  0.00000000000E+00 0.  1.
</event>
<event>
 4    1  0.2281973E+005  0.3190880E+02  0.7546771E-02  0.1403703E+00
          2   -1    0    0  503    0  0.00000000000E+00  0.00000000000E+00  0.27126180167E+03  0.27126180167E+03  0.00000000000E+00 0. -1.
         21   -1    0    0  501  502 -0.00000000000E+00 -0.00000000000E+00 -0.29633719090E+03  0.29633719090E+03  0.00000000000E+00 0. -1.
          2    1    1    2  501    0  0.18138036421E+02  0.26252302112E+02  0.26945874386E+03  0.27134145716E+03  0.00000000000E+00 0. -1.
         21    1    1    2  503  502 -0.18138036421E+02 -0.26252302112E+02 -0.29453413309E+03  0.29625753541E+03  0.00000000000E+00 0. -1.
</event>
<event>
 4    1  0.2281973E+005  0.2490052E+02  0.7546771E-02  0.1469919E+00
          2   -1    0    0  502    0  0.00000000000E+00  0.00000000000E+00  0.10884478093E+03  0.10884478093E+03  0.00000000000E+00 0.  1.
         21   -1    0    0  503  502 -0.00000000000E+00 -0.00000000000E+00 -0.28213560035E+02  0.28213560035E+02  0.00000000000E+00 0. -1.
          2    1    1    2  501    0  0.24693149451E+02  0.32068975896E+01  0.10153686679E+03  0.10454554576E+03  0.00000000000E+00 0.  1.
         21    1    1    2  503  501 -0.24693149451E+02 -0.32068975896E+01 -0.20905645889E+02  0.32512795204E+02  0.00000000000E+00 0. -1.
</event>
<event>
 4    1  0.2281973E+005  0.2489070E+02  0.7546771E-02  0.1470030E+00
          2   -1    0    0  503    0  0.00000000000E+00  0.00000000000E+00  0.62146932242E+03  0.62146932242E+03  0.00000000000E+00 0.  1.
         21   -1    0    0  501  502 -0.00000000000E+00 -0.00000000000E+00 -0.12950223660E+02  0.12950223660E+02  0.00000000000E+00 0. -1.
          2    1    1    2  501    0  0.60316938690E+01  0.24148824528E+02  0.60901546102E+03  0.60952389520E+03  0.00000000000E+00 0.  1.
         21    1    1    2  503  502 -0.60316938690E+01 -0.24148824528E+02 -0.49636226579E+00  0.24895650875E+02  0.00000000000E+00 0. -1.
</event>
<event>
 4    1  0.2281973E+005  0.3005137E+02  0.7546771E-02  0.1419151E+00
          2   -1    0    0  503    0  0.00000000000E+00  0.00000000000E+00  0.20094632996E+04  0.20094632996E+04  0.00000000000E+00 0.  1.
         21   -1    0    0  501  502 -0.00000000000E+00 -0.00000000000E+00 -0.47541186476E+01  0.47541186476E+01  0.00000000000E+00 0. -1.
          2    1    1    2  501    0  0.26490976744E+02  0.14188484380E+02  0.19606798220E+04  0.19609101074E+04  0.00000000000E+00 0.  1.
         21    1    1    2  503  502 -0.26490976744E+02 -0.14188484380E+02  0.44029358882E+02  0.53307310769E+02  0.00000000000E+00 0. -1.
</event>
<event>
 4    1  0.2281973E+005  0.2639780E+02  0.7546771E-02  0.1453753E+00
          2   -1    0    0  503    0  0.00000000000E+00  0.00000000000E+00  0.79636571802E+03  0.79636571802E+03  0.00000000000E+00 0.  1.
         21   -1    0    0  501  502 -0.00000000000E+00 -0.00000000000E+00 -0.12250038313E+01  0.12250038313E+01  0.00000000000E+00 0.  1.
          2    1    1    2  501    0  0.19481398055E+02  0.17813446768E+02  0.61072719444E+03  0.61129743152E+03  0.00000000000E+00 0.  1.
         21    1    1    2  503  502 -0.19481398055E+02 -0.17813446768E+02  0.18441351975E+03  0.18629329034E+03  0.00000000000E+00 0.  1.
</event>
<event>
 4    1  0.2281973E+005  0.2230286E+02  0.7546771E-02  0.1501443E+00
          2   -1    0    0  502    0  0.00000000000E+00  0.00000000000E+00  0.49326842012E+02  0.49326842012E+02  0.00000000000E+00 0. -1.
         21   -1    0    0  503  502 -0.00000000000E+00 -0.00000000000E+00 -0.15981265498E+03  0.15981265498E+03  0.00000000000E+00 0. -1.
          2    1    1    2  501    0  0.19895280244E+02  0.10079458993E+02  0.45973932825E+02  0.51098142520E+02  0.00000000000E+00 0. -1.
         21    1    1    2  503  501 -0.19895280244E+02 -0.10079458993E+02 -0.15645974579E+03  0.15804135447E+03  0.00000000000E+00 0. -1.
</event>
<event>
 4    1  0.2281973E+005  0.2250727E+02  0.7546771E-02  0.1498780E+00
          2   -1    0    0  502    0  0.00000000000E+00  0.00000000000E+00  0.10431485141E+04  0.10431485141E+04  0.00000000000E+00 0.  1.
         21   -1    0    0  503  502 -0.00000000000E+00 -0.00000000000E+00 -0.11637923223E+02  0.11637923223E+02  0.00000000000E+00 0.  1.
          2    1    1    2  501    0 -0.15423894925E+02  0.16391478688E+02  0.10320278281E+04  0.10322732270E+04  0.00000000000E+00 0.  1.
         21    1    1    2  503  501  0.15423894925E+02 -0.16391478688E+02 -0.51723719287E+00  0.22513210401E+02  0.00000000000E+00 0.  1.
</event>
<event>
 4    1  0.2281973E+005  0.3610065E+02  0.7546771E-02  0.1372986E+00
          2   -1    0    0  503    0  0.00000000000E+00  0.00000000000E+00  0.61234371836E+02  0.61234371836E+02  0.00000000000E+00 0. -1.
         21   -1    0    0  501  502 -0.00000000000E+00 -0.00000000000E+00 -0.99145561509E+02  0.99145561509E+02  0.00000000000E+00 0. -1.
          2    1    1    2  501    0  0.35471462537E+02 -0.67106340019E+01  0.52108046801E+02  0.63391685611E+02  0.00000000000E+00 0. -1.
         21    1    1    2  503  502 -0.35471462537E+02  0.67106340019E+01 -0.90019236473E+02  0.96988247734E+02  0.00000000000E+00 0. -1.
</event>
<event>
 4    1  0.2281973E+005  0.2107927E+02  0.7546771E-02  0.1518136E+00
          2   -1    0    0  503    0  0.00000000000E+00  0.00000000000E+00  0.92519016277E+03  0.92519016277E+03  0.00000000000E+00 0.  1.
         21   -1    0    0  501  502 -0.00000000000E+00 -0.00000000000E+00 -0.11603141504E+01  0.11603141504E+01  0.00000000000E+00 0.  1.
          2    1    1    2  501    0 -0.14626125769E+02  0.15179329850E+02  0.81660614758E+03  0.81687816464E+03  0.00000000000E+00 0.  1.
         21    1    1    2  503  502  0.14626125769E+02 -0.15179329850E+02  0.10742370104E+03  0.10947231228E+03  0.00000000000E+00 0.  1.
</event>
<event>
 4    1  0.2281973E+005  0.2574491E+02  0.7546771E-02  0.1460640E+00
          2   -1    0    0  503    0  0.00000000000E+00  0.00000000000E+00  0.88497554680E+01  0.88497554680E+01  0.00000000000E+00 0.  1.
         21   -1    0    0  501  502 -0.00000000000E+00 -0.00000000000E+00 -0.11620564890E+03  0.11620564890E+03  0.00000000000E+00 0.  1.
          2    1    1    2  501    0 -0.14089389037E+02 -0.21547383878E+02 -0.16396657097E+02  0.30522958562E+02  0.00000000000E+00 0.  1.
         21    1    1    2  503  502  0.14089389037E+02  0.21547383878E+02 -0.90959236339E+02  0.94532445810E+02  0.00000000000E+00 0.  1.
</event>
<event>
 4    1  0.2281973E+005  0.2121191E+02  0.7546771E-02  0.1516261E+00
          2   -1    0    0  502    0  0.00000000000E+00  0.00000000000E+00  0.37920722440E+03  0.37920722440E+03  0.00000000000E+00 0.  1.
         21   -1    0    0  503  502 -0.00000000000E+00 -0.00000000000E+00 -0.16570114735E+02  0.16570114735E+02  0.00000000000E+00 0. -1.
          2    1    1    2  501    0 -0.19338660552E+02  0.87155730871E+01  0.37199049530E+03  0.37259478472E+03  0.00000000000E+00 0.  1.
         21    1    1    2  503  501  0.19338660552E+02 -0.87155730871E+01 -0.93533856382E+01  0.23182554412E+02  0.00000000000E+00 0. -1.
</event>
<event>
 4    1  0.2281973E+005  0.2003581E+02  0.7546771E-02  0.1533489E+00
          2   -1    0    0  503    0  0.00000000000E+00  0.00000000000E+00  0.10843178030E+04  0.10843178030E+04  0.00000000000E+00 0. -1.
         21   -1    0    0  501  502 -0.00000000000E+00 -0.00000000000E+00 -0.15510703465E+01  0.15510703465E+01  0.00000000000E+00 0. -1.
          2    1    1    2  501    0  0.19978902794E+02  0.15090662942E+01  0.10151118101E+04  0.10153095197E+04  0.00000000000E+00 0. -1.
         21    1    1    2  503  502 -0.19978902794E+02 -0.15090662942E+01  0.67654922560E+02  0.70559353629E+02  0.00000000000E+00 0. -1.
</event>
<event>
 4    1  0.2281973E+005  0.2204132E+02  0.7546771E-02  0.1504900E+00
          2   -1    0    0  502    0  0.00000000000E+00  0.00000000000E+00  0.70009371786E+03  0.70009371786E+03  0.00000000000E+00 0. -1.
         21   -1    0    0  503  502 -0.00000000000E+00 -0.00000000000E+00 -0.16426916823E+01  0.16426916823E+01  0.00000000000E+00 0. -1.
          2    1    1    2  501    0  0.11582772892E+02 -0.18752573849E+02  0.61587660749E+03  0.61627089441E+03  0.00000000000E+00 0. -1.
         21    1    1    2  503  501 -0.11582772892E+02  0.18752573849E+02  0.82574418696E+02  0.85465515132E+02  0.00000000000E+00 0. -1.
</event>
<event>
 4    1  0.2281973E+005  0.2765159E+02  0.7546771E-02  0.1441170E+00
          2   -1    0    0  503    0  0.00000000000E+00  0.00000000000E+00  0.17772445387E+04  0.17772445387E+04  0.00000000000E+00 0.  1.
         21   -1    0    0  501  502 -0.00000000000E+00 -0.00000000000E+00 -0.37133609664E+02  0.37133609664E+02  0.00000000000E+00 0.  1.
          2    1    1    2  501    0  0.27589944070E+02  0.18454017148E+01  0.17719739741E+04  0.17721897120E+04  0.00000000000E+00 0.  1.
         21    1    1    2  503  502 -0.27589944070E+02 -0.18454017148E+01 -0.31863045055E+02  0.42188436347E+02  0.00000000000E+00 0.  1.
</event>
<event>
 4    1  0.2281973E+005  0.2430255E+02  0.7546771E-02  0.1476759E+00
          2   -1    0    0  502    0  0.00000000000E+00  0.00000000000E+00  0.18454342722E+02  0.18454342722E+02  0.00000000000E+00 0.  1.
         21   -1    0    0  503  502 -0.00000000000E+00 -0.00000000000E+00 -0.39484576406E+03  0.39484576406E+03  0.00000000000E+00 0. -1.
          2    1    1    2  501    0  0.18769270884E+02  0.15437893420E+02  0.99024179860E+01  0.26242560178E+02  0.00000000000E+00 0.  1.
         21    1    1    2  503  501 -0.18769270884E+02 -0.15437893420E+02 -0.38629383932E+03  0.38705754660E+03  0.00000000000E+00 0. -1.
</event>
<event>
 4    1  0.2281973E+005  0.2549072E+02  0.7546771E-02  0.1463388E+00
          2   -1    0    0  503    0  0.00000000000E+00  0.00000000000E+00  0.55136003229E+02  0.55136003229E+02  0.00000000000E+00 0. -1.
         21   -1    0    0  501  502 -0.00000000000E+00 -0.00000000000E+00 -0.12293158487E+02  0.12293158487E+02  0.00000000000E+00 0. -1.
          2    1    1    2  501    0  0.74069192676E+01 -0.24390862729E+02  0.28276219546E+02  0.38069951793E+02  0.00000000000E+00 0. -1.
         21    1    1    2  503  502 -0.74069192676E+01  0.24390862729E+02  0.14566625196E+02  0.29359209923E+02  0.00000000000E+00 0. -1.
</event>
<event>
 4    1  0.2281973E+005  0.2116057E+02  0.7546771E-02  0.1516985E+00
          2   -1    0    0  503    0  0.00000000000E+00  0.00000000000E+00  0.13217017240E+04  0.13217017240E+04  0.00000000000E+00 0.  1.
         21   -1    0    0  501  502 -0.00000000000E+00 -0.00000000000E+00 -0.23740730835E+03  0.23740730835E+03  0.00000000000E+00 0.  1.
          2    1    1    2  501    0 -0.21155951728E+02 -0.44195581915E+00  0.13211453093E+04  0.13213147611E+04  0.00000000000E+00 0.  1.
         21    1    1    2  503  502  0.21155951728E+02  0.44195581915E+00 -0.23685089365E+03  0.23779427125E+03  0.00000000000E+00 0.  1.
</event>
<event>
 4    1  0.2281973E+005  0.2016618E+02  0.7546771E-02  0.1531510E+00
          2   -1    0    0  502    0  0.00000000000E+00  0.00000000000E+00  0.56983282951E+03  0.56983282951E+03  0.00000000000E+00 0. -1.
         21   -1    0    0  503  502 -0.00000000000E+00 -0.00000000000E+00 -0.99054384077E+01  0.99054384077E+01  0.00000000000E+00 0. -1.
          2    1    1    2  501    0 -0.16766509989E+02  0.11205300645E+02  0.55919530200E+03  0.55955880870E+03  0.00000000000E+00 0. -1.
         21    1    1    2  503  501  0.16766509989E+02 -0.11205300645E+02  0.73208910409E+00  0.20179459215E+02  0.00000000000E+00 0. -1.
</event>
<event>
 4    1  0.2281973E+005  0.2538329E+02  0.7546771E-02  0.1464561E+00
          2   -1    0    0  503    0  0.00000000000E+00  0.00000000000E+00  0.61665304052E+02  0.61665304052E+02  0.00000000000E+00 0. -1.
         21   -1    0    0  501  502 -0.00000000000E+00 -0.00000000000E+00 -0.10600122938E+02  0.10600122938E+02  0.00000000000E+00 0. -1.
          2    1    1    2  501    0  0.24877339011E+02  0.50427810080E+01  0.29853626995E+02  0.39186103166E+02  0.00000000000E+00 0. -1.
         21    1    1    2  503  502 -0.24877339011E+02 -0.50427810080E+01  0.21211554118E+02  0.33079323824E+02  0.00000000000E+00 0. -1.
</event>
<event>
 4    1  0.2281973E+005  0.2277559E+02  0.7546771E-02  0.1495335E+00
          2   -1    0    0  502    0  0.00000000000E+00  0.00000000000E+00  0.14769548402E+04  0.14769548402E+04  0.00000000000E+00 0.  1.
         21   -1    0    0  503  502 -0.00000000000E+00 -0.00000000000E+00 -0.18804174520E+01  0.18804174520E+01  0.00000000000E+00 0.  1.
          2    1    1    2  501    0  0.18893004133E+02  0.12719352111E+02  0.14043367174E+04  0.14045213930E+04  0.00000000000E+00 0.  1.
         21    1    1    2  503  501 -0.18893004133E+02 -0.12719352111E+02  0.70737705336E+02  0.74313864652E+02  0.00000000000E+00 0.  1.
</event>
<event>
 4    1  0.2281973E+005  0.2379127E+02  0.7546771E-02  0.1482794E+00
          2   -1    0    0  503    0  0.00000000000E+00  0.00000000000E+00  0.85231490689E+03  0.85231490689E+03  0.00000000000E+00 0.  1.
         21   -1    0    0  501  502 -0.00000000000E+00 -0.00000000000E+00 -0.25892466425E+01  0.25892466425E+01  0.00000000000E+00 0.  1.
          2    1    1    2  501    0  0.12178229795E+02  0.20438087191E+02  0.79344329753E+03  0.79379990620E+03  0.00000000000E+00 0.  1.
         21    1    1    2  503  502 -0.12178229795E+02 -0.20438087191E+02  0.56282362722E+02  0.61104247336E+02  0.00000000000E+00 0.  1.
</event>
<event>
 4    1  0.2281973E+005  0.2251588E+02  0.7546771E-02  0.1498668E+00
          2   -1    0    0  502    0  0.00000000000E+00  0.00000000000E+00  0.14450496735E+04  0.14450496735E+04  0.00000000000E+00 0.  1.
         21   -1    0    0  503  502 -0.00000000000E+00 -0.00000000000E+00 -0.12187499553E+01  0.12187499553E+01  0.00000000000E+00 0. -1.
          2    1    1    2  501    0 -0.22510022970E+02  0.51372005401E+00  0.13321569626E+04  0.13323472287E+04  0.00000000000E+00 0.  1.
         21    1    1    2  503  501  0.22510022970E+02 -0.51372005401E+00  0.11167396094E+03  0.11392119467E+03  0.00000000000E+00 0. -1.
</event>
<event>
 4    1  0.2281973E+005  0.3117429E+02  0.7546771E-02  0.1409659E+00
          2   -1    0    0  503    0  0.00000000000E+00  0.00000000000E+00  0.19480405042E+04  0.19480405042E+04  0.00000000000E+00 0. -1.
         21   -1    0    0  501  502 -0.00000000000E+00 -0.00000000000E+00 -0.96360275322E+00  0.96360275322E+00  0.00000000000E+00 0.  1.
          2    1    1    2  501    0  0.30883657388E+02 -0.42468606199E+01  0.16502931328E+04  0.16505875501E+04  0.00000000000E+00 0. -1.
         21    1    1    2  503  502 -0.30883657388E+02  0.42468606199E+01  0.29678376862E+03  0.29841655690E+03  0.00000000000E+00 0.  1.
</event>
<event>
 4    1  0.2281973E+005  0.2070635E+02  0.7546771E-02  0.1523499E+00
          2   -1    0    0  503    0  0.00000000000E+00  0.00000000000E+00  0.99823937750E+03  0.99823937750E+03  0.00000000000E+00 0.  1.
         21   -1    0    0  501  502 -0.00000000000E+00 -0.00000000000E+00 -0.14485615008E+03  0.14485615008E+03  0.00000000000E+00 0. -1.
          2    1    1    2  501    0  0.20220399444E+02 -0.44596244381E+01  0.99739140814E+03  0.99760632207E+03  0.00000000000E+00 0.  1.
         21    1    1    2  503  502 -0.20220399444E+02  0.44596244381E+01 -0.14400818072E+03  0.14548920550E+03  0.00000000000E+00 0. -1.
</event>
<event>
 4    1  0.2281973E+005  0.4492021E+02  0.7546771E-02  0.1321839E+00
          2   -1    0    0  503    0  0.00000000000E+00  0.00000000000E+00  0.18549246726E+04  0.18549246726E+04  0.00000000000E+00 0. -1.
         21   -1    0    0  501  502 -0.00000000000E+00 -0.00000000000E+00 -0.11315905270E+01  0.11315905270E+01  0.00000000000E+00 0. -1.
          2    1    1    2  501    0 -0.24143163320E+02 -0.37880504460E+02  0.11094143511E+04  0.11103233886E+04  0.00000000000E+00 0. -1.
         21    1    1    2  503  502  0.24143163320E+02  0.37880504460E+02  0.74437873102E+03  0.74573287453E+03  0.00000000000E+00 0. -1.
</event>
<event>
 4    1  0.2281973E+005  0.2325920E+02  0.7546771E-02  0.1489269E+00
          2   -1    0    0  503    0  0.00000000000E+00  0.00000000000E+00  0.93785460809E+03  0.93785460809E+03  0.00000000000E+00 0. -1.
         21   -1    0    0  501  502 -0.00000000000E+00 -0.00000000000E+00 -0.57689914313E+00  0.57689914313E+00  0.00000000000E+00 0. -1.
          2    1    1    2  501    0  0.16148271560E+02  0.16739878186E+02  0.46380913307E+03  0.46439197034E+03  0.00000000000E+00 0. -1.
         21    1    1    2  503  502 -0.16148271560E+02 -0.16739878186E+02  0.47346857588E+03  0.47403953690E+03  0.00000000000E+00 0. -1.
</event>
<event>
 4    1  0.2281973E+005  0.2284040E+02  0.7546771E-02  0.1494512E+00
          2   -1    0    0  502    0  0.00000000000E+00  0.00000000000E+00  0.90182851091E+03  0.90182851091E+03  0.00000000000E+00 0. -1.
         21   -1    0    0  503  502 -0.00000000000E+00 -0.00000000000E+00 -0.71460535954E+00  0.71460535954E+00  0.00000000000E+00 0.  1.
          2    1    1    2  501    0 -0.22396182896E+02  0.44827143643E+01  0.64752011001E+03  0.64792281686E+03  0.00000000000E+00 0. -1.
         21    1    1    2  503  501  0.22396182896E+02 -0.44827143643E+01  0.25359379554E+03  0.25462029942E+03  0.00000000000E+00 0.  1.
</event>
<event>
 4    1  0.2281973E+005  0.2063412E+02  0.7546771E-02  0.1524553E+00
          2   -1    0    0  503    0  0.00000000000E+00  0.00000000000E+00  0.57438313243E+03  0.57438313243E+03  0.00000000000E+00 0.  1.
         21   -1    0    0  501  502 -0.00000000000E+00 -0.00000000000E+00 -0.24146921807E+01  0.24146921807E+01  0.00000000000E+00 0. -1.
          2    1    1    2  501    0 -0.78093232645E+01 -0.19099245890E+02  0.52607025842E+03  0.52647477006E+03  0.00000000000E+00 0.  1.
         21    1    1    2  503  502  0.78093232645E+01  0.19099245890E+02  0.45898181838E+02  0.50323054552E+02  0.00000000000E+00 0. -1.
</event>
<event>
 4    1  0.2281973E+005  0.2233305E+02  0.7546771E-02  0.1501047E+00
          2   -1    0    0  503    0  0.00000000000E+00  0.00000000000E+00  0.16285235605E+04  0.16285235605E+04  0.00000000000E+00 0. -1.
         21   -1    0    0  501  502 -0.00000000000E+00 -0.00000000000E+00 -0.57935241090E+00  0.57935241090E+00  0.00000000000E+00 0. -1.
          2    1    1    2  501    0  0.18865645218E+02 -0.11952089955E+02  0.13732084497E+04  0.13733900435E+04  0.00000000000E+00 0. -1.
         21    1    1    2  503  502 -0.18865645218E+02  0.11952089955E+02  0.25473575837E+03  0.25571286948E+03  0.00000000000E+00 0. -1.
</event>
<event>
 4    1  0.2281973E+005  0.2454125E+02  0.7546771E-02  0.1474001E+00
          2   -1    0    0  503    0  0.00000000000E+00  0.00000000000E+00  0.46411707520E+01  0.46411707520E+01  0.00000000000E+00 0. -1.
         21   -1    0    0  501  502 -0.00000000000E+00 -0.00000000000E+00 -0.52531700252E+03  0.52531700252E+03  0.00000000000E+00 0. -1.
          2    1    1    2  501    0  0.19208766269E+02 -0.15274040663E+02 -0.30404916864E+02  0.39073417936E+02  0.00000000000E+00 0. -1.
         21    1    1    2  503  502 -0.19208766269E+02  0.15274040663E+02 -0.49027091491E+03  0.49088475534E+03  0.00000000000E+00 0. -1.
</event>
<event>
 4    1  0.2281973E+005  0.3218475E+02  0.7546771E-02  0.1401515E+00
          2   -1    0    0  503    0  0.00000000000E+00  0.00000000000E+00  0.14548940273E+04  0.14548940273E+04  0.00000000000E+00 0. -1.
         21   -1    0    0  501  502 -0.00000000000E+00 -0.00000000000E+00 -0.13181398727E+03  0.13181398727E+03  0.00000000000E+00 0. -1.
          2    1    1    2  501    0 -0.79682148022E+01 -0.31182779269E+02  0.14527485096E+04  0.14531049826E+04  0.00000000000E+00 0. -1.
         21    1    1    2  503  502  0.79682148022E+01  0.31182779269E+02 -0.12966846956E+03  0.13360303203E+03  0.00000000000E+00 0. -1.
</event>
<event>
 4    1  0.2281973E+005  0.2229210E+02  0.7546771E-02  0.1501584E+00
          2   -1    0    0  503    0  0.00000000000E+00  0.00000000000E+00  0.51649961810E+03  0.51649961810E+03  0.00000000000E+00 0.  1.
         21   -1    0    0  501  502 -0.00000000000E+00 -0.00000000000E+00 -0.21079539806E+01  0.21079539806E+01  0.00000000000E+00 0.  1.
          2    1    1    2  501    0  0.22158355970E+02 -0.24382310043E+01  0.44837387324E+03  0.44892768673E+03  0.00000000000E+00 0.  1.
         21    1    1    2  503  502 -0.22158355970E+02  0.24382310043E+01  0.66017790882E+02  0.69679885352E+02  0.00000000000E+00 0.  1.
</event>
<event>
 4    1  0.2281973E+005  0.6676336E+02  0.7546771E-02  0.1238436E+00
          2   -1    0    0  503    0  0.00000000000E+00  0.00000000000E+00  0.80322212190E+03  0.80322212190E+03  0.00000000000E+00 0.  1.
         21   -1    0    0  501  502 -0.00000000000E+00 -0.00000000000E+00 -0.10119965747E+02  0.10119965747E+02  0.00000000000E+00 0.  1.
          2    1    1    2  501    0 -0.20123160665E+02  0.63658502094E+02  0.66985252110E+03  0.67317140946E+03  0.00000000000E+00 0.  1.
         21    1    1    2  503  502  0.20123160665E+02 -0.63658502094E+02  0.12324963505E+03  0.14017067819E+03  0.00000000000E+00 0.  1.
</event>
<event>
 4    1  0.2281973E+005  0.8354278E+02  0.7546771E-02  0.1195853E+00
          2   -1    0    0  503    0  0.00000000000E+00  0.00000000000E+00  0.20939195286E+04  0.20939195286E+04  0.00000000000E+00 0.  1.
         21   -1    0    0  501  502 -0.00000000000E+00 -0.00000000000E+00 -0.13634088488E+02  0.13634088488E+02  0.00000000000E+00 0. -1.
          2    1    1    2  501    0 -0.57977991195E+02  0.60149391252E+02  0.19560963484E+04  0.19578795471E+04  0.00000000000E+00 0.  1.
         21    1    1    2  503  502  0.57977991195E+02 -0.60149391252E+02  0.12418909180E+03  0.14967407008E+03  0.00000000000E+00 0. -1.
</event>
<event>
 4    1  0.2281973E+005  0.2382292E+02  0.7546771E-02  0.1482415E+00
          2   -1    0    0  503    0  0.00000000000E+00  0.00000000000E+00  0.84990325353E+03  0.84990325353E+03  0.00000000000E+00 0.  1.
         21   -1    0    0  501  502 -0.00000000000E+00 -0.00000000000E+00 -0.10513833980E+01  0.10513833980E+01  0.00000000000E+00 0.  1.
          2    1    1    2  501    0 -0.17147036850E+02 -0.16538153432E+02  0.68143497730E+03  0.68185127387E+03  0.00000000000E+00 0.  1.
         21    1    1    2  503  502  0.17147036850E+02  0.16538153432E+02  0.16741689283E+03  0.16910336305E+03  0.00000000000E+00 0.  1.
</event>
<event>
 4    1  0.2281973E+005  0.2041843E+02  0.7546771E-02  0.1527732E+00
          2   -1    0    0  503    0  0.00000000000E+00  0.00000000000E+00  0.41007054284E+03  0.41007054284E+03  0.00000000000E+00 0. -1.
         21   -1    0    0  501  502 -0.00000000000E+00 -0.00000000000E+00 -0.86847747581E+01  0.86847747581E+01  0.00000000000E+00 0. -1.
          2    1    1    2  501    0 -0.20013280461E+02 -0.40473515422E+01  0.39743378772E+03  0.39795794761E+03  0.00000000000E+00 0. -1.
         21    1    1    2  503  502  0.20013280461E+02  0.40473515422E+01  0.39519803592E+01  0.20797369979E+02  0.00000000000E+00 0. -1.
</event>
<event>
 4    1  0.2281973E+005  0.2904720E+02  0.7546771E-02  0.1428061E+00
          2   -1    0    0  502    0  0.00000000000E+00  0.00000000000E+00  0.41680892572E+03  0.41680892572E+03  0.00000000000E+00 0. -1.
         21   -1    0    0  503  502 -0.00000000000E+00 -0.00000000000E+00 -0.38253070351E+02  0.38253070351E+02  0.00000000000E+00 0. -1.
          2    1    1    2  501    0 -0.17785968142E+02 -0.22965173372E+02  0.41070683247E+03  0.41173273137E+03  0.00000000000E+00 0. -1.
         21    1    1    2  503  501  0.17785968142E+02  0.22965173372E+02 -0.32150977098E+02  0.43329264696E+02  0.00000000000E+00 0. -1.
</event>
<event>
 4    1  0.2281973E+005  0.2389263E+02  0.7546771E-02  0.1481584E+00
          2   -1    0    0  502    0  0.00000000000E+00  0.00000000000E+00  0.39341943266E+03  0.39341943266E+03  0.00000000000E+00 0.  1.
         21   -1    0    0  503  502 -0.00000000000E+00 -0.00000000000E+00 -0.18018710239E+02  0.18018710239E+02  0.00000000000E+00 0.  1.
          2    1    1    2  501    0  0.13956761264E+02 -0.19392439586E+02  0.38496250107E+03  0.38570323453E+03  0.00000000000E+00 0.  1.
         21    1    1    2  503  501 -0.13956761264E+02  0.19392439586E+02 -0.95617786445E+01  0.25734908372E+02  0.00000000000E+00 0.  1.
</event>
<event>
 4    1  0.2281973E+005  0.2236685E+02  0.7546771E-02  0.1500605E+00
          2   -1    0    0  503    0  0.00000000000E+00  0.00000000000E+00  0.49265664268E+03  0.49265664268E+03  0.00000000000E+00 0.  1.
         21   -1    0    0  501  502 -0.00000000000E+00 -0.00000000000E+00 -0.11793362155E+01  0.11793362155E+01  0.00000000000E+00 0. -1.
          2    1    1    2  501    0  0.26286837590E+01 -0.22211842188E+02  0.33778029434E+03  0.33852001884E+03  0.00000000000E+00 0.  1.
         21    1    1    2  503  502 -0.26286837590E+01  0.22211842188E+02  0.15369701213E+03  0.15531596006E+03  0.00000000000E+00 0. -1.
</event>
<event>
 4    1  0.2281973E+005  0.2500111E+02  0.7546771E-02  0.1468791E+00
          2   -1    0    0  503    0  0.00000000000E+00  0.00000000000E+00  0.86061072364E+02  0.86061072364E+02  0.00000000000E+00 0. -1.
         21   -1    0    0  501  502 -0.00000000000E+00 -0.00000000000E+00 -0.13625544243E+02  0.13625544243E+02  0.00000000000E+00 0. -1.
          2    1    1    2  501    0  0.11767859151E+02  0.22058401613E+02  0.70278004516E+02  0.74592583475E+02  0.00000000000E+00 0. -1.
         21    1    1    2  503  502 -0.11767859151E+02 -0.22058401613E+02  0.21575236043E+01  0.25094033132E+02  0.00000000000E+00 0. -1.
</event>
<event>
 4    1  0.2281973E+005  0.3596368E+02  0.7546771E-02  0.1373912E+00
          2   -1    0    0  503    0  0.00000000000E+00  0.00000000000E+00  0.21303529224E+04  0.21303529224E+04  0.00000000000E+00 0.  1.
         21   -1    0    0  501  502 -0.00000000000E+00 -0.00000000000E+00 -0.72509643123E+01  0.72509643123E+01  0.00000000000E+00 0.  1.
          2    1    1    2  501    0 -0.12218339142E+02  0.33824521779E+02  0.20846295284E+04  0.20849397250E+04  0.00000000000E+00 0.  1.
         21    1    1    2  503  502  0.12218339142E+02 -0.33824521779E+02  0.38472429658E+02  0.52664161712E+02  0.00000000000E+00 0.  1.
</event>
<event>
 4    1  0.2281973E+005  0.2451909E+02  0.7546771E-02  0.1474256E+00
          2   -1    0    0  502    0  0.00000000000E+00  0.00000000000E+00  0.78827991020E+03  0.78827991020E+03  0.00000000000E+00 0.  1.
         21   -1    0    0  503  502 -0.00000000000E+00 -0.00000000000E+00 -0.55180119167E+01  0.55180119167E+01  0.00000000000E+00 0.  1.
          2    1    1    2  501    0 -0.14243103275E+01 -0.24477688729E+02  0.75983232926E+03  0.76022783065E+03  0.00000000000E+00 0.  1.
         21    1    1    2  503  501  0.14243103275E+01  0.24477688729E+02  0.22929569019E+02  0.33570091463E+02  0.00000000000E+00 0.  1.
</event>
<event>
 4    1  0.2281973E+005  0.2564443E+02  0.7546771E-02  0.1461722E+00
          2   -1    0    0  503    0  0.00000000000E+00  0.00000000000E+00  0.54680750313E+01  0.54680750313E+01  0.00000000000E+00 0. -1.
         21   -1    0    0  501  502 -0.00000000000E+00 -0.00000000000E+00 -0.14201491994E+03  0.14201491994E+03  0.00000000000E+00 0. -1.
          2    1    1    2  501    0 -0.24427663210E+02  0.78055006593E+01 -0.39417167412E+02  0.47024989710E+02  0.00000000000E+00 0. -1.
         21    1    1    2  503  502  0.24427663210E+02 -0.78055006593E+01 -0.97129677495E+02  0.10045800526E+03  0.00000000000E+00 0. -1.
</event>
<event>
 4    1  0.2281973E+005  0.2376659E+02  0.7546771E-02  0.1483090E+00
          2   -1    0    0  502    0  0.00000000000E+00  0.00000000000E+00  0.15878158791E+04  0.15878158791E+04  0.00000000000E+00 0. -1.
         21   -1    0    0  503  502 -0.00000000000E+00 -0.00000000000E+00 -0.66226948667E+00  0.66226948667E+00  0.00000000000E+00 0.  1.
          2    1    1    2  501    0 -0.10288712356E+02  0.21424122115E+02  0.13339198473E+04  0.13341315564E+04  0.00000000000E+00 0. -1.
         21    1    1    2  503  501  0.10288712356E+02 -0.21424122115E+02  0.25323376229E+03  0.25434659222E+03  0.00000000000E+00 0.  1.
</event>
<event>
 4    1  0.2281973E+005  0.2861467E+02  0.7546771E-02  0.1432030E+00
          2   -1    0    0  503    0  0.00000000000E+00  0.00000000000E+00  0.17851115891E+04  0.17851115891E+04  0.00000000000E+00 0.  1.
         21   -1    0    0  501  502 -0.00000000000E+00 -0.00000000000E+00 -0.80713664999E+00  0.80713664999E+00  0.00000000000E+00 0.  1.
          2    1    1    2  501    0 -0.14530544303E+02 -0.24650814971E+02  0.14788723705E+04  0.14791491769E+04  0.00000000000E+00 0.  1.
         21    1    1    2  503  502  0.14530544303E+02  0.24650814971E+02  0.30543208199E+03  0.30676954885E+03  0.00000000000E+00 0.  1.
</event>
<event>
 4    1  0.2281973E+005  0.3861619E+02  0.7546771E-02  0.1356791E+00
          2   -1    0    0  503    0  0.00000000000E+00  0.00000000000E+00  0.90415572223E+03  0.90415572223E+03  0.00000000000E+00 0.  1.
         21   -1    0    0  501  502 -0.00000000000E+00 -0.00000000000E+00 -0.61824135112E+01  0.61824135112E+01  0.00000000000E+00 0. -1.
          2    1    1    2  501    0 -0.74795415978E+01  0.37884907308E+02  0.83874261900E+03  0.83963110392E+03  0.00000000000E+00 0.  1.
         21    1    1    2  503  502  0.74795415978E+01 -0.37884907308E+02  0.59230689716E+02  0.70707031818E+02  0.00000000000E+00 0. -1.
</event>
<event>
 4    1  0.2281973E+005  0.2951568E+02  0.7546771E-02  0.1423852E+00
          2   -1    0    0  502    0  0.00000000000E+00  0.00000000000E+00  0.13154036330E+03  0.13154036330E+03  0.00000000000E+00 0.  1.
         21   -1    0    0  503  502 -0.00000000000E+00 -0.00000000000E+00 -0.11279375738E+02  0.11279375738E+02  0.00000000000E+00 0.  1.
          2    1    1    2  501    0 -0.28780385058E+02  0.65471403407E+01  0.10601282387E+03  0.11004496552E+03  0.00000000000E+00 0.  1.
         21    1    1    2  503  501  0.28780385058E+02 -0.65471403407E+01  0.14248163691E+02  0.32774773520E+02  0.00000000000E+00 0.  1.
</event>
<event>
 4    1  0.2281973E+005  0.2524110E+02  0.7546771E-02  0.1466124E+00
          2   -1    0    0  502    0  0.00000000000E+00  0.00000000000E+00  0.16175623417E+03  0.16175623417E+03  0.00000000000E+00 0. -1.
         21   -1    0    0  503  502 -0.00000000000E+00 -0.00000000000E+00 -0.39802759205E+02  0.39802759205E+02  0.00000000000E+00 0.  1.
          2    1    1    2  501    0  0.52186876683E+01 -0.24695717763E+02  0.15663999624E+03  0.15866064918E+03  0.00000000000E+00 0. -1.
         21    1    1    2  503  501 -0.52186876683E+01  0.24695717763E+02 -0.34686521272E+02  0.42898344196E+02  0.00000000000E+00 0.  1.
</event>
<event>
 4    1  0.2281973E+005  0.2376745E+02  0.7546771E-02  0.1483080E+00
          2   -1    0    0  503    0  0.00000000000E+00  0.00000000000E+00  0.10813934043E+04  0.10813934043E+04  0.00000000000E+00 0. -1.
         21   -1    0    0  501  502 -0.00000000000E+00 -0.00000000000E+00 -0.10810386118E+01  0.10810386118E+01  0.00000000000E+00 0. -1.
          2    1    1    2  501    0 -0.15469048733E+02  0.18044396054E+02  0.92923955390E+03  0.92954345795E+03  0.00000000000E+00 0. -1.
         21    1    1    2  503  502  0.15469048733E+02 -0.18044396054E+02  0.15107281176E+03  0.15293098493E+03  0.00000000000E+00 0. -1.
</event>
<event>
 4    1  0.2281973E+005  0.2838317E+02  0.7546771E-02  0.1434188E+00
          2   -1    0    0  503    0  0.00000000000E+00  0.00000000000E+00  0.20852606678E+02  0.20852606678E+02  0.00000000000E+00 0. -1.
         21   -1    0    0  501  502 -0.00000000000E+00 -0.00000000000E+00 -0.26300443776E+03  0.26300443776E+03  0.00000000000E+00 0.  1.
          2    1    1    2  501    0  0.28266657248E+02  0.25690885044E+01  0.10014722910E+02  0.30098152812E+02  0.00000000000E+00 0. -1.
         21    1    1    2  503  502 -0.28266657248E+02 -0.25690885044E+01 -0.25216655399E+03  0.25375889163E+03  0.00000000000E+00 0.  1.
</event>
<event>
 4    1  0.2281973E+005  0.2289934E+02  0.7546771E-02  0.1493766E+00
          2   -1    0    0  502    0  0.00000000000E+00  0.00000000000E+00  0.22648571416E+03  0.22648571416E+03  0.00000000000E+00 0.  1.
         21   -1    0    0  503  502 -0.00000000000E+00 -0.00000000000E+00 -0.83375901284E+01  0.83375901284E+01  0.00000000000E+00 0. -1.
          2    1    1    2  501    0  0.22430338669E+02  0.46108334186E+01  0.20886064768E+03  0.21011223198E+03  0.00000000000E+00 0.  1.
         21    1    1    2  503  501 -0.22430338669E+02 -0.46108334186E+01  0.92874763479E+01  0.24711072306E+02  0.00000000000E+00 0. -1.
</event>
<event>
 4    1  0.2281973E+005  0.4724497E+02  0.7546771E-02  0.1310580E+00
          2   -1    0    0  503    0  0.00000000000E+00  0.00000000000E+00  0.19657330978E+04  0.19657330978E+04  0.00000000000E+00 0. -1.
         21   -1    0    0  501  502 -0.00000000000E+00 -0.00000000000E+00 -0.45450349488E+01  0.45450349488E+01  0.00000000000E+00 0.  1.
          2    1    1    2  501    0 -0.66568610097E+01 -0.46773639264E+02  0.18338446116E+04  0.18344530919E+04  0.00000000000E+00 0. -1.
         21    1    1    2  503  502  0.66568610097E+01  0.46773639264E+02  0.12734345134E+03  0.13582504087E+03  0.00000000000E+00 0.  1.
</event>
<event>
 4    1  0.2281973E+005  0.2405800E+02  0.7546771E-02  0.1479624E+00
          2   -1    0    0  503    0  0.00000000000E+00  0.00000000000E+00  0.84380764257E+03  0.84380764257E+03  0.00000000000E+00 0. -1.
         21   -1    0    0  501  502 -0.00000000000E+00 -0.00000000000E+00 -0.38688409871E+02  0.38688409871E+02  0.00000000000E+00 0. -1.
          2    1    1    2  501    0  0.72756595838E+01 -0.22931467485E+02  0.83987861203E+03  0.84022310749E+03  0.00000000000E+00 0. -1.
         21    1    1    2  503  502 -0.72756595838E+01  0.22931467485E+02 -0.34759379327E+02  0.42272944949E+02  0.00000000000E+00 0. -1.
</event>
<event>
 4    1  0.2281973E+005  0.2772476E+02  0.7546771E-02  0.1440460E+00
          2   -1    0    0  502    0  0.00000000000E+00  0.00000000000E+00  0.65000768349E+03  0.65000768349E+03  0.00000000000E+00 0.  1.
         21   -1    0    0  503  502 -0.00000000000E+00 -0.00000000000E+00 -0.76667598818E+01  0.76667598818E+01  0.00000000000E+00 0.  1.
          2    1    1    2  501    0 -0.27466586465E+02 -0.37748002736E+01  0.62358577771E+03  0.62420179802E+03  0.00000000000E+00 0.  1.
         21    1    1    2  503  501  0.27466586465E+02  0.37748002736E+01  0.18755145898E+02  0.33472645351E+02  0.00000000000E+00 0.  1.
</event>
<event>
 4    1  0.2281973E+005  0.2992352E+02  0.7546771E-02  0.1420262E+00
          2   -1    0    0  503    0  0.00000000000E+00  0.00000000000E+00  0.27620141300E+02  0.27620141300E+02  0.00000000000E+00 0. -1.
         21   -1    0    0  501  502 -0.00000000000E+00 -0.00000000000E+00 -0.35110218359E+02  0.35110218359E+02  0.00000000000E+00 0. -1.
          2    1    1    2  501    0  0.84382162051E+01 -0.28709122147E+02  0.49386850831E+01  0.30328333247E+02  0.00000000000E+00 0. -1.
         21    1    1    2  503  502 -0.84382162051E+01  0.28709122147E+02 -0.12428762142E+02  0.32402026412E+02  0.00000000000E+00 0. -1.
</event>
<event>
 4    1  0.2281973E+005  0.2123391E+02  0.7546771E-02  0.1515951E+00
          2   -1    0    0  503    0  0.00000000000E+00  0.00000000000E+00  0.46798472618E+02  0.46798472618E+02  0.00000000000E+00 0.  1.
         21   -1    0    0  501  502 -0.00000000000E+00 -0.00000000000E+00 -0.12973601500E+02  0.12973601500E+02  0.00000000000E+00 0.  1.
          2    1    1    2  501    0 -0.67224670782E+01 -0.20141684107E+02  0.32074351687E+02  0.38466128456E+02  0.00000000000E+00 0.  1.
         21    1    1    2  503  502  0.67224670782E+01  0.20141684107E+02  0.17505194315E+01  0.21305945662E+02  0.00000000000E+00 0.  1.
</event>
<event>
 4    1  0.2281973E+005  0.2313059E+02  0.7546771E-02  0.1490865E+00
          2   -1    0    0  503    0  0.00000000000E+00  0.00000000000E+00  0.55552083177E+02  0.55552083177E+02  0.00000000000E+00 0. -1.
         21   -1    0    0  501  502 -0.00000000000E+00 -0.00000000000E+00 -0.84268079264E+02  0.84268079264E+02  0.00000000000E+00 0.  1.
          2    1    1    2  501    0  0.21934595316E+02 -0.73415098345E+01  0.51435877028E+02  0.56397461680E+02  0.00000000000E+00 0. -1.
         21    1    1    2  503  502 -0.21934595316E+02  0.73415098345E+01 -0.80151873115E+02  0.83422700761E+02  0.00000000000E+00 0.  1.
</event>
<event>
 4    1  0.2281973E+005  0.2439834E+02  0.7546771E-02  0.1475648E+00
          2   -1    0    0  503    0  0.00000000000E+00  0.00000000000E+00  0.77513573745E+01  0.77513573745E+01  0.00000000000E+00 0.  1.
         21   -1    0    0  501  502 -0.00000000000E+00 -0.00000000000E+00 -0.80154125700E+02  0.80154125700E+02  0.00000000000E+00 0. -1.
          2    1    1    2  501    0  0.14278818420E+02 -0.19783692110E+02 -0.27205944845E+02  0.36543707583E+02  0.00000000000E+00 0.  1.
         21    1    1    2  503  502 -0.14278818420E+02  0.19783692110E+02 -0.45196823480E+02  0.51361775492E+02  0.00000000000E+00 0. -1.
</event>
<event>
 4    1  0.2281973E+005  0.2864496E+02  0.7546771E-02  0.1431749E+00
          2   -1    0    0  503    0  0.00000000000E+00  0.00000000000E+00  0.34000114199E+03  0.34000114199E+03  0.00000000000E+00 0.  1.
         21   -1    0    0  501  502 -0.00000000000E+00 -0.00000000000E+00 -0.30379825187E+02  0.30379825187E+02  0.00000000000E+00 0. -1.
          2    1    1    2  501    0 -0.23205896389E+02  0.16793447328E+02  0.33249333401E+03  0.33372496260E+03  0.00000000000E+00 0.  1.
         21    1    1    2  503  502  0.23205896389E+02 -0.16793447328E+02 -0.22872017209E+02  0.36656004578E+02  0.00000000000E+00 0. -1.
</event>
<event>
 4    1  0.2281973E+005  0.2255090E+02  0.7546771E-02  0.1498216E+00
          2   -1    0    0  502    0  0.00000000000E+00  0.00000000000E+00  0.88244683595E+03  0.88244683595E+03  0.00000000000E+00 0. -1.
         21   -1    0    0  503  502 -0.00000000000E+00 -0.00000000000E+00 -0.74110907252E+02  0.74110907252E+02  0.00000000000E+00 0. -1.
          2    1    1    2  501    0  0.19163019703E+02 -0.11887873771E+02  0.88058365589E+03  0.88087236185E+03  0.00000000000E+00 0. -1.
         21    1    1    2  503  501 -0.19163019703E+02  0.11887873771E+02 -0.72247727184E+02  0.75685381351E+02  0.00000000000E+00 0. -1.
</event>
<event>
 4    1  0.2281973E+005  0.2861091E+02  0.7546771E-02  0.1432064E+00
          2   -1    0    0  502    0  0.00000000000E+00  0.00000000000E+00  0.56633671851E+02  0.56633671851E+02  0.00000000000E+00 0. -1.
         21   -1    0    0  503  502 -0.00000000000E+00 -0.00000000000E+00 -0.42486034851E+02  0.42486034851E+02  0.00000000000E+00 0.  1.
          2    1    1    2  501    0  0.15057496366E+02 -0.24328090188E+02  0.47330139006E+02  0.55305752208E+02  0.00000000000E+00 0. -1.
         21    1    1    2  503  501 -0.15057496366E+02  0.24328090188E+02 -0.33182502006E+02  0.43813954494E+02  0.00000000000E+00 0.  1.
</event>
<event>
 4    1  0.2281973E+005  0.2621015E+02  0.7546771E-02  0.1455708E+00
          2   -1    0    0  503    0  0.00000000000E+00  0.00000000000E+00  0.87561036635E+03  0.87561036635E+03  0.00000000000E+00 0. -1.
         21   -1    0    0  501  502 -0.00000000000E+00 -0.00000000000E+00 -0.10887761525E+03  0.10887761525E+03  0.00000000000E+00 0.  1.
          2    1    1    2  501    0  0.24003144014E+02 -0.10527151776E+02  0.87383362435E+03  0.87422661530E+03  0.00000000000E+00 0. -1.
         21    1    1    2  503  502 -0.24003144014E+02  0.10527151776E+02 -0.10710087325E+03  0.11026136630E+03  0.00000000000E+00 0.  1.
</event>
<event>
 4    1  0.2281973E+005  0.3524156E+02  0.7546771E-02  0.1378873E+00
          2   -1    0    0  502    0  0.00000000000E+00  0.00000000000E+00  0.26299512011E+04  0.26299512011E+04  0.00000000000E+00 0. -1.
         21   -1    0    0  503  502 -0.00000000000E+00 -0.00000000000E+00 -0.68852188782E+00  0.68852188782E+00  0.00000000000E+00 0.  1.
          2    1    1    2  501    0 -0.74824126157E+01 -0.34438073675E+02  0.20518271532E+04  0.20521297800E+04  0.00000000000E+00 0. -1.
         21    1    1    2  503  501  0.74824126157E+01  0.34438073675E+02  0.57743552599E+03  0.57850994295E+03  0.00000000000E+00 0.  1.
</event>
<event>
 4    1  0.2281973E+005  0.2203145E+02  0.7546771E-02  0.1505032E+00
          2   -1    0    0  503    0  0.00000000000E+00  0.00000000000E+00  0.37995878560E+02  0.37995878560E+02  0.00000000000E+00 0. -1.
         21   -1    0    0  501  502 -0.00000000000E+00 -0.00000000000E+00 -0.24441402111E+02  0.24441402111E+02  0.00000000000E+00 0. -1.
          2    1    1    2  501    0 -0.19316270836E+02 -0.10595581626E+02  0.28346019592E+02  0.35900995748E+02  0.00000000000E+00 0. -1.
         21    1    1    2  503  502  0.19316270836E+02  0.10595581626E+02 -0.14791543143E+02  0.26536284923E+02  0.00000000000E+00 0. -1.
</event>
<event>
 4    1  0.2281973E+005  0.2629642E+02  0.7546771E-02  0.1454807E+00
          2   -1    0    0  502    0  0.00000000000E+00  0.00000000000E+00  0.27354097581E+03  0.27354097581E+03  0.00000000000E+00 0.  1.
         21   -1    0    0  503  502 -0.00000000000E+00 -0.00000000000E+00 -0.35705859608E+02  0.35705859608E+02  0.00000000000E+00 0. -1.
          2    1    1    2  501    0 -0.24038984623E+02  0.10659692946E+02  0.26796685709E+03  0.26925404052E+03  0.00000000000E+00 0.  1.
         21    1    1    2  503  501  0.24038984623E+02 -0.10659692946E+02 -0.30131740886E+02  0.39992794904E+02  0.00000000000E+00 0. -1.
</event>
<event>
 4    1  0.2281973E+005  0.3832261E+02  0.7546771E-02  0.1358606E+00
          2   -1    0    0  503    0  0.00000000000E+00  0.00000000000E+00  0.20369616620E+03  0.20369616620E+03  0.00000000000E+00 0.  1.
         21   -1    0    0  501  502 -0.00000000000E+00 -0.00000000000E+00 -0.34057991100E+02  0.34057991100E+02  0.00000000000E+00 0. -1.
          2    1    1    2  501    0  0.29054033562E+02  0.24989708206E+02  0.19036601102E+03  0.19418506775E+03  0.00000000000E+00 0.  1.
         21    1    1    2  503  502 -0.29054033562E+02 -0.24989708206E+02 -0.20727835924E+02  0.43569089554E+02  0.00000000000E+00 0. -1.
</event>
<event>
 4    1  0.2281973E+005  0.2331274E+02  0.7546771E-02  0.1488608E+00
          2   -1    0    0  502    0  0.00000000000E+00  0.00000000000E+00  0.16496231172E+02  0.16496231172E+02  0.00000000000E+00 0. -1.
         21   -1    0    0  503  502 -0.00000000000E+00 -0.00000000000E+00 -0.26097156041E+03  0.26097156041E+03  0.00000000000E+00 0. -1.
          2    1    1    2  501    0  0.60172535907E+01 -0.22522800194E+02  0.74437717530E+01  0.24472302860E+02  0.00000000000E+00 0. -1.
         21    1    1    2  503  501 -0.60172535907E+01  0.22522800194E+02 -0.25191910100E+03  0.25299548873E+03  0.00000000000E+00 0. -1.
</event>
<event>
 4    1  0.2281973E+005  0.2034696E+02  0.7546771E-02  0.1528796E+00
          2   -1    0    0  503    0  0.00000000000E+00  0.00000000000E+00  0.55076852101E+03  0.55076852101E+03  0.00000000000E+00 0. -1.
         21   -1    0    0  501  502 -0.00000000000E+00 -0.00000000000E+00 -0.84855605496E+01  0.84855605496E+01  0.00000000000E+00 0.  1.
          2    1    1    2  501    0  0.83897897383E+01  0.18536723147E+02  0.53809630938E+03  0.53848086024E+03  0.00000000000E+00 0. -1.
         21    1    1    2  503  502 -0.83897897383E+01 -0.18536723147E+02  0.41866510854E+01  0.20773221324E+02  0.00000000000E+00 0.  1.
</event>
<event>
 4    1  0.2281973E+005  0.2187471E+02  0.7546771E-02  0.1507133E+00
          2   -1    0    0  502    0  0.00000000000E+00  0.00000000000E+00  0.82319808371E+03  0.82319808371E+03  0.00000000000E+00 0.  1.
         21   -1    0    0  503  502 -0.00000000000E+00 -0.00000000000E+00 -0.12295613516E+01  0.12295613516E+01  0.00000000000E+00 0.  1.
          2    1    1    2  501    0 -0.20469348817E+02  0.77142001350E+01  0.71030129574E+03  0.71063804701E+03  0.00000000000E+00 0.  1.
         21    1    1    2  503  501  0.20469348817E+02 -0.77142001350E+01  0.11166722663E+03  0.11378959806E+03  0.00000000000E+00 0.  1.
</event>
<event>
 4    1  0.2281973E+005  0.2072880E+02  0.7546771E-02  0.1523172E+00
          2   -1    0    0  502    0  0.00000000000E+00  0.00000000000E+00  0.15345170269E+04  0.15345170269E+04  0.00000000000E+00 0.  1.
         21   -1    0    0  503  502 -0.00000000000E+00 -0.00000000000E+00 -0.10800339312E+03  0.10800339312E+03  0.00000000000E+00 0.  1.
          2    1    1    2  501    0 -0.20717345221E+02 -0.68916909338E+00  0.15334517268E+04  0.15335918237E+04  0.00000000000E+00 0.  1.
         21    1    1    2  503  501  0.20717345221E+02  0.68916909338E+00 -0.10693809303E+03  0.10892859629E+03  0.00000000000E+00 0.  1.
</event>
<event>
 4    1  0.2281973E+005  0.2225131E+02  0.7546771E-02  0.1502120E+00
          2   -1    0    0  502    0  0.00000000000E+00  0.00000000000E+00  0.76421084988E+03  0.76421084988E+03  0.00000000000E+00 0.  1.
         21   -1    0    0  503  502 -0.00000000000E+00 -0.00000000000E+00 -0.76410315135E+00  0.76410315135E+00  0.00000000000E+00 0. -1.
          2    1    1    2  501    0  0.12849417496E+02 -0.18166270528E+02  0.53089210405E+03  0.53135820974E+03  0.00000000000E+00 0.  1.
         21    1    1    2  503  501 -0.12849417496E+02  0.18166270528E+02  0.23255464268E+03  0.23361674329E+03  0.00000000000E+00 0. -1.
</event>
<event>
 4    1  0.2281973E+005  0.4038662E+02  0.7546771E-02  0.1346235E+00
          2   -1    0    0  502    0  0.00000000000E+00  0.00000000000E+00  0.33725481963E+03  0.33725481963E+03  0.00000000000E+00 0. -1.
         21   -1    0    0  503  502 -0.00000000000E+00 -0.00000000000E+00 -0.30852579579E+02  0.30852579579E+02  0.00000000000E+00 0.  1.
          2    1    1    2  501    0  0.40113522865E+02 -0.46887387236E+01  0.32221449425E+03  0.32473567604E+03  0.00000000000E+00 0. -1.
         21    1    1    2  503  501 -0.40113522865E+02  0.46887387236E+01 -0.15812254203E+02  0.43371723167E+02  0.00000000000E+00 0.  1.
</event>
<event>
 4    1  0.2281973E+005  0.3319518E+02  0.7546771E-02  0.1393716E+00
          2   -1    0    0  503    0  0.00000000000E+00  0.00000000000E+00  0.52845898228E+03  0.52845898228E+03  0.00000000000E+00 0. -1.
         21   -1    0    0  501  502 -0.00000000000E+00 -0.00000000000E+00 -0.28793142624E+01  0.28793142624E+01  0.00000000000E+00 0. -1.
          2    1    1    2  501    0  0.26453544247E+02  0.20053174754E+02  0.40231415249E+03  0.40368130638E+03  0.00000000000E+00 0. -1.
         21    1    1    2  503  502 -0.26453544247E+02 -0.20053174754E+02  0.12326551553E+03  0.12765699017E+03  0.00000000000E+00 0. -1.
</event>
<event>
 4    1  0.2281973E+005  0.9358868E+02  0.7546771E-02  0.1175407E+00
          2   -1    0    0  502    0  0.00000000000E+00  0.00000000000E+00  0.23300650904E+04  0.23300650904E+04  0.00000000000E+00 0. -1.
         21   -1    0    0  503  502 -0.00000000000E+00 -0.00000000000E+00 -0.30771255548E+02  0.30771255548E+02  0.00000000000E+00 0.  1.
          2    1    1    2  501    0 -0.79423749383E+02  0.49504631682E+02  0.22556167201E+04  0.22575574474E+04  0.00000000000E+00 0. -1.
         21    1    1    2  503  501  0.79423749383E+02 -0.49504631682E+02  0.43677114765E+02  0.10327889851E+03  0.00000000000E+00 0.  1.
</event>
<event>
 4    1  0.2281973E+005  0.2348868E+02  0.7546771E-02  0.1486451E+00
          2   -1    0    0  502    0  0.00000000000E+00  0.00000000000E+00  0.30422420141E+02  0.30422420141E+02  0.00000000000E+00 0. -1.
         21   -1    0    0  503  502 -0.00000000000E+00 -0.00000000000E+00 -0.10773341492E+03  0.10773341492E+03  0.00000000000E+00 0.  1.
          2    1    1    2  501    0  0.32411558422E+01 -0.23263989412E+02  0.24340589439E+02  0.33825768118E+02  0.00000000000E+00 0. -1.
         21    1    1    2  503  501 -0.32411558422E+01  0.23263989412E+02 -0.10165158422E+03  0.10433006694E+03  0.00000000000E+00 0.  1.
</event>
<event>
 4    1  0.2281973E+005  0.3191055E+02  0.7546771E-02  0.1403689E+00
          2   -1    0    0  503    0  0.00000000000E+00  0.00000000000E+00  0.14109774522E+03  0.14109774522E+03  0.00000000000E+00 0.  1.
         21   -1    0    0  501  502 -0.00000000000E+00 -0.00000000000E+00 -0.16063229214E+03  0.16063229214E+03  0.00000000000E+00 0. -1.
          2    1    1    2  501    0 -0.24737997722E+02 -0.20157251211E+02  0.13766977905E+03  0.14131967793E+03  0.00000000000E+00 0.  1.
         21    1    1    2  503  502  0.24737997722E+02  0.20157251211E+02 -0.15720432597E+03  0.16041035943E+03  0.00000000000E+00 0. -1.
</event>
<event>
 4    1  0.2281973E+005  0.8472451E+02  0.7546771E-02  0.1193285E+00
          2   -1    0    0  503    0  0.00000000000E+00  0.00000000000E+00  0.54386076821E+03  0.54386076821E+03  0.00000000000E+00 0.  1.
         21   -1    0    0  501  502 -0.00000000000E+00 -0.00000000000E+00 -0.29908427588E+02  0.29908427588E+02  0.00000000000E+00 0.  1.
          2    1    1    2  501    0  0.54177203779E+02  0.65138880834E+02  0.47141104177E+03  0.47896410462E+03  0.00000000000E+00 0.  1.
         21    1    1    2  503  502 -0.54177203779E+02 -0.65138880834E+02  0.42541298845E+02  0.94805091177E+02  0.00000000000E+00 0.  1.
</event>
<event>
 4    1  0.2281973E+005  0.2090442E+02  0.7546771E-02  0.1520634E+00
          2   -1    0    0  503    0  0.00000000000E+00  0.00000000000E+00  0.74016597523E+03  0.74016597523E+03  0.00000000000E+00 0. -1.
         21   -1    0    0  501  502 -0.00000000000E+00 -0.00000000000E+00 -0.28315814594E+01  0.28315814594E+01  0.00000000000E+00 0. -1.
          2    1    1    2  501    0  0.13115636295E+02 -0.16278042367E+02  0.69917467749E+03  0.69948711512E+03  0.00000000000E+00 0. -1.
         21    1    1    2  503  502 -0.13115636295E+02  0.16278042367E+02  0.38159716276E+02  0.43510441562E+02  0.00000000000E+00 0. -1.
</event>
<event>
 4    1  0.2281973E+005  0.2014176E+02  0.7546771E-02  0.1531880E+00
          2   -1    0    0  503    0  0.00000000000E+00  0.00000000000E+00  0.87318989739E+03  0.87318989739E+03  0.00000000000E+00 0. -1.
         21   -1    0    0  501  502 -0.00000000000E+00 -0.00000000000E+00 -0.58641766664E+01  0.58641766664E+01  0.00000000000E+00 0.  1.
          2    1    1    2  501    0  0.12007663620E+02  0.16171158988E+02  0.85541921656E+03  0.85565631327E+03  0.00000000000E+00 0. -1.
         21    1    1    2  503  502 -0.12007663620E+02 -0.16171158988E+02  0.11906504161E+02  0.23397760789E+02  0.00000000000E+00 0.  1.
</event>
<event>
 4    1  0.2281973E+005  0.2192163E+02  0.7546771E-02  0.1506502E+00
          2   -1    0    0  502    0  0.00000000000E+00  0.00000000000E+00  0.15732416010E+03  0.15732416010E+03  0.00000000000E+00 0. -1.
         21   -1    0    0  503  502 -0.00000000000E+00 -0.00000000000E+00 -0.15508585011E+02  0.15508585011E+02  0.00000000000E+00 0. -1.
          2    1    1    2  501    0 -0.20400182202E+01 -0.21826502404E+02  0.14834765707E+03  0.14995861176E+03  0.00000000000E+00 0. -1.
         21    1    1    2  503  501  0.20400182202E+01  0.21826502404E+02 -0.65320819845E+01  0.22874133352E+02  0.00000000000E+00 0. -1.
</event>
<event>
 4    1  0.2281973E+005  0.2210988E+02  0.7546771E-02  0.1503988E+00
          2   -1    0    0  502    0  0.00000000000E+00  0.00000000000E+00  0.53116291385E+02  0.53116291385E+02  0.00000000000E+00 0. -1.
         21   -1    0    0  503  502 -0.00000000000E+00 -0.00000000000E+00 -0.14961418777E+02  0.14961418777E+02  0.00000000000E+00 0.  1.
          2    1    1    2  501    0  0.56703635100E+01 -0.21370399736E+02  0.40194209506E+02  0.45873973940E+02  0.00000000000E+00 0. -1.
         21    1    1    2  503  501 -0.56703635100E+01  0.21370399736E+02 -0.20393368986E+01  0.22203736222E+02  0.00000000000E+00 0.  1.
</event>
<event>
 4    1  0.2281973E+005  0.3476952E+02  0.7546771E-02  0.1382191E+00
          2   -1    0    0  503    0  0.00000000000E+00  0.00000000000E+00  0.14351814076E+03  0.14351814076E+03  0.00000000000E+00 0.  1.
         21   -1    0    0  501  502 -0.00000000000E+00 -0.00000000000E+00 -0.18997165672E+02  0.18997165672E+02  0.00000000000E+00 0.  1.
          2    1    1    2  501    0  0.22292576683E+02 -0.26682585920E+02  0.12288293587E+03  0.12770722491E+03  0.00000000000E+00 0.  1.
         21    1    1    2  503  502 -0.22292576683E+02  0.26682585920E+02  0.16380392162E+01  0.34808081519E+02  0.00000000000E+00 0.  1.
</event>
<event>
 4    1  0.2281973E+005  0.2090580E+02  0.7546771E-02  0.1520614E+00
          2   -1    0    0  502    0  0.00000000000E+00  0.00000000000E+00  0.18986919194E+02  0.18986919194E+02  0.00000000000E+00 0. -1.
         21   -1    0    0  503  502 -0.00000000000E+00 -0.00000000000E+00 -0.29774488101E+02  0.29774488101E+02  0.00000000000E+00 0.  1.
          2    1    1    2  501    0 -0.63869979295E+01  0.19906244154E+02  0.62197738977E+01  0.21811416419E+02  0.00000000000E+00 0. -1.
         21    1    1    2  503  501  0.63869979295E+01 -0.19906244154E+02 -0.17007342805E+02  0.26949990875E+02  0.00000000000E+00 0.  1.
</event>
<event>
 4    1  0.2281973E+005  0.2382033E+02  0.7546771E-02  0.1482446E+00
          2   -1    0    0  503    0  0.00000000000E+00  0.00000000000E+00  0.19634692898E+04  0.19634692898E+04  0.00000000000E+00 0.  1.
         21   -1    0    0  501  502 -0.00000000000E+00 -0.00000000000E+00 -0.64559071995E+00  0.64559071995E+00  0.00000000000E+00 0.  1.
          2    1    1    2  501    0  0.22402728090E+02 -0.80948193181E+01  0.17112959555E+04  0.17114617307E+04  0.00000000000E+00 0.  1.
         21    1    1    2  503  502 -0.22402728090E+02  0.80948193181E+01  0.25152774361E+03  0.25265314985E+03  0.00000000000E+00 0.  1.
</event>
<event>
 4    1  0.2281973E+005  0.2014842E+02  0.7546771E-02  0.1531779E+00
          2   -1    0    0  503    0  0.00000000000E+00  0.00000000000E+00  0.57668072502E+03  0.57668072502E+03  0.00000000000E+00 0.  1.
         21   -1    0    0  501  502 -0.00000000000E+00 -0.00000000000E+00 -0.71704040716E+00  0.71704040716E+00  0.00000000000E+00 0.  1.
          2    1    1    2  501    0 -0.11050736063E+02  0.16847555771E+02  0.24898583049E+03  0.24979972515E+03  0.00000000000E+00 0.  1.
         21    1    1    2  503  502  0.11050736063E+02 -0.16847555771E+02  0.32697785412E+03  0.32759804027E+03  0.00000000000E+00 0.  1.
</event>
<event>
 4    1  0.2281973E+005  0.2961902E+02  0.7546771E-02  0.1422936E+00
          2   -1    0    0  502    0  0.00000000000E+00  0.00000000000E+00  0.13506593998E+04  0.13506593998E+04  0.00000000000E+00 0.  1.
         21   -1    0    0  503  502 -0.00000000000E+00 -0.00000000000E+00 -0.12506389829E+01  0.12506389829E+01  0.00000000000E+00 0.  1.
          2    1    1    2  501    0  0.17546201156E+01 -0.29567000870E+02  0.11433347715E+04  0.11437183596E+04  0.00000000000E+00 0.  1.
         21    1    1    2  503  501 -0.17546201156E+01  0.29567000870E+02  0.20607398932E+03  0.20819167924E+03  0.00000000000E+00 0.  1.
</event>
<event>
 4    1  0.2281973E+005  0.2049399E+02  0.7546771E-02  0.1526613E+00
          2   -1    0    0  502    0  0.00000000000E+00  0.00000000000E+00  0.19384631500E+03  0.19384631500E+03  0.00000000000E+00 0. -1.
         21   -1    0    0  503  502 -0.00000000000E+00 -0.00000000000E+00 -0.20634042036E+02  0.20634042036E+02  0.00000000000E+00 0. -1.
          2    1    1    2  501    0 -0.19919416030E+02 -0.48187688257E+01  0.18805980601E+03  0.18917318601E+03  0.00000000000E+00 0. -1.
         21    1    1    2  503  501  0.19919416030E+02  0.48187688257E+01 -0.14847533044E+02  0.25307171029E+02  0.00000000000E+00 0. -1.
</event>
<event>
 4    1  0.2281973E+005  0.2372094E+02  0.7546771E-02  0.1483638E+00
          2   -1    0    0  502    0  0.00000000000E+00  0.00000000000E+00  0.19146096159E+03  0.19146096159E+03  0.00000000000E+00 0. -1.
         21   -1    0    0  503  502 -0.00000000000E+00 -0.00000000000E+00 -0.50672331434E+02  0.50672331434E+02  0.00000000000E+00 0.  1.
          2    1    1    2  501    0  0.14428702388E+02 -0.18828051814E+02  0.18789771588E+03  0.18938910903E+03  0.00000000000E+00 0. -1.
         21    1    1    2  503  501 -0.14428702388E+02  0.18828051814E+02 -0.47109085720E+02  0.52744183993E+02  0.00000000000E+00 0.  1.
</event>
<event>
 4    1  0.2281973E+005  0.2257821E+02  0.7546771E-02  0.1497864E+00
          2   -1    0    0  502    0  0.00000000000E+00  0.00000000000E+00  0.20065933398E+03  0.20065933398E+03  0.00000000000E+00 0. -1.
         21   -1    0    0  503  502 -0.00000000000E+00 -0.00000000000E+00 -0.15888410883E+03  0.15888410883E+03  0.00000000000E+00 0.  1.
          2    1    1    2  501    0 -0.20614112772E+02  0.92105342630E+01  0.19921629805E+03  0.20049166814E+03  0.00000000000E+00 0. -1.
         21    1    1    2  503  501  0.20614112772E+02 -0.92105342630E+01 -0.15744107290E+03  0.15905177466E+03  0.00000000000E+00 0.  1.
</event>
<event>
 4    1  0.2281973E+005  0.2364005E+02  0.7546771E-02  0.1484614E+00
          2   -1    0    0  503    0  0.00000000000E+00  0.00000000000E+00  0.50709245651E+03  0.50709245651E+03  0.00000000000E+00 0. -1.
         21   -1    0    0  501  502 -0.00000000000E+00 -0.00000000000E+00 -0.36054009180E+01  0.36054009180E+01  0.00000000000E+00 0. -1.
          2    1    1    2  501    0 -0.23331596665E+02  0.38063548673E+01  0.46451643535E+03  0.46511758777E+03  0.00000000000E+00 0. -1.
         21    1    1    2  503  502  0.23331596665E+02 -0.38063548673E+01  0.38970620243E+02  0.45580269662E+02  0.00000000000E+00 0. -1.
</event>
<event>
 4    1  0.2281973E+005  0.3689917E+02  0.7546771E-02  0.1367682E+00
          2   -1    0    0  503    0  0.00000000000E+00  0.00000000000E+00  0.94564018646E+03  0.94564018646E+03  0.00000000000E+00 0. -1.
         21   -1    0    0  501  502 -0.00000000000E+00 -0.00000000000E+00 -0.14740382079E+01  0.14740382079E+01  0.00000000000E+00 0. -1.
          2    1    1    2  501    0  0.54895155467E+01 -0.36488548164E+02  0.54423782166E+03  0.54548726424E+03  0.00000000000E+00 0. -1.
         21    1    1    2  503  502 -0.54895155467E+01  0.36488548164E+02  0.39992832660E+03  0.40162696043E+03  0.00000000000E+00 0. -1.
</event>
<event>
 4    1  0.2281973E+005  0.8100474E+02  0.7546771E-02  0.1201534E+00
          2   -1    0    0  503    0  0.00000000000E+00  0.00000000000E+00  0.22173274177E+04  0.22173274177E+04  0.00000000000E+00 0.  1.
         21   -1    0    0  501  502 -0.00000000000E+00 -0.00000000000E+00 -0.19705204543E+02  0.19705204543E+02  0.00000000000E+00 0.  1.
          2    1    1    2  501    0  0.78225763157E+02  0.21035644913E+02  0.21299234133E+04  0.21314632333E+04  0.00000000000E+00 0.  1.
         21    1    1    2  503  502 -0.78225763157E+02 -0.21035644913E+02  0.67698799833E+02  0.10556938892E+03  0.00000000000E+00 0.  1.
</event>
<event>
 4    1  0.2281973E+005  0.2789768E+02  0.7546771E-02  0.1438793E+00
          2   -1    0    0  502    0  0.00000000000E+00  0.00000000000E+00  0.10045909736E+04  0.10045909736E+04  0.00000000000E+00 0.  1.
         21   -1    0    0  503  502 -0.00000000000E+00 -0.00000000000E+00 -0.19779776344E+02  0.19779776344E+02  0.00000000000E+00 0. -1.
          2    1    1    2  501    0  0.17593329129E+02 -0.21650757144E+02  0.99446028197E+03  0.99485151301E+03  0.00000000000E+00 0.  1.
         21    1    1    2  503  501 -0.17593329129E+02  0.21650757144E+02 -0.96490846994E+01  0.29519236953E+02  0.00000000000E+00 0. -1.
</event>
<event>
 4    1  0.2281973E+005  0.2412976E+02  0.7546771E-02  0.1478779E+00
          2   -1    0    0  503    0  0.00000000000E+00  0.00000000000E+00  0.19265079666E+04  0.19265079666E+04  0.00000000000E+00 0. -1.
         21   -1    0    0  501  502 -0.00000000000E+00 -0.00000000000E+00 -0.37541856745E+00  0.37541856745E+00  0.00000000000E+00 0. -1.
          2    1    1    2  501    0 -0.98067516126E+01 -0.22047065090E+02  0.13884627396E+04  0.13886723965E+04  0.00000000000E+00 0. -1.
         21    1    1    2  503  502  0.98067516126E+01  0.22047065090E+02  0.53766980839E+03  0.53821098865E+03  0.00000000000E+00 0. -1.
</event>
<event>
 4    1  0.2281973E+005  0.2162913E+02  0.7546771E-02  0.1510469E+00
          2   -1    0    0  503    0  0.00000000000E+00  0.00000000000E+00  0.14327890664E+04  0.14327890664E+04  0.00000000000E+00 0. -1.
         21   -1    0    0  501  502 -0.00000000000E+00 -0.00000000000E+00 -0.57791745169E+01  0.57791745169E+01  0.00000000000E+00 0.  1.
          2    1    1    2  501    0  0.10401123370E+02  0.18964069367E+02  0.14121747524E+04  0.14123403806E+04  0.00000000000E+00 0. -1.
         21    1    1    2  503  502 -0.10401123370E+02 -0.18964069367E+02  0.14835139476E+02  0.26227860332E+02  0.00000000000E+00 0.  1.
</event>
<event>
 4    1  0.2281973E+005  0.3560578E+02  0.7546771E-02  0.1376354E+00
          2   -1    0    0  503    0  0.00000000000E+00  0.00000000000E+00  0.53318354262E+03  0.53318354262E+03  0.00000000000E+00 0.  1.
         21   -1    0    0  501  502 -0.00000000000E+00 -0.00000000000E+00 -0.11158925163E+02  0.11158925163E+02  0.00000000000E+00 0.  1.
          2    1    1    2  501    0  0.32083272311E+02  0.15441351664E+02  0.50245141417E+03  0.50371142066E+03  0.00000000000E+00 0.  1.
         21    1    1    2  503  502 -0.32083272311E+02 -0.15441351664E+02  0.19573203290E+02  0.40631047124E+02  0.00000000000E+00 0.  1.
</event>
<event>
 4    1  0.2281973E+005  0.2050389E+02  0.7546771E-02  0.1526467E+00
          2   -1    0    0  502    0  0.00000000000E+00  0.00000000000E+00  0.80909290060E+03  0.80909290060E+03  0.00000000000E+00 0.  1.
         21   -1    0    0  503  502 -0.00000000000E+00 -0.00000000000E+00 -0.58928222368E+01  0.58928222368E+01  0.00000000000E+00 0. -1.
          2    1    1    2  501    0 -0.10731854431E+02 -0.17471023547E+02  0.79071282565E+03  0.79097862298E+03  0.00000000000E+00 0.  1.
         21    1    1    2  503  501  0.10731854431E+02  0.17471023547E+02  0.12487252717E+02  0.24007099861E+02  0.00000000000E+00 0. -1.
</event>
<event>
 4    1  0.2281973E+005  0.8897356E+02  0.7546771E-02  0.1184421E+00
          2   -1    0    0  502    0  0.00000000000E+00  0.00000000000E+00  0.13499091282E+04  0.13499091282E+04  0.00000000000E+00 0. -1.
         21   -1    0    0  503  502 -0.00000000000E+00 -0.00000000000E+00 -0.58939193276E+01  0.58939193276E+01  0.00000000000E+00 0.  1.
          2    1    1    2  501    0  0.30624269547E+02 -0.83537106819E+02  0.72005087880E+03  0.72552709265E+03  0.00000000000E+00 0. -1.
         21    1    1    2  503  501 -0.30624269547E+02  0.83537106819E+02  0.62396433009E+03  0.63027595491E+03  0.00000000000E+00 0.  1.
</event>
<event>
 4    1  0.2281973E+005  0.2535217E+02  0.7546771E-02  0.1464902E+00
          2   -1    0    0  503    0  0.00000000000E+00  0.00000000000E+00  0.54384109887E+02  0.54384109887E+02  0.00000000000E+00 0.  1.
         21   -1    0    0  501  502 -0.00000000000E+00 -0.00000000000E+00 -0.17409094762E+02  0.17409094762E+02  0.00000000000E+00 0. -1.
          2    1    1    2  501    0  0.19658788933E+02  0.16008268860E+02  0.38829734933E+02  0.46373278611E+02  0.00000000000E+00 0.  1.
         21    1    1    2  503  502 -0.19658788933E+02 -0.16008268860E+02 -0.18547198075E+01  0.25419926038E+02  0.00000000000E+00 0. -1.
</event>
<event>
 4    1  0.2281973E+005  0.2073227E+02  0.7546771E-02  0.1523122E+00
          2   -1    0    0  502    0  0.00000000000E+00  0.00000000000E+00  0.19926649888E+03  0.19926649888E+03  0.00000000000E+00 0. -1.
         21   -1    0    0  503  502 -0.00000000000E+00 -0.00000000000E+00 -0.19116430035E+02  0.19116430035E+02  0.00000000000E+00 0.  1.
          2    1    1    2  501    0 -0.16558994800E+02 -0.12475036523E+02  0.19292172997E+03  0.19403252495E+03  0.00000000000E+00 0. -1.
         21    1    1    2  503  501  0.16558994800E+02  0.12475036523E+02 -0.12771661127E+02  0.24350403959E+02  0.00000000000E+00 0.  1.
</event>
<event>
 4    1  0.2281973E+005  0.3059654E+02  0.7546771E-02  0.1414482E+00
          2   -1    0    0  503    0  0.00000000000E+00  0.00000000000E+00  0.15953647242E+03  0.15953647242E+03  0.00000000000E+00 0. -1.
         21   -1    0    0  501  502 -0.00000000000E+00 -0.00000000000E+00 -0.11812221204E+02  0.11812221204E+02  0.00000000000E+00 0.  1.
          2    1    1    2  501    0 -0.28295773981E+02  0.11640324795E+02  0.13463856499E+03  0.13807132638E+03  0.00000000000E+00 0. -1.
         21    1    1    2  503  502  0.28295773981E+02 -0.11640324795E+02  0.13085686224E+02  0.33277367240E+02  0.00000000000E+00 0.  1.
</event>
<event>
 4    1  0.2281973E+005  0.2342117E+02  0.7546771E-02  0.1487276E+00
          2   -1    0    0  502    0  0.00000000000E+00  0.00000000000E+00  0.84606266221E+02  0.84606266221E+02  0.00000000000E+00 0.  1.
         21   -1    0    0  503  502 -0.00000000000E+00 -0.00000000000E+00 -0.10461007068E+02  0.10461007068E+02  0.00000000000E+00 0.  1.
          2    1    1    2  501    0 -0.58777287335E+00  0.23413798215E+02  0.66382604917E+02  0.70393193275E+02  0.00000000000E+00 0.  1.
         21    1    1    2  503  501  0.58777287335E+00 -0.23413798215E+02  0.77626542352E+01  0.24674080015E+02  0.00000000000E+00 0.  1.
</event>
<event>
 4    1  0.2281973E+005  0.2117080E+02  0.7546771E-02  0.1516840E+00
          2   -1    0    0  502    0  0.00000000000E+00  0.00000000000E+00  0.12219002438E+04  0.12219002438E+04  0.00000000000E+00 0. -1.
         21   -1    0    0  503  502 -0.00000000000E+00 -0.00000000000E+00 -0.93212307444E+01  0.93212307444E+01  0.00000000000E+00 0.  1.
          2    1    1    2  501    0 -0.55507056662E+01  0.20430185119E+02  0.12096659534E+04  0.12098511981E+04  0.00000000000E+00 0. -1.
         21    1    1    2  503  501  0.55507056662E+01 -0.20430185119E+02  0.29130596511E+01  0.21370276412E+02  0.00000000000E+00 0.  1.
</event>
<event>
 4    1  0.2281973E+005  0.2385276E+02  0.7546771E-02  0.1482059E+00
          2   -1    0    0  503    0  0.00000000000E+00  0.00000000000E+00  0.35307322494E+02  0.35307322494E+02  0.00000000000E+00 0. -1.
         21   -1    0    0  501  502 -0.00000000000E+00 -0.00000000000E+00 -0.18933180976E+02  0.18933180976E+02  0.00000000000E+00 0. -1.
          2    1    1    2  501    0  0.23607347679E+02  0.34127999939E+01  0.18651547016E+02  0.30279271364E+02  0.00000000000E+00 0. -1.
         21    1    1    2  503  502 -0.23607347679E+02 -0.34127999939E+01 -0.22774054983E+01  0.23961232106E+02  0.00000000000E+00 0. -1.
</event>
<event>
 4    1  0.2281973E+005  0.2814180E+02  0.7546771E-02  0.1436464E+00
          2   -1    0    0  503    0  0.00000000000E+00  0.00000000000E+00  0.15943869669E+02  0.15943869669E+02  0.00000000000E+00 0.  1.
         21   -1    0    0  501  502 -0.00000000000E+00 -0.00000000000E+00 -0.54655654366E+02  0.54655654366E+02  0.00000000000E+00 0. -1.
          2    1    1    2  501    0 -0.11041094390E+02 -0.25885422221E+02 -0.86964003496E+01  0.29454850669E+02  0.00000000000E+00 0.  1.
         21    1    1    2  503  502  0.11041094390E+02  0.25885422221E+02 -0.30015384347E+02  0.41144673366E+02  0.00000000000E+00 0. -1.
</event>
<event>
 4    1  0.2281973E+005  0.2034381E+02  0.7546771E-02  0.1528843E+00
          2   -1    0    0  503    0  0.00000000000E+00  0.00000000000E+00  0.41402365431E+00  0.41402365431E+00  0.00000000000E+00 0.  1.
         21   -1    0    0  501  502 -0.00000000000E+00 -0.00000000000E+00 -0.10515264465E+04  0.10515264465E+04  0.00000000000E+00 0.  1.
          2    1    1    2  501    0 -0.38751072734E+01 -0.19971329042E+02 -0.40870852015E+03  0.40921452184E+03  0.00000000000E+00 0.  1.
         21    1    1    2  503  502  0.38751072734E+01  0.19971329042E+02 -0.64240390266E+03  0.64272594828E+03  0.00000000000E+00 0.  1.
</event>
<event>
 4    1  0.2281973E+005  0.2120653E+02  0.7546771E-02  0.1516336E+00
          2   -1    0    0  502    0  0.00000000000E+00  0.00000000000E+00  0.14320966791E+04  0.14320966791E+04  0.00000000000E+00 0.  1.
         21   -1    0    0  503  502 -0.00000000000E+00 -0.00000000000E+00 -0.14848318504E+03  0.14848318504E+03  0.00000000000E+00 0.  1.
          2    1    1    2  501    0  0.21195377662E+02 -0.68774582342E+00  0.14312605449E+04  0.14314176415E+04  0.00000000000E+00 0.  1.
         21    1    1    2  503  501 -0.21195377662E+02  0.68774582342E+00 -0.14764705085E+03  0.14916222261E+03  0.00000000000E+00 0.  1.
</event>
<event>
 4    1  0.2281973E+005  0.2144623E+02  0.7546771E-02  0.1512988E+00
          2   -1    0    0  502    0  0.00000000000E+00  0.00000000000E+00  0.16468330369E+04  0.16468330369E+04  0.00000000000E+00 0. -1.
         21   -1    0    0  503  502 -0.00000000000E+00 -0.00000000000E+00 -0.34223351465E+00  0.34223351465E+00  0.00000000000E+00 0. -1.
          2    1    1    2  501    0 -0.18928485704E+02  0.10082327699E+02  0.11764534000E+04  0.11766488615E+04  0.00000000000E+00 0. -1.
         21    1    1    2  503  501  0.18928485704E+02 -0.10082327699E+02  0.47003740344E+03  0.47052640897E+03  0.00000000000E+00 0. -1.
</event>
<event>
 4    1  0.2281973E+005  0.2422909E+02  0.7546771E-02  0.1477615E+00
          2   -1    0    0  503    0  0.00000000000E+00  0.00000000000E+00  0.28921728877E+03  0.28921728877E+03  0.00000000000E+00 0. -1.
         21   -1    0    0  501  502 -0.00000000000E+00 -0.00000000000E+00 -0.36127755245E+02  0.36127755245E+02  0.00000000000E+00 0. -1.
          2    1    1    2  501    0  0.23755897827E+02  0.47650960383E+01  0.28458147553E+03  0.28561103801E+03  0.00000000000E+00 0. -1.
         21    1    1    2  503  502 -0.23755897827E+02 -0.47650960383E+01 -0.31491942002E+02  0.39734006001E+02  0.00000000000E+00 0. -1.
</event>
<event>
 4    1  0.2281973E+005  0.3329043E+02  0.7546771E-02  0.1392997E+00
          2   -1    0    0  503    0  0.00000000000E+00  0.00000000000E+00  0.12587647052E+04  0.12587647052E+04  0.00000000000E+00 0.  1.
         21   -1    0    0  501  502 -0.00000000000E+00 -0.00000000000E+00 -0.30765031020E+01  0.30765031020E+01  0.00000000000E+00 0. -1.
          2    1    1    2  501    0 -0.55875893174E+01 -0.32818155582E+02  0.11608960840E+04  0.11613733122E+04  0.00000000000E+00 0.  1.
         21    1    1    2  503  502  0.55875893174E+01  0.32818155582E+02  0.94792118145E+02  0.10046789613E+03  0.00000000000E+00 0. -1.
</event>
<event>
 4    1  0.2281973E+005  0.2611315E+02  0.7546771E-02  0.1456726E+00
          2   -1    0    0  502    0  0.00000000000E+00  0.00000000000E+00  0.63513860301E+03  0.63513860301E+03  0.00000000000E+00 0.  1.
         21   -1    0    0  503  502 -0.00000000000E+00 -0.00000000000E+00 -0.27934267497E+02  0.27934267497E+02  0.00000000000E+00 0.  1.
          2    1    1    2  501    0 -0.13463829448E+02  0.22374580546E+02  0.62870508798E+03  0.62924715669E+03  0.00000000000E+00 0.  1.
         21    1    1    2  503  501  0.13463829448E+02 -0.22374580546E+02 -0.21500752468E+02  0.33825713810E+02  0.00000000000E+00 0.  1.
</event>
<event>
 4    1  0.2281973E+005  0.2041155E+02  0.7546771E-02  0.1527835E+00
          2   -1    0    0  503    0  0.00000000000E+00  0.00000000000E+00  0.13305566659E+03  0.13305566659E+03  0.00000000000E+00 0.  1.
         21   -1    0    0  501  502 -0.00000000000E+00 -0.00000000000E+00 -0.55526726897E+01  0.55526726897E+01  0.00000000000E+00 0.  1.
          2    1    1    2  501    0  0.30412739018E+01 -0.20183711097E+02  0.10951749815E+03  0.11140338389E+03  0.00000000000E+00 0.  1.
         21    1    1    2  503  502 -0.30412739018E+01  0.20183711097E+02  0.17985495756E+02  0.27204955397E+02  0.00000000000E+00 0.  1.
</event>
<event>
 4    1  0.2281973E+005  0.2977301E+02  0.7546771E-02  0.1421579E+00
          2   -1    0    0  502    0  0.00000000000E+00  0.00000000000E+00  0.93335043214E+03  0.93335043214E+03  0.00000000000E+00 0.  1.
         21   -1    0    0  503  502 -0.00000000000E+00 -0.00000000000E+00 -0.19481269551E+02  0.19481269551E+02  0.00000000000E+00 0.  1.
          2    1    1    2  501    0  0.13017732182E+02 -0.26776304383E+02  0.92159246875E+03  0.92207326731E+03  0.00000000000E+00 0.  1.
         21    1    1    2  503  501 -0.13017732182E+02  0.26776304383E+02 -0.77233061612E+01  0.30758434382E+02  0.00000000000E+00 0.  1.
</event>
<event>
 4    1  0.2281973E+005  0.2162708E+02  0.7546771E-02  0.1510497E+00
          2   -1    0    0  502    0  0.00000000000E+00  0.00000000000E+00  0.13290660377E+04  0.13290660377E+04  0.00000000000E+00 0.  1.
         21   -1    0    0  503  502 -0.00000000000E+00 -0.00000000000E+00 -0.56493781753E+01  0.56493781753E+01  0.00000000000E+00 0.  1.
          2    1    1    2  501    0  0.21438857749E+02  0.28470773265E+01  0.13079455296E+04  0.13081243209E+04  0.00000000000E+00 0.  1.
         21    1    1    2  503  501 -0.21438857749E+02 -0.28470773265E+01  0.15471129873E+02  0.26591094946E+02  0.00000000000E+00 0.  1.
</event>
<event>
 4    1  0.2281973E+005  0.3172776E+02  0.7546771E-02  0.1405154E+00
          2   -1    0    0  502    0  0.00000000000E+00  0.00000000000E+00  0.10322602060E+04  0.10322602060E+04  0.00000000000E+00 0.  1.
         21   -1    0    0  503  502 -0.00000000000E+00 -0.00000000000E+00 -0.66477924821E+02  0.66477924821E+02  0.00000000000E+00 0.  1.
          2    1    1    2  501    0 -0.17171846275E+02 -0.26679173881E+02  0.10282158639E+04  0.10287052608E+04  0.00000000000E+00 0.  1.
         21    1    1    2  503  501  0.17171846275E+02  0.26679173881E+02 -0.62433582804E+02  0.70032870034E+02  0.00000000000E+00 0.  1.
</event>
<event>
 4    1  0.2281973E+005  0.4421667E+02  0.7546771E-02  0.1325403E+00
          2   -1    0    0  502    0  0.00000000000E+00  0.00000000000E+00  0.65414812094E+03  0.65414812094E+03  0.00000000000E+00 0.  1.
         21   -1    0    0  503  502 -0.00000000000E+00 -0.00000000000E+00 -0.10965860844E+02  0.10965860844E+02  0.00000000000E+00 0.  1.
          2    1    1    2  501    0  0.75003679490E+01 -0.43575890774E+02  0.60523038812E+03  0.60684342007E+03  0.00000000000E+00 0.  1.
         21    1    1    2  503  501 -0.75003679490E+01  0.43575890774E+02  0.37951871975E+02  0.58270561715E+02  0.00000000000E+00 0.  1.
</event>
<event>
 4    1  0.2281973E+005  0.4952236E+02  0.7546771E-02  0.1300257E+00
          2   -1    0    0  503    0  0.00000000000E+00  0.00000000000E+00  0.42738888295E+03  0.42738888295E+03  0.00000000000E+00 0. -1.
         21   -1    0    0  501  502 -0.00000000000E+00 -0.00000000000E+00 -0.67207712798E+01  0.67207712798E+01  0.00000000000E+00 0.  1.
          2    1    1    2  501    0  0.35936297901E+02  0.34074140315E+02  0.29332500368E+03  0.29747608698E+03  0.00000000000E+00 0. -1.
         21    1    1    2  503  502 -0.35936297901E+02 -0.34074140315E+02  0.12734310799E+03  0.13663356725E+03  0.00000000000E+00 0.  1.
</event>
<event>
 4    1  0.2281973E+005  0.3687891E+02  0.7546771E-02  0.1367814E+00
          2   -1    0    0  503    0  0.00000000000E+00  0.00000000000E+00  0.99536408810E+01  0.99536408810E+01  0.00000000000E+00 0.  1.
         21   -1    0    0  501  502 -0.00000000000E+00 -0.00000000000E+00 -0.19206094579E+03  0.19206094579E+03  0.00000000000E+00 0.  1.
          2    1    1    2  501    0 -0.33707713048E+02  0.14961422325E+02 -0.14531301173E+03  0.14991973004E+03  0.00000000000E+00 0.  1.
         21    1    1    2  503  502  0.33707713048E+02 -0.14961422325E+02 -0.36794293179E+02  0.52094856632E+02  0.00000000000E+00 0.  1.
</event>
<event>
 4    1  0.2281973E+005  0.4257798E+02  0.7546771E-02  0.1334007E+00
          2   -1    0    0  503    0  0.00000000000E+00  0.00000000000E+00  0.19879149628E+02  0.19879149628E+02  0.00000000000E+00 0. -1.
         21   -1    0    0  501  502 -0.00000000000E+00 -0.00000000000E+00 -0.96960466004E+02  0.96960466004E+02  0.00000000000E+00 0. -1.
          2    1    1    2  501    0  0.27857320795E+02 -0.32200222297E+02 -0.24295430400E+02  0.49021960142E+02  0.00000000000E+00 0. -1.
         21    1    1    2  503  502 -0.27857320795E+02  0.32200222297E+02 -0.52785885977E+02  0.67817655490E+02  0.00000000000E+00 0. -1.
</event>
<event>
 4    1  0.2281973E+005  0.2594744E+02  0.7546771E-02  0.1458478E+00
          2   -1    0    0  503    0  0.00000000000E+00  0.00000000000E+00  0.73488037377E+02  0.73488037377E+02  0.00000000000E+00 0. -1.
         21   -1    0    0  501  502 -0.00000000000E+00 -0.00000000000E+00 -0.36684569202E+02  0.36684569202E+02  0.00000000000E+00 0. -1.
          2    1    1    2  501    0 -0.21949571321E+01 -0.25854434399E+02  0.66116125212E+02  0.71025429446E+02  0.00000000000E+00 0. -1.
         21    1    1    2  503  502  0.21949571321E+01  0.25854434399E+02 -0.29312657037E+02  0.39147177133E+02  0.00000000000E+00 0. -1.
</event>
<event>
 4    1  0.2281973E+005  0.2039394E+02  0.7546771E-02  0.1528096E+00
          2   -1    0    0  502    0  0.00000000000E+00  0.00000000000E+00  0.54567058220E+03  0.54567058220E+03  0.00000000000E+00 0.  1.
         21   -1    0    0  503  502 -0.00000000000E+00 -0.00000000000E+00 -0.28338467402E+01  0.28338467402E+01  0.00000000000E+00 0.  1.
          2    1    1    2  501    0 -0.20225333543E+02  0.26170075352E+01  0.50590564829E+03  0.50631653915E+03  0.00000000000E+00 0.  1.
         21    1    1    2  503  501  0.20225333543E+02 -0.26170075352E+01  0.36931087170E+02  0.42187889790E+02  0.00000000000E+00 0.  1.
</event>
<event>
 4    1  0.2281973E+005  0.2236913E+02  0.7546771E-02  0.1500576E+00
          2   -1    0    0  503    0  0.00000000000E+00  0.00000000000E+00  0.14622299396E+04  0.14622299396E+04  0.00000000000E+00 0. -1.
         21   -1    0    0  501  502 -0.00000000000E+00 -0.00000000000E+00 -0.40090148627E+00  0.40090148627E+00  0.00000000000E+00 0. -1.
          2    1    1    2  501    0 -0.21384584906E+02  0.65633496735E+01  0.10107501398E+04  0.10109976375E+04  0.00000000000E+00 0. -1.
         21    1    1    2  503  502  0.21384584906E+02 -0.65633496735E+01  0.45107889838E+03  0.45163320360E+03  0.00000000000E+00 0. -1.
</event>
<event>
 4    1  0.2281973E+005  0.2299542E+02  0.7546771E-02  0.1492556E+00
          2   -1    0    0  503    0  0.00000000000E+00  0.00000000000E+00  0.99712406992E+02  0.99712406992E+02  0.00000000000E+00 0.  1.
         21   -1    0    0  501  502 -0.00000000000E+00 -0.00000000000E+00 -0.10609473090E+03  0.10609473090E+03  0.00000000000E+00 0. -1.
          2    1    1    2  501    0  0.78758306285E+01  0.21604638804E+02  0.97107623448E+02  0.99793184425E+02  0.00000000000E+00 0.  1.
         21    1    1    2  503  502 -0.78758306285E+01 -0.21604638804E+02 -0.10348994736E+03  0.10601395347E+03  0.00000000000E+00 0. -1.
</event>
<event>
 4    1  0.2281973E+005  0.2185705E+02  0.7546771E-02  0.1507371E+00
          2   -1    0    0  502    0  0.00000000000E+00  0.00000000000E+00  0.18535971892E+03  0.18535971892E+03  0.00000000000E+00 0. -1.
         21   -1    0    0  503  502 -0.00000000000E+00 -0.00000000000E+00 -0.45650244567E+01  0.45650244567E+01  0.00000000000E+00 0. -1.
          2    1    1    2  501    0 -0.21852306346E+02 -0.45547630321E+00  0.15305963314E+03  0.15461236059E+03  0.00000000000E+00 0. -1.
         21    1    1    2  503  501  0.21852306346E+02  0.45547630321E+00  0.27735061327E+02  0.35312382787E+02  0.00000000000E+00 0. -1.
</event>
<event>
 4    1  0.2281973E+005  0.2509487E+02  0.7546771E-02  0.1467745E+00
          2   -1    0    0  503    0  0.00000000000E+00  0.00000000000E+00  0.13487598379E+03  0.13487598379E+03  0.00000000000E+00 0.  1.
         21   -1    0    0  501  502 -0.00000000000E+00 -0.00000000000E+00 -0.71480277567E+01  0.71480277567E+01  0.00000000000E+00 0.  1.
          2    1    1    2  501    0 -0.68799600996E+01  0.24133353774E+02  0.10568248735E+03  0.10862108795E+03  0.00000000000E+00 0.  1.
         21    1    1    2  503  502  0.68799600996E+01 -0.24133353774E+02  0.22045468689E+02  0.33402923600E+02  0.00000000000E+00 0.  1.
</event>
<event>
 4    1  0.2281973E+005  0.2065945E+02  0.7546771E-02  0.1524183E+00
          2   -1    0    0  503    0  0.00000000000E+00  0.00000000000E+00  0.60288610423E+03  0.60288610423E+03  0.00000000000E+00 0. -1.
         21   -1    0    0  501  502 -0.00000000000E+00 -0.00000000000E+00 -0.26363862672E+02  0.26363862672E+02  0.00000000000E+00 0. -1.
          2    1    1    2  501    0  0.28845296439E+00  0.20657439211E+02  0.59863304070E+03  0.59898942430E+03  0.00000000000E+00 0. -1.
         21    1    1    2  503  502 -0.28845296439E+00 -0.20657439211E+02 -0.22110799145E+02  0.30260542604E+02  0.00000000000E+00 0. -1.
</event>
<event>
 4    1  0.2281973E+005  0.2872382E+02  0.7546771E-02  0.1431020E+00
          2   -1    0    0  503    0  0.00000000000E+00  0.00000000000E+00  0.19021863582E+02  0.19021863582E+02  0.00000000000E+00 0.  1.
         21   -1    0    0  501  502 -0.00000000000E+00 -0.00000000000E+00 -0.49486809086E+02  0.49486809086E+02  0.00000000000E+00 0.  1.
          2    1    1    2  501    0 -0.26563833928E+02 -0.10927980783E+02 -0.31936425315E+01  0.28900819877E+02  0.00000000000E+00 0.  1.
         21    1    1    2  503  502  0.26563833928E+02  0.10927980783E+02 -0.27271302972E+02  0.39607852791E+02  0.00000000000E+00 0.  1.
</event>
<event>
 4    1  0.2281973E+005  0.2015725E+02  0.7546771E-02  0.1531645E+00
          2   -1    0    0  503    0  0.00000000000E+00  0.00000000000E+00  0.20209166526E+02  0.20209166526E+02  0.00000000000E+00 0. -1.
         21   -1    0    0  501  502 -0.00000000000E+00 -0.00000000000E+00 -0.83980055702E+02  0.83980055702E+02  0.00000000000E+00 0.  1.
          2    1    1    2  501    0  0.20004288994E+02  0.24785685287E+01  0.13547277099E+02  0.24286695883E+02  0.00000000000E+00 0. -1.
         21    1    1    2  503  502 -0.20004288994E+02 -0.24785685287E+01 -0.77318166276E+02  0.79902526345E+02  0.00000000000E+00 0.  1.
</event>
<event>
 4    1  0.2281973E+005  0.2590912E+02  0.7546771E-02  0.1458885E+00
          2   -1    0    0  503    0  0.00000000000E+00  0.00000000000E+00  0.26690655675E+01  0.26690655675E+01  0.00000000000E+00 0.  1.
         21   -1    0    0  501  502 -0.00000000000E+00 -0.00000000000E+00 -0.50962425394E+03  0.50962425394E+03  0.00000000000E+00 0.  1.
          2    1    1    2  501    0  0.17654556968E+02  0.18963094340E+02 -0.71182840355E+02  0.75751429621E+02  0.00000000000E+00 0.  1.
         21    1    1    2  503  502 -0.17654556968E+02 -0.18963094340E+02 -0.43577234801E+03  0.43654188988E+03  0.00000000000E+00 0.  1.
</event>
<event>
 4    1  0.2281973E+005  0.8055813E+02  0.7546771E-02  0.1202558E+00
          2   -1    0    0  503    0  0.00000000000E+00  0.00000000000E+00  0.15654019110E+02  0.15654019110E+02  0.00000000000E+00 0. -1.
         21   -1    0    0  501  502 -0.00000000000E+00 -0.00000000000E+00 -0.42421235104E+03  0.42421235104E+03  0.00000000000E+00 0. -1.
          2    1    1    2  501    0  0.31167309552E+01 -0.80497816184E+02 -0.23744549563E+03  0.25073885980E+03  0.00000000000E+00 0. -1.
         21    1    1    2  503  502 -0.31167309552E+01  0.80497816184E+02 -0.17111283631E+03  0.18912751035E+03  0.00000000000E+00 0. -1.
</event>
<event>
 4    1  0.2281973E+005  0.2101869E+02  0.7546771E-02  0.1518998E+00
          2   -1    0    0  502    0  0.00000000000E+00  0.00000000000E+00  0.11379989551E+03  0.11379989551E+03  0.00000000000E+00 0. -1.
         21   -1    0    0  503  502 -0.00000000000E+00 -0.00000000000E+00 -0.88943005098E+01  0.88943005098E+01  0.00000000000E+00 0. -1.
          2    1    1    2  501    0 -0.20914508543E+02  0.20901544690E+01  0.98505090755E+02  0.10072258097E+03  0.00000000000E+00 0. -1.
         21    1    1    2  503  501  0.20914508543E+02 -0.20901544690E+01  0.64005042498E+01  0.21971615051E+02  0.00000000000E+00 0. -1.
</event>
<event>
 4    1  0.2281973E+005  0.2406728E+02  0.7546771E-02  0.1479514E+00
          2   -1    0    0  502    0  0.00000000000E+00  0.00000000000E+00  0.37818516168E+03  0.37818516168E+03  0.00000000000E+00 0. -1.
         21   -1    0    0  503  502 -0.00000000000E+00 -0.00000000000E+00 -0.65694929428E+01  0.65694929428E+01  0.00000000000E+00 0. -1.
          2    1    1    2  501    0 -0.23000911768E+02  0.70846306170E+01  0.35427365328E+03  0.35509020733E+03  0.00000000000E+00 0. -1.
         21    1    1    2  503  501  0.23000911768E+02 -0.70846306170E+01  0.17342015459E+02  0.29664447295E+02  0.00000000000E+00 0. -1.
</event>
<event>
 4    1  0.2281973E+005  0.2437461E+02  0.7546771E-02  0.1475923E+00
          2   -1    0    0  502    0  0.00000000000E+00  0.00000000000E+00  0.75781659210E+03  0.75781659210E+03  0.00000000000E+00 0.  1.
         21   -1    0    0  503  502 -0.00000000000E+00 -0.00000000000E+00 -0.14010182023E+02  0.14010182023E+02  0.00000000000E+00 0.  1.
          2    1    1    2  501    0  0.17669131342E+02 -0.16790571277E+02  0.74686355738E+03  0.74726119585E+03  0.00000000000E+00 0.  1.
         21    1    1    2  503  501 -0.17669131342E+02  0.16790571277E+02 -0.30571473008E+01  0.24565578271E+02  0.00000000000E+00 0.  1.
</event>
<event>
 4    1  0.2281973E+005  0.2471790E+02  0.7546771E-02  0.1471984E+00
          2   -1    0    0  503    0  0.00000000000E+00  0.00000000000E+00  0.59434255555E+02  0.59434255555E+02  0.00000000000E+00 0. -1.
         21   -1    0    0  501  502 -0.00000000000E+00 -0.00000000000E+00 -0.22494179214E+02  0.22494179214E+02  0.00000000000E+00 0. -1.
          2    1    1    2  501    0 -0.22427647791E+02 -0.10391109370E+02  0.48655971227E+02  0.54574518554E+02  0.00000000000E+00 0. -1.
         21    1    1    2  503  502  0.22427647791E+02  0.10391109370E+02 -0.11715894886E+02  0.27353916216E+02  0.00000000000E+00 0. -1.
</event>
<event>
 4    1  0.2281973E+005  0.3255669E+02  0.7546771E-02  0.1398605E+00
          2   -1    0    0  503    0  0.00000000000E+00  0.00000000000E+00  0.17531424612E+04  0.17531424612E+04  0.00000000000E+00 0.  1.
         21   -1    0    0  501  502 -0.00000000000E+00 -0.00000000000E+00 -0.28310963774E+01  0.28310963774E+01  0.00000000000E+00 0. -1.
          2    1    1    2  501    0 -0.31422985878E+02 -0.85166752152E+01  0.16537698835E+04  0.16540903136E+04  0.00000000000E+00 0.  1.
         21    1    1    2  503  502  0.31422985878E+02  0.85166752152E+01  0.96541481326E+02  0.10188324403E+03  0.00000000000E+00 0. -1.
</event>
<event>
 4    1  0.2281973E+005  0.2386713E+02  0.7546771E-02  0.1481887E+00
          2   -1    0    0  502    0  0.00000000000E+00  0.00000000000E+00  0.49820390431E+03  0.49820390431E+03  0.00000000000E+00 0. -1.
         21   -1    0    0  503  502 -0.00000000000E+00 -0.00000000000E+00 -0.87363819462E+01  0.87363819462E+01  0.00000000000E+00 0. -1.
          2    1    1    2  501    0  0.23722757696E+02  0.26212124747E+01  0.48103584542E+03  0.48162757870E+03  0.00000000000E+00 0. -1.
         21    1    1    2  503  501 -0.23722757696E+02 -0.26212124747E+01  0.84316769406E+01  0.25312707551E+02  0.00000000000E+00 0. -1.
</event>
<event>
 4    1  0.2281973E+005  0.2698951E+02  0.7546771E-02  0.1447713E+00
          2   -1    0    0  503    0  0.00000000000E+00  0.00000000000E+00  0.22305097085E+03  0.22305097085E+03  0.00000000000E+00 0.  1.
         21   -1    0    0  501  502 -0.00000000000E+00 -0.00000000000E+00 -0.52861785483E+01  0.52861785483E+01  0.00000000000E+00 0.  1.
          2    1    1    2  501    0  0.26029995547E+02  0.71325404417E+01  0.17946455851E+03  0.18148267565E+03  0.00000000000E+00 0.  1.
         21    1    1    2  503  502 -0.26029995547E+02 -0.71325404417E+01  0.38300233788E+02  0.46854473741E+02  0.00000000000E+00 0.  1.
</event>
<event>
 4    1  0.2281973E+005  0.4534674E+02  0.7546771E-02  0.1319715E+00
          2   -1    0    0  502    0  0.00000000000E+00  0.00000000000E+00  0.11505109028E+04  0.11505109028E+04  0.00000000000E+00 0.  1.
         21   -1    0    0  503  502 -0.00000000000E+00 -0.00000000000E+00 -0.35349273097E+02  0.35349273097E+02  0.00000000000E+00 0. -1.
          2    1    1    2  501    0  0.33729260134E+02  0.30309466003E+02  0.11353267294E+04  0.11362319786E+04  0.00000000000E+00 0.  1.
         21    1    1    2  503  501 -0.33729260134E+02 -0.30309466003E+02 -0.20165099710E+02  0.49628197277E+02  0.00000000000E+00 0. -1.
</event>
<event>
 4    1  0.2281973E+005  0.2895268E+02  0.7546771E-02  0.1428921E+00
          2   -1    0    0  502    0  0.00000000000E+00  0.00000000000E+00  0.16167437614E+03  0.16167437614E+03  0.00000000000E+00 0. -1.
         21   -1    0    0  503  502 -0.00000000000E+00 -0.00000000000E+00 -0.27128941148E+02  0.27128941148E+02  0.00000000000E+00 0.  1.
          2    1    1    2  501    0 -0.18036034628E+02 -0.22648595714E+02  0.15217551491E+03  0.15490527677E+03  0.00000000000E+00 0. -1.
         21    1    1    2  503  501  0.18036034628E+02  0.22648595714E+02 -0.17630079920E+02  0.33898040517E+02  0.00000000000E+00 0.  1.
</event>
<event>
 4    1  0.2281973E+005  0.2255840E+02  0.7546771E-02  0.1498119E+00
          2   -1    0    0  502    0  0.00000000000E+00  0.00000000000E+00  0.43160313132E+03  0.43160313132E+03  0.00000000000E+00 0. -1.
         21   -1    0    0  503  502 -0.00000000000E+00 -0.00000000000E+00 -0.27933173590E+03  0.27933173590E+03  0.00000000000E+00 0.  1.
          2    1    1    2  501    0 -0.18581076785E+02  0.12791603172E+02  0.43085213008E+03  0.43144227832E+03  0.00000000000E+00 0. -1.
         21    1    1    2  503  501  0.18581076785E+02 -0.12791603172E+02 -0.27858073466E+03  0.27949258890E+03  0.00000000000E+00 0.  1.
</event>
<event>
 4    1  0.2281973E+005  0.2187719E+02  0.7546771E-02  0.1507100E+00
          2   -1    0    0  503    0  0.00000000000E+00  0.00000000000E+00  0.18766517535E+02  0.18766517535E+02  0.00000000000E+00 0.  1.
         21   -1    0    0  501  502 -0.00000000000E+00 -0.00000000000E+00 -0.64154631201E+02  0.64154631201E+02  0.00000000000E+00 0. -1.
          2    1    1    2  501    0 -0.21877186464E+02  0.12311023374E-01  0.94871661299E+01  0.23845707377E+02  0.00000000000E+00 0.  1.
         21    1    1    2  503  502  0.21877186464E+02 -0.12311023374E-01 -0.54875279796E+02  0.59075441360E+02  0.00000000000E+00 0. -1.
</event>
<event>
 4    1  0.2281973E+005  0.2155320E+02  0.7546771E-02  0.1511511E+00
          2   -1    0    0  502    0  0.00000000000E+00  0.00000000000E+00  0.76468273095E+03  0.76468273095E+03  0.00000000000E+00 0. -1.
         21   -1    0    0  503  502 -0.00000000000E+00 -0.00000000000E+00 -0.14871608834E+03  0.14871608834E+03  0.00000000000E+00 0.  1.
          2    1    1    2  501    0  0.45525312376E+01  0.21066916339E+02  0.76374898442E+03  0.76405304247E+03  0.00000000000E+00 0. -1.
         21    1    1    2  503  501 -0.45525312376E+01 -0.21066916339E+02 -0.14778234181E+03  0.14934577683E+03  0.00000000000E+00 0.  1.
</event>
<event>
 4    1  0.2281973E+005  0.2388408E+02  0.7546771E-02  0.1481685E+00
          2   -1    0    0  502    0  0.00000000000E+00  0.00000000000E+00  0.14341854258E+03  0.14341854258E+03  0.00000000000E+00 0. -1.
         21   -1    0    0  503  502 -0.00000000000E+00 -0.00000000000E+00 -0.17629751164E+02  0.17629751164E+02  0.00000000000E+00 0. -1.
          2    1    1    2  501    0 -0.23827563481E+02 -0.16420884128E+01  0.13375501702E+03  0.13587072464E+03  0.00000000000E+00 0. -1.
         21    1    1    2  503  501  0.23827563481E+02  0.16420884128E+01 -0.79662256019E+01  0.25177569107E+02  0.00000000000E+00 0. -1.
</event>
<event>
 4    1  0.2281973E+005  0.2191668E+02  0.7546771E-02  0.1506569E+00
          2   -1    0    0  502    0  0.00000000000E+00  0.00000000000E+00  0.71787418515E+03  0.71787418515E+03  0.00000000000E+00 0. -1.
         21   -1    0    0  503  502 -0.00000000000E+00 -0.00000000000E+00 -0.92141124392E+01  0.92141124392E+01  0.00000000000E+00 0. -1.
          2    1    1    2  501    0 -0.80675090084E+00 -0.21901824009E+02  0.70442540140E+03  0.70476626401E+03  0.00000000000E+00 0. -1.
         21    1    1    2  503  501  0.80675090084E+00  0.21901824009E+02  0.42346713023E+01  0.22322033576E+02  0.00000000000E+00 0. -1.
</event>
<event>
 4    1  0.2281973E+005  0.2061051E+02  0.7546771E-02  0.1524899E+00
          2   -1    0    0  503    0  0.00000000000E+00  0.00000000000E+00  0.28675775385E+02  0.28675775385E+02  0.00000000000E+00 0.  1.
         21   -1    0    0  501  502 -0.00000000000E+00 -0.00000000000E+00 -0.16262928248E+02  0.16262928248E+02  0.00000000000E+00 0.  1.
          2    1    1    2  501    0 -0.12928063962E+02  0.16051732257E+02  0.12914018329E+02  0.24322105494E+02  0.00000000000E+00 0.  1.
         21    1    1    2  503  502  0.12928063962E+02 -0.16051732257E+02 -0.50117119101E+00  0.20616598139E+02  0.00000000000E+00 0.  1.
</event>
<event>
 4    1  0.2281973E+005  0.2671730E+02  0.7546771E-02  0.1450469E+00
          2   -1    0    0  502    0  0.00000000000E+00  0.00000000000E+00  0.60068754672E+03  0.60068754672E+03  0.00000000000E+00 0. -1.
         21   -1    0    0  503  502 -0.00000000000E+00 -0.00000000000E+00 -0.62543789051E+01  0.62543789051E+01  0.00000000000E+00 0. -1.
          2    1    1    2  501    0  0.20418443202E+02 -0.17230821563E+02  0.57034054891E+03  0.57096598478E+03  0.00000000000E+00 0. -1.
         21    1    1    2  503  501 -0.20418443202E+02  0.17230821563E+02  0.24092618900E+02  0.35975940850E+02  0.00000000000E+00 0. -1.
</event>
<event>
 4    1  0.2281973E+005  0.3064540E+02  0.7546771E-02  0.1414069E+00
          2   -1    0    0  502    0  0.00000000000E+00  0.00000000000E+00  0.97320348347E+02  0.97320348347E+02  0.00000000000E+00 0.  1.
         21   -1    0    0  503  502 -0.00000000000E+00 -0.00000000000E+00 -0.67867808058E+02  0.67867808058E+02  0.00000000000E+00 0.  1.
          2    1    1    2  501    0 -0.30490769746E+02 -0.30746458094E+01  0.91223367715E+02  0.96233275450E+02  0.00000000000E+00 0.  1.
         21    1    1    2  503  501  0.30490769746E+02  0.30746458094E+01 -0.61770827426E+02  0.68954880955E+02  0.00000000000E+00 0.  1.
</event>
<event>
 4    1  0.2281973E+005  0.2088686E+02  0.7546771E-02  0.1520886E+00
          2   -1    0    0  502    0  0.00000000000E+00  0.00000000000E+00  0.88512636333E+01  0.88512636333E+01  0.00000000000E+00 0.  1.
         21   -1    0    0  503  502 -0.00000000000E+00 -0.00000000000E+00 -0.74351170991E+02  0.74351170991E+02  0.00000000000E+00 0. -1.
          2    1    1    2  501    0  0.20870740696E+02 -0.82054775718E+00 -0.85964516704E+01  0.22586723914E+02  0.00000000000E+00 0.  1.
         21    1    1    2  503  501 -0.20870740696E+02  0.82054775718E+00 -0.56903455687E+02  0.60615710711E+02  0.00000000000E+00 0. -1.
</event>
<event>
 4    1  0.2281973E+005  0.5485197E+02  0.7546771E-02  0.1278404E+00
          2   -1    0    0  503    0  0.00000000000E+00  0.00000000000E+00  0.20178435295E+04  0.20178435295E+04  0.00000000000E+00 0.  1.
         21   -1    0    0  501  502 -0.00000000000E+00 -0.00000000000E+00 -0.19817727769E+01  0.19817727769E+01  0.00000000000E+00 0.  1.
          2    1    1    2  501    0 -0.50878975251E+02  0.20495578420E+02  0.15104674784E+04  0.15114631130E+04  0.00000000000E+00 0.  1.
         21    1    1    2  503  502  0.50878975251E+02 -0.20495578420E+02  0.50539427841E+03  0.50836218929E+03  0.00000000000E+00 0.  1.
</event>
<event>
 4    1  0.2281973E+005  0.2959194E+02  0.7546771E-02  0.1423176E+00
          2   -1    0    0  502    0  0.00000000000E+00  0.00000000000E+00  0.64190588342E+02  0.64190588342E+02  0.00000000000E+00 0.  1.
         21   -1    0    0  503  502 -0.00000000000E+00 -0.00000000000E+00 -0.73898424707E+02  0.73898424707E+02  0.00000000000E+00 0. -1.
          2    1    1    2  501    0 -0.23148348507E+02  0.18434663039E+02  0.57492787286E+02  0.64661452427E+02  0.00000000000E+00 0.  1.
         21    1    1    2  503  501  0.23148348507E+02 -0.18434663039E+02 -0.67200623651E+02  0.73427560623E+02  0.00000000000E+00 0. -1.
</event>
<event>
 4    1  0.2281973E+005  0.2572880E+02  0.7546771E-02  0.1460813E+00
          2   -1    0    0  503    0  0.00000000000E+00  0.00000000000E+00  0.14912962964E+03  0.14912962964E+03  0.00000000000E+00 0.  1.
         21   -1    0    0  501  502 -0.00000000000E+00 -0.00000000000E+00 -0.44490521237E+01  0.44490521237E+01  0.00000000000E+00 0.  1.
          2    1    1    2  501    0 -0.23125612633E+02 -0.11277277244E+02  0.76009118609E+02  0.80245604574E+02  0.00000000000E+00 0.  1.
         21    1    1    2  503  502  0.23125612633E+02  0.11277277244E+02  0.68671458907E+02  0.73333077190E+02  0.00000000000E+00 0.  1.
</event>
<event>
 4    1  0.2281973E+005  0.2214573E+02  0.7546771E-02  0.1503513E+00
          2   -1    0    0  502    0  0.00000000000E+00  0.00000000000E+00  0.65075486494E+03  0.65075486494E+03  0.00000000000E+00 0.  1.
         21   -1    0    0  503  502 -0.00000000000E+00 -0.00000000000E+00 -0.77073924165E+00  0.77073924165E+00  0.00000000000E+00 0.  1.
          2    1    1    2  501    0 -0.76144470250E-01  0.22145603707E+02  0.37351669255E+03  0.37417262484E+03  0.00000000000E+00 0.  1.
         21    1    1    2  503  501  0.76144470250E-01 -0.22145603707E+02  0.27646743315E+03  0.27735297935E+03  0.00000000000E+00 0.  1.
</event>
<event>
 4    1  0.2281973E+005  0.3102163E+02  0.7546771E-02  0.1410921E+00
          2   -1    0    0  503    0  0.00000000000E+00  0.00000000000E+00  0.18281779157E+03  0.18281779157E+03  0.00000000000E+00 0. -1.
         21   -1    0    0  501  502 -0.00000000000E+00 -0.00000000000E+00 -0.12425480093E+02  0.12425480093E+02  0.00000000000E+00 0. -1.
          2    1    1    2  501    0  0.30882870946E+02  0.29308388991E+01  0.15930887768E+03  0.16230113999E+03  0.00000000000E+00 0. -1.
         21    1    1    2  503  502 -0.30882870946E+02 -0.29308388991E+01  0.11083433800E+02  0.32942131675E+02  0.00000000000E+00 0. -1.
</event>
<event>
 4    1  0.2281973E+005  0.2810453E+02  0.7546771E-02  0.1436818E+00
          2   -1    0    0  503    0  0.00000000000E+00  0.00000000000E+00  0.14140638687E+04  0.14140638687E+04  0.00000000000E+00 0. -1.
         21   -1    0    0  501  502 -0.00000000000E+00 -0.00000000000E+00 -0.65712414712E+01  0.65712414712E+01  0.00000000000E+00 0.  1.
          2    1    1    2  501    0  0.22377521373E+02  0.17003260483E+02  0.13832038182E+04  0.13834893086E+04  0.00000000000E+00 0. -1.
         21    1    1    2  503  502 -0.22377521373E+02 -0.17003260483E+02  0.24288809013E+02  0.37145801555E+02  0.00000000000E+00 0.  1.
</event>
<event>
 4    1  0.2281973E+005  0.2039213E+02  0.7546771E-02  0.1528123E+00
          2   -1    0    0  503    0  0.00000000000E+00  0.00000000000E+00  0.14937849767E+04  0.14937849767E+04  0.00000000000E+00 0.  1.
         21   -1    0    0  501  502 -0.00000000000E+00 -0.00000000000E+00 -0.17698339030E+01  0.17698339030E+01  0.00000000000E+00 0.  1.
          2    1    1    2  501    0 -0.20149537797E+02 -0.31360883010E+01  0.14324610219E+04  0.14326061629E+04  0.00000000000E+00 0.  1.
         21    1    1    2  503  502  0.20149537797E+02  0.31360883010E+01  0.59554120976E+02  0.62948647710E+02  0.00000000000E+00 0.  1.
</event>
<event>
 4    1  0.2281973E+005  0.5466036E+02  0.7546771E-02  0.1279140E+00
          2   -1    0    0  502    0  0.00000000000E+00  0.00000000000E+00  0.10328425640E+04  0.10328425640E+04  0.00000000000E+00 0. -1.
         21   -1    0    0  503  502 -0.00000000000E+00 -0.00000000000E+00 -0.34949749309E+02  0.34949749309E+02  0.00000000000E+00 0.  1.
          2    1    1    2  501    0  0.48944063918E+02  0.24335843445E+02  0.10102704340E+04  0.10117480440E+04  0.00000000000E+00 0. -1.
         21    1    1    2  503  501 -0.48944063918E+02 -0.24335843445E+02 -0.12377619285E+02  0.56044269360E+02  0.00000000000E+00 0.  1.
</event>
<event>
 4    1  0.2281973E+005  0.2560709E+02  0.7546771E-02  0.1462125E+00
          2   -1    0    0  502    0  0.00000000000E+00  0.00000000000E+00  0.17790306023E+01  0.17790306023E+01  0.00000000000E+00 0. -1.
         21   -1    0    0  503  502 -0.00000000000E+00 -0.00000000000E+00 -0.19271858477E+04  0.19271858477E+04  0.00000000000E+00 0.  1.
          2    1    1    2  501    0 -0.13576055481E+02  0.21712064712E+02 -0.95342080654E+02  0.98720997665E+02  0.00000000000E+00 0. -1.
         21    1    1    2  503  501  0.13576055481E+02 -0.21712064712E+02 -0.18300647364E+04  0.18302438806E+04  0.00000000000E+00 0.  1.
</event>
<event>
 4    1  0.2281973E+005  0.3041315E+02  0.7546771E-02  0.1416039E+00
          2   -1    0    0  503    0  0.00000000000E+00  0.00000000000E+00  0.18215640460E+03  0.18215640460E+03  0.00000000000E+00 0.  1.
         21   -1    0    0  501  502 -0.00000000000E+00 -0.00000000000E+00 -0.59297196763E+01  0.59297196763E+01  0.00000000000E+00 0.  1.
          2    1    1    2  501    0  0.22829496011E+02  0.20094127107E+02  0.12375850106E+03  0.12744067803E+03  0.00000000000E+00 0.  1.
         21    1    1    2  503  502 -0.22829496011E+02 -0.20094127107E+02  0.52468183861E+02  0.60645446243E+02  0.00000000000E+00 0.  1.
</event>
<event>
 4    1  0.2281973E+005  0.2680707E+02  0.7546771E-02  0.1449556E+00
          2   -1    0    0  502    0  0.00000000000E+00  0.00000000000E+00  0.21839586064E+04  0.21839586064E+04  0.00000000000E+00 0.  1.
         21   -1    0    0  503  502 -0.00000000000E+00 -0.00000000000E+00 -0.33206454296E+00  0.33206454296E+00  0.00000000000E+00 0.  1.
          2    1    1    2  501    0  0.77623379966E+01  0.25658621430E+02  0.11959737169E+04  0.11962741117E+04  0.00000000000E+00 0.  1.
         21    1    1    2  503  501 -0.77623379966E+01 -0.25658621430E+02  0.98765282494E+03  0.98801655925E+03  0.00000000000E+00 0.  1.
</event>
<event>
 4    1  0.2281973E+005  0.3208963E+02  0.7546771E-02  0.1402266E+00
          2   -1    0    0  503    0  0.00000000000E+00  0.00000000000E+00  0.22329625767E+03  0.22329625767E+03  0.00000000000E+00 0.  1.
         21   -1    0    0  501  502 -0.00000000000E+00 -0.00000000000E+00 -0.74841532580E+01  0.74841532580E+01  0.00000000000E+00 0.  1.
          2    1    1    2  501    0 -0.31738716616E+02 -0.47326566545E+01  0.17939429983E+03  0.18224175971E+03  0.00000000000E+00 0.  1.
         21    1    1    2  503  502  0.31738716616E+02  0.47326566545E+01  0.36417804589E+02  0.48538651223E+02  0.00000000000E+00 0.  1.
</event>
<event>
 4    1  0.2281973E+005  0.2028159E+02  0.7546771E-02  0.1529774E+00
          2   -1    0    0  503    0  0.00000000000E+00  0.00000000000E+00  0.16141943549E+02  0.16141943549E+02  0.00000000000E+00 0.  1.
         21   -1    0    0  501  502 -0.00000000000E+00 -0.00000000000E+00 -0.33532455355E+03  0.33532455355E+03  0.00000000000E+00 0.  1.
          2    1    1    2  501    0 -0.13543125314E+02  0.15097240563E+02  0.93326291935E+01  0.22325789651E+02  0.00000000000E+00 0.  1.
         21    1    1    2  503  502  0.13543125314E+02 -0.15097240563E+02 -0.32851523919E+03  0.32914070744E+03  0.00000000000E+00 0.  1.
</event>
<event>
 4    1  0.2281973E+005  0.2782680E+02  0.7546771E-02  0.1439475E+00
          2   -1    0    0  503    0  0.00000000000E+00  0.00000000000E+00  0.17842763436E+03  0.17842763436E+03  0.00000000000E+00 0. -1.
         21   -1    0    0  501  502 -0.00000000000E+00 -0.00000000000E+00 -0.37595555048E+03  0.37595555048E+03  0.00000000000E+00 0.  1.
          2    1    1    2  501    0  0.26568129701E+02  0.82743695480E+01  0.17682314562E+03  0.17899931713E+03  0.00000000000E+00 0. -1.
         21    1    1    2  503  502 -0.26568129701E+02 -0.82743695480E+01 -0.37435106174E+03  0.37538386770E+03  0.00000000000E+00 0.  1.
</event>
<event>
 4    1  0.2281973E+005  0.2726735E+02  0.7546771E-02  0.1444941E+00
          2   -1    0    0  502    0  0.00000000000E+00  0.00000000000E+00  0.13107214704E+04  0.13107214704E+04  0.00000000000E+00 0. -1.
         21   -1    0    0  503  502 -0.00000000000E+00 -0.00000000000E+00 -0.27208884445E+01  0.27208884445E+01  0.00000000000E+00 0. -1.
          2    1    1    2  501    0  0.65314768659E+00 -0.27259527712E+02  0.12382680495E+04  0.12385682342E+04  0.00000000000E+00 0. -1.
         21    1    1    2  503  501 -0.65314768659E+00  0.27259527712E+02  0.69732532471E+02  0.74874124621E+02  0.00000000000E+00 0. -1.
</event>
<event>
 4    1  0.2281973E+005  0.3807650E+02  0.7546771E-02  0.1360142E+00
          2   -1    0    0  503    0  0.00000000000E+00  0.00000000000E+00  0.85729774649E+03  0.85729774649E+03  0.00000000000E+00 0. -1.
         21   -1    0    0  501  502 -0.00000000000E+00 -0.00000000000E+00 -0.35343090760E+01  0.35343090760E+01  0.00000000000E+00 0.  1.
          2    1    1    2  501    0  0.31682980853E+02 -0.21118914886E+02  0.73770781753E+03  0.73868981575E+03  0.00000000000E+00 0. -1.
         21    1    1    2  503  502 -0.31682980853E+02  0.21118914886E+02  0.11605561988E+03  0.12214223982E+03  0.00000000000E+00 0.  1.
</event>
<event>
 4    1  0.2281973E+005  0.3343712E+02  0.7546771E-02  0.1391897E+00
          2   -1    0    0  502    0  0.00000000000E+00  0.00000000000E+00  0.82467623608E+03  0.82467623608E+03  0.00000000000E+00 0. -1.
         21   -1    0    0  503  502 -0.00000000000E+00 -0.00000000000E+00 -0.23845049911E+03  0.23845049911E+03  0.00000000000E+00 0. -1.
          2    1    1    2  501    0 -0.32463955860E+02 -0.80082714696E+01  0.82316295492E+03  0.82384178772E+03  0.00000000000E+00 0. -1.
         21    1    1    2  503  501  0.32463955860E+02  0.80082714696E+01 -0.23693721795E+03  0.23928494748E+03  0.00000000000E+00 0. -1.
</event>
<event>
 4    1  0.2281973E+005  0.2460235E+02  0.7546771E-02  0.1473301E+00
          2   -1    0    0  503    0  0.00000000000E+00  0.00000000000E+00  0.14822680290E+03  0.14822680290E+03  0.00000000000E+00 0. -1.
         21   -1    0    0  501  502 -0.00000000000E+00 -0.00000000000E+00 -0.10126180642E+02  0.10126180642E+02  0.00000000000E+00 0. -1.
          2    1    1    2  501    0 -0.23180381985E+02  0.82429213568E+01  0.13021351827E+03  0.13251730529E+03  0.00000000000E+00 0. -1.
         21    1    1    2  503  502  0.23180381985E+02 -0.82429213568E+01  0.78871039913E+01  0.25835678253E+02  0.00000000000E+00 0. -1.
</event>
<event>
 4    1  0.2281973E+005  0.2453973E+02  0.7546771E-02  0.1474019E+00
          2   -1    0    0  503    0  0.00000000000E+00  0.00000000000E+00  0.29824731510E+01  0.29824731510E+01  0.00000000000E+00 0.  1.
         21   -1    0    0  501  502 -0.00000000000E+00 -0.00000000000E+00 -0.32847303077E+03  0.32847303077E+03  0.00000000000E+00 0.  1.
          2    1    1    2  501    0 -0.24145379843E+02 -0.43816787584E+01 -0.59873890459E+02  0.64707659788E+02  0.00000000000E+00 0.  1.
         21    1    1    2  503  502  0.24145379843E+02  0.43816787584E+01 -0.26561666716E+03  0.26674784414E+03  0.00000000000E+00 0.  1.
</event>
<event>
 4    1  0.2281973E+005  0.2117833E+02  0.7546771E-02  0.1516734E+00
          2   -1    0    0  503    0  0.00000000000E+00  0.00000000000E+00  0.53433968020E+03  0.53433968020E+03  0.00000000000E+00 0.  1.
         21   -1    0    0  501  502 -0.00000000000E+00 -0.00000000000E+00 -0.13788170165E+01  0.13788170165E+01  0.00000000000E+00 0. -1.
          2    1    1    2  501    0 -0.86503611755E+01  0.19331143505E+02  0.43402016204E+03  0.43453656108E+03  0.00000000000E+00 0.  1.
         21    1    1    2  503  502  0.86503611755E+01 -0.19331143505E+02  0.98940701148E+02  0.10118193614E+03  0.00000000000E+00 0. -1.
</event>
<event>
 4    1  0.2281973E+005  0.2055921E+02  0.7546771E-02  0.1525652E+00
          2   -1    0    0  503    0  0.00000000000E+00  0.00000000000E+00  0.16380492425E+04  0.16380492425E+04  0.00000000000E+00 0. -1.
         21   -1    0    0  501  502 -0.00000000000E+00 -0.00000000000E+00 -0.40768848447E+00  0.40768848447E+00  0.00000000000E+00 0.  1.
          2    1    1    2  501    0  0.20000708661E+02 -0.47595064799E+01  0.32248241920E+03  0.32313711013E+03  0.00000000000E+00 0. -1.
         21    1    1    2  503  502 -0.20000708661E+02  0.47595064799E+01  0.13151591348E+04  0.13153198208E+04  0.00000000000E+00 0.  1.
</event>
<event>
 4    1  0.2281973E+005  0.2391891E+02  0.7546771E-02  0.1481271E+00
          2   -1    0    0  502    0  0.00000000000E+00  0.00000000000E+00  0.54319314001E+03  0.54319314001E+03  0.00000000000E+00 0.  1.
         21   -1    0    0  503  502 -0.00000000000E+00 -0.00000000000E+00 -0.30666041651E+01  0.30666041651E+01  0.00000000000E+00 0.  1.
          2    1    1    2  501    0  0.93157391542E+01  0.22030235590E+02  0.49137335219E+03  0.49195516616E+03  0.00000000000E+00 0.  1.
         21    1    1    2  503  501 -0.93157391542E+01 -0.22030235590E+02  0.48753183655E+02  0.54304578009E+02  0.00000000000E+00 0.  1.
</event>
<event>
 4    1  0.2281973E+005  0.2398065E+02  0.7546771E-02  0.1480538E+00
          2   -1    0    0  503    0  0.00000000000E+00  0.00000000000E+00  0.75682952241E+01  0.75682952241E+01  0.00000000000E+00 0. -1.
         21   -1    0    0  501  502 -0.00000000000E+00 -0.00000000000E+00 -0.77330854824E+03  0.77330854824E+03  0.00000000000E+00 0.  1.
          2    1    1    2  501    0  0.16929746927E+02 -0.16983963870E+02 -0.12109559865E+02  0.26864712912E+02  0.00000000000E+00 0. -1.
         21    1    1    2  503  502 -0.16929746927E+02  0.16983963870E+02 -0.75363069315E+03  0.75401213055E+03  0.00000000000E+00 0.  1.
</event>
<event>
 4    1  0.2281973E+005  0.3406709E+02  0.7546771E-02  0.1387243E+00
          2   -1    0    0  503    0  0.00000000000E+00  0.00000000000E+00  0.24371509381E+03  0.24371509381E+03  0.00000000000E+00 0. -1.
         21   -1    0    0  501  502 -0.00000000000E+00 -0.00000000000E+00 -0.58195946566E+01  0.58195946566E+01  0.00000000000E+00 0.  1.
          2    1    1    2  501    0 -0.28731741767E+02  0.18304473751E+02  0.17213628171E+03  0.17547497322E+03  0.00000000000E+00 0. -1.
         21    1    1    2  503  502  0.28731741767E+02 -0.18304473751E+02  0.65759217445E+02  0.74059715252E+02  0.00000000000E+00 0.  1.
</event>
<event>
 4    1  0.2281973E+005  0.2616748E+02  0.7546771E-02  0.1456155E+00
          2   -1    0    0  502    0  0.00000000000E+00  0.00000000000E+00  0.16064757363E+03  0.16064757363E+03  0.00000000000E+00 0.  1.
         21   -1    0    0  503  502 -0.00000000000E+00 -0.00000000000E+00 -0.16837600965E+02  0.16837600965E+02  0.00000000000E+00 0. -1.
          2    1    1    2  501    0 -0.24644413748E+02  0.87971596002E+01  0.14859701171E+03  0.15088342863E+03  0.00000000000E+00 0.  1.
         21    1    1    2  503  501  0.24644413748E+02 -0.87971596002E+01 -0.47870390384E+01  0.26601745972E+02  0.00000000000E+00 0. -1.
</event>
<event>
 4    1  0.2281973E+005  0.2025159E+02  0.7546771E-02  0.1530224E+00
          2   -1    0    0  503    0  0.00000000000E+00  0.00000000000E+00  0.27170979746E+03  0.27170979746E+03  0.00000000000E+00 0. -1.
         21   -1    0    0  501  502 -0.00000000000E+00 -0.00000000000E+00 -0.17169420168E+02  0.17169420168E+02  0.00000000000E+00 0. -1.
          2    1    1    2  501    0  0.63035810537E+01 -0.19245566100E+02  0.26521463810E+03  0.26598671247E+03  0.00000000000E+00 0. -1.
         21    1    1    2  503  502 -0.63035810537E+01  0.19245566100E+02 -0.10674260808E+02  0.22892505158E+02  0.00000000000E+00 0. -1.
</event>
<event>
 4    1  0.2281973E+005  0.3804076E+02  0.7546771E-02  0.1360366E+00
          2   -1    0    0  503    0  0.00000000000E+00  0.00000000000E+00  0.30125846056E+03  0.30125846056E+03  0.00000000000E+00 0.  1.
         21   -1    0    0  501  502 -0.00000000000E+00 -0.00000000000E+00 -0.48694514796E+01  0.48694514796E+01  0.00000000000E+00 0. -1.
          2    1    1    2  501    0  0.28886035467E+02 -0.24752709892E+02  0.13038326825E+03  0.13581935183E+03  0.00000000000E+00 0.  1.
         21    1    1    2  503  502 -0.28886035467E+02  0.24752709892E+02  0.16600574083E+03  0.17030856021E+03  0.00000000000E+00 0. -1.
</event>
<event>
 4    1  0.2281973E+005  0.6000930E+02  0.7546771E-02  0.1259801E+00
          2   -1    0    0  503    0  0.00000000000E+00  0.00000000000E+00  0.13048083433E+04  0.13048083433E+04  0.00000000000E+00 0. -1.
         21   -1    0    0  501  502 -0.00000000000E+00 -0.00000000000E+00 -0.13432398876E+02  0.13432398876E+02  0.00000000000E+00 0. -1.
          2    1    1    2  501    0  0.36176822207E+01 -0.59900156958E+02  0.12332062463E+04  0.12346654456E+04  0.00000000000E+00 0. -1.
         21    1    1    2  503  502 -0.36176822207E+01  0.59900156958E+02  0.58169698039E+02  0.83575296578E+02  0.00000000000E+00 0. -1.
</event>
<event>
 4    1  0.2281973E+005  0.2520487E+02  0.7546771E-02  0.1466524E+00
          2   -1    0    0  502    0  0.00000000000E+00  0.00000000000E+00  0.11230565825E+02  0.11230565825E+02  0.00000000000E+00 0. -1.
         21   -1    0    0  503  502 -0.00000000000E+00 -0.00000000000E+00 -0.10393519571E+03  0.10393519571E+03  0.00000000000E+00 0. -1.
          2    1    1    2  501    0  0.21558385027E+02 -0.13058384510E+02 -0.74788672673E+01  0.26291040805E+02  0.00000000000E+00 0. -1.
         21    1    1    2  503  501 -0.21558385027E+02  0.13058384510E+02 -0.85225762614E+02  0.88874720726E+02  0.00000000000E+00 0. -1.
</event>
<event>
 4    1  0.2281973E+005  0.2518970E+02  0.7546771E-02  0.1466692E+00
          2   -1    0    0  502    0  0.00000000000E+00  0.00000000000E+00  0.39993588405E+03  0.39993588405E+03  0.00000000000E+00 0. -1.
         21   -1    0    0  503  502 -0.00000000000E+00 -0.00000000000E+00 -0.27159944121E+02  0.27159944121E+02  0.00000000000E+00 0. -1.
          2    1    1    2  501    0  0.49758084871E+01 -0.24693363476E+02  0.39360480132E+03  0.39441001571E+03  0.00000000000E+00 0. -1.
         21    1    1    2  503  501 -0.49758084871E+01  0.24693363476E+02 -0.20828861386E+02  0.32685812466E+02  0.00000000000E+00 0. -1.
</event>
<event>
 4    1  0.2281973E+005  0.2122283E+02  0.7546771E-02  0.1516107E+00
          2   -1    0    0  503    0  0.00000000000E+00  0.00000000000E+00  0.18518715394E+02  0.18518715394E+02  0.00000000000E+00 0.  1.
         21   -1    0    0  501  502 -0.00000000000E+00 -0.00000000000E+00 -0.24809996567E+02  0.24809996567E+02  0.00000000000E+00 0. -1.
          2    1    1    2  501    0  0.20005369192E+02  0.70847380009E+01 -0.10661618426E+00  0.21223092990E+02  0.00000000000E+00 0.  1.
         21    1    1    2  503  502 -0.20005369192E+02 -0.70847380009E+01 -0.61846649890E+01  0.22105618971E+02  0.00000000000E+00 0. -1.
</event>
<event>
 4    1  0.2281973E+005  0.2721609E+02  0.7546771E-02  0.1445449E+00
          2   -1    0    0  503    0  0.00000000000E+00  0.00000000000E+00  0.25697451438E+03  0.25697451438E+03  0.00000000000E+00 0.  1.
         21   -1    0    0  501  502 -0.00000000000E+00 -0.00000000000E+00 -0.20438155949E+02  0.20438155949E+02  0.00000000000E+00 0.  1.
          2    1    1    2  501    0  0.12863610450E+02  0.23984220519E+02  0.24682189501E+03  0.24831786718E+03  0.00000000000E+00 0.  1.
         21    1    1    2  503  502 -0.12863610450E+02 -0.23984220519E+02 -0.10285536572E+02  0.29094803149E+02  0.00000000000E+00 0.  1.
</event>
<event>
 4    1  0.2281973E+005  0.2377570E+02  0.7546771E-02  0.1482981E+00
          2   -1    0    0  503    0  0.00000000000E+00  0.00000000000E+00  0.72159393341E+03  0.72159393341E+03  0.00000000000E+00 0. -1.
         21   -1    0    0  501  502 -0.00000000000E+00 -0.00000000000E+00 -0.12781360398E+01  0.12781360398E+01  0.00000000000E+00 0. -1.
          2    1    1    2  501    0 -0.10228282538E+02 -0.21463129848E+02  0.58503103566E+03  0.58551395918E+03  0.00000000000E+00 0. -1.
         21    1    1    2  503  502  0.10228282538E+02  0.21463129848E+02  0.13528476171E+03  0.13735811027E+03  0.00000000000E+00 0. -1.
</event>
<event>
 4    1  0.2281973E+005  0.2381621E+02  0.7546771E-02  0.1482496E+00
          2   -1    0    0  503    0  0.00000000000E+00  0.00000000000E+00  0.16638020040E+04  0.16638020040E+04  0.00000000000E+00 0. -1.
         21   -1    0    0  501  502 -0.00000000000E+00 -0.00000000000E+00 -0.12951154438E+01  0.12951154438E+01  0.00000000000E+00 0.  1.
          2    1    1    2  501    0  0.20735142703E+02 -0.11716037697E+02  0.15458741605E+04  0.15460576095E+04  0.00000000000E+00 0. -1.
         21    1    1    2  503  502 -0.20735142703E+02  0.11716037697E+02  0.11663272806E+03  0.11903950998E+03  0.00000000000E+00 0.  1.
</event>
<event>
 4    1  0.2281973E+005  0.2172664E+02  0.7546771E-02  0.1509138E+00
          2   -1    0    0  503    0  0.00000000000E+00  0.00000000000E+00  0.10376234847E+02  0.10376234847E+02  0.00000000000E+00 0. -1.
         21   -1    0    0  501  502 -0.00000000000E+00 -0.00000000000E+00 -0.13497125203E+03  0.13497125203E+03  0.00000000000E+00 0.  1.
          2    1    1    2  501    0 -0.58808963272E+01 -0.20915594272E+02 -0.31256226871E+01  0.21950319873E+02  0.00000000000E+00 0. -1.
         21    1    1    2  503  502  0.58808963272E+01  0.20915594272E+02 -0.12146939450E+03  0.12339716701E+03  0.00000000000E+00 0.  1.
</event>
<event>
 4    1  0.2281973E+005  0.2027128E+02  0.7546771E-02  0.1529928E+00
          2   -1    0    0  503    0  0.00000000000E+00  0.00000000000E+00  0.99646431441E+03  0.99646431441E+03  0.00000000000E+00 0. -1.
         21   -1    0    0  501  502 -0.00000000000E+00 -0.00000000000E+00 -0.77061159953E+00  0.77061159953E+00  0.00000000000E+00 0.  1.
          2    1    1    2  501    0  0.10773351819E+02  0.17171477657E+02  0.83780852325E+03  0.83805372524E+03  0.00000000000E+00 0. -1.
         21    1    1    2  503  502 -0.10773351819E+02 -0.17171477657E+02  0.15788517956E+03  0.15918120077E+03  0.00000000000E+00 0.  1.
</event>
<event>
 4    1  0.2281973E+005  0.2114218E+02  0.7546771E-02  0.1517244E+00
          2   -1    0    0  503    0  0.00000000000E+00  0.00000000000E+00  0.11474467049E+02  0.11474467049E+02  0.00000000000E+00 0.  1.
         21   -1    0    0  501  502 -0.00000000000E+00 -0.00000000000E+00 -0.98442955595E+02  0.98442955595E+02  0.00000000000E+00 0.  1.
          2    1    1    2  501    0  0.63655029695E+01  0.20161154628E+02 -0.76166212270E+00  0.21155895471E+02  0.00000000000E+00 0.  1.
         21    1    1    2  503  502 -0.63655029695E+01 -0.20161154628E+02 -0.86206826424E+02  0.88761527173E+02  0.00000000000E+00 0.  1.
</event>
<event>
 4    1  0.2281973E+005  0.2099504E+02  0.7546771E-02  0.1519336E+00
          2   -1    0    0  502    0  0.00000000000E+00  0.00000000000E+00  0.42437466711E+01  0.42437466711E+01  0.00000000000E+00 0.  1.
         21   -1    0    0  503  502 -0.00000000000E+00 -0.00000000000E+00 -0.65442570457E+03  0.65442570457E+03  0.00000000000E+00 0.  1.
          2    1    1    2  501    0  0.19651347590E+02  0.73902699827E+01 -0.23020293639E+02  0.31156467575E+02  0.00000000000E+00 0.  1.
         21    1    1    2  503  501 -0.19651347590E+02 -0.73902699827E+01 -0.62716166426E+03  0.62751298367E+03  0.00000000000E+00 0.  1.
</event>
<event>
 4    1  0.2281973E+005  0.2063201E+02  0.7546771E-02  0.1524584E+00
          2   -1    0    0  502    0  0.00000000000E+00  0.00000000000E+00  0.80739467191E+02  0.80739467191E+02  0.00000000000E+00 0. -1.
         21   -1    0    0  503  502 -0.00000000000E+00 -0.00000000000E+00 -0.29680030186E+03  0.29680030186E+03  0.00000000000E+00 0.  1.
          2    1    1    2  501    0 -0.36444066805E+01 -0.20307586676E+02  0.79055331199E+02  0.81703275134E+02  0.00000000000E+00 0. -1.
         21    1    1    2  503  501  0.36444066805E+01  0.20307586676E+02 -0.29511616586E+03  0.29583649391E+03  0.00000000000E+00 0.  1.
</event>
<event>
 4    1  0.2281973E+005  0.2534493E+02  0.7546771E-02  0.1464981E+00
          2   -1    0    0  503    0  0.00000000000E+00  0.00000000000E+00  0.52802363331E+03  0.52802363331E+03  0.00000000000E+00 0. -1.
         21   -1    0    0  501  502 -0.00000000000E+00 -0.00000000000E+00 -0.17956917632E+01  0.17956917632E+01  0.00000000000E+00 0. -1.
          2    1    1    2  501    0 -0.24801947090E+02 -0.52181075687E+01  0.41355826218E+03  0.41433416639E+03  0.00000000000E+00 0. -1.
         21    1    1    2  503  502  0.24801947090E+02  0.52181075687E+01  0.11266967937E+03  0.11548515868E+03  0.00000000000E+00 0. -1.
</event>
<event>
 4    1  0.2281973E+005  0.2195633E+02  0.7546771E-02  0.1506036E+00
          2   -1    0    0  502    0  0.00000000000E+00  0.00000000000E+00  0.12434328502E+03  0.12434328502E+03  0.00000000000E+00 0.  1.
         21   -1    0    0  503  502 -0.00000000000E+00 -0.00000000000E+00 -0.92660862731E+01  0.92660862731E+01  0.00000000000E+00 0.  1.
          2    1    1    2  501    0  0.19488845954E+02  0.10112637973E+02  0.10848526780E+03  0.11068484039E+03  0.00000000000E+00 0.  1.
         21    1    1    2  503  501 -0.19488845954E+02 -0.10112637973E+02  0.65919309481E+01  0.22924530900E+02  0.00000000000E+00 0.  1.
</event>
<event>
 4    1  0.2281973E+005  0.2684421E+02  0.7546771E-02  0.1449179E+00
          2   -1    0    0  502    0  0.00000000000E+00  0.00000000000E+00  0.54892775433E+03  0.54892775433E+03  0.00000000000E+00 0. -1.
         21   -1    0    0  503  502 -0.00000000000E+00 -0.00000000000E+00 -0.55846017492E+02  0.55846017492E+02  0.00000000000E+00 0. -1.
          2    1    1    2  501    0  0.46568201468E+01 -0.26437202612E+02  0.54535254185E+03  0.54601282636E+03  0.00000000000E+00 0. -1.
         21    1    1    2  503  501 -0.46568201468E+01  0.26437202612E+02 -0.52270805004E+02  0.58760945462E+02  0.00000000000E+00 0. -1.
</event>
<event>
 4    1  0.2281973E+005  0.2231953E+02  0.7546771E-02  0.1501224E+00
          2   -1    0    0  503    0  0.00000000000E+00  0.00000000000E+00  0.28249405716E+02  0.28249405716E+02  0.00000000000E+00 0.  1.
         21   -1    0    0  501  502 -0.00000000000E+00 -0.00000000000E+00 -0.81928238697E+02  0.81928238697E+02  0.00000000000E+00 0. -1.
          2    1    1    2  501    0  0.58432862874E+01 -0.21541061236E+02  0.21961879668E+02  0.31312704648E+02  0.00000000000E+00 0.  1.
         21    1    1    2  503  502 -0.58432862874E+01  0.21541061236E+02 -0.75640712650E+02  0.78864939765E+02  0.00000000000E+00 0. -1.
</event>
<event>
 4    1  0.2281973E+005  0.2882478E+02  0.7546771E-02  0.1430091E+00
          2   -1    0    0  503    0  0.00000000000E+00  0.00000000000E+00  0.63228152704E+03  0.63228152704E+03  0.00000000000E+00 0.  1.
         21   -1    0    0  501  502 -0.00000000000E+00 -0.00000000000E+00 -0.14331411449E+01  0.14331411449E+01  0.00000000000E+00 0.  1.
          2    1    1    2  501    0 -0.22520939384E+02  0.17990973626E+02  0.40675267317E+03  0.40777273692E+03  0.00000000000E+00 0.  1.
         21    1    1    2  503  502  0.22520939384E+02 -0.17990973626E+02  0.22409571272E+03  0.22594193126E+03  0.00000000000E+00 0.  1.
</event>
<event>
 4    1  0.2281973E+005  0.2711743E+02  0.7546771E-02  0.1446432E+00
          2   -1    0    0  503    0  0.00000000000E+00  0.00000000000E+00  0.15693790092E+03  0.15693790092E+03  0.00000000000E+00 0. -1.
         21   -1    0    0  501  502 -0.00000000000E+00 -0.00000000000E+00 -0.13023059804E+02  0.13023059804E+02  0.00000000000E+00 0.  1.
          2    1    1    2  501    0  0.17808602856E+02 -0.20450157130E+02  0.13995263902E+03  0.14255559067E+03  0.00000000000E+00 0. -1.
         21    1    1    2  503  502 -0.17808602856E+02  0.20450157130E+02  0.39622020947E+01  0.27405370054E+02  0.00000000000E+00 0.  1.
</event>
<event>
 4    1  0.2281973E+005  0.2021289E+02  0.7546771E-02  0.1530806E+00
          2   -1    0    0  503    0  0.00000000000E+00  0.00000000000E+00  0.41592941229E+03  0.41592941229E+03  0.00000000000E+00 0. -1.
         21   -1    0    0  501  502 -0.00000000000E+00 -0.00000000000E+00 -0.35101172753E+02  0.35101172753E+02  0.00000000000E+00 0. -1.
          2    1    1    2  501    0  0.94237463674E+01 -0.17881660001E+02  0.41275157140E+03  0.41324619835E+03  0.00000000000E+00 0. -1.
         21    1    1    2  503  502 -0.94237463674E+01  0.17881660001E+02 -0.31923331865E+02  0.37784386687E+02  0.00000000000E+00 0. -1.
</event>
<event>
 4    1  0.2281973E+005  0.2660671E+02  0.7546771E-02  0.1451599E+00
          2   -1    0    0  502    0  0.00000000000E+00  0.00000000000E+00  0.94893079148E+03  0.94893079148E+03  0.00000000000E+00 0.  1.
         21   -1    0    0  503  502 -0.00000000000E+00 -0.00000000000E+00 -0.27453412021E+01  0.27453412021E+01  0.00000000000E+00 0. -1.
          2    1    1    2  501    0 -0.23620423452E+02 -0.12247150975E+02  0.87916448610E+03  0.87956700185E+03  0.00000000000E+00 0.  1.
         21    1    1    2  503  501  0.23620423452E+02  0.12247150975E+02  0.67020964172E+02  0.72109130834E+02  0.00000000000E+00 0. -1.
</event>
<event>
 4    1  0.2281973E+005  0.2095804E+02  0.7546771E-02  0.1519865E+00
          2   -1    0    0  503    0  0.00000000000E+00  0.00000000000E+00  0.90520955594E+03  0.90520955594E+03  0.00000000000E+00 0.  1.
         21   -1    0    0  501  502 -0.00000000000E+00 -0.00000000000E+00 -0.14515170764E+02  0.14515170764E+02  0.00000000000E+00 0.  1.
          2    1    1    2  501    0 -0.13059363705E+02 -0.16391840979E+02  0.89745773308E+03  0.89770241288E+03  0.00000000000E+00 0.  1.
         21    1    1    2  503  502  0.13059363705E+02  0.16391840979E+02 -0.67633479059E+01  0.22022313819E+02  0.00000000000E+00 0.  1.
</event>
<event>
 4    1  0.2281973E+005  0.3140747E+02  0.7546771E-02  0.1407747E+00
          2   -1    0    0  502    0  0.00000000000E+00  0.00000000000E+00  0.18479666621E+04  0.18479666621E+04  0.00000000000E+00 0. -1.
         21   -1    0    0  503  502 -0.00000000000E+00 -0.00000000000E+00 -0.83249400993E+00  0.83249400993E+00  0.00000000000E+00 0. -1.
          2    1    1    2  501    0 -0.31276116767E+02  0.28694142048E+01  0.14772849904E+04  0.14776188182E+04  0.00000000000E+00 0. -1.
         21    1    1    2  503  501  0.31276116767E+02 -0.28694142048E+01  0.36984917771E+03  0.37118033793E+03  0.00000000000E+00 0. -1.
</event>
<event>
 4    1  0.2281973E+005  0.2481436E+02  0.7546771E-02  0.1470891E+00
          2   -1    0    0  503    0  0.00000000000E+00  0.00000000000E+00  0.86789232631E+03  0.86789232631E+03  0.00000000000E+00 0.  1.
         21   -1    0    0  501  502 -0.00000000000E+00 -0.00000000000E+00 -0.76971727480E+00  0.76971727480E+00  0.00000000000E+00 0.  1.
          2    1    1    2  501    0  0.17057533839E+02  0.18022019102E+02  0.31205850361E+03  0.31304354698E+03  0.00000000000E+00 0.  1.
         21    1    1    2  503  502 -0.17057533839E+02 -0.18022019102E+02  0.55506410542E+03  0.55561849660E+03  0.00000000000E+00 0.  1.
</event>
<event>
 4    1  0.2281973E+005  0.2360881E+02  0.7546771E-02  0.1484992E+00
          2   -1    0    0  502    0  0.00000000000E+00  0.00000000000E+00  0.16521859945E+04  0.16521859945E+04  0.00000000000E+00 0. -1.
         21   -1    0    0  503  502 -0.00000000000E+00 -0.00000000000E+00 -0.12730837670E+01  0.12730837670E+01  0.00000000000E+00 0.  1.
          2    1    1    2  501    0 -0.91149527599E+01 -0.21778278916E+02  0.15342334157E+04  0.15344150513E+04  0.00000000000E+00 0. -1.
         21    1    1    2  503  501  0.91149527599E+01  0.21778278916E+02  0.11667949509E+03  0.11904402703E+03  0.00000000000E+00 0.  1.
</event>
<event>
 4    1  0.2281973E+005  0.3485714E+02  0.7546771E-02  0.1381570E+00
          2   -1    0    0  502    0  0.00000000000E+00  0.00000000000E+00  0.54906083164E+01  0.54906083164E+01  0.00000000000E+00 0. -1.
         21   -1    0    0  503  502 -0.00000000000E+00 -0.00000000000E+00 -0.44532126452E+03  0.44532126452E+03  0.00000000000E+00 0. -1.
          2    1    1    2  501    0  0.28987909288E+02 -0.19357723239E+02 -0.60039683314E+02  0.69424663531E+02  0.00000000000E+00 0. -1.
         21    1    1    2  503  501 -0.28987909288E+02  0.19357723239E+02 -0.37979097289E+03  0.38138720931E+03  0.00000000000E+00 0. -1.
</event>
<event>
 4    1  0.2281973E+005  0.2003568E+02  0.7546771E-02  0.1533491E+00
          2   -1    0    0  502    0  0.00000000000E+00  0.00000000000E+00  0.41741814668E+02  0.41741814668E+02  0.00000000000E+00 0.  1.
         21   -1    0    0  503  502 -0.00000000000E+00 -0.00000000000E+00 -0.48709574283E+02  0.48709574283E+02  0.00000000000E+00 0. -1.
          2    1    1    2  501    0  0.13052502436E+02  0.15200676595E+02  0.37032027072E+02  0.42104624661E+02  0.00000000000E+00 0.  1.
         21    1    1    2  503  501 -0.13052502436E+02 -0.15200676595E+02 -0.43999786687E+02  0.48346764290E+02  0.00000000000E+00 0. -1.
</event>
<event>
 4    1  0.2281973E+005  0.3298510E+02  0.7546771E-02  0.1395310E+00
          2   -1    0    0  503    0  0.00000000000E+00  0.00000000000E+00  0.18723279535E+04  0.18723279535E+04  0.00000000000E+00 0.  1.
         21   -1    0    0  501  502 -0.00000000000E+00 -0.00000000000E+00 -0.67246228366E+00  0.67246228366E+00  0.00000000000E+00 0. -1.
          2    1    1    2  501    0 -0.57320782745E+00  0.32980123021E+02  0.12810097202E+04  0.12814343215E+04  0.00000000000E+00 0.  1.
         21    1    1    2  503  502  0.57320782745E+00 -0.32980123021E+02  0.59064577098E+03  0.59156609424E+03  0.00000000000E+00 0. -1.
</event>
<event>
 4    1  0.2281973E+005  0.2260474E+02  0.7546771E-02  0.1497522E+00
          2   -1    0    0  503    0  0.00000000000E+00  0.00000000000E+00  0.14720548088E+04  0.14720548088E+04  0.00000000000E+00 0. -1.
         21   -1    0    0  501  502 -0.00000000000E+00 -0.00000000000E+00 -0.98411270338E+00  0.98411270338E+00  0.00000000000E+00 0. -1.
          2    1    1    2  501    0 -0.13763767862E+02 -0.17931340138E+02  0.13280925582E+04  0.13282849158E+04  0.00000000000E+00 0. -1.
         21    1    1    2  503  502  0.13763767862E+02  0.17931340138E+02  0.14297813786E+03  0.14475400572E+03  0.00000000000E+00 0. -1.
</event>
<event>
 4    1  0.2281973E+005  0.2319878E+02  0.7546771E-02  0.1490017E+00
          2   -1    0    0  503    0  0.00000000000E+00  0.00000000000E+00  0.67876634289E+01  0.67876634289E+01  0.00000000000E+00 0.  1.
         21   -1    0    0  501  502 -0.00000000000E+00 -0.00000000000E+00 -0.14304680142E+03  0.14304680142E+03  0.00000000000E+00 0.  1.
          2    1    1    2  501    0  0.23190535893E+02  0.61850486649E+00 -0.18113322860E+02  0.29432566458E+02  0.00000000000E+00 0.  1.
         21    1    1    2  503  502 -0.23190535893E+02 -0.61850486649E+00 -0.11814581513E+03  0.12040189840E+03  0.00000000000E+00 0.  1.
</event>
<event>
 4    1  0.2281973E+005  0.2492992E+02  0.7546771E-02  0.1469589E+00
          2   -1    0    0  502    0  0.00000000000E+00  0.00000000000E+00  0.65974311148E+03  0.65974311148E+03  0.00000000000E+00 0.  1.
         21   -1    0    0  503  502 -0.00000000000E+00 -0.00000000000E+00 -0.57647652115E+01  0.57647652115E+01  0.00000000000E+00 0.  1.
          2    1    1    2  501    0 -0.23934930943E+02  0.69728040078E+01  0.63134308559E+03  0.63183509925E+03  0.00000000000E+00 0.  1.
         21    1    1    2  503  501  0.23934930943E+02 -0.69728040078E+01  0.22635260678E+02  0.33672777446E+02  0.00000000000E+00 0.  1.
</event>
<event>
 4    1  0.2281973E+005  0.3570153E+02  0.7546771E-02  0.1375697E+00
          2   -1    0    0  502    0  0.00000000000E+00  0.00000000000E+00  0.27309389073E+03  0.27309389073E+03  0.00000000000E+00 0.  1.
         21   -1    0    0  503  502 -0.00000000000E+00 -0.00000000000E+00 -0.39182253774E+02  0.39182253774E+02  0.00000000000E+00 0.  1.
          2    1    1    2  501    0  0.27037221078E+02 -0.23314978315E+02  0.26349981160E+03  0.26590740917E+03  0.00000000000E+00 0.  1.
         21    1    1    2  503  501 -0.27037221078E+02  0.23314978315E+02 -0.29588174646E+02  0.46368735332E+02  0.00000000000E+00 0.  1.
</event>
<event>
 4    1  0.2281973E+005  0.2757725E+02  0.7546771E-02  0.1441894E+00
          2   -1    0    0  503    0  0.00000000000E+00  0.00000000000E+00  0.16902603762E+04  0.16902603762E+04  0.00000000000E+00 0.  1.
         21   -1    0    0  501  502 -0.00000000000E+00 -0.00000000000E+00 -0.63323580362E+01  0.63323580362E+01  0.00000000000E+00 0. -1.
          2    1    1    2  501    0  0.20175230681E+02  0.18800654653E+02  0.16595681135E+04  0.16597972250E+04  0.00000000000E+00 0.  1.
         21    1    1    2  503  502 -0.20175230681E+02 -0.18800654653E+02  0.24359904614E+02  0.36795509253E+02  0.00000000000E+00 0. -1.
</event>
<event>
 4    1  0.2281973E+005  0.3427374E+02  0.7546771E-02  0.1385742E+00
          2   -1    0    0  503    0  0.00000000000E+00  0.00000000000E+00  0.19439401782E+04  0.19439401782E+04  0.00000000000E+00 0.  1.
         21   -1    0    0  501  502 -0.00000000000E+00 -0.00000000000E+00 -0.36904682584E+01  0.36904682584E+01  0.00000000000E+00 0. -1.
          2    1    1    2  501    0  0.54353232236E+01  0.33840017648E+02  0.18606514215E+04  0.18609670610E+04  0.00000000000E+00 0.  1.
         21    1    1    2  503  502 -0.54353232236E+01 -0.33840017648E+02  0.79598288368E+02  0.86663585456E+02  0.00000000000E+00 0. -1.
</event>
<event>
 4    1  0.2281973E+005  0.3203029E+02  0.7546771E-02  0.1402737E+00
          2   -1    0    0  502    0  0.00000000000E+00  0.00000000000E+00  0.23337805582E+03  0.23337805582E+03  0.00000000000E+00 0.  1.
         21   -1    0    0  503  502 -0.00000000000E+00 -0.00000000000E+00 -0.49939845948E+02  0.49939845948E+02  0.00000000000E+00 0.  1.
          2    1    1    2  501    0  0.18935521004E+02  0.25833808781E+02  0.22699956599E+03  0.22924821175E+03  0.00000000000E+00 0.  1.
         21    1    1    2  503  501 -0.18935521004E+02 -0.25833808781E+02 -0.43561356117E+02  0.54069690018E+02  0.00000000000E+00 0.  1.
</event>
<event>
 4    1  0.2281973E+005  0.2076051E+02  0.7546771E-02  0.1522712E+00
          2   -1    0    0  502    0  0.00000000000E+00  0.00000000000E+00  0.62627950999E+03  0.62627950999E+03  0.00000000000E+00 0. -1.
         21   -1    0    0  503  502 -0.00000000000E+00 -0.00000000000E+00 -0.28829974956E+02  0.28829974956E+02  0.00000000000E+00 0.  1.
          2    1    1    2  501    0  0.10179345419E+02 -0.18093631507E+02  0.62234643261E+03  0.62269260534E+03  0.00000000000E+00 0. -1.
         21    1    1    2  503  501 -0.10179345419E+02  0.18093631507E+02 -0.24896897572E+02  0.32416879600E+02  0.00000000000E+00 0.  1.
</event>
<event>
 4    1  0.2281973E+005  0.2205535E+02  0.7546771E-02  0.1504713E+00
          2   -1    0    0  502    0  0.00000000000E+00  0.00000000000E+00  0.82366416117E+03  0.82366416117E+03  0.00000000000E+00 0. -1.
         21   -1    0    0  503  502 -0.00000000000E+00 -0.00000000000E+00 -0.61976067556E+02  0.61976067556E+02  0.00000000000E+00 0. -1.
          2    1    1    2  501    0  0.16573750419E+02 -0.14551612666E+02  0.82154926257E+03  0.82184525883E+03  0.00000000000E+00 0. -1.
         21    1    1    2  503  501 -0.16573750419E+02  0.14551612666E+02 -0.59861168960E+02  0.63794969891E+02  0.00000000000E+00 0. -1.
</event>
<event>
 4    1  0.2281973E+005  0.6120156E+02  0.7546771E-02  0.1255804E+00
          2   -1    0    0  503    0  0.00000000000E+00  0.00000000000E+00  0.21495677706E+04  0.21495677706E+04  0.00000000000E+00 0. -1.
         21   -1    0    0  501  502 -0.00000000000E+00 -0.00000000000E+00 -0.54132655987E+01  0.54132655987E+01  0.00000000000E+00 0.  1.
          2    1    1    2  501    0 -0.34097755623E+02 -0.50822972599E+02  0.19593596181E+04  0.19603152156E+04  0.00000000000E+00 0. -1.
         21    1    1    2  503  502  0.34097755623E+02  0.50822972599E+02  0.18479488685E+03  0.19466582054E+03  0.00000000000E+00 0.  1.
</event>
<event>
 4    1  0.2281973E+005  0.2739139E+02  0.7546771E-02  0.1443716E+00
          2   -1    0    0  503    0  0.00000000000E+00  0.00000000000E+00  0.62371953870E+03  0.62371953870E+03  0.00000000000E+00 0. -1.
         21   -1    0    0  501  502 -0.00000000000E+00 -0.00000000000E+00 -0.14775717788E+02  0.14775717788E+02  0.00000000000E+00 0.  1.
          2    1    1    2  501    0 -0.24532381008E+02  0.12184033563E+02  0.61044834571E+03  0.61106257550E+03  0.00000000000E+00 0. -1.
         21    1    1    2  503  502  0.24532381008E+02 -0.12184033563E+02 -0.15045247935E+01  0.27432680996E+02  0.00000000000E+00 0.  1.
</event>
<event>
 4    1  0.2281973E+005  0.3130144E+02  0.7546771E-02  0.1408614E+00
          2   -1    0    0  503    0  0.00000000000E+00  0.00000000000E+00  0.17562029669E+02  0.17562029669E+02  0.00000000000E+00 0. -1.
         21   -1    0    0  501  502 -0.00000000000E+00 -0.00000000000E+00 -0.18552235664E+03  0.18552235664E+03  0.00000000000E+00 0. -1.
          2    1    1    2  501    0  0.23516546326E+02  0.20657983262E+02  0.93262097235E+00  0.31315331795E+02  0.00000000000E+00 0. -1.
         21    1    1    2  503  502 -0.23516546326E+02 -0.20657983262E+02 -0.16889294795E+03  0.17176905452E+03  0.00000000000E+00 0. -1.
</event>
<event>
 4    1  0.2281973E+005  0.3498861E+02  0.7546771E-02  0.1380643E+00
          2   -1    0    0  503    0  0.00000000000E+00  0.00000000000E+00  0.15023258903E+04  0.15023258903E+04  0.00000000000E+00 0.  1.
         21   -1    0    0  501  502 -0.00000000000E+00 -0.00000000000E+00 -0.40000874078E+01  0.40000874078E+01  0.00000000000E+00 0. -1.
          2    1    1    2  501    0 -0.37970615409E+01 -0.34781966599E+02  0.14212470504E+04  0.14216776643E+04  0.00000000000E+00 0.  1.
         21    1    1    2  503  502  0.37970615409E+01  0.34781966599E+02  0.77078752394E+02  0.84648313317E+02  0.00000000000E+00 0. -1.
</event>
<event>
 4    1  0.2281973E+005  0.2051078E+02  0.7546771E-02  0.1526366E+00
          2   -1    0    0  502    0  0.00000000000E+00  0.00000000000E+00  0.24633206592E+03  0.24633206592E+03  0.00000000000E+00 0. -1.
         21   -1    0    0  503  502 -0.00000000000E+00 -0.00000000000E+00 -0.85329706306E+01  0.85329706306E+01  0.00000000000E+00 0.  1.
          2    1    1    2  501    0 -0.52189509153E+01 -0.19835691400E+02  0.23286837927E+03  0.23376991715E+03  0.00000000000E+00 0. -1.
         21    1    1    2  503  501  0.52189509153E+01  0.19835691400E+02  0.49307160207E+01  0.21095119399E+02  0.00000000000E+00 0.  1.
</event>
<event>
 4    1  0.2281973E+005  0.2031068E+02  0.7546771E-02  0.1529338E+00
          2   -1    0    0  502    0  0.00000000000E+00  0.00000000000E+00  0.27199091631E+03  0.27199091631E+03  0.00000000000E+00 0.  1.
         21   -1    0    0  503  502 -0.00000000000E+00 -0.00000000000E+00 -0.98763941055E+01  0.98763941055E+01  0.00000000000E+00 0.  1.
          2    1    1    2  501    0  0.21888729329E+01  0.20192385701E+02  0.26071880315E+03  0.26150873392E+03  0.00000000000E+00 0.  1.
         21    1    1    2  503  501 -0.21888729329E+01 -0.20192385701E+02  0.13957190573E+01  0.20358576490E+02  0.00000000000E+00 0.  1.
</event>
<event>
 4    1  0.2281973E+005  0.2210328E+02  0.7546771E-02  0.1504076E+00
          2   -1    0    0  502    0  0.00000000000E+00  0.00000000000E+00  0.24332072647E+03  0.24332072647E+03  0.00000000000E+00 0. -1.
         21   -1    0    0  503  502 -0.00000000000E+00 -0.00000000000E+00 -0.44194130954E+02  0.44194130954E+02  0.00000000000E+00 0. -1.
          2    1    1    2  501    0 -0.21082888899E+02 -0.66382885884E+01  0.24001711347E+03  0.24103271528E+03  0.00000000000E+00 0. -1.
         21    1    1    2  503  501  0.21082888899E+02  0.66382885884E+01 -0.40890517951E+02  0.46482142141E+02  0.00000000000E+00 0. -1.
</event>
<event>
 4    1  0.2281973E+005  0.2989425E+02  0.7546771E-02  0.1420518E+00
          2   -1    0    0  503    0  0.00000000000E+00  0.00000000000E+00  0.16754663894E+04  0.16754663894E+04  0.00000000000E+00 0.  1.
         21   -1    0    0  501  502 -0.00000000000E+00 -0.00000000000E+00 -0.76197592031E+01  0.76197592031E+01  0.00000000000E+00 0.  1.
          2    1    1    2  501    0 -0.27875118635E+02 -0.10800168851E+02  0.16454780539E+04  0.16457495835E+04  0.00000000000E+00 0.  1.
         21    1    1    2  503  502  0.27875118635E+02  0.10800168851E+02  0.22368576352E+02  0.37336565109E+02  0.00000000000E+00 0.  1.
</event>
<event>
 4    1  0.2281973E+005  0.2035834E+02  0.7546771E-02  0.1528626E+00
          2   -1    0    0  503    0  0.00000000000E+00  0.00000000000E+00  0.12103748885E+03  0.12103748885E+03  0.00000000000E+00 0.  1.
         21   -1    0    0  501  502 -0.00000000000E+00 -0.00000000000E+00 -0.10015203941E+02  0.10015203941E+02  0.00000000000E+00 0. -1.
          2    1    1    2  501    0  0.15198310016E+02 -0.13545238142E+02  0.10866812667E+03  0.11055868965E+03  0.00000000000E+00 0.  1.
         21    1    1    2  503  502 -0.15198310016E+02  0.13545238142E+02  0.23541582399E+01  0.20494003139E+02  0.00000000000E+00 0. -1.
</event>
<event>
 4    1  0.2281973E+005  0.2835719E+02  0.7546771E-02  0.1434431E+00
          2   -1    0    0  503    0  0.00000000000E+00  0.00000000000E+00  0.12122311911E+03  0.12122311911E+03  0.00000000000E+00 0. -1.
         21   -1    0    0  501  502 -0.00000000000E+00 -0.00000000000E+00 -0.95894252061E+01  0.95894252061E+01  0.00000000000E+00 0.  1.
          2    1    1    2  501    0 -0.22223404899E+02  0.17613923644E+02  0.92130669602E+02  0.96396007764E+02  0.00000000000E+00 0. -1.
         21    1    1    2  503  502  0.22223404899E+02 -0.17613923644E+02  0.19503024305E+02  0.34416536555E+02  0.00000000000E+00 0.  1.
</event>
<event>
 4    1  0.2281973E+005  0.3125773E+02  0.7546771E-02  0.1408973E+00
          2   -1    0    0  502    0  0.00000000000E+00  0.00000000000E+00  0.91853471697E+01  0.91853471697E+01  0.00000000000E+00 0.  1.
         21   -1    0    0  503  502 -0.00000000000E+00 -0.00000000000E+00 -0.11091482362E+03  0.11091482362E+03  0.00000000000E+00 0.  1.
          2    1    1    2  501    0 -0.28152241267E+02  0.13582977145E+02 -0.38709195819E+02  0.49753872186E+02  0.00000000000E+00 0.  1.
         21    1    1    2  503  501  0.28152241267E+02 -0.13582977145E+02 -0.63020280634E+02  0.70346298607E+02  0.00000000000E+00 0.  1.
</event>
<event>
 4    1  0.2281973E+005  0.3269647E+02  0.7546771E-02  0.1397524E+00
          2   -1    0    0  503    0  0.00000000000E+00  0.00000000000E+00  0.68565405787E+03  0.68565405787E+03  0.00000000000E+00 0.  1.
         21   -1    0    0  501  502 -0.00000000000E+00 -0.00000000000E+00 -0.43978326759E+01  0.43978326759E+01  0.00000000000E+00 0. -1.
          2    1    1    2  501    0 -0.91756154548E+01 -0.31382598223E+02  0.61782502446E+03  0.61868959927E+03  0.00000000000E+00 0.  1.
         21    1    1    2  503  502  0.91756154548E+01  0.31382598223E+02  0.63431200732E+02  0.71362291279E+02  0.00000000000E+00 0. -1.
</event>
<event>
 4    1  0.2281973E+005  0.2114340E+02  0.7546771E-02  0.1517227E+00
          2   -1    0    0  503    0  0.00000000000E+00  0.00000000000E+00  0.18781911401E+03  0.18781911401E+03  0.00000000000E+00 0. -1.
         21   -1    0    0  501  502 -0.00000000000E+00 -0.00000000000E+00 -0.71130885249E+01  0.71130885249E+01  0.00000000000E+00 0. -1.
          2    1    1    2  501    0 -0.11022188697E+02  0.18043137075E+02  0.16985692653E+03  0.17116780927E+03  0.00000000000E+00 0. -1.
         21    1    1    2  503  502  0.11022188697E+02 -0.18043137075E+02  0.10849098953E+02  0.23764393265E+02  0.00000000000E+00 0. -1.
</event>
<event>
 4    1  0.2281973E+005  0.3737798E+02  0.7546771E-02  0.1364576E+00
          2   -1    0    0  503    0  0.00000000000E+00  0.00000000000E+00  0.14555607422E+03  0.14555607422E+03  0.00000000000E+00 0. -1.
         21   -1    0    0  501  502 -0.00000000000E+00 -0.00000000000E+00 -0.30647708011E+02  0.30647708011E+02  0.00000000000E+00 0.  1.
          2    1    1    2  501    0  0.31848695311E+02  0.19564617733E+02  0.13046791685E+03  0.13571658332E+03  0.00000000000E+00 0. -1.
         21    1    1    2  503  502 -0.31848695311E+02 -0.19564617733E+02 -0.15559550638E+02  0.40487198917E+02  0.00000000000E+00 0.  1.
</event>
<event>
 4    1  0.2281973E+005  0.3069855E+02  0.7546771E-02  0.1413621E+00
          2   -1    0    0  503    0  0.00000000000E+00  0.00000000000E+00  0.53199778379E+03  0.53199778379E+03  0.00000000000E+00 0. -1.
         21   -1    0    0  501  502 -0.00000000000E+00 -0.00000000000E+00 -0.31074901783E+01  0.31074901783E+01  0.00000000000E+00 0.  1.
          2    1    1    2  501    0  0.10595600298E+02  0.28812045983E+02  0.43988011814E+03  0.44095001880E+03  0.00000000000E+00 0. -1.
         21    1    1    2  503  502 -0.10595600298E+02 -0.28812045983E+02  0.89010175468E+02  0.94155255170E+02  0.00000000000E+00 0.  1.
</event>
<event>
 4    1  0.2281973E+005  0.3379276E+02  0.7546771E-02  0.1389255E+00
          2   -1    0    0  503    0  0.00000000000E+00  0.00000000000E+00  0.49990807527E+03  0.49990807527E+03  0.00000000000E+00 0.  1.
         21   -1    0    0  501  502 -0.00000000000E+00 -0.00000000000E+00 -0.25669840180E+01  0.25669840180E+01  0.00000000000E+00 0.  1.
          2    1    1    2  501    0 -0.31248804474E+02  0.12863229925E+02  0.33204010449E+03  0.33375527180E+03  0.00000000000E+00 0.  1.
         21    1    1    2  503  502  0.31248804474E+02 -0.12863229925E+02  0.16530098676E+03  0.16871978749E+03  0.00000000000E+00 0.  1.
</event>
<event>
 4    1  0.2281973E+005  0.2109258E+02  0.7546771E-02  0.1517947E+00
          2   -1    0    0  503    0  0.00000000000E+00  0.00000000000E+00  0.20151664668E+03  0.20151664668E+03  0.00000000000E+00 0.  1.
         21   -1    0    0  501  502 -0.00000000000E+00 -0.00000000000E+00 -0.42538819480E+01  0.42538819480E+01  0.00000000000E+00 0. -1.
          2    1    1    2  501    0  0.18177142549E+02 -0.10699935372E+02  0.16998696172E+03  0.17129058434E+03  0.00000000000E+00 0.  1.
         21    1    1    2  503  502 -0.18177142549E+02  0.10699935372E+02  0.27275803008E+02  0.34479944285E+02  0.00000000000E+00 0. -1.
</event>
<event>
 4    1  0.2281973E+005  0.2428039E+02  0.7546771E-02  0.1477017E+00
          2   -1    0    0  502    0  0.00000000000E+00  0.00000000000E+00  0.16517477777E+02  0.16517477777E+02  0.00000000000E+00 0. -1.
         21   -1    0    0  503  502 -0.00000000000E+00 -0.00000000000E+00 -0.57927229664E+03  0.57927229664E+03  0.00000000000E+00 0. -1.
          2    1    1    2  501    0  0.15539453679E+02  0.18656440145E+02  0.71942190978E+01  0.25323786604E+02  0.00000000000E+00 0. -1.
         21    1    1    2  503  501 -0.15539453679E+02 -0.18656440145E+02 -0.56994903796E+03  0.57046598781E+03  0.00000000000E+00 0. -1.
</event>
<event>
 4    1  0.2281973E+005  0.2387752E+02  0.7546771E-02  0.1481764E+00
          2   -1    0    0  502    0  0.00000000000E+00  0.00000000000E+00  0.16259010058E+04  0.16259010058E+04  0.00000000000E+00 0.  1.
         21   -1    0    0  503  502 -0.00000000000E+00 -0.00000000000E+00 -0.16244744691E+02  0.16244744691E+02  0.00000000000E+00 0. -1.
          2    1    1    2  501    0 -0.20998828560E+02  0.11365968511E+02  0.16169908339E+04  0.16171671197E+04  0.00000000000E+00 0.  1.
         21    1    1    2  503  501  0.20998828560E+02 -0.11365968511E+02 -0.73345727651E+01  0.24978630842E+02  0.00000000000E+00 0. -1.
</event>
<event>
 4    1  0.2281973E+005  0.3495657E+02  0.7546771E-02  0.1380869E+00
          2   -1    0    0  503    0  0.00000000000E+00  0.00000000000E+00  0.64779175621E+02  0.64779175621E+02  0.00000000000E+00 0. -1.
         21   -1    0    0  501  502 -0.00000000000E+00 -0.00000000000E+00 -0.65853784634E+03  0.65853784634E+03  0.00000000000E+00 0.  1.
          2    1    1    2  501    0  0.15278718200E+02 -0.31440781316E+02  0.59561774675E+02  0.69062051533E+02  0.00000000000E+00 0. -1.
         21    1    1    2  503  502 -0.15278718200E+02  0.31440781316E+02 -0.65332044539E+03  0.65425497043E+03  0.00000000000E+00 0.  1.
</event>
<event>
 4    1  0.2281973E+005  0.2283875E+02  0.7546771E-02  0.1494533E+00
          2   -1    0    0  503    0  0.00000000000E+00  0.00000000000E+00  0.71128046462E+03  0.71128046462E+03  0.00000000000E+00 0.  1.
         21   -1    0    0  501  502 -0.00000000000E+00 -0.00000000000E+00 -0.91374108438E+00  0.91374108438E+00  0.00000000000E+00 0. -1.
          2    1    1    2  501    0 -0.14770223750E+01 -0.22790944029E+02  0.51340988955E+03  0.51391762318E+03  0.00000000000E+00 0.  1.
         21    1    1    2  503  502  0.14770223750E+01  0.22790944029E+02  0.19695683398E+03  0.19827658252E+03  0.00000000000E+00 0. -1.
</event>
<event>
 4    1  0.2281973E+005  0.2854283E+02  0.7546771E-02  0.1432697E+00
          2   -1    0    0  503    0  0.00000000000E+00  0.00000000000E+00  0.66138021950E+02  0.66138021950E+02  0.00000000000E+00 0. -1.
         21   -1    0    0  501  502 -0.00000000000E+00 -0.00000000000E+00 -0.41513657483E+02  0.41513657483E+02  0.00000000000E+00 0. -1.
          2    1    1    2  501    0 -0.20280987098E+02 -0.20084183366E+02  0.57451388262E+02  0.64151031733E+02  0.00000000000E+00 0. -1.
         21    1    1    2  503  502  0.20280987098E+02  0.20084183366E+02 -0.32827023795E+02  0.43500647701E+02  0.00000000000E+00 0. -1.
</event>
<event>
 4    1  0.2281973E+005  0.2346275E+02  0.7546771E-02  0.1486768E+00
          2   -1    0    0  502    0  0.00000000000E+00  0.00000000000E+00  0.55447073673E+03  0.55447073673E+03  0.00000000000E+00 0. -1.
         21   -1    0    0  503  502 -0.00000000000E+00 -0.00000000000E+00 -0.20311008893E+02  0.20311008893E+02  0.00000000000E+00 0. -1.
          2    1    1    2  501    0  0.23433058778E+02  0.11800541703E+01  0.54735863306E+03  0.54786127254E+03  0.00000000000E+00 0. -1.
         21    1    1    2  503  501 -0.23433058778E+02 -0.11800541703E+01 -0.13198905223E+02  0.26920473076E+02  0.00000000000E+00 0. -1.
</event>
<event>
 4    1  0.2281973E+005  0.2661265E+02  0.7546771E-02  0.1451538E+00
          2   -1    0    0  502    0  0.00000000000E+00  0.00000000000E+00  0.10957689340E+04  0.10957689340E+04  0.00000000000E+00 0.  1.
         21   -1    0    0  503  502 -0.00000000000E+00 -0.00000000000E+00 -0.10928172135E+02  0.10928172135E+02  0.00000000000E+00 0. -1.
          2    1    1    2  501    0 -0.11335892793E+02  0.24077598168E+02  0.10791559629E+04  0.10794840552E+04  0.00000000000E+00 0.  1.
         21    1    1    2  503  501  0.11335892793E+02 -0.24077598168E+02  0.56847989139E+01  0.27213050870E+02  0.00000000000E+00 0. -1.
</event>
<event>
 4    1  0.2281973E+005  0.3755077E+02  0.7546771E-02  0.1363468E+00
          2   -1    0    0  503    0  0.00000000000E+00  0.00000000000E+00  0.24911811896E+04  0.24911811896E+04  0.00000000000E+00 0.  1.
         21   -1    0    0  501  502 -0.00000000000E+00 -0.00000000000E+00 -0.13952358943E+03  0.13952358943E+03  0.00000000000E+00 0. -1.
          2    1    1    2  501    0 -0.31479095399E+02  0.20472588698E+02  0.24885104103E+04  0.24887937083E+04  0.00000000000E+00 0.  1.
         21    1    1    2  503  502  0.31479095399E+02 -0.20472588698E+02 -0.13685281016E+03  0.14191107069E+03  0.00000000000E+00 0. -1.
</event>
<event>
 4    1  0.2281973E+005  0.3681651E+02  0.7546771E-02  0.1368223E+00
          2   -1    0    0  502    0  0.00000000000E+00  0.00000000000E+00  0.36430110341E+03  0.36430110341E+03  0.00000000000E+00 0.  1.
         21   -1    0    0  503  502 -0.00000000000E+00 -0.00000000000E+00 -0.16987452510E+02  0.16987452510E+02  0.00000000000E+00 0. -1.
          2    1    1    2  501    0 -0.31571269668E+02  0.18939658964E+02  0.34213433426E+03  0.34410951517E+03  0.00000000000E+00 0.  1.
         21    1    1    2  503  501  0.31571269668E+02 -0.18939658964E+02  0.51793166382E+01  0.37179040749E+02  0.00000000000E+00 0. -1.
</event>
<event>
 4    1  0.2281973E+005  0.2277031E+02  0.7546771E-02  0.1495403E+00
          2   -1    0    0  502    0  0.00000000000E+00  0.00000000000E+00  0.10600780617E+04  0.10600780617E+04  0.00000000000E+00 0.  1.
         21   -1    0    0  503  502 -0.00000000000E+00 -0.00000000000E+00 -0.15276470536E+01  0.15276470536E+01  0.00000000000E+00 0.  1.
          2    1    1    2  501    0  0.74758300202E+01 -0.21508115767E+02  0.96693258472E+03  0.96720065678E+03  0.00000000000E+00 0.  1.
         21    1    1    2  503  501 -0.74758300202E+01  0.21508115767E+02  0.91617829964E+02  0.94405052013E+02  0.00000000000E+00 0.  1.
</event>
<event>
 4    1  0.2281973E+005  0.7592295E+02  0.7546771E-02  0.1213643E+00
          2   -1    0    0  503    0  0.00000000000E+00  0.00000000000E+00  0.69130926433E+03  0.69130926433E+03  0.00000000000E+00 0. -1.
         21   -1    0    0  501  502 -0.00000000000E+00 -0.00000000000E+00 -0.43223724268E+02  0.43223724268E+02  0.00000000000E+00 0. -1.
          2    1    1    2  501    0 -0.71634367314E+02  0.25155759241E+02  0.65398861629E+03  0.65838089663E+03  0.00000000000E+00 0. -1.
         21    1    1    2  503  502  0.71634367314E+02 -0.25155759241E+02 -0.59030762247E+01  0.76152091977E+02  0.00000000000E+00 0. -1.
</event>
<event>
 4    1  0.2631313E+005  0.2020824E+02  0.7546771E-02  0.1530876E+00
          2   -1    0    0  502    0  0.00000000000E+00  0.00000000000E+00  0.48988221793E+03  0.48988221793E+03  0.00000000000E+00 0.  1.
         21   -1    0    0  503  502 -0.00000000000E+00 -0.00000000000E+00 -0.36505341359E+03  0.36505341359E+03  0.00000000000E+00 0. -1.
          2    1    1    2  501    0 -0.50304121642E+01 -0.19572126025E+02  0.48939386851E+03  0.48981091423E+03  0.00000000000E+00 0.  1.
         21    1    1    2  503  501  0.50304121642E+01  0.19572126025E+02 -0.36456506417E+03  0.36512471729E+03  0.00000000000E+00 0. -1.
</event>
<event>
 4    1  0.2281973E+005  0.2313140E+02  0.7546771E-02  0.1490855E+00
          2   -1    0    0  503    0  0.00000000000E+00  0.00000000000E+00  0.20586782743E+02  0.20586782743E+02  0.00000000000E+00 0. -1.
         21   -1    0    0  501  502 -0.00000000000E+00 -0.00000000000E+00 -0.99171068171E+02  0.99171068171E+02  0.00000000000E+00 0. -1.
          2    1    1    2  501    0 -0.96302611596E+01  0.21031400403E+02  0.12145286322E+02  0.26126035152E+02  0.00000000000E+00 0. -1.
         21    1    1    2  503  502  0.96302611596E+01 -0.21031400403E+02 -0.90729571750E+02  0.93631815762E+02  0.00000000000E+00 0. -1.
</event>
<event>
 4    1  0.2281973E+005  0.2355275E+02  0.7546771E-02  0.1485671E+00
          2   -1    0    0  503    0  0.00000000000E+00  0.00000000000E+00  0.10691958396E+04  0.10691958396E+04  0.00000000000E+00 0.  1.
         21   -1    0    0  501  502 -0.00000000000E+00 -0.00000000000E+00 -0.76619595831E+00  0.76619595831E+00  0.00000000000E+00 0. -1.
          2    1    1    2  501    0  0.14784369159E+02  0.18334516214E+02  0.83818952502E+03  0.83852037060E+03  0.00000000000E+00 0.  1.
         21    1    1    2  503  502 -0.14784369159E+02 -0.18334516214E+02  0.23024011863E+03  0.23144166497E+03  0.00000000000E+00 0. -1.
</event>
<event>
 4    1  0.2281973E+005  0.2075334E+02  0.7546771E-02  0.1522816E+00
          2   -1    0    0  503    0  0.00000000000E+00  0.00000000000E+00  0.97311946173E+02  0.97311946173E+02  0.00000000000E+00 0.  1.
         21   -1    0    0  501  502 -0.00000000000E+00 -0.00000000000E+00 -0.47368134194E+01  0.47368134194E+01  0.00000000000E+00 0.  1.
          2    1    1    2  501    0 -0.18549272057E+02  0.93072976288E+01  0.33216998385E+02  0.39167209049E+02  0.00000000000E+00 0.  1.
         21    1    1    2  503  502  0.18549272057E+02 -0.93072976288E+01  0.59358134368E+02  0.62881550543E+02  0.00000000000E+00 0.  1.
</event>
<event>
 4    1  0.2281973E+005  0.2499485E+02  0.7546771E-02  0.1468861E+00
          2   -1    0    0  502    0  0.00000000000E+00  0.00000000000E+00  0.10216987032E+04  0.10216987032E+04  0.00000000000E+00 0.  1.
         21   -1    0    0  503  502 -0.00000000000E+00 -0.00000000000E+00 -0.20649855447E+03  0.20649855447E+03  0.00000000000E+00 0.  1.
          2    1    1    2  501    0 -0.18016630510E+02  0.17324646649E+02  0.10207888086E+04  0.10210947723E+04  0.00000000000E+00 0.  1.
         21    1    1    2  503  501  0.18016630510E+02 -0.17324646649E+02 -0.20558865987E+03  0.20710248532E+03  0.00000000000E+00 0.  1.
</event>
<event>
 4    1  0.2281973E+005  0.4023660E+02  0.7546771E-02  0.1347105E+00
          2   -1    0    0  502    0  0.00000000000E+00  0.00000000000E+00  0.62454951946E+02  0.62454951946E+02  0.00000000000E+00 0. -1.
         21   -1    0    0  503  502 -0.00000000000E+00 -0.00000000000E+00 -0.72016732519E+02  0.72016732519E+02  0.00000000000E+00 0.  1.
          2    1    1    2  501    0  0.40229973966E+02 -0.73013175788E+00  0.49009882495E+02  0.63410980752E+02  0.00000000000E+00 0. -1.
         21    1    1    2  503  501 -0.40229973966E+02  0.73013175788E+00 -0.58571663068E+02  0.71060703713E+02  0.00000000000E+00 0.  1.
</event>
<event>
 4    1  0.2281973E+005  0.2348417E+02  0.7546771E-02  0.1486506E+00
          2   -1    0    0  502    0  0.00000000000E+00  0.00000000000E+00  0.32189578744E+03  0.32189578744E+03  0.00000000000E+00 0. -1.
         21   -1    0    0  503  502 -0.00000000000E+00 -0.00000000000E+00 -0.28295985237E+01  0.28295985237E+01  0.00000000000E+00 0.  1.
          2    1    1    2  501    0 -0.12800875604E+02  0.19688675046E+02  0.26151253569E+03  0.26256487325E+03  0.00000000000E+00 0. -1.
         21    1    1    2  503  501  0.12800875604E+02 -0.19688675046E+02  0.57553653228E+02  0.62160512717E+02  0.00000000000E+00 0.  1.
</event>
<event>
 4    1  0.2281973E+005  0.2844234E+02  0.7546771E-02  0.1433634E+00
          2   -1    0    0  502    0  0.00000000000E+00  0.00000000000E+00  0.40043641778E+03  0.40043641778E+03  0.00000000000E+00 0. -1.
         21   -1    0    0  503  502 -0.00000000000E+00 -0.00000000000E+00 -0.10902811257E+02  0.10902811257E+02  0.00000000000E+00 0.  1.
          2    1    1    2  501    0 -0.28350838315E+02  0.22795825546E+01  0.38040652861E+03  0.38146833884E+03  0.00000000000E+00 0. -1.
         21    1    1    2  503  501  0.28350838315E+02 -0.22795825546E+01  0.91270779144E+01  0.29870890195E+02  0.00000000000E+00 0.  1.
</event>
<event>
 4    1  0.2281973E+005  0.2620310E+02  0.7546771E-02  0.1455782E+00
          2   -1    0    0  503    0  0.00000000000E+00  0.00000000000E+00  0.10079125151E+04  0.10079125151E+04  0.00000000000E+00 0. -1.
         21   -1    0    0  501  502 -0.00000000000E+00 -0.00000000000E+00 -0.68191204390E+00  0.68191204390E+00  0.00000000000E+00 0. -1.
          2    1    1    2  501    0 -0.13425540347E+02  0.22502389042E+02  0.48746364946E+03  0.48816740182E+03  0.00000000000E+00 0. -1.
         21    1    1    2  503  502  0.13425540347E+02 -0.22502389042E+02  0.51976695364E+03  0.52042702538E+03  0.00000000000E+00 0. -1.
</event>
<event>
 4    1  0.2281973E+005  0.3154565E+02  0.7546771E-02  0.1406624E+00
          2   -1    0    0  502    0  0.00000000000E+00  0.00000000000E+00  0.17672576709E+04  0.17672576709E+04  0.00000000000E+00 0.  1.
         21   -1    0    0  503  502 -0.00000000000E+00 -0.00000000000E+00 -0.16010725790E+02  0.16010725790E+02  0.00000000000E+00 0.  1.
          2    1    1    2  501    0 -0.27909667069E+02  0.14703008844E+02  0.17514381025E+04  0.17517221683E+04  0.00000000000E+00 0.  1.
         21    1    1    2  503  501  0.27909667069E+02 -0.14703008844E+02 -0.19115739410E+00  0.31546228397E+02  0.00000000000E+00 0.  1.
</event>
<event>
 4    1  0.2281973E+005  0.2392071E+02  0.7546771E-02  0.1481249E+00
          2   -1    0    0  502    0  0.00000000000E+00  0.00000000000E+00  0.78318720286E+03  0.78318720286E+03  0.00000000000E+00 0.  1.
         21   -1    0    0  503  502 -0.00000000000E+00 -0.00000000000E+00 -0.85650724268E+00  0.85650724268E+00  0.00000000000E+00 0.  1.
          2    1    1    2  501    0  0.20990876304E+02  0.11470987792E+02  0.54146624570E+03  0.54199436868E+03  0.00000000000E+00 0.  1.
         21    1    1    2  503  501 -0.20990876304E+02 -0.11470987792E+02  0.24086444991E+03  0.24204934142E+03  0.00000000000E+00 0.  1.
</event>
<event>
 4    1  0.2281973E+005  0.2291682E+02  0.7546771E-02  0.1493545E+00
          2   -1    0    0  503    0  0.00000000000E+00  0.00000000000E+00  0.24365416577E+03  0.24365416577E+03  0.00000000000E+00 0. -1.
         21   -1    0    0  501  502 -0.00000000000E+00 -0.00000000000E+00 -0.32093015803E+03  0.32093015803E+03  0.00000000000E+00 0. -1.
          2    1    1    2  501    0 -0.48278421482E+01  0.22402511295E+02  0.24270460196E+03  0.24378413481E+03  0.00000000000E+00 0. -1.
         21    1    1    2  503  502  0.48278421482E+01 -0.22402511295E+02 -0.31998059423E+03  0.32080018899E+03  0.00000000000E+00 0. -1.
</event>
<event>
 4    1  0.2281973E+005  0.2124061E+02  0.7546771E-02  0.1515857E+00
          2   -1    0    0  503    0  0.00000000000E+00  0.00000000000E+00  0.41862277307E+03  0.41862277307E+03  0.00000000000E+00 0.  1.
         21   -1    0    0  501  502 -0.00000000000E+00 -0.00000000000E+00 -0.41117105872E+01  0.41117105872E+01  0.00000000000E+00 0. -1.
          2    1    1    2  501    0 -0.88296409690E+01 -0.19318412921E+02  0.38882071977E+03  0.38940045681E+03  0.00000000000E+00 0.  1.
         21    1    1    2  503  502  0.88296409690E+01  0.19318412921E+02  0.25690342708E+02  0.33334026848E+02  0.00000000000E+00 0. -1.
</event>
<event>
 4    1  0.2281973E+005  0.2164659E+02  0.7546771E-02  0.1510230E+00
          2   -1    0    0  503    0  0.00000000000E+00  0.00000000000E+00  0.44333764348E+03  0.44333764348E+03  0.00000000000E+00 0.  1.
         21   -1    0    0  501  502 -0.00000000000E+00 -0.00000000000E+00 -0.37316695254E+02  0.37316695254E+02  0.00000000000E+00 0. -1.
          2    1    1    2  501    0 -0.15879450973E+02  0.14711154396E+02  0.43990978755E+03  0.44044204637E+03  0.00000000000E+00 0.  1.
         21    1    1    2  503  502  0.15879450973E+02 -0.14711154396E+02 -0.33888839321E+02  0.40212292367E+02  0.00000000000E+00 0. -1.
</event>
<event>
 4    1  0.2281973E+005  0.3651340E+02  0.7546771E-02  0.1370225E+00
          2   -1    0    0  503    0  0.00000000000E+00  0.00000000000E+00  0.95202388718E+02  0.95202388718E+02  0.00000000000E+00 0.  1.
         21   -1    0    0  501  502 -0.00000000000E+00 -0.00000000000E+00 -0.27831035091E+03  0.27831035091E+03  0.00000000000E+00 0. -1.
          2    1    1    2  501    0  0.33964165255E+02 -0.13403864531E+02  0.90443100464E+02  0.97535544943E+02  0.00000000000E+00 0.  1.
         21    1    1    2  503  502 -0.33964165255E+02  0.13403864531E+02 -0.27355106265E+03  0.27597719468E+03  0.00000000000E+00 0. -1.
</event>
<event>
 4    1  0.2281973E+005  0.3313660E+02  0.7546771E-02  0.1394159E+00
          2   -1    0    0  503    0  0.00000000000E+00  0.00000000000E+00  0.86262367028E+03  0.86262367028E+03  0.00000000000E+00 0. -1.
         21   -1    0    0  501  502 -0.00000000000E+00 -0.00000000000E+00 -0.16157208131E+01  0.16157208131E+01  0.00000000000E+00 0. -1.
          2    1    1    2  501    0  0.55251111868E+01 -0.32672727288E+02  0.62955035193E+03  0.63042182669E+03  0.00000000000E+00 0. -1.
         21    1    1    2  503  502 -0.55251111868E+01  0.32672727288E+02  0.23145759754E+03  0.23381756440E+03  0.00000000000E+00 0. -1.
</event>
<event>
 4    1  0.2281973E+005  0.2225181E+02  0.7546771E-02  0.1502113E+00
          2   -1    0    0  503    0  0.00000000000E+00  0.00000000000E+00  0.43745249335E+02  0.43745249335E+02  0.00000000000E+00 0. -1.
         21   -1    0    0  501  502 -0.00000000000E+00 -0.00000000000E+00 -0.10087560389E+03  0.10087560389E+03  0.00000000000E+00 0.  1.
          2    1    1    2  501    0 -0.10978654016E+02  0.19354897964E+02  0.39567771861E+02  0.45395500760E+02  0.00000000000E+00 0. -1.
         21    1    1    2  503  502  0.10978654016E+02 -0.19354897964E+02 -0.96698126420E+02  0.99225352468E+02  0.00000000000E+00 0.  1.
</event>
<event>
 4    1  0.2281973E+005  0.2654190E+02  0.7546771E-02  0.1452265E+00
          2   -1    0    0  503    0  0.00000000000E+00  0.00000000000E+00  0.56621808069E+02  0.56621808069E+02  0.00000000000E+00 0.  1.
         21   -1    0    0  501  502 -0.00000000000E+00 -0.00000000000E+00 -0.13877715555E+02  0.13877715555E+02  0.00000000000E+00 0.  1.
          2    1    1    2  501    0 -0.63229980272E+00  0.26534367740E+02  0.10033058201E+02  0.28374896145E+02  0.00000000000E+00 0.  1.
         21    1    1    2  503  502  0.63229980272E+00 -0.26534367740E+02  0.32711034313E+02  0.42124627478E+02  0.00000000000E+00 0.  1.
</event>
<event>
 4    1  0.2281973E+005  0.2123278E+02  0.7546771E-02  0.1515967E+00
          2   -1    0    0  503    0  0.00000000000E+00  0.00000000000E+00  0.15332071606E+03  0.15332071606E+03  0.00000000000E+00 0. -1.
         21   -1    0    0  501  502 -0.00000000000E+00 -0.00000000000E+00 -0.28343374913E+02  0.28343374913E+02  0.00000000000E+00 0.  1.
          2    1    1    2  501    0  0.20657093456E+02  0.49107399758E+01  0.14848011280E+03  0.14999058229E+03  0.00000000000E+00 0. -1.
         21    1    1    2  503  502 -0.20657093456E+02 -0.49107399758E+01 -0.23502771654E+02  0.31673508687E+02  0.00000000000E+00 0.  1.
</event>
<event>
 4    1  0.2281973E+005  0.2725915E+02  0.7546771E-02  0.1445022E+00
          2   -1    0    0  503    0  0.00000000000E+00  0.00000000000E+00  0.41146741085E+03  0.41146741085E+03  0.00000000000E+00 0.  1.
         21   -1    0    0  501  502 -0.00000000000E+00 -0.00000000000E+00 -0.42410982495E+02  0.42410982495E+02  0.00000000000E+00 0. -1.
          2    1    1    2  501    0 -0.26609709405E+02 -0.59147825254E+01  0.40658325951E+03  0.40749602231E+03  0.00000000000E+00 0.  1.
         21    1    1    2  503  502  0.26609709405E+02  0.59147825254E+01 -0.37526831150E+02  0.46382371038E+02  0.00000000000E+00 0. -1.
</event>
<event>
 4    1  0.2281973E+005  0.2083269E+02  0.7546771E-02  0.1521667E+00
          2   -1    0    0  502    0  0.00000000000E+00  0.00000000000E+00  0.32044380121E+03  0.32044380121E+03  0.00000000000E+00 0.  1.
         21   -1    0    0  503  502 -0.00000000000E+00 -0.00000000000E+00 -0.43241773157E+01  0.43241773157E+01  0.00000000000E+00 0. -1.
          2    1    1    2  501    0 -0.79688216025E+01  0.19248348727E+02  0.29263197597E+03  0.29337258632E+03  0.00000000000E+00 0.  1.
         21    1    1    2  503  501  0.79688216025E+01 -0.19248348727E+02  0.23487647922E+02  0.31395392199E+02  0.00000000000E+00 0. -1.
</event>
<event>
 4    1  0.2281973E+005  0.2782240E+02  0.7546771E-02  0.1439517E+00
          2   -1    0    0  502    0  0.00000000000E+00  0.00000000000E+00  0.93670097426E+02  0.93670097426E+02  0.00000000000E+00 0.  1.
         21   -1    0    0  503  502 -0.00000000000E+00 -0.00000000000E+00 -0.54981039654E+02  0.54981039654E+02  0.00000000000E+00 0.  1.
          2    1    1    2  501    0  0.27611656907E+02 -0.34179519216E+01  0.87856996009E+02  0.92157136133E+02  0.00000000000E+00 0.  1.
         21    1    1    2  503  501 -0.27611656907E+02  0.34179519216E+01 -0.49167938238E+02  0.56494000947E+02  0.00000000000E+00 0.  1.
</event>
<event>
 4    1  0.2281973E+005  0.2922566E+02  0.7546771E-02  0.1426447E+00
          2   -1    0    0  503    0  0.00000000000E+00  0.00000000000E+00  0.13573253161E+04  0.13573253161E+04  0.00000000000E+00 0.  1.
         21   -1    0    0  501  502 -0.00000000000E+00 -0.00000000000E+00 -0.67469759182E+00  0.67469759182E+00  0.00000000000E+00 0.  1.
          2    1    1    2  501    0 -0.25741906641E+02 -0.13838121030E+02  0.85449100584E+03  0.85499065399E+03  0.00000000000E+00 0.  1.
         21    1    1    2  503  502  0.25741906641E+02  0.13838121030E+02  0.50215961266E+03  0.50300935969E+03  0.00000000000E+00 0.  1.
</event>
<event>
 4    1  0.2281973E+005  0.3113249E+02  0.7546771E-02  0.1410004E+00
          2   -1    0    0  502    0  0.00000000000E+00  0.00000000000E+00  0.51382234429E+02  0.51382234429E+02  0.00000000000E+00 0.  1.
         21   -1    0    0  503  502 -0.00000000000E+00 -0.00000000000E+00 -0.56100987617E+02  0.56100987617E+02  0.00000000000E+00 0. -1.
          2    1    1    2  501    0 -0.27140656526E+02 -0.15251782946E+02  0.41424832025E+02  0.51819386604E+02  0.00000000000E+00 0.  1.
         21    1    1    2  503  501  0.27140656526E+02  0.15251782946E+02 -0.46143585214E+02  0.55663835442E+02  0.00000000000E+00 0. -1.
</event>
<event>
 4    1  0.2281973E+005  0.2672113E+02  0.7546771E-02  0.1450430E+00
          2   -1    0    0  502    0  0.00000000000E+00  0.00000000000E+00  0.14388254852E+03  0.14388254852E+03  0.00000000000E+00 0. -1.
         21   -1    0    0  503  502 -0.00000000000E+00 -0.00000000000E+00 -0.26404848022E+02  0.26404848022E+02  0.00000000000E+00 0. -1.
          2    1    1    2  501    0 -0.18261534010E+02  0.19507313721E+02  0.13546558564E+03  0.13807586251E+03  0.00000000000E+00 0. -1.
         21    1    1    2  503  501  0.18261534010E+02 -0.19507313721E+02 -0.17987885145E+02  0.32211534036E+02  0.00000000000E+00 0. -1.
</event>
<event>
 4    1  0.2281973E+005  0.4000096E+02  0.7546771E-02  0.1348480E+00
          2   -1    0    0  502    0  0.00000000000E+00  0.00000000000E+00  0.10204949489E+04  0.10204949489E+04  0.00000000000E+00 0.  1.
         21   -1    0    0  503  502 -0.00000000000E+00 -0.00000000000E+00 -0.74188378154E+01  0.74188378154E+01  0.00000000000E+00 0.  1.
          2    1    1    2  501    0  0.33451700719E+02  0.21933093609E+02  0.96296359740E+03  0.96379404791E+03  0.00000000000E+00 0.  1.
         21    1    1    2  503  501 -0.33451700719E+02 -0.21933093609E+02  0.50112513686E+02  0.64119738803E+02  0.00000000000E+00 0.  1.
</event>
<event>
 4    1  0.2281973E+005  0.2224484E+02  0.7546771E-02  0.1502205E+00
          2   -1    0    0  502    0  0.00000000000E+00  0.00000000000E+00  0.91760607958E+02  0.91760607958E+02  0.00000000000E+00 0.  1.
         21   -1    0    0  503  502 -0.00000000000E+00 -0.00000000000E+00 -0.10282989426E+03  0.10282989426E+03  0.00000000000E+00 0. -1.
          2    1    1    2  501    0  0.22244707186E+02  0.78093943392E-01  0.89175052024E+02  0.91907687382E+02  0.00000000000E+00 0.  1.
         21    1    1    2  503  501 -0.22244707186E+02 -0.78093943392E-01 -0.10024433833E+03  0.10268281484E+03  0.00000000000E+00 0. -1.
</event>
<event>
 4    1  0.2281973E+005  0.2031206E+02  0.7546771E-02  0.1529318E+00
          2   -1    0    0  503    0  0.00000000000E+00  0.00000000000E+00  0.66869042974E+03  0.66869042974E+03  0.00000000000E+00 0. -1.
         21   -1    0    0  501  502 -0.00000000000E+00 -0.00000000000E+00 -0.62865224258E+01  0.62865224258E+01  0.00000000000E+00 0.  1.
          2    1    1    2  501    0 -0.28208524215E+01  0.20115229960E+02  0.65170125302E+03  0.65201771669E+03  0.00000000000E+00 0. -1.
         21    1    1    2  503  502  0.28208524215E+01 -0.20115229960E+02  0.10702654289E+02  0.22959235474E+02  0.00000000000E+00 0.  1.
</event>
<event>
 4    1  0.2281973E+005  0.2009425E+02  0.7546771E-02  0.1532600E+00
          2   -1    0    0  503    0  0.00000000000E+00  0.00000000000E+00  0.74855157341E+02  0.74855157341E+02  0.00000000000E+00 0.  1.
         21   -1    0    0  501  502 -0.00000000000E+00 -0.00000000000E+00 -0.82800499696E+01  0.82800499696E+01  0.00000000000E+00 0. -1.
          2    1    1    2  501    0 -0.95635402057E+01 -0.17672505054E+02  0.57827881707E+02  0.61219626255E+02  0.00000000000E+00 0.  1.
         21    1    1    2  503  502  0.95635402057E+01  0.17672505054E+02  0.87472256649E+01  0.21915581055E+02  0.00000000000E+00 0. -1.
</event>
<event>
 4    1  0.2281973E+005  0.2060024E+02  0.7546771E-02  0.1525050E+00
          2   -1    0    0  503    0  0.00000000000E+00  0.00000000000E+00  0.32486315175E+02  0.32486315175E+02  0.00000000000E+00 0. -1.
         21   -1    0    0  501  502 -0.00000000000E+00 -0.00000000000E+00 -0.64062572882E+02  0.64062572882E+02  0.00000000000E+00 0.  1.
          2    1    1    2  501    0  0.89319192185E+01  0.18563154487E+02  0.27284185820E+02  0.34187668556E+02  0.00000000000E+00 0. -1.
         21    1    1    2  503  502 -0.89319192185E+01 -0.18563154487E+02 -0.58860443527E+02  0.62361219501E+02  0.00000000000E+00 0.  1.
</event>
<event>
 4    1  0.2281973E+005  0.3092863E+02  0.7546771E-02  0.1411694E+00
          2   -1    0    0  502    0  0.00000000000E+00  0.00000000000E+00  0.28161304890E+02  0.28161304890E+02  0.00000000000E+00 0.  1.
         21   -1    0    0  503  502 -0.00000000000E+00 -0.00000000000E+00 -0.39457795070E+02  0.39457795070E+02  0.00000000000E+00 0.  1.
          2    1    1    2  501    0 -0.29548581452E+02  0.91357427000E+01  0.69629110943E+01  0.31702722145E+02  0.00000000000E+00 0.  1.
         21    1    1    2  503  501  0.29548581452E+02 -0.91357427000E+01 -0.18259401274E+02  0.35916377815E+02  0.00000000000E+00 0.  1.
</event>
<event>
 4    1  0.2281973E+005  0.2114270E+02  0.7546771E-02  0.1517237E+00
          2   -1    0    0  503    0  0.00000000000E+00  0.00000000000E+00  0.69972951331E+02  0.69972951331E+02  0.00000000000E+00 0. -1.
         21   -1    0    0  501  502 -0.00000000000E+00 -0.00000000000E+00 -0.45312846176E+02  0.45312846176E+02  0.00000000000E+00 0. -1.
          2    1    1    2  501    0 -0.14235311999E+02 -0.15632323747E+02  0.65755293113E+02  0.69070776931E+02  0.00000000000E+00 0. -1.
         21    1    1    2  503  502  0.14235311999E+02  0.15632323747E+02 -0.41095187959E+02  0.46215020576E+02  0.00000000000E+00 0. -1.
</event>
<event>
 4    1  0.2281973E+005  0.2841004E+02  0.7546771E-02  0.1433936E+00
          2   -1    0    0  503    0  0.00000000000E+00  0.00000000000E+00  0.55107378048E+03  0.55107378048E+03  0.00000000000E+00 0.  1.
         21   -1    0    0  501  502 -0.00000000000E+00 -0.00000000000E+00 -0.23435710853E+01  0.23435710853E+01  0.00000000000E+00 0.  1.
          2    1    1    2  501    0  0.26929407508E+01 -0.28282121839E+02  0.44382174530E+03  0.44473011136E+03  0.00000000000E+00 0.  1.
         21    1    1    2  503  502 -0.26929407508E+01  0.28282121839E+02  0.10490846409E+03  0.10868724020E+03  0.00000000000E+00 0.  1.
</event>
<event>
 4    1  0.2281973E+005  0.2224384E+02  0.7546771E-02  0.1502218E+00
          2   -1    0    0  502    0  0.00000000000E+00  0.00000000000E+00  0.15226102438E+02  0.15226102438E+02  0.00000000000E+00 0.  1.
         21   -1    0    0  503  502 -0.00000000000E+00 -0.00000000000E+00 -0.28955794269E+03  0.28955794269E+03  0.00000000000E+00 0. -1.
          2    1    1    2  501    0 -0.48168581285E+01  0.21716041380E+02  0.64204844233E+01  0.23151915594E+02  0.00000000000E+00 0.  1.
         21    1    1    2  503  501  0.48168581285E+01 -0.21716041380E+02 -0.28075232468E+03  0.28163212954E+03  0.00000000000E+00 0. -1.
</event>
<event>
 4    1  0.2281973E+005  0.3789578E+02  0.7546771E-02  0.1361278E+00
          2   -1    0    0  503    0  0.00000000000E+00  0.00000000000E+00  0.13973883820E+03  0.13973883820E+03  0.00000000000E+00 0.  1.
         21   -1    0    0  501  502 -0.00000000000E+00 -0.00000000000E+00 -0.10401153994E+02  0.10401153994E+02  0.00000000000E+00 0.  1.
          2    1    1    2  501    0 -0.25522401693E+02  0.28012446845E+02  0.72871970015E+02  0.82136558123E+02  0.00000000000E+00 0.  1.
         21    1    1    2  503  502  0.25522401693E+02 -0.28012446845E+02  0.56465714192E+02  0.68003434073E+02  0.00000000000E+00 0.  1.
</event>
<event>
 4    1  0.2281973E+005  0.5917092E+02  0.7546771E-02  0.1262676E+00
          2   -1    0    0  503    0  0.00000000000E+00  0.00000000000E+00  0.11979451287E+04  0.11979451287E+04  0.00000000000E+00 0.  1.
         21   -1    0    0  501  502 -0.00000000000E+00 -0.00000000000E+00 -0.14838113692E+02  0.14838113692E+02  0.00000000000E+00 0.  1.
          2    1    1    2  501    0 -0.29243315716E+02  0.51439544373E+02  0.11349526575E+04  0.11364940532E+04  0.00000000000E+00 0.  1.
         21    1    1    2  503  502  0.29243315716E+02 -0.51439544373E+02  0.48154357541E+02  0.76289189205E+02  0.00000000000E+00 0.  1.
</event>
<event>
 4    1  0.2281973E+005  0.2168887E+02  0.7546771E-02  0.1509653E+00
          2   -1    0    0  502    0  0.00000000000E+00  0.00000000000E+00  0.11232387465E+04  0.11232387465E+04  0.00000000000E+00 0.  1.
         21   -1    0    0  503  502 -0.00000000000E+00 -0.00000000000E+00 -0.16578561171E+02  0.16578561171E+02  0.00000000000E+00 0.  1.
          2    1    1    2  501    0 -0.21589975080E+02  0.20688475199E+01  0.11159943983E+04  0.11162051353E+04  0.00000000000E+00 0.  1.
         21    1    1    2  503  501  0.21589975080E+02 -0.20688475199E+01 -0.93342129065E+01  0.23612172382E+02  0.00000000000E+00 0.  1.
</event>
<event>
 4    1  0.2281973E+005  0.2013842E+02  0.7546771E-02  0.1531930E+00
          2   -1    0    0  503    0  0.00000000000E+00  0.00000000000E+00  0.12632039762E+04  0.12632039762E+04  0.00000000000E+00 0.  1.
         21   -1    0    0  501  502 -0.00000000000E+00 -0.00000000000E+00 -0.65697042656E+00  0.65697042656E+00  0.00000000000E+00 0. -1.
          2    1    1    2  501    0  0.92463992603E+01  0.17890219530E+02  0.10831423872E+04  0.10833295836E+04  0.00000000000E+00 0.  1.
         21    1    1    2  503  502 -0.92463992603E+01 -0.17890219530E+02  0.17940461862E+03  0.18053136303E+03  0.00000000000E+00 0. -1.
</event>
<event>
 4    1  0.2281973E+005  0.3799445E+02  0.7546771E-02  0.1360657E+00
          2   -1    0    0  502    0  0.00000000000E+00  0.00000000000E+00  0.35203394778E+03  0.35203394778E+03  0.00000000000E+00 0.  1.
         21   -1    0    0  503  502 -0.00000000000E+00 -0.00000000000E+00 -0.14951682558E+02  0.14951682558E+02  0.00000000000E+00 0.  1.
          2    1    1    2  501    0 -0.37861523559E+02  0.31753766001E+01  0.32485913484E+03  0.32707344048E+03  0.00000000000E+00 0.  1.
         21    1    1    2  503  501  0.37861523559E+02 -0.31753766001E+01  0.12223130389E+02  0.39912189858E+02  0.00000000000E+00 0.  1.
</event>
<event>
 4    1  0.2281973E+005  0.2312966E+02  0.7546771E-02  0.1490876E+00
          2   -1    0    0  503    0  0.00000000000E+00  0.00000000000E+00  0.85877022158E+02  0.85877022158E+02  0.00000000000E+00 0.  1.
         21   -1    0    0  501  502 -0.00000000000E+00 -0.00000000000E+00 -0.73392003374E+01  0.73392003374E+01  0.00000000000E+00 0.  1.
          2    1    1    2  501    0 -0.15413453854E+01 -0.23078243225E+02  0.21146462568E+02  0.31339335269E+02  0.00000000000E+00 0.  1.
         21    1    1    2  503  502  0.15413453854E+01  0.23078243225E+02  0.57391359253E+02  0.61876887227E+02  0.00000000000E+00 0.  1.
</event>
<event>
 4    1  0.2281973E+005  0.2000424E+02  0.7546771E-02  0.1533971E+00
          2   -1    0    0  502    0  0.00000000000E+00  0.00000000000E+00  0.15642409933E+02  0.15642409933E+02  0.00000000000E+00 0.  1.
         21   -1    0    0  503  502 -0.00000000000E+00 -0.00000000000E+00 -0.84479790195E+02  0.84479790195E+02  0.00000000000E+00 0.  1.
          2    1    1    2  501    0  0.87061210332E+01  0.18010360275E+02  0.73809152616E+01  0.21322465401E+02  0.00000000000E+00 0.  1.
         21    1    1    2  503  501 -0.87061210332E+01 -0.18010360275E+02 -0.76218295524E+02  0.78799734728E+02  0.00000000000E+00 0.  1.
</event>
<event>
 4    1  0.2281973E+005  0.4405843E+02  0.7546771E-02  0.1326215E+00
          2   -1    0    0  503    0  0.00000000000E+00  0.00000000000E+00  0.43347138501E+03  0.43347138501E+03  0.00000000000E+00 0. -1.
         21   -1    0    0  501  502 -0.00000000000E+00 -0.00000000000E+00 -0.89438351863E+02  0.89438351863E+02  0.00000000000E+00 0. -1.
          2    1    1    2  501    0  0.41350532863E+02 -0.15207837573E+02  0.42684187074E+03  0.42910969170E+03  0.00000000000E+00 0. -1.
         21    1    1    2  503  502 -0.41350532863E+02  0.15207837573E+02 -0.82808837592E+02  0.93800045176E+02  0.00000000000E+00 0. -1.
</event>
<event>
 4    1  0.2281973E+005  0.6043991E+02  0.7546771E-02  0.1258345E+00
          2   -1    0    0  502    0  0.00000000000E+00  0.00000000000E+00  0.91772561397E+03  0.91772561397E+03  0.00000000000E+00 0.  1.
         21   -1    0    0  503  502 -0.00000000000E+00 -0.00000000000E+00 -0.16801362650E+02  0.16801362650E+02  0.00000000000E+00 0.  1.
          2    1    1    2  501    0  0.59720854694E+02  0.92952643683E+01  0.85863925558E+03  0.86076381990E+03  0.00000000000E+00 0.  1.
         21    1    1    2  503  501 -0.59720854694E+02 -0.92952643683E+01  0.42284995746E+02  0.73763156727E+02  0.00000000000E+00 0.  1.
</event>
<event>
 4    1  0.2281973E+005  0.2750399E+02  0.7546771E-02  0.1442610E+00
          2   -1    0    0  502    0  0.00000000000E+00  0.00000000000E+00  0.14342675723E+03  0.14342675723E+03  0.00000000000E+00 0.  1.
         21   -1    0    0  503  502 -0.00000000000E+00 -0.00000000000E+00 -0.71108418925E+01  0.71108418925E+01  0.00000000000E+00 0.  1.
          2    1    1    2  501    0 -0.23775912644E+02  0.13826629933E+02  0.10641046153E+03  0.10990748855E+03  0.00000000000E+00 0.  1.
         21    1    1    2  503  501  0.23775912644E+02 -0.13826629933E+02  0.29905453807E+02  0.40630110568E+02  0.00000000000E+00 0.  1.
</event>
<event>
 4    1  0.2281973E+005  0.2587873E+02  0.7546771E-02  0.1459209E+00
          2   -1    0    0  503    0  0.00000000000E+00  0.00000000000E+00  0.13820684711E+03  0.13820684711E+03  0.00000000000E+00 0.  1.
         21   -1    0    0  501  502 -0.00000000000E+00 -0.00000000000E+00 -0.18583721350E+02  0.18583721350E+02  0.00000000000E+00 0. -1.
          2    1    1    2  501    0 -0.20548246803E+01  0.25797023035E+02  0.12721556986E+03  0.12982106884E+03  0.00000000000E+00 0.  1.
         21    1    1    2  503  502  0.20548246803E+01 -0.25797023035E+02 -0.75924440995E+01  0.26969499613E+02  0.00000000000E+00 0. -1.
</event>
<event>
 4    1  0.2281973E+005  0.2107467E+02  0.7546771E-02  0.1518201E+00
          2   -1    0    0  502    0  0.00000000000E+00  0.00000000000E+00  0.77250453440E+02  0.77250453440E+02  0.00000000000E+00 0.  1.
         21   -1    0    0  503  502 -0.00000000000E+00 -0.00000000000E+00 -0.84315122599E+01  0.84315122599E+01  0.00000000000E+00 0.  1.
          2    1    1    2  501    0  0.20838200125E+02 -0.31481909305E+01  0.58572274484E+02  0.62248317478E+02  0.00000000000E+00 0.  1.
         21    1    1    2  503  501 -0.20838200125E+02  0.31481909305E+01  0.10246666696E+02  0.23433648222E+02  0.00000000000E+00 0.  1.
</event>
<event>
 4    1  0.2281973E+005  0.3455562E+02  0.7546771E-02  0.1383714E+00
          2   -1    0    0  502    0  0.00000000000E+00  0.00000000000E+00  0.44516917316E+03  0.44516917316E+03  0.00000000000E+00 0.  1.
         21   -1    0    0  503  502 -0.00000000000E+00 -0.00000000000E+00 -0.47806366007E+01  0.47806366007E+01  0.00000000000E+00 0. -1.
          2    1    1    2  501    0 -0.31885619160E+02 -0.13319084631E+02  0.36924209976E+03  0.37085552303E+03  0.00000000000E+00 0.  1.
         21    1    1    2  503  501  0.31885619160E+02  0.13319084631E+02  0.71146436799E+02  0.79094286733E+02  0.00000000000E+00 0. -1.
</event>
<event>
 4    1  0.2281973E+005  0.3740789E+02  0.7546771E-02  0.1364384E+00
          2   -1    0    0  502    0  0.00000000000E+00  0.00000000000E+00  0.59727025598E+03  0.59727025598E+03  0.00000000000E+00 0.  1.
         21   -1    0    0  503  502 -0.00000000000E+00 -0.00000000000E+00 -0.23431603836E+01  0.23431603836E+01  0.00000000000E+00 0.  1.
          2    1    1    2  501    0  0.32808866688E+02 -0.17970207867E+02  0.30056634074E+03  0.30288525103E+03  0.00000000000E+00 0.  1.
         21    1    1    2  503  501 -0.32808866688E+02  0.17970207867E+02  0.29436075485E+03  0.29672816533E+03  0.00000000000E+00 0.  1.
</event>
<event>
 4    1  0.2281973E+005  0.2175101E+02  0.7546771E-02  0.1508807E+00
          2   -1    0    0  503    0  0.00000000000E+00  0.00000000000E+00  0.13896392477E+04  0.13896392477E+04  0.00000000000E+00 0.  1.
         21   -1    0    0  501  502 -0.00000000000E+00 -0.00000000000E+00 -0.36558467597E+00  0.36558467597E+00  0.00000000000E+00 0.  1.
          2    1    1    2  501    0  0.18548957025E+02 -0.11359685199E+02  0.87686132684E+03  0.87713105792E+03  0.00000000000E+00 0.  1.
         21    1    1    2  503  502 -0.18548957025E+02  0.11359685199E+02  0.51241233622E+03  0.51287377450E+03  0.00000000000E+00 0.  1.
</event>
<event>
 4    1  0.2281973E+005  0.2337776E+02  0.7546771E-02  0.1487808E+00
          2   -1    0    0  503    0  0.00000000000E+00  0.00000000000E+00  0.72958325231E+02  0.72958325231E+02  0.00000000000E+00 0.  1.
         21   -1    0    0  501  502 -0.00000000000E+00 -0.00000000000E+00 -0.85552883071E+01  0.85552883071E+01  0.00000000000E+00 0. -1.
          2    1    1    2  501    0 -0.17572574374E+02  0.15418314469E+02  0.17825345299E+02  0.29398345638E+02  0.00000000000E+00 0.  1.
         21    1    1    2  503  502  0.17572574374E+02 -0.15418314469E+02  0.46577691624E+02  0.52115267900E+02  0.00000000000E+00 0. -1.
</event>
<event>
 4    1  0.2281973E+005  0.2151347E+02  0.7546771E-02  0.1512059E+00
          2   -1    0    0  502    0  0.00000000000E+00  0.00000000000E+00  0.15427322745E+03  0.15427322745E+03  0.00000000000E+00 0.  1.
         21   -1    0    0  503  502 -0.00000000000E+00 -0.00000000000E+00 -0.23548459458E+02  0.23548459458E+02  0.00000000000E+00 0. -1.
          2    1    1    2  501    0 -0.94718270095E+01 -0.19316150716E+02  0.14841674912E+03  0.14996786524E+03  0.00000000000E+00 0.  1.
         21    1    1    2  503  501  0.94718270095E+01  0.19316150716E+02 -0.17691981126E+02  0.27853821669E+02  0.00000000000E+00 0. -1.
</event>
<event>
 4    1  0.2281973E+005  0.9103520E+02  0.7546771E-02  0.1180320E+00
          2   -1    0    0  503    0  0.00000000000E+00  0.00000000000E+00  0.20770711638E+03  0.20770711638E+03  0.00000000000E+00 0.  1.
         21   -1    0    0  501  502 -0.00000000000E+00 -0.00000000000E+00 -0.76337724057E+02  0.76337724057E+02  0.00000000000E+00 0. -1.
          2    1    1    2  501    0 -0.66251295552E+02  0.62435352258E+02  0.16380660411E+03  0.18740333754E+03  0.00000000000E+00 0.  1.
         21    1    1    2  503  502  0.66251295552E+02 -0.62435352258E+02 -0.32437211781E+02  0.96641502896E+02  0.00000000000E+00 0. -1.
</event>
<event>
 4    1  0.2281973E+005  0.2081303E+02  0.7546771E-02  0.1521951E+00
          2   -1    0    0  503    0  0.00000000000E+00  0.00000000000E+00  0.12715602664E+04  0.12715602664E+04  0.00000000000E+00 0. -1.
         21   -1    0    0  501  502 -0.00000000000E+00 -0.00000000000E+00 -0.47964107006E+01  0.47964107006E+01  0.00000000000E+00 0. -1.
          2    1    1    2  501    0 -0.11919352871E+02 -0.17061984628E+02  0.12484792518E+04  0.12486527237E+04  0.00000000000E+00 0. -1.
         21    1    1    2  503  502  0.11919352871E+02  0.17061984628E+02  0.18284603870E+02  0.27703953346E+02  0.00000000000E+00 0. -1.
</event>
<event>
 4    1  0.2281973E+005  0.2088725E+02  0.7546771E-02  0.1520881E+00
          2   -1    0    0  503    0  0.00000000000E+00  0.00000000000E+00  0.19609475654E+03  0.19609475654E+03  0.00000000000E+00 0. -1.
         21   -1    0    0  501  502 -0.00000000000E+00 -0.00000000000E+00 -0.93876661673E+02  0.93876661673E+02  0.00000000000E+00 0. -1.
          2    1    1    2  501    0  0.18461386902E+02  0.97700864891E+01  0.19436641086E+03  0.19548549579E+03  0.00000000000E+00 0. -1.
         21    1    1    2  503  502 -0.18461386902E+02 -0.97700864891E+01 -0.92148315988E+02  0.94485922421E+02  0.00000000000E+00 0. -1.
</event>
<event>
 4    1  0.2281973E+005  0.2452708E+02  0.7546771E-02  0.1474164E+00
          2   -1    0    0  503    0  0.00000000000E+00  0.00000000000E+00  0.10359552171E+04  0.10359552171E+04  0.00000000000E+00 0. -1.
         21   -1    0    0  501  502 -0.00000000000E+00 -0.00000000000E+00 -0.17269702784E+01  0.17269702784E+01  0.00000000000E+00 0. -1.
          2    1    1    2  501    0  0.22354676922E+02  0.10091893081E+02  0.93981747330E+03  0.94013746921E+03  0.00000000000E+00 0. -1.
         21    1    1    2  503  502 -0.22354676922E+02 -0.10091893081E+02  0.94410773516E+02  0.97544718167E+02  0.00000000000E+00 0. -1.
</event>
<event>
 4    1  0.2281973E+005  0.3976044E+02  0.7546771E-02  0.1349895E+00
          2   -1    0    0  502    0  0.00000000000E+00  0.00000000000E+00  0.16311828480E+03  0.16311828480E+03  0.00000000000E+00 0. -1.
         21   -1    0    0  503  502 -0.00000000000E+00 -0.00000000000E+00 -0.14794886181E+02  0.14794886181E+02  0.00000000000E+00 0. -1.
          2    1    1    2  501    0  0.18480795263E+02  0.35204438446E+02  0.12640652809E+03  0.13251227348E+03  0.00000000000E+00 0. -1.
         21    1    1    2  503  501 -0.18480795263E+02 -0.35204438446E+02  0.21916870529E+02  0.45400897498E+02  0.00000000000E+00 0. -1.
</event>
<event>
 4    1  0.2281973E+005  0.2904559E+02  0.7546771E-02  0.1428075E+00
          2   -1    0    0  502    0  0.00000000000E+00  0.00000000000E+00  0.87703459007E+03  0.87703459007E+03  0.00000000000E+00 0.  1.
         21   -1    0    0  503  502 -0.00000000000E+00 -0.00000000000E+00 -0.33285591739E+01  0.33285591739E+01  0.00000000000E+00 0. -1.
          2    1    1    2  501    0  0.20317631970E+02 -0.20756689941E+02  0.80801952011E+03  0.80854139735E+03  0.00000000000E+00 0.  1.
         21    1    1    2  503  501 -0.20317631970E+02  0.20756689941E+02  0.65686510783E+02  0.71821751893E+02  0.00000000000E+00 0. -1.
</event>
<event>
 4    1  0.2281973E+005  0.2050780E+02  0.7546771E-02  0.1526409E+00
          2   -1    0    0  503    0  0.00000000000E+00  0.00000000000E+00  0.10005882051E+03  0.10005882051E+03  0.00000000000E+00 0.  1.
         21   -1    0    0  501  502 -0.00000000000E+00 -0.00000000000E+00 -0.23589702892E+02  0.23589702892E+02  0.00000000000E+00 0.  1.
          2    1    1    2  501    0  0.18012897966E+02 -0.98033417036E+01  0.94280882485E+02  0.96485516031E+02  0.00000000000E+00 0.  1.
         21    1    1    2  503  502 -0.18012897966E+02  0.98033417036E+01 -0.17811764867E+02  0.27163007370E+02  0.00000000000E+00 0.  1.
</event>
<event>
 4    1  0.2281973E+005  0.2792898E+02  0.7546771E-02  0.1438493E+00
          2   -1    0    0  502    0  0.00000000000E+00  0.00000000000E+00  0.21416111675E+04  0.21416111675E+04  0.00000000000E+00 0. -1.
         21   -1    0    0  503  502 -0.00000000000E+00 -0.00000000000E+00 -0.16451021354E+01  0.16451021354E+01  0.00000000000E+00 0.  1.
          2    1    1    2  501    0 -0.17528888495E+02 -0.21743180765E+02  0.20155699376E+04  0.20157634289E+04  0.00000000000E+00 0. -1.
         21    1    1    2  503  501  0.17528888495E+02  0.21743180765E+02  0.12439612774E+03  0.12749284074E+03  0.00000000000E+00 0.  1.
</event>
<event>
 4    1  0.2281973E+005  0.2417046E+02  0.7546771E-02  0.1478301E+00
          2   -1    0    0  502    0  0.00000000000E+00  0.00000000000E+00  0.14987745316E+02  0.14987745316E+02  0.00000000000E+00 0.  1.
         21   -1    0    0  503  502 -0.00000000000E+00 -0.00000000000E+00 -0.23184612445E+03  0.23184612445E+03  0.00000000000E+00 0. -1.
          2    1    1    2  501    0 -0.21503368666E+02 -0.11037031226E+02  0.41358863163E+01  0.24521755196E+02  0.00000000000E+00 0.  1.
         21    1    1    2  503  501  0.21503368666E+02  0.11037031226E+02 -0.22099426545E+03  0.22231211457E+03  0.00000000000E+00 0. -1.
</event>
<event>
 4    1  0.2281973E+005  0.2252333E+02  0.7546771E-02  0.1498572E+00
          2   -1    0    0  503    0  0.00000000000E+00  0.00000000000E+00  0.71233033435E+01  0.71233033435E+01  0.00000000000E+00 0.  1.
         21   -1    0    0  501  502 -0.00000000000E+00 -0.00000000000E+00 -0.19541217788E+03  0.19541217788E+03  0.00000000000E+00 0.  1.
          2    1    1    2  501    0 -0.22319133573E+02  0.30259997876E+01 -0.13412077027E+02  0.26214198602E+02  0.00000000000E+00 0.  1.
         21    1    1    2  503  502  0.22319133573E+02 -0.30259997876E+01 -0.17487679751E+03  0.17632128262E+03  0.00000000000E+00 0.  1.
</event>
<event>
 4    1  0.2281973E+005  0.2354701E+02  0.7546771E-02  0.1485741E+00
          2   -1    0    0  502    0  0.00000000000E+00  0.00000000000E+00  0.10316377621E+02  0.10316377621E+02  0.00000000000E+00 0.  1.
         21   -1    0    0  503  502 -0.00000000000E+00 -0.00000000000E+00 -0.13620784591E+03  0.13620784591E+03  0.00000000000E+00 0.  1.
          2    1    1    2  501    0 -0.21149513284E+02 -0.10351803061E+02 -0.59417143810E+01  0.24285092311E+02  0.00000000000E+00 0.  1.
         21    1    1    2  503  501  0.21149513284E+02  0.10351803061E+02 -0.11994975391E+03  0.12223913122E+03  0.00000000000E+00 0.  1.
</event>
<event>
 4    1  0.2281973E+005  0.2055641E+02  0.7546771E-02  0.1525693E+00
          2   -1    0    0  503    0  0.00000000000E+00  0.00000000000E+00  0.16686749517E+02  0.16686749517E+02  0.00000000000E+00 0.  1.
         21   -1    0    0  501  502 -0.00000000000E+00 -0.00000000000E+00 -0.25595906792E+02  0.25595906792E+02  0.00000000000E+00 0. -1.
          2    1    1    2  501    0 -0.77715753821E+01 -0.19030724329E+02 -0.22733254512E+01  0.20681727708E+02  0.00000000000E+00 0.  1.
         21    1    1    2  503  502  0.77715753821E+01  0.19030724329E+02 -0.66358318234E+01  0.21600928600E+02  0.00000000000E+00 0. -1.
</event>
<event>
 4    1  0.3098583E+005  0.2012672E+02  0.7546771E-02  0.1532107E+00
          2   -1    0    0  502    0  0.00000000000E+00  0.00000000000E+00  0.71658823894E+03  0.71658823894E+03  0.00000000000E+00 0. -1.
         21   -1    0    0  503  502 -0.00000000000E+00 -0.00000000000E+00 -0.82134120718E+02  0.82134120718E+02  0.00000000000E+00 0. -1.
          2    1    1    2  501    0  0.92010885269E+01 -0.17900414833E+02  0.71521154372E+03  0.71549468003E+03  0.00000000000E+00 0. -1.
         21    1    1    2  503  501 -0.92010885269E+01  0.17900414833E+02 -0.80757425504E+02  0.83227679622E+02  0.00000000000E+00 0. -1.
</event>
<event>
 4    1  0.2281973E+005  0.2071437E+02  0.7546771E-02  0.1523382E+00
          2   -1    0    0  502    0  0.00000000000E+00  0.00000000000E+00  0.75104800568E+03  0.75104800568E+03  0.00000000000E+00 0.  1.
         21   -1    0    0  503  502 -0.00000000000E+00 -0.00000000000E+00 -0.92484430303E+00  0.92484430303E+00  0.00000000000E+00 0. -1.
          2    1    1    2  501    0  0.20688754033E+02 -0.10297510418E+01  0.60752285293E+03  0.60787589338E+03  0.00000000000E+00 0.  1.
         21    1    1    2  503  501 -0.20688754033E+02  0.10297510418E+01  0.14260030846E+03  0.14409695660E+03  0.00000000000E+00 0. -1.
</event>
<event>
 4    1  0.2281973E+005  0.2166193E+02  0.7546771E-02  0.1510020E+00
          2   -1    0    0  503    0  0.00000000000E+00  0.00000000000E+00  0.65346930795E+03  0.65346930795E+03  0.00000000000E+00 0.  1.
         21   -1    0    0  501  502 -0.00000000000E+00 -0.00000000000E+00 -0.98862888536E+00  0.98862888536E+00  0.00000000000E+00 0.  1.
          2    1    1    2  501    0  0.19261486114E+02  0.99113238889E+01  0.49742425156E+03  0.49789569714E+03  0.00000000000E+00 0.  1.
         21    1    1    2  503  502 -0.19261486114E+02 -0.99113238889E+01  0.15505642750E+03  0.15656223970E+03  0.00000000000E+00 0.  1.
</event>
<event>
 4    1  0.2281973E+005  0.2789172E+02  0.7546771E-02  0.1438851E+00
          2   -1    0    0  503    0  0.00000000000E+00  0.00000000000E+00  0.15655284324E+04  0.15655284324E+04  0.00000000000E+00 0.  1.
         21   -1    0    0  501  502 -0.00000000000E+00 -0.00000000000E+00 -0.22426927389E+01  0.22426927389E+01  0.00000000000E+00 0.  1.
          2    1    1    2  501    0 -0.49261364118E+00  0.27887368604E+02  0.14732527446E+04  0.14735167449E+04  0.00000000000E+00 0.  1.
         21    1    1    2  503  502  0.49261364118E+00 -0.27887368604E+02  0.90032994967E+02  0.94254380156E+02  0.00000000000E+00 0.  1.
</event>
<event>
 4    1  0.2281973E+005  0.2133014E+02  0.7546771E-02  0.1514603E+00
          2   -1    0    0  502    0  0.00000000000E+00  0.00000000000E+00  0.64451051464E+01  0.64451051464E+01  0.00000000000E+00 0.  1.
         21   -1    0    0  503  502 -0.00000000000E+00 -0.00000000000E+00 -0.77353100236E+02  0.77353100236E+02  0.00000000000E+00 0. -1.
          2    1    1    2  501    0  0.85838645077E+01  0.19526698139E+02 -0.23067014604E+02  0.31417540210E+02  0.00000000000E+00 0.  1.
         21    1    1    2  503  501 -0.85838645077E+01 -0.19526698139E+02 -0.47840980485E+02  0.52380665172E+02  0.00000000000E+00 0. -1.
</event>
<event>
 4    1  0.2281973E+005  0.2714356E+02  0.7546771E-02  0.1446171E+00
          2   -1    0    0  503    0  0.00000000000E+00  0.00000000000E+00  0.11351327782E+04  0.11351327782E+04  0.00000000000E+00 0. -1.
         21   -1    0    0  501  502 -0.00000000000E+00 -0.00000000000E+00 -0.67933312518E+00  0.67933312518E+00  0.00000000000E+00 0.  1.
          2    1    1    2  501    0 -0.27041913314E+02  0.23468422396E+01  0.68710537355E+03  0.68764130701E+03  0.00000000000E+00 0. -1.
         21    1    1    2  503  502  0.27041913314E+02 -0.23468422396E+01  0.44734807150E+03  0.44817080429E+03  0.00000000000E+00 0.  1.
</event>
<event>
 4    1  0.2281973E+005  0.2987142E+02  0.7546771E-02  0.1420717E+00
          2   -1    0    0  502    0  0.00000000000E+00  0.00000000000E+00  0.33044687966E+03  0.33044687966E+03  0.00000000000E+00 0. -1.
         21   -1    0    0  503  502 -0.00000000000E+00 -0.00000000000E+00 -0.10897030279E+02  0.10897030279E+02  0.00000000000E+00 0. -1.
          2    1    1    2  501    0  0.10882479984E+02 -0.27818577224E+02  0.30779776565E+03  0.30924386195E+03  0.00000000000E+00 0. -1.
         21    1    1    2  503  501 -0.10882479984E+02  0.27818577224E+02  0.11752083728E+02  0.32100047995E+02  0.00000000000E+00 0. -1.
</event>
<event>
 4    1  0.2281973E+005  0.2490328E+02  0.7546771E-02  0.1469888E+00
          2   -1    0    0  502    0  0.00000000000E+00  0.00000000000E+00  0.62566700693E+03  0.62566700693E+03  0.00000000000E+00 0. -1.
         21   -1    0    0  503  502 -0.00000000000E+00 -0.00000000000E+00 -0.19528703553E+01  0.19528703553E+01  0.00000000000E+00 0. -1.
          2    1    1    2  501    0 -0.77068652819E+01  0.23680740310E+02  0.53206792984E+03  0.53265040618E+03  0.00000000000E+00 0. -1.
         21    1    1    2  503  501  0.77068652819E+01 -0.23680740310E+02  0.91646206727E+02  0.94969471103E+02  0.00000000000E+00 0. -1.
</event>
<event>
 4    1  0.2281973E+005  0.2379621E+02  0.7546771E-02  0.1482735E+00
          2   -1    0    0  502    0  0.00000000000E+00  0.00000000000E+00  0.44062059262E+03  0.44062059262E+03  0.00000000000E+00 0. -1.
         21   -1    0    0  503  502 -0.00000000000E+00 -0.00000000000E+00 -0.31534912873E+02  0.31534912873E+02  0.00000000000E+00 0.  1.
          2    1    1    2  501    0  0.20364396687E+02  0.12310607357E+02  0.43576012347E+03  0.43640937767E+03  0.00000000000E+00 0. -1.
         21    1    1    2  503  501 -0.20364396687E+02 -0.12310607357E+02 -0.26674443730E+02  0.35746127822E+02  0.00000000000E+00 0.  1.
</event>
<event>
 4    1  0.2281973E+005  0.2122464E+02  0.7546771E-02  0.1516082E+00
          2   -1    0    0  502    0  0.00000000000E+00  0.00000000000E+00  0.86358403841E+03  0.86358403841E+03  0.00000000000E+00 0.  1.
         21   -1    0    0  503  502 -0.00000000000E+00 -0.00000000000E+00 -0.21527972915E+01  0.21527972915E+01  0.00000000000E+00 0.  1.
          2    1    1    2  501    0 -0.93157231940E+01  0.19070987613E+02  0.80750741562E+03  0.80778630315E+03  0.00000000000E+00 0.  1.
         21    1    1    2  503  501  0.93157231940E+01 -0.19070987613E+02  0.53923825493E+02  0.57950532551E+02  0.00000000000E+00 0.  1.
</event>
<event>
 4    1  0.2281973E+005  0.3601755E+02  0.7546771E-02  0.1373547E+00
          2   -1    0    0  503    0  0.00000000000E+00  0.00000000000E+00  0.75141612952E+03  0.75141612952E+03  0.00000000000E+00 0.  1.
         21   -1    0    0  501  502 -0.00000000000E+00 -0.00000000000E+00 -0.29490454519E+01  0.29490454519E+01  0.00000000000E+00 0.  1.
          2    1    1    2  501    0 -0.12311486181E+02 -0.33848056124E+02  0.61709395526E+03  0.61814416863E+03  0.00000000000E+00 0.  1.
         21    1    1    2  503  502  0.12311486181E+02  0.33848056124E+02  0.13137312880E+03  0.13622100633E+03  0.00000000000E+00 0.  1.
</event>
<event>
 4    1  0.2281973E+005  0.2140937E+02  0.7546771E-02  0.1513500E+00
          2   -1    0    0  502    0  0.00000000000E+00  0.00000000000E+00  0.25913214500E+03  0.25913214500E+03  0.00000000000E+00 0. -1.
         21   -1    0    0  503  502 -0.00000000000E+00 -0.00000000000E+00 -0.39562831393E+01  0.39562831393E+01  0.00000000000E+00 0.  1.
          2    1    1    2  501    0 -0.21341124425E+02 -0.17080471366E+01  0.22540110008E+03  0.22641558457E+03  0.00000000000E+00 0. -1.
         21    1    1    2  503  501  0.21341124425E+02  0.17080471366E+01  0.29774761784E+02  0.36672843577E+02  0.00000000000E+00 0.  1.
</event>
<event>
 4    1  0.2281973E+005  0.2584601E+02  0.7546771E-02  0.1459558E+00
          2   -1    0    0  502    0  0.00000000000E+00  0.00000000000E+00  0.10638120354E+02  0.10638120354E+02  0.00000000000E+00 0. -1.
         21   -1    0    0  503  502 -0.00000000000E+00 -0.00000000000E+00 -0.12310968487E+03  0.12310968487E+03  0.00000000000E+00 0.  1.
          2    1    1    2  501    0 -0.20054164003E+02  0.16304808627E+02 -0.94274024011E+01  0.27511673781E+02  0.00000000000E+00 0. -1.
         21    1    1    2  503  501  0.20054164003E+02 -0.16304808627E+02 -0.10304416211E+03  0.10623613144E+03  0.00000000000E+00 0.  1.
</event>
<event>
 4    1  0.2281973E+005  0.3147278E+02  0.7546771E-02  0.1407216E+00
          2   -1    0    0  503    0  0.00000000000E+00  0.00000000000E+00  0.12442033871E+04  0.12442033871E+04  0.00000000000E+00 0.  1.
         21   -1    0    0  501  502 -0.00000000000E+00 -0.00000000000E+00 -0.22712339619E+01  0.22712339619E+01  0.00000000000E+00 0.  1.
          2    1    1    2  501    0 -0.17916682466E+02  0.25875240968E+02  0.11232337726E+04  0.11236746163E+04  0.00000000000E+00 0.  1.
         21    1    1    2  503  502  0.17916682466E+02 -0.25875240968E+02  0.11869838056E+03  0.12280000470E+03  0.00000000000E+00 0.  1.
</event>
<event>
 4    1  0.2281973E+005  0.3824247E+02  0.7546771E-02  0.1359104E+00
          2   -1    0    0  503    0  0.00000000000E+00  0.00000000000E+00  0.19633481104E+04  0.19633481104E+04  0.00000000000E+00 0. -1.
         21   -1    0    0  501  502 -0.00000000000E+00 -0.00000000000E+00 -0.79688209811E+00  0.79688209811E+00  0.00000000000E+00 0. -1.
          2    1    1    2  501    0  0.33864925309E+02  0.17766644310E+02  0.12321158644E+04  0.12327092075E+04  0.00000000000E+00 0. -1.
         21    1    1    2  503  502 -0.33864925309E+02 -0.17766644310E+02  0.73043536393E+03  0.73143578508E+03  0.00000000000E+00 0. -1.
</event>
<event>
 4    1  0.2281973E+005  0.2456093E+02  0.7546771E-02  0.1473776E+00
          2   -1    0    0  502    0  0.00000000000E+00  0.00000000000E+00  0.58505472244E+02  0.58505472244E+02  0.00000000000E+00 0. -1.
         21   -1    0    0  503  502 -0.00000000000E+00 -0.00000000000E+00 -0.10740162403E+02  0.10740162403E+02  0.00000000000E+00 0. -1.
          2    1    1    2  501    0 -0.23934307597E+02  0.55125456845E+01  0.30805110801E+02  0.39397894506E+02  0.00000000000E+00 0. -1.
         21    1    1    2  503  501  0.23934307597E+02 -0.55125456845E+01  0.16960199040E+02  0.29847740141E+02  0.00000000000E+00 0. -1.
</event>
<event>
 4    1  0.2281973E+005  0.2610693E+02  0.7546771E-02  0.1456791E+00
          2   -1    0    0  502    0  0.00000000000E+00  0.00000000000E+00  0.46297419077E+03  0.46297419077E+03  0.00000000000E+00 0. -1.
         21   -1    0    0  503  502 -0.00000000000E+00 -0.00000000000E+00 -0.28488943672E+01  0.28488943672E+01  0.00000000000E+00 0.  1.
          2    1    1    2  501    0  0.18454872602E+02 -0.18465893296E+02  0.39197429932E+03  0.39284274572E+03  0.00000000000E+00 0. -1.
         21    1    1    2  503  501 -0.18454872602E+02  0.18465893296E+02  0.68150997085E+02  0.72980339419E+02  0.00000000000E+00 0.  1.
</event>
<event>
 4    1  0.2281973E+005  0.2150564E+02  0.7546771E-02  0.1512167E+00
          2   -1    0    0  502    0  0.00000000000E+00  0.00000000000E+00  0.11119663173E+02  0.11119663173E+02  0.00000000000E+00 0. -1.
         21   -1    0    0  503  502 -0.00000000000E+00 -0.00000000000E+00 -0.88049613241E+03  0.88049613241E+03  0.00000000000E+00 0. -1.
          2    1    1    2  501    0  0.10991046023E+02 -0.18484846021E+02  0.46289463827E+00  0.21510622877E+02  0.00000000000E+00 0. -1.
         21    1    1    2  503  501 -0.10991046023E+02  0.18484846021E+02 -0.86983936387E+03  0.87010517270E+03  0.00000000000E+00 0. -1.
</event>
<event>
 4    1  0.2281973E+005  0.2126310E+02  0.7546771E-02  0.1515541E+00
          2   -1    0    0  503    0  0.00000000000E+00  0.00000000000E+00  0.11122871449E+02  0.11122871449E+02  0.00000000000E+00 0.  1.
         21   -1    0    0  501  502 -0.00000000000E+00 -0.00000000000E+00 -0.23776103824E+03  0.23776103824E+03  0.00000000000E+00 0. -1.
          2    1    1    2  501    0 -0.20710770132E+02 -0.48149129737E+01 -0.12677770695E-01  0.21263102951E+02  0.00000000000E+00 0.  1.
         21    1    1    2  503  502  0.20710770132E+02  0.48149129737E+01 -0.22662548902E+03  0.22762080674E+03  0.00000000000E+00 0. -1.
</event>
<event>
 4    1  0.2281973E+005  0.2632312E+02  0.7546771E-02  0.1454529E+00
          2   -1    0    0  502    0  0.00000000000E+00  0.00000000000E+00  0.46359390700E+03  0.46359390700E+03  0.00000000000E+00 0. -1.
         21   -1    0    0  503  502 -0.00000000000E+00 -0.00000000000E+00 -0.17498616049E+01  0.17498616049E+01  0.00000000000E+00 0.  1.
          2    1    1    2  501    0  0.16084299474E+02 -0.20837519151E+02  0.31978055340E+03  0.32086213430E+03  0.00000000000E+00 0. -1.
         21    1    1    2  503  501 -0.16084299474E+02  0.20837519151E+02  0.14206349199E+03  0.14448163431E+03  0.00000000000E+00 0.  1.
</event>
<event>
 4    1  0.2281973E+005  0.2221067E+02  0.7546771E-02  0.1502655E+00
          2   -1    0    0  502    0  0.00000000000E+00  0.00000000000E+00  0.16576241017E+04  0.16576241017E+04  0.00000000000E+00 0. -1.
         21   -1    0    0  503  502 -0.00000000000E+00 -0.00000000000E+00 -0.86545246189E+01  0.86545246189E+01  0.00000000000E+00 0.  1.
          2    1    1    2  501    0 -0.19631143873E+02  0.10389028499E+02  0.16431742243E+04  0.16433243274E+04  0.00000000000E+00 0. -1.
         21    1    1    2  503  501  0.19631143873E+02 -0.10389028499E+02  0.57953527621E+01  0.22954298869E+02  0.00000000000E+00 0.  1.
</event>
<event>
 4    1  0.2281973E+005  0.2041965E+02  0.7546771E-02  0.1527714E+00
          2   -1    0    0  503    0  0.00000000000E+00  0.00000000000E+00  0.50399269253E+03  0.50399269253E+03  0.00000000000E+00 0.  1.
         21   -1    0    0  501  502 -0.00000000000E+00 -0.00000000000E+00 -0.11798538756E+01  0.11798538756E+01  0.00000000000E+00 0.  1.
          2    1    1    2  501    0  0.16081652802E+02  0.12583417776E+02  0.38947587697E+03  0.39001079562E+03  0.00000000000E+00 0.  1.
         21    1    1    2  503  502 -0.16081652802E+02 -0.12583417776E+02  0.11333696168E+03  0.11516175078E+03  0.00000000000E+00 0.  1.
</event>
<event>
 4    1  0.2281973E+005  0.5106850E+02  0.7546771E-02  0.1293605E+00
          2   -1    0    0  503    0  0.00000000000E+00  0.00000000000E+00  0.37835662164E+04  0.37835662164E+04  0.00000000000E+00 0. -1.
         21   -1    0    0  501  502 -0.00000000000E+00 -0.00000000000E+00 -0.62717556084E+01  0.62717556084E+01  0.00000000000E+00 0.  1.
          2    1    1    2  501    0 -0.42252222562E+02  0.28683464995E+02  0.36764060774E+04  0.36767607533E+04  0.00000000000E+00 0. -1.
         21    1    1    2  503  502  0.42252222562E+02 -0.28683464995E+02  0.10088838342E+03  0.11307721868E+03  0.00000000000E+00 0.  1.
</event>
<event>
 4    1  0.2281973E+005  0.3242967E+02  0.7546771E-02  0.1399594E+00
          2   -1    0    0  503    0  0.00000000000E+00  0.00000000000E+00  0.41687444885E+03  0.41687444885E+03  0.00000000000E+00 0. -1.
         21   -1    0    0  501  502 -0.00000000000E+00 -0.00000000000E+00 -0.24168050102E+02  0.24168050102E+02  0.00000000000E+00 0.  1.
          2    1    1    2  501    0  0.25715663179E+02  0.19758244454E+02  0.40504775437E+03  0.40634390222E+03  0.00000000000E+00 0. -1.
         21    1    1    2  503  502 -0.25715663179E+02 -0.19758244454E+02 -0.12341355617E+02  0.34698596731E+02  0.00000000000E+00 0.  1.
</event>
<event>
 4    1  0.2281973E+005  0.2018675E+02  0.7546771E-02  0.1531200E+00
          2   -1    0    0  502    0  0.00000000000E+00  0.00000000000E+00  0.32078784361E+02  0.32078784361E+02  0.00000000000E+00 0.  1.
         21   -1    0    0  503  502 -0.00000000000E+00 -0.00000000000E+00 -0.34818000698E+02  0.34818000698E+02  0.00000000000E+00 0.  1.
          2    1    1    2  501    0  0.21315759121E+01  0.20073894952E+02  0.25287580322E+02  0.32356863151E+02  0.00000000000E+00 0.  1.
         21    1    1    2  503  501 -0.21315759121E+01 -0.20073894952E+02 -0.28026796659E+02  0.34539921908E+02  0.00000000000E+00 0.  1.
</event>
<event>
 4    1  0.2281973E+005  0.3010099E+02  0.7546771E-02  0.1418721E+00
          2   -1    0    0  503    0  0.00000000000E+00  0.00000000000E+00  0.17755132721E+03  0.17755132721E+03  0.00000000000E+00 0.  1.
         21   -1    0    0  501  502 -0.00000000000E+00 -0.00000000000E+00 -0.70483411020E+01  0.70483411020E+01  0.00000000000E+00 0. -1.
          2    1    1    2  501    0 -0.22923209486E+02 -0.19508868763E+02  0.13374008614E+03  0.13708566714E+03  0.00000000000E+00 0.  1.
         21    1    1    2  503  502  0.22923209486E+02  0.19508868763E+02  0.36762899963E+02  0.47514001171E+02  0.00000000000E+00 0. -1.
</event>
<event>
 4    1  0.2281973E+005  0.2967656E+02  0.7546771E-02  0.1422428E+00
          2   -1    0    0  502    0  0.00000000000E+00  0.00000000000E+00  0.99437947520E+03  0.99437947520E+03  0.00000000000E+00 0. -1.
         21   -1    0    0  503  502 -0.00000000000E+00 -0.00000000000E+00 -0.15918530905E+01  0.15918530905E+01  0.00000000000E+00 0. -1.
          2    1    1    2  501    0 -0.18092711574E+02 -0.23523431903E+02  0.82807600137E+03  0.82860760442E+03  0.00000000000E+00 0. -1.
         21    1    1    2  503  501  0.18092711574E+02  0.23523431903E+02  0.16471162073E+03  0.16736372386E+03  0.00000000000E+00 0. -1.
</event>
<event>
 4    1  0.2281973E+005  0.3621282E+02  0.7546771E-02  0.1372231E+00
          2   -1    0    0  502    0  0.00000000000E+00  0.00000000000E+00  0.96363143886E+01  0.96363143886E+01  0.00000000000E+00 0.  1.
         21   -1    0    0  503  502 -0.00000000000E+00 -0.00000000000E+00 -0.66314647347E+03  0.66314647347E+03  0.00000000000E+00 0.  1.
          2    1    1    2  501    0 -0.30691668752E+02  0.19219517244E+02 -0.26859316556E+02  0.45086486443E+02  0.00000000000E+00 0.  1.
         21    1    1    2  503  501  0.30691668752E+02 -0.19219517244E+02 -0.62665084253E+03  0.62769630142E+03  0.00000000000E+00 0.  1.
</event>
<event>
 4    1  0.2281973E+005  0.2453019E+02  0.7546771E-02  0.1474128E+00
          2   -1    0    0  503    0  0.00000000000E+00  0.00000000000E+00  0.33929759932E+01  0.33929759932E+01  0.00000000000E+00 0.  1.
         21   -1    0    0  501  502 -0.00000000000E+00 -0.00000000000E+00 -0.21799238074E+03  0.21799238074E+03  0.00000000000E+00 0. -1.
          2    1    1    2  501    0 -0.24239917805E+02 -0.37625445345E+01 -0.59501699366E+02  0.64359790118E+02  0.00000000000E+00 0.  1.
         21    1    1    2  503  502  0.24239917805E+02  0.37625445345E+01 -0.15509770538E+03  0.15702556662E+03  0.00000000000E+00 0. -1.
</event>
<event>
 4    1  0.2281973E+005  0.2983632E+02  0.7546771E-02  0.1421024E+00
          2   -1    0    0  503    0  0.00000000000E+00  0.00000000000E+00  0.80281559891E+03  0.80281559891E+03  0.00000000000E+00 0. -1.
         21   -1    0    0  501  502 -0.00000000000E+00 -0.00000000000E+00 -0.10827216992E+02  0.10827216992E+02  0.00000000000E+00 0. -1.
          2    1    1    2  501    0 -0.28168918578E+02 -0.98345255329E+01  0.78142100069E+03  0.78199040032E+03  0.00000000000E+00 0. -1.
         21    1    1    2  503  502  0.28168918578E+02  0.98345255329E+01  0.10567381224E+02  0.31652415583E+02  0.00000000000E+00 0. -1.
</event>
<event>
 4    1  0.2281973E+005  0.2011238E+02  0.7546771E-02  0.1532325E+00
          2   -1    0    0  503    0  0.00000000000E+00  0.00000000000E+00  0.22620660300E+03  0.22620660300E+03  0.00000000000E+00 0. -1.
         21   -1    0    0  501  502 -0.00000000000E+00 -0.00000000000E+00 -0.12144529119E+03  0.12144529119E+03  0.00000000000E+00 0. -1.
          2    1    1    2  501    0 -0.18497158267E+02  0.78970270045E+01  0.22492210554E+03  0.22581953294E+03  0.00000000000E+00 0. -1.
         21    1    1    2  503  502  0.18497158267E+02 -0.78970270045E+01 -0.12016079372E+03  0.12183236125E+03  0.00000000000E+00 0. -1.
</event>
<event>
 4    1  0.2281973E+005  0.2716792E+02  0.7546771E-02  0.1445929E+00
          2   -1    0    0  503    0  0.00000000000E+00  0.00000000000E+00  0.22763189151E+03  0.22763189151E+03  0.00000000000E+00 0. -1.
         21   -1    0    0  501  502 -0.00000000000E+00 -0.00000000000E+00 -0.60247508184E+01  0.60247508184E+01  0.00000000000E+00 0.  1.
          2    1    1    2  501    0  0.86539673180E+01 -0.25752764456E+02  0.19019559202E+03  0.19212615453E+03  0.00000000000E+00 0. -1.
         21    1    1    2  503  502 -0.86539673180E+01  0.25752764456E+02  0.31411548668E+02  0.41530487803E+02  0.00000000000E+00 0.  1.
</event>
<event>
 4    1  0.2281973E+005  0.3726878E+02  0.7546771E-02  0.1365279E+00
          2   -1    0    0  503    0  0.00000000000E+00  0.00000000000E+00  0.50045685106E+03  0.50045685106E+03  0.00000000000E+00 0.  1.
         21   -1    0    0  501  502 -0.00000000000E+00 -0.00000000000E+00 -0.46208065594E+01  0.46208065594E+01  0.00000000000E+00 0.  1.
          2    1    1    2  501    0  0.36058779394E+02 -0.94194633269E+01  0.88323960316E+02  0.95864924903E+02  0.00000000000E+00 0.  1.
         21    1    1    2  503  502 -0.36058779394E+02  0.94194633269E+01  0.40751208419E+03  0.40921273272E+03  0.00000000000E+00 0.  1.
</event>
<event>
 4    1  0.2281973E+005  0.2158898E+02  0.7546771E-02  0.1511019E+00
          2   -1    0    0  503    0  0.00000000000E+00  0.00000000000E+00  0.50735493627E+03  0.50735493627E+03  0.00000000000E+00 0. -1.
         21   -1    0    0  501  502 -0.00000000000E+00 -0.00000000000E+00 -0.12674156614E+02  0.12674156614E+02  0.00000000000E+00 0.  1.
          2    1    1    2  501    0 -0.10184110217E+02  0.19035962329E+02  0.49775444429E+03  0.49822241095E+03  0.00000000000E+00 0. -1.
         21    1    1    2  503  502  0.10184110217E+02 -0.19035962329E+02 -0.30736646323E+01  0.21806681934E+02  0.00000000000E+00 0.  1.
</event>
<event>
 4    1  0.2281973E+005  0.2032634E+02  0.7546771E-02  0.1529104E+00
          2   -1    0    0  503    0  0.00000000000E+00  0.00000000000E+00  0.13587433326E+04  0.13587433326E+04  0.00000000000E+00 0. -1.
         21   -1    0    0  501  502 -0.00000000000E+00 -0.00000000000E+00 -0.26636139051E+01  0.26636139051E+01  0.00000000000E+00 0.  1.
          2    1    1    2  501    0  0.20245188302E+02 -0.18144606109E+01  0.13187120875E+04  0.13188687310E+04  0.00000000000E+00 0. -1.
         21    1    1    2  503  502 -0.20245188302E+02  0.18144606109E+01  0.37367631221E+02  0.42538215521E+02  0.00000000000E+00 0.  1.
</event>
<event>
 4    1  0.2281973E+005  0.2372731E+02  0.7546771E-02  0.1483562E+00
          2   -1    0    0  503    0  0.00000000000E+00  0.00000000000E+00  0.50011916612E+03  0.50011916612E+03  0.00000000000E+00 0.  1.
         21   -1    0    0  501  502 -0.00000000000E+00 -0.00000000000E+00 -0.11260466258E+01  0.11260466258E+01  0.00000000000E+00 0.  1.
          2    1    1    2  501    0  0.23279207376E+02 -0.45895394007E+01  0.25387818803E+03  0.25498454801E+03  0.00000000000E+00 0.  1.
         21    1    1    2  503  502 -0.23279207376E+02  0.45895394007E+01  0.24511493147E+03  0.24626066474E+03  0.00000000000E+00 0.  1.
</event>
<event>
 4    1  0.2281973E+005  0.2021419E+02  0.7546771E-02  0.1530786E+00
          2   -1    0    0  503    0  0.00000000000E+00  0.00000000000E+00  0.42068693554E+02  0.42068693554E+02  0.00000000000E+00 0.  1.
         21   -1    0    0  501  502 -0.00000000000E+00 -0.00000000000E+00 -0.10355985692E+02  0.10355985692E+02  0.00000000000E+00 0.  1.
          2    1    1    2  501    0 -0.11236483383E+02 -0.16803420814E+02  0.22387785739E+02  0.30163329726E+02  0.00000000000E+00 0.  1.
         21    1    1    2  503  502  0.11236483383E+02  0.16803420814E+02  0.93249221237E+01  0.22261349520E+02  0.00000000000E+00 0.  1.
</event>
<event>
 4    1  0.2281973E+005  0.3582063E+02  0.7546771E-02  0.1374884E+00
          2   -1    0    0  503    0  0.00000000000E+00  0.00000000000E+00  0.30512422873E+03  0.30512422873E+03  0.00000000000E+00 0. -1.
         21   -1    0    0  501  502 -0.00000000000E+00 -0.00000000000E+00 -0.66157785958E+01  0.66157785958E+01  0.00000000000E+00 0.  1.
          2    1    1    2  501    0  0.35093400539E+02 -0.71812774352E+01  0.24334131270E+03  0.24596363953E+03  0.00000000000E+00 0. -1.
         21    1    1    2  503  502 -0.35093400539E+02  0.71812774352E+01  0.55167137435E+02  0.65776367791E+02  0.00000000000E+00 0.  1.
</event>
<event>
 4    1  0.2281973E+005  0.2280516E+02  0.7546771E-02  0.1494959E+00
          2   -1    0    0  503    0  0.00000000000E+00  0.00000000000E+00  0.65094035798E+01  0.65094035798E+01  0.00000000000E+00 0.  1.
         21   -1    0    0  501  502 -0.00000000000E+00 -0.00000000000E+00 -0.25652540271E+03  0.25652540271E+03  0.00000000000E+00 0.  1.
          2    1    1    2  501    0  0.20130824520E+02 -0.10715662930E+02 -0.15876657850E+02  0.27787475459E+02  0.00000000000E+00 0.  1.
         21    1    1    2  503  502 -0.20130824520E+02  0.10715662930E+02 -0.23413934128E+03  0.23524733083E+03  0.00000000000E+00 0.  1.
</event>
<event>
 4    1  0.2281973E+005  0.2962041E+02  0.7546771E-02  0.1422924E+00
          2   -1    0    0  503    0  0.00000000000E+00  0.00000000000E+00  0.11133019588E+04  0.11133019588E+04  0.00000000000E+00 0.  1.
         21   -1    0    0  501  502 -0.00000000000E+00 -0.00000000000E+00 -0.55069221231E+01  0.55069221231E+01  0.00000000000E+00 0.  1.
          2    1    1    2  501    0  0.18919130299E+02 -0.22791119807E+02  0.10717299706E+04  0.10721392160E+04  0.00000000000E+00 0.  1.
         21    1    1    2  503  502 -0.18919130299E+02  0.22791119807E+02  0.36065066161E+02  0.46669664993E+02  0.00000000000E+00 0.  1.
</event>
<event>
 4    1  0.2281973E+005  0.2579797E+02  0.7546771E-02  0.1460071E+00
          2   -1    0    0  503    0  0.00000000000E+00  0.00000000000E+00  0.73255817382E+03  0.73255817382E+03  0.00000000000E+00 0. -1.
         21   -1    0    0  501  502 -0.00000000000E+00 -0.00000000000E+00 -0.21768038163E+01  0.21768038163E+01  0.00000000000E+00 0.  1.
          2    1    1    2  501    0  0.25779975528E+02 -0.96340815897E+00  0.64560570796E+03  0.64612093716E+03  0.00000000000E+00 0. -1.
         21    1    1    2  503  502 -0.25779975528E+02  0.96340815897E+00  0.84775662042E+02  0.88614040469E+02  0.00000000000E+00 0.  1.
</event>
<event>
 4    1  0.2281973E+005  0.2338670E+02  0.7546771E-02  0.1487699E+00
          2   -1    0    0  502    0  0.00000000000E+00  0.00000000000E+00  0.69133029952E+02  0.69133029952E+02  0.00000000000E+00 0. -1.
         21   -1    0    0  503  502 -0.00000000000E+00 -0.00000000000E+00 -0.76990580389E+03  0.76990580389E+03  0.00000000000E+00 0. -1.
          2    1    1    2  501    0  0.22727103475E+02  0.55151092218E+01  0.66972020245E+02  0.70937924679E+02  0.00000000000E+00 0. -1.
         21    1    1    2  503  501 -0.22727103475E+02 -0.55151092218E+01 -0.76774479418E+03  0.76810090916E+03  0.00000000000E+00 0. -1.
</event>
<event>
 4    1  0.2281973E+005  0.2563512E+02  0.7546771E-02  0.1461822E+00
          2   -1    0    0  503    0  0.00000000000E+00  0.00000000000E+00  0.13841035050E+04  0.13841035050E+04  0.00000000000E+00 0.  1.
         21   -1    0    0  501  502 -0.00000000000E+00 -0.00000000000E+00 -0.48370934850E+00  0.48370934850E+00  0.00000000000E+00 0.  1.
          2    1    1    2  501    0 -0.18466349004E+02 -0.17780698097E+02  0.59780485491E+03  0.59835424610E+03  0.00000000000E+00 0.  1.
         21    1    1    2  503  502  0.18466349004E+02  0.17780698097E+02  0.78581494070E+03  0.78623296821E+03  0.00000000000E+00 0.  1.
</event>
<event>
 4    1  0.2281973E+005  0.2110793E+02  0.7546771E-02  0.1517729E+00
          2   -1    0    0  503    0  0.00000000000E+00  0.00000000000E+00  0.24448616377E+02  0.24448616377E+02  0.00000000000E+00 0. -1.
         21   -1    0    0  501  502 -0.00000000000E+00 -0.00000000000E+00 -0.20955767384E+02  0.20955767384E+02  0.00000000000E+00 0. -1.
          2    1    1    2  501    0  0.20642772715E+02 -0.44069053893E+01 -0.64506646856E+01  0.22071609714E+02  0.00000000000E+00 0. -1.
         21    1    1    2  503  502 -0.20642772715E+02  0.44069053893E+01  0.99435136790E+01  0.23332774048E+02  0.00000000000E+00 0. -1.
</event>
<event>
 4    1  0.2281973E+005  0.2329428E+02  0.7546771E-02  0.1488836E+00
          2   -1    0    0  503    0  0.00000000000E+00  0.00000000000E+00  0.27103702487E+02  0.27103702487E+02  0.00000000000E+00 0. -1.
         21   -1    0    0  501  502 -0.00000000000E+00 -0.00000000000E+00 -0.45964599175E+03  0.45964599175E+03  0.00000000000E+00 0.  1.
          2    1    1    2  501    0  0.21669613515E+02 -0.85470164693E+01  0.21744495994E+02  0.31866075166E+02  0.00000000000E+00 0. -1.
         21    1    1    2  503  502 -0.21669613515E+02  0.85470164693E+01 -0.45428678526E+03  0.45488361907E+03  0.00000000000E+00 0.  1.
</event>
<event>
 4    1  0.2281973E+005  0.2356626E+02  0.7546771E-02  0.1485507E+00
          2   -1    0    0  503    0  0.00000000000E+00  0.00000000000E+00  0.94310750916E+02  0.94310750916E+02  0.00000000000E+00 0.  1.
         21   -1    0    0  501  502 -0.00000000000E+00 -0.00000000000E+00 -0.80055198337E+01  0.80055198337E+01  0.00000000000E+00 0.  1.
          2    1    1    2  501    0 -0.20210962794E+02 -0.12119633374E+02  0.69458990345E+02  0.73347937053E+02  0.00000000000E+00 0.  1.
         21    1    1    2  503  502  0.20210962794E+02  0.12119633374E+02  0.16846240737E+02  0.28968333696E+02  0.00000000000E+00 0.  1.
</event>
<event>
 4    1  0.2281973E+005  0.3946315E+02  0.7546771E-02  0.1351661E+00
          2   -1    0    0  502    0  0.00000000000E+00  0.00000000000E+00  0.59529817628E+03  0.59529817628E+03  0.00000000000E+00 0.  1.
         21   -1    0    0  503  502 -0.00000000000E+00 -0.00000000000E+00 -0.20258099619E+02  0.20258099619E+02  0.00000000000E+00 0. -1.
          2    1    1    2  501    0  0.27941308864E+01 -0.39364112381E+02  0.57473873997E+03  0.57609197159E+03  0.00000000000E+00 0.  1.
         21    1    1    2  503  501 -0.27941308864E+01  0.39364112381E+02  0.30133669459E+00  0.39464304311E+02  0.00000000000E+00 0. -1.
</event>
<event>
 4    1  0.2281973E+005  0.3052942E+02  0.7546771E-02  0.1415051E+00
          2   -1    0    0  502    0  0.00000000000E+00  0.00000000000E+00  0.63915191903E+03  0.63915191903E+03  0.00000000000E+00 0. -1.
         21   -1    0    0  503  502 -0.00000000000E+00 -0.00000000000E+00 -0.11246196103E+04  0.11246196103E+04  0.00000000000E+00 0. -1.
          2    1    1    2  501    0  0.30486832718E+02 -0.16120252536E+01  0.63857997887E+03  0.63930934218E+03  0.00000000000E+00 0. -1.
         21    1    1    2  503  501 -0.30486832718E+02  0.16120252536E+01 -0.11240476701E+04  0.11244621871E+04  0.00000000000E+00 0. -1.
</event>
