<event>
 4    1  0.7940509E+003  0.3110733E+02  0.7546771E-02  0.1410212E+00
          2   -1    0    0  502    0  0.00000000000E+00  0.00000000000E+00  0.30498802106E+03  0.30498802106E+03  0.00000000000E+00 0.  1.
          2   -1    0    0  501    0 -0.00000000000E+00 -0.00000000000E+00 -0.31734098612E+02  0.31734098612E+02  0.00000000000E+00 0. -1.
          2    1    1    2  501    0  0.90624224836E+01 -0.29758001678E+02  0.29634999042E+03  0.29797815858E+03  0.00000000000E+00 0.  1.
          2    1    1    2  502    0 -0.90624224836E+01  0.29758001678E+02 -0.23096067977E+02  0.38743961093E+02  0.00000000000E+00 0. -1.
</event>
<event>
 4    1  0.7940509E+003  0.2092996E+02  0.7546771E-02  0.1520267E+00
          2   -1    0    0  501    0  0.00000000000E+00  0.00000000000E+00  0.42757709175E+01  0.42757709175E+01  0.00000000000E+00 0.  1.
          2   -1    0    0  502    0 -0.00000000000E+00 -0.00000000000E+00 -0.10299492524E+03  0.10299492524E+03  0.00000000000E+00 0.  1.
          2    1    1    2  501    0  0.20928250957E+02 -0.26765668153E+00 -0.45467139016E+02  0.50053212270E+02  0.00000000000E+00 0.  1.
          2    1    1    2  502    0 -0.20928250957E+02  0.26765668153E+00 -0.53252015307E+02  0.57217483888E+02  0.00000000000E+00 0.  1.
</event>
<event>
 4    1  0.7940509E+003  0.2140433E+02  0.7546771E-02  0.1513570E+00
          2   -1    0    0  502    0  0.00000000000E+00  0.00000000000E+00  0.53343268632E+01  0.53343268632E+01  0.00000000000E+00 0.  1.
          2   -1    0    0  501    0 -0.00000000000E+00 -0.00000000000E+00 -0.10051740958E+03  0.10051740958E+03  0.00000000000E+00 0.  1.
          2    1    1    2  501    0 -0.11891789906E+01  0.21371272828E+02 -0.27399213404E+02  0.34768697763E+02  0.00000000000E+00 0.  1.
          2    1    1    2  502    0  0.11891789906E+01 -0.21371272828E+02 -0.67783869310E+02  0.71083038678E+02  0.00000000000E+00 0.  1.
</event>
<event>
 4    1  0.7940509E+003  0.2199988E+02  0.7546771E-02  0.1505454E+00
          2   -1    0    0  501    0  0.00000000000E+00  0.00000000000E+00  0.14143316280E+01  0.14143316280E+01  0.00000000000E+00 0. -1.
          2   -1    0    0  502    0 -0.00000000000E+00 -0.00000000000E+00 -0.10250902011E+04  0.10250902011E+04  0.00000000000E+00 0. -1.
          2    1    1    2  501    0 -0.11570822050E+02  0.18711245629E+02 -0.93075007592E+03  0.93101004208E+03  0.00000000000E+00 0. -1.
          2    1    1    2  502    0  0.11570822050E+02 -0.18711245629E+02 -0.92925793516E+02  0.95494490608E+02  0.00000000000E+00 0. -1.
</event>
<event>
 4    1  0.7940509E+003  0.5639837E+02  0.7546771E-02  0.1272586E+00
          2   -1    0    0  502    0  0.00000000000E+00  0.00000000000E+00  0.13239561573E+02  0.13239561573E+02  0.00000000000E+00 0. -1.
          2   -1    0    0  501    0 -0.00000000000E+00 -0.00000000000E+00 -0.37865572902E+03  0.37865572902E+03  0.00000000000E+00 0. -1.
          2    1    1    2  501    0 -0.28379093179E+02  0.48738112482E+02 -0.64240876620E+02  0.85484892039E+02  0.00000000000E+00 0. -1.
          2    1    1    2  502    0  0.28379093179E+02 -0.48738112482E+02 -0.30117529082E+03  0.30641039855E+03  0.00000000000E+00 0. -1.
</event>
<event>
 4    1  0.7940509E+003  0.2164725E+02  0.7546771E-02  0.1510221E+00
          2   -1    0    0  502    0  0.00000000000E+00  0.00000000000E+00  0.10831211752E+02  0.10831211752E+02  0.00000000000E+00 0. -1.
          2   -1    0    0  501    0 -0.00000000000E+00 -0.00000000000E+00 -0.21503034656E+03  0.21503034656E+03  0.00000000000E+00 0.  1.
          2    1    1    2  501    0  0.20357936622E+02 -0.73591986956E+01 -0.11670114755E+01  0.21678683187E+02  0.00000000000E+00 0. -1.
          2    1    1    2  502    0 -0.20357936622E+02  0.73591986956E+01 -0.20303212333E+03  0.20418287512E+03  0.00000000000E+00 0.  1.
</event>
<event>
 4    1  0.7940509E+003  0.2715347E+02  0.7546771E-02  0.1446073E+00
          2   -1    0    0  502    0  0.00000000000E+00  0.00000000000E+00  0.89971457776E+02  0.89971457776E+02  0.00000000000E+00 0. -1.
          2   -1    0    0  501    0 -0.00000000000E+00 -0.00000000000E+00 -0.78849948016E+02  0.78849948016E+02  0.00000000000E+00 0. -1.
          2    1    1    2  501    0  0.14398932036E+02 -0.23021331011E+02  0.85464710281E+02  0.89674565116E+02  0.00000000000E+00 0. -1.
          2    1    1    2  502    0 -0.14398932036E+02  0.23021331011E+02 -0.74343200521E+02  0.79146840676E+02  0.00000000000E+00 0. -1.
</event>
<event>
 4    1  0.7940509E+003  0.2030339E+02  0.7546771E-02  0.1529447E+00
          2   -1    0    0  502    0  0.00000000000E+00  0.00000000000E+00  0.84294633945E+03  0.84294633945E+03  0.00000000000E+00 0.  1.
          2   -1    0    0  501    0 -0.00000000000E+00 -0.00000000000E+00 -0.49117040418E+00  0.49117040418E+00  0.00000000000E+00 0.  1.
          2    1    1    2  501    0 -0.44697693521E+01  0.19805274103E+02  0.39340141703E+03  0.39392499622E+03  0.00000000000E+00 0.  1.
          2    1    1    2  502    0  0.44697693521E+01 -0.19805274103E+02  0.44905375201E+03  0.44951251364E+03  0.00000000000E+00 0.  1.
</event>
<event>
 4    1  0.7940509E+003  0.2805648E+02  0.7546771E-02  0.1437275E+00
          2   -1    0    0  502    0  0.00000000000E+00  0.00000000000E+00  0.15403732054E+03  0.15403732054E+03  0.00000000000E+00 0. -1.
          2   -1    0    0  501    0 -0.00000000000E+00 -0.00000000000E+00 -0.79079236885E+03  0.79079236885E+03  0.00000000000E+00 0.  1.
          2    1    1    2  501    0  0.63656667130E+01  0.27324795000E+02  0.15250843545E+03  0.15506769173E+03  0.00000000000E+00 0. -1.
          2    1    1    2  502    0 -0.63656667130E+01 -0.27324795000E+02 -0.78926348376E+03  0.78976199765E+03  0.00000000000E+00 0.  1.
</event>
<event>
 4    1  0.7940509E+003  0.2271630E+02  0.7546771E-02  0.1496092E+00
          2   -1    0    0  501    0  0.00000000000E+00  0.00000000000E+00  0.99752004327E+01  0.99752004327E+01  0.00000000000E+00 0.  1.
          2   -1    0    0  502    0 -0.00000000000E+00 -0.00000000000E+00 -0.51371928942E+03  0.51371928942E+03  0.00000000000E+00 0. -1.
          2    1    1    2  501    0  0.21021634865E+02 -0.86093615856E+01 -0.50018558801E+03  0.50070116107E+03  0.00000000000E+00 0. -1.
          2    1    1    2  502    0 -0.21021634865E+02  0.86093615856E+01 -0.35585009723E+01  0.22993328782E+02  0.00000000000E+00 0.  1.
</event>
<event>
 4    1  0.7940509E+003  0.4289313E+02  0.7546771E-02  0.1332318E+00
          2   -1    0    0  502    0  0.00000000000E+00  0.00000000000E+00  0.62939961459E+03  0.62939961459E+03  0.00000000000E+00 0.  1.
          2   -1    0    0  501    0 -0.00000000000E+00 -0.00000000000E+00 -0.13589619276E+02  0.13589619276E+02  0.00000000000E+00 0. -1.
          2    1    1    2  501    0 -0.41931555109E+02  0.90313531413E+01  0.59273169205E+03  0.59428164991E+03  0.00000000000E+00 0.  1.
          2    1    1    2  502    0  0.41931555109E+02 -0.90313531413E+01  0.23078303257E+02  0.48707583954E+02  0.00000000000E+00 0. -1.
</event>
<event>
 4    1  0.7940509E+003  0.2020085E+02  0.7546771E-02  0.1530987E+00
          2   -1    0    0  501    0  0.00000000000E+00  0.00000000000E+00  0.81546736338E+03  0.81546736338E+03  0.00000000000E+00 0. -1.
          2   -1    0    0  502    0 -0.00000000000E+00 -0.00000000000E+00 -0.92437469071E+00  0.92437469071E+00  0.00000000000E+00 0.  1.
          2    1    1    2  501    0  0.18883958928E+02  0.71742988941E+01  0.13082863408E+03  0.13237902389E+03  0.00000000000E+00 0.  1.
          2    1    1    2  502    0 -0.18883958928E+02 -0.71742988941E+01  0.68371435460E+03  0.68401271418E+03  0.00000000000E+00 0. -1.
</event>
<event>
 4    1  0.7940509E+003  0.2277295E+02  0.7546771E-02  0.1495369E+00
          2   -1    0    0  502    0  0.00000000000E+00  0.00000000000E+00  0.28952597457E+02  0.28952597457E+02  0.00000000000E+00 0. -1.
          2   -1    0    0  501    0 -0.00000000000E+00 -0.00000000000E+00 -0.46326334292E+03  0.46326334292E+03  0.00000000000E+00 0.  1.
          2    1    1    2  501    0 -0.13094892506E+02  0.18631453728E+02  0.24147755790E+02  0.33192188651E+02  0.00000000000E+00 0. -1.
          2    1    1    2  502    0  0.13094892506E+02 -0.18631453728E+02 -0.45845850126E+03  0.45902375173E+03  0.00000000000E+00 0.  1.
</event>
<event>
 4    1  0.7940509E+003  0.3276733E+02  0.7546771E-02  0.1396978E+00
          2   -1    0    0  501    0  0.00000000000E+00  0.00000000000E+00  0.18499903682E+02  0.18499903682E+02  0.00000000000E+00 0. -1.
          2   -1    0    0  502    0 -0.00000000000E+00 -0.00000000000E+00 -0.28781528151E+03  0.28781528151E+03  0.00000000000E+00 0.  1.
          2    1    1    2  501    0 -0.66550223342E+01  0.32084393176E+02 -0.27150464450E+03  0.27347480614E+03  0.00000000000E+00 0.  1.
          2    1    1    2  502    0  0.66550223342E+01 -0.32084393176E+02  0.21892666721E+01  0.32840379053E+02  0.00000000000E+00 0. -1.
</event>
<event>
 4    1  0.7940509E+003  0.1002006E+03  0.7546771E-02  0.1163461E+00
          2   -1    0    0  502    0  0.00000000000E+00  0.00000000000E+00  0.10076271185E+04  0.10076271185E+04  0.00000000000E+00 0.  1.
          2   -1    0    0  501    0 -0.00000000000E+00 -0.00000000000E+00 -0.10427537188E+02  0.10427537188E+02  0.00000000000E+00 0.  1.
          2    1    1    2  501    0 -0.25901774269E+02 -0.96794936567E+02  0.60590375581E+03  0.61413314758E+03  0.00000000000E+00 0.  1.
          2    1    1    2  502    0  0.25901774269E+02  0.96794936567E+02  0.39129582552E+03  0.40392150812E+03  0.00000000000E+00 0.  1.
</event>
<event>
 4    1  0.7940509E+003  0.4114347E+02  0.7546771E-02  0.1341912E+00
          2   -1    0    0  501    0  0.00000000000E+00  0.00000000000E+00  0.13955600315E+03  0.13955600315E+03  0.00000000000E+00 0. -1.
          2   -1    0    0  502    0 -0.00000000000E+00 -0.00000000000E+00 -0.17761194803E+02  0.17761194803E+02  0.00000000000E+00 0. -1.
          2    1    1    2  501    0  0.23629310572E+02 -0.33681466637E+02  0.16606111792E+02  0.44368327237E+02  0.00000000000E+00 0. -1.
          2    1    1    2  502    0 -0.23629310572E+02  0.33681466637E+02  0.10518869656E+03  0.11294887072E+03  0.00000000000E+00 0. -1.
</event>
<event>
 4    1  0.7940509E+003  0.2125933E+02  0.7546771E-02  0.1515594E+00
          2   -1    0    0  501    0  0.00000000000E+00  0.00000000000E+00  0.13131314331E+03  0.13131314331E+03  0.00000000000E+00 0. -1.
          2   -1    0    0  502    0 -0.00000000000E+00 -0.00000000000E+00 -0.55627689450E+01  0.55627689450E+01  0.00000000000E+00 0. -1.
          2    1    1    2  501    0  0.20603319019E+02  0.52404580911E+01  0.10513371131E+03  0.10726162599E+03  0.00000000000E+00 0. -1.
          2    1    1    2  502    0 -0.20603319019E+02 -0.52404580911E+01  0.20616663055E+02  0.29614286268E+02  0.00000000000E+00 0. -1.
</event>
<event>
 4    1  0.7940509E+003  0.2589687E+02  0.7546771E-02  0.1459015E+00
          2   -1    0    0  501    0  0.00000000000E+00  0.00000000000E+00  0.57493140705E+01  0.57493140705E+01  0.00000000000E+00 0.  1.
          2   -1    0    0  502    0 -0.00000000000E+00 -0.00000000000E+00 -0.47055966947E+03  0.47055966947E+03  0.00000000000E+00 0.  1.
          2    1    1    2  501    0 -0.25688986016E+02  0.32746998065E+01 -0.43894256970E+03  0.43970584162E+03  0.00000000000E+00 0.  1.
          2    1    1    2  502    0  0.25688986016E+02 -0.32746998065E+01 -0.25867785700E+02  0.36603141919E+02  0.00000000000E+00 0.  1.
</event>
<event>
 4    1  0.7940509E+003  0.3471260E+02  0.7546771E-02  0.1382595E+00
          2   -1    0    0  502    0  0.00000000000E+00  0.00000000000E+00  0.60378994191E+01  0.60378994191E+01  0.00000000000E+00 0.  1.
          2   -1    0    0  501    0 -0.00000000000E+00 -0.00000000000E+00 -0.15237122083E+04  0.15237122083E+04  0.00000000000E+00 0. -1.
          2    1    1    2  501    0 -0.26728409105E+02 -0.22148510509E+02 -0.45808702624E+02  0.57475226029E+02  0.00000000000E+00 0.  1.
          2    1    1    2  502    0  0.26728409105E+02  0.22148510509E+02 -0.14718656063E+04  0.14722748817E+04  0.00000000000E+00 0. -1.
</event>
<event>
 4    1  0.7940509E+003  0.2220339E+02  0.7546771E-02  0.1502751E+00
          2   -1    0    0  502    0  0.00000000000E+00  0.00000000000E+00  0.87544956259E+03  0.87544956259E+03  0.00000000000E+00 0. -1.
          2   -1    0    0  501    0 -0.00000000000E+00 -0.00000000000E+00 -0.47104998667E+01  0.47104998667E+01  0.00000000000E+00 0.  1.
          2    1    1    2  501    0  0.53359000045E+01  0.21552698147E+02  0.84830731808E+03  0.84859784147E+03  0.00000000000E+00 0. -1.
          2    1    1    2  502    0 -0.53359000045E+01 -0.21552698147E+02  0.22431744638E+02  0.31562220989E+02  0.00000000000E+00 0.  1.
</event>
<event>
 4    1  0.7940509E+003  0.2048066E+02  0.7546771E-02  0.1526810E+00
          2   -1    0    0  502    0  0.00000000000E+00  0.00000000000E+00  0.13431513027E+03  0.13431513027E+03  0.00000000000E+00 0. -1.
          2   -1    0    0  501    0 -0.00000000000E+00 -0.00000000000E+00 -0.36558653681E+03  0.36558653681E+03  0.00000000000E+00 0. -1.
          2    1    1    2  501    0  0.18830270017E+02  0.80547148397E+01  0.13324526799E+03  0.13481008472E+03  0.00000000000E+00 0. -1.
          2    1    1    2  502    0 -0.18830270017E+02 -0.80547148397E+01 -0.36451667453E+03  0.36509158236E+03  0.00000000000E+00 0. -1.
</event>
<event>
 4    1  0.7940509E+003  0.6423765E+02  0.7546771E-02  0.1246077E+00
          2   -1    0    0  502    0  0.00000000000E+00  0.00000000000E+00  0.29856370899E+02  0.29856370899E+02  0.00000000000E+00 0.  1.
          2   -1    0    0  501    0 -0.00000000000E+00 -0.00000000000E+00 -0.62204625295E+03  0.62204625295E+03  0.00000000000E+00 0.  1.
          2    1    1    2  501    0 -0.53981336282E+02 -0.34820838263E+02 -0.86264825723E+01  0.64814285815E+02  0.00000000000E+00 0.  1.
          2    1    1    2  502    0  0.53981336282E+02  0.34820838263E+02 -0.58356339948E+03  0.58708833803E+03  0.00000000000E+00 0.  1.
</event>
<event>
 4    1  0.7940509E+003  0.2230662E+02  0.7546771E-02  0.1501393E+00
          2   -1    0    0  501    0  0.00000000000E+00  0.00000000000E+00  0.60891835074E+02  0.60891835074E+02  0.00000000000E+00 0.  1.
          2   -1    0    0  502    0 -0.00000000000E+00 -0.00000000000E+00 -0.26821504630E+02  0.26821504630E+02  0.00000000000E+00 0.  1.
          2    1    1    2  501    0  0.13695545121E+02 -0.17607313156E+02 -0.19535432863E+02  0.29651620021E+02  0.00000000000E+00 0.  1.
          2    1    1    2  502    0 -0.13695545121E+02  0.17607313156E+02  0.53605763307E+02  0.58061719682E+02  0.00000000000E+00 0.  1.
</event>
<event>
 4    1  0.7940509E+003  0.2557544E+02  0.7546771E-02  0.1462468E+00
          2   -1    0    0  502    0  0.00000000000E+00  0.00000000000E+00  0.16992265651E+03  0.16992265651E+03  0.00000000000E+00 0. -1.
          2   -1    0    0  501    0 -0.00000000000E+00 -0.00000000000E+00 -0.34536766740E+02  0.34536766740E+02  0.00000000000E+00 0. -1.
          2    1    1    2  501    0 -0.65869716380E+01  0.24712648081E+02  0.16405720432E+03  0.16603875891E+03  0.00000000000E+00 0. -1.
          2    1    1    2  502    0  0.65869716380E+01 -0.24712648081E+02 -0.28671314549E+02  0.38420664342E+02  0.00000000000E+00 0. -1.
</event>
<event>
 4    1  0.7940509E+003  0.3232043E+02  0.7546771E-02  0.1400448E+00
          2   -1    0    0  501    0  0.00000000000E+00  0.00000000000E+00  0.13236401387E+04  0.13236401387E+04  0.00000000000E+00 0.  1.
          2   -1    0    0  502    0 -0.00000000000E+00 -0.00000000000E+00 -0.76070312461E+01  0.76070312461E+01  0.00000000000E+00 0.  1.
          2    1    1    2  501    0  0.23018924383E+02  0.22687860788E+02  0.27865899732E+02  0.42674562385E+02  0.00000000000E+00 0.  1.
          2    1    1    2  502    0 -0.23018924383E+02 -0.22687860788E+02  0.12881672077E+04  0.12885726076E+04  0.00000000000E+00 0.  1.
</event>
<event>
 4    1  0.7940509E+003  0.4428116E+02  0.7546771E-02  0.1325073E+00
          2   -1    0    0  502    0  0.00000000000E+00  0.00000000000E+00  0.29719513980E+04  0.29719513980E+04  0.00000000000E+00 0.  1.
          2   -1    0    0  501    0 -0.00000000000E+00 -0.00000000000E+00 -0.17639952966E+01  0.17639952966E+01  0.00000000000E+00 0. -1.
          2    1    1    2  501    0 -0.43823295564E+02  0.63513561769E+01  0.26614758959E+04  0.26618442414E+04  0.00000000000E+00 0.  1.
          2    1    1    2  502    0  0.43823295564E+02 -0.63513561769E+01  0.30871150681E+03  0.31187115192E+03  0.00000000000E+00 0. -1.
</event>
<event>
 4    1  0.7940509E+003  0.3965896E+02  0.7546771E-02  0.1350496E+00
          2   -1    0    0  501    0  0.00000000000E+00  0.00000000000E+00  0.62550855237E+02  0.62550855237E+02  0.00000000000E+00 0. -1.
          2   -1    0    0  502    0 -0.00000000000E+00 -0.00000000000E+00 -0.72955224630E+03  0.72955224630E+03  0.00000000000E+00 0.  1.
          2    1    1    2  501    0 -0.29506524235E+02  0.26499026533E+02 -0.72266721023E+03  0.72375460628E+03  0.00000000000E+00 0.  1.
          2    1    1    2  502    0  0.29506524235E+02 -0.26499026533E+02  0.55665819166E+02  0.68348495251E+02  0.00000000000E+00 0. -1.
</event>
<event>
 4    1  0.7940509E+003  0.2048653E+02  0.7546771E-02  0.1526724E+00
          2   -1    0    0  501    0  0.00000000000E+00  0.00000000000E+00  0.52924857276E+01  0.52924857276E+01  0.00000000000E+00 0. -1.
          2   -1    0    0  502    0 -0.00000000000E+00 -0.00000000000E+00 -0.83899512419E+02  0.83899512419E+02  0.00000000000E+00 0. -1.
          2    1    1    2  501    0 -0.59204728505E+01  0.19612395174E+02 -0.49744392322E+02  0.53797793735E+02  0.00000000000E+00 0. -1.
          2    1    1    2  502    0  0.59204728505E+01 -0.19612395174E+02 -0.28862634369E+02  0.35394204412E+02  0.00000000000E+00 0. -1.
</event>
<event>
 4    1  0.7940509E+003  0.2799892E+02  0.7546771E-02  0.1437824E+00
          2   -1    0    0  502    0  0.00000000000E+00  0.00000000000E+00  0.38401687216E+01  0.38401687216E+01  0.00000000000E+00 0. -1.
          2   -1    0    0  501    0 -0.00000000000E+00 -0.00000000000E+00 -0.95722594496E+03  0.95722594496E+03  0.00000000000E+00 0. -1.
          2    1    1    2  501    0  0.27893218249E+02  0.24305627315E+01 -0.50469018513E+02  0.57715345353E+02  0.00000000000E+00 0. -1.
          2    1    1    2  502    0 -0.27893218249E+02 -0.24305627315E+01 -0.90291675773E+03  0.90335076833E+03  0.00000000000E+00 0. -1.
</event>
<event>
 4    1  0.7940509E+003  0.2415127E+02  0.7546771E-02  0.1478526E+00
          2   -1    0    0  502    0  0.00000000000E+00  0.00000000000E+00  0.38456443395E+03  0.38456443395E+03  0.00000000000E+00 0.  1.
          2   -1    0    0  501    0 -0.00000000000E+00 -0.00000000000E+00 -0.33228643653E+02  0.33228643653E+02  0.00000000000E+00 0.  1.
          2    1    1    2  501    0  0.74250244465E+01 -0.22981577674E+02  0.37974115415E+03  0.38050838106E+03  0.00000000000E+00 0.  1.
          2    1    1    2  502    0 -0.74250244465E+01  0.22981577674E+02 -0.28405363857E+02  0.37284696542E+02  0.00000000000E+00 0.  1.
</event>
<event>
 4    1  0.7940509E+003  0.2175895E+02  0.7546771E-02  0.1508699E+00
          2   -1    0    0  502    0  0.00000000000E+00  0.00000000000E+00  0.13589495835E+01  0.13589495835E+01  0.00000000000E+00 0.  1.
          2   -1    0    0  501    0 -0.00000000000E+00 -0.00000000000E+00 -0.81962964310E+03  0.81962964310E+03  0.00000000000E+00 0. -1.
          2    1    1    2  501    0 -0.18533276807E+02 -0.11400426709E+02 -0.97880143941E+02  0.10026951010E+03  0.00000000000E+00 0.  1.
          2    1    1    2  502    0  0.18533276807E+02  0.11400426709E+02 -0.72039054957E+03  0.72071908258E+03  0.00000000000E+00 0. -1.
</event>
<event>
 4    1  0.7940509E+003  0.2278352E+02  0.7546771E-02  0.1495235E+00
          2   -1    0    0  502    0  0.00000000000E+00  0.00000000000E+00  0.12075029311E+04  0.12075029311E+04  0.00000000000E+00 0. -1.
          2   -1    0    0  501    0 -0.00000000000E+00 -0.00000000000E+00 -0.14976462370E+01  0.14976462370E+01  0.00000000000E+00 0.  1.
          2    1    1    2  501    0  0.56754143330E+01  0.22065324789E+02  0.11134238580E+04  0.11136569384E+04  0.00000000000E+00 0. -1.
          2    1    1    2  502    0 -0.56754143330E+01 -0.22065324789E+02  0.92581426928E+02  0.95343639000E+02  0.00000000000E+00 0.  1.
</event>
<event>
 4    1  0.7940509E+003  0.3579332E+02  0.7546771E-02  0.1375070E+00
          2   -1    0    0  502    0  0.00000000000E+00  0.00000000000E+00  0.18923856115E+03  0.18923856115E+03  0.00000000000E+00 0.  1.
          2   -1    0    0  501    0 -0.00000000000E+00 -0.00000000000E+00 -0.10736185153E+02  0.10736185153E+02  0.00000000000E+00 0. -1.
          2    1    1    2  501    0  0.17394055352E+02 -0.31282723083E+02  0.15002294255E+03  0.15423373566E+03  0.00000000000E+00 0.  1.
          2    1    1    2  502    0 -0.17394055352E+02  0.31282723083E+02  0.28479433452E+02  0.45741010644E+02  0.00000000000E+00 0. -1.
</event>
<event>
 4    1  0.7940509E+003  0.3865022E+02  0.7546771E-02  0.1356582E+00
          2   -1    0    0  502    0  0.00000000000E+00  0.00000000000E+00  0.43893456572E+03  0.43893456572E+03  0.00000000000E+00 0. -1.
          2   -1    0    0  501    0 -0.00000000000E+00 -0.00000000000E+00 -0.61681671621E+02  0.61681671621E+02  0.00000000000E+00 0.  1.
          2    1    1    2  501    0  0.21233219276E+02  0.32295355435E+02  0.43193112417E+03  0.43365693308E+03  0.00000000000E+00 0. -1.
          2    1    1    2  502    0 -0.21233219276E+02 -0.32295355435E+02 -0.54678230070E+02  0.66959304261E+02  0.00000000000E+00 0.  1.
</event>
<event>
 4    1  0.7940509E+003  0.2953737E+02  0.7546771E-02  0.1423660E+00
          2   -1    0    0  501    0  0.00000000000E+00  0.00000000000E+00  0.32584083235E+03  0.32584083235E+03  0.00000000000E+00 0.  1.
          2   -1    0    0  502    0 -0.00000000000E+00 -0.00000000000E+00 -0.13334587309E+03  0.13334587309E+03  0.00000000000E+00 0. -1.
          2    1    1    2  501    0  0.29498060965E+02 -0.15234089261E+01 -0.13102909369E+03  0.13431708665E+03  0.00000000000E+00 0. -1.
          2    1    1    2  502    0 -0.29498060965E+02  0.15234089261E+01  0.32352405294E+03  0.32486961878E+03  0.00000000000E+00 0.  1.
</event>
<event>
 4    1  0.7940509E+003  0.5817473E+02  0.7546771E-02  0.1266164E+00
          2   -1    0    0  502    0  0.00000000000E+00  0.00000000000E+00  0.12705581784E+03  0.12705581784E+03  0.00000000000E+00 0. -1.
          2   -1    0    0  501    0 -0.00000000000E+00 -0.00000000000E+00 -0.53413311825E+02  0.53413311825E+02  0.00000000000E+00 0.  1.
          2    1    1    2  501    0 -0.37158667961E+02  0.44760834124E+02  0.10071069613E+03  0.11630538762E+03  0.00000000000E+00 0. -1.
          2    1    1    2  502    0  0.37158667961E+02 -0.44760834124E+02 -0.27068190115E+02  0.64163742037E+02  0.00000000000E+00 0.  1.
</event>
<event>
 4    1  0.7940509E+003  0.2321302E+02  0.7546771E-02  0.1489840E+00
          2   -1    0    0  501    0  0.00000000000E+00  0.00000000000E+00  0.71819110673E+02  0.71819110673E+02  0.00000000000E+00 0.  1.
          2   -1    0    0  502    0 -0.00000000000E+00 -0.00000000000E+00 -0.10483638487E+04  0.10483638487E+04  0.00000000000E+00 0.  1.
          2    1    1    2  501    0  0.16470282621E+01 -0.23154518107E+02 -0.10463560535E+04  0.10466135080E+04  0.00000000000E+00 0.  1.
          2    1    1    2  502    0 -0.16470282621E+01  0.23154518107E+02  0.69811315465E+02  0.73569451390E+02  0.00000000000E+00 0.  1.
</event>
<event>
 4    1  0.7940509E+003  0.2327132E+02  0.7546771E-02  0.1489119E+00
          2   -1    0    0  501    0  0.00000000000E+00  0.00000000000E+00  0.68242757018E+01  0.68242757018E+01  0.00000000000E+00 0. -1.
          2   -1    0    0  502    0 -0.00000000000E+00 -0.00000000000E+00 -0.15582662205E+03  0.15582662205E+03  0.00000000000E+00 0.  1.
          2    1    1    2  501    0 -0.14493502212E+02 -0.18206940598E+02 -0.13147167049E+03  0.13351537153E+03  0.00000000000E+00 0.  1.
          2    1    1    2  502    0  0.14493502212E+02  0.18206940598E+02 -0.17530675853E+02  0.29135526221E+02  0.00000000000E+00 0. -1.
</event>
<event>
 4    1  0.7940509E+003  0.2621152E+02  0.7546771E-02  0.1455693E+00
          2   -1    0    0  502    0  0.00000000000E+00  0.00000000000E+00  0.22824855439E+02  0.22824855439E+02  0.00000000000E+00 0.  1.
          2   -1    0    0  501    0 -0.00000000000E+00 -0.00000000000E+00 -0.11159298221E+03  0.11159298221E+03  0.00000000000E+00 0. -1.
          2    1    1    2  501    0 -0.36700212703E+01 -0.25953316656E+02  0.13049631537E+02  0.29280310531E+02  0.00000000000E+00 0.  1.
          2    1    1    2  502    0  0.36700212703E+01  0.25953316656E+02 -0.10181775830E+03  0.10513752711E+03  0.00000000000E+00 0. -1.
</event>
<event>
 4    1  0.7940509E+003  0.2587027E+02  0.7546771E-02  0.1459299E+00
          2   -1    0    0  501    0  0.00000000000E+00  0.00000000000E+00  0.38674203213E+02  0.38674203213E+02  0.00000000000E+00 0.  1.
          2   -1    0    0  502    0 -0.00000000000E+00 -0.00000000000E+00 -0.16123096725E+03  0.16123096725E+03  0.00000000000E+00 0.  1.
          2    1    1    2  501    0 -0.19288354599E+02 -0.17240365864E+02 -0.15571465604E+03  0.15784905747E+03  0.00000000000E+00 0.  1.
          2    1    1    2  502    0  0.19288354599E+02  0.17240365864E+02  0.33157892002E+02  0.42056112995E+02  0.00000000000E+00 0.  1.
</event>
<event>
 4    1  0.7940509E+003  0.3697758E+02  0.7546771E-02  0.1367169E+00
          2   -1    0    0  502    0  0.00000000000E+00  0.00000000000E+00  0.38622910306E+01  0.38622910306E+01  0.00000000000E+00 0. -1.
          2   -1    0    0  501    0 -0.00000000000E+00 -0.00000000000E+00 -0.49047506549E+03  0.49047506549E+03  0.00000000000E+00 0.  1.
          2    1    1    2  501    0  0.21868429772E+02 -0.29818000420E+02 -0.11293736684E+03  0.11883682173E+03  0.00000000000E+00 0. -1.
          2    1    1    2  502    0 -0.21868429772E+02  0.29818000420E+02 -0.37367540761E+03  0.37550053479E+03  0.00000000000E+00 0.  1.
</event>
<event>
 4    1  0.7940509E+003  0.4938961E+02  0.7546771E-02  0.1300841E+00
          2   -1    0    0  501    0  0.00000000000E+00  0.00000000000E+00  0.10237207106E+04  0.10237207106E+04  0.00000000000E+00 0.  1.
          2   -1    0    0  502    0 -0.00000000000E+00 -0.00000000000E+00 -0.53952301633E+01  0.53952301633E+01  0.00000000000E+00 0. -1.
          2    1    1    2  501    0  0.49386286569E+02  0.57255059565E+00  0.12467100227E+03  0.13409769544E+03  0.00000000000E+00 0. -1.
          2    1    1    2  502    0 -0.49386286569E+02 -0.57255059565E+00  0.89365447816E+03  0.89501824532E+03  0.00000000000E+00 0.  1.
</event>
<event>
 4    1  0.7940509E+003  0.2570904E+02  0.7546771E-02  0.1461025E+00
          2   -1    0    0  501    0  0.00000000000E+00  0.00000000000E+00  0.65805704745E+00  0.65805704745E+00  0.00000000000E+00 0.  1.
          2   -1    0    0  502    0 -0.00000000000E+00 -0.00000000000E+00 -0.12182276008E+04  0.12182276008E+04  0.00000000000E+00 0.  1.
          2    1    1    2  501    0  0.24503757024E+02 -0.77795099244E+01 -0.86411189711E+03  0.86449426003E+03  0.00000000000E+00 0.  1.
          2    1    1    2  502    0 -0.24503757024E+02  0.77795099244E+01 -0.35345764664E+03  0.35439139782E+03  0.00000000000E+00 0.  1.
</event>
<event>
 4    1  0.7940509E+003  0.2868321E+02  0.7546771E-02  0.1431395E+00
          2   -1    0    0  502    0  0.00000000000E+00  0.00000000000E+00  0.26930245458E+02  0.26930245458E+02  0.00000000000E+00 0.  1.
          2   -1    0    0  501    0 -0.00000000000E+00 -0.00000000000E+00 -0.40808209041E+02  0.40808209041E+02  0.00000000000E+00 0. -1.
          2    1    1    2  501    0  0.33180385997E+01  0.28490646851E+02 -0.23919913826E+02  0.37348207662E+02  0.00000000000E+00 0. -1.
          2    1    1    2  502    0 -0.33180385997E+01 -0.28490646851E+02  0.10041950243E+02  0.30390246837E+02  0.00000000000E+00 0.  1.
</event>
<event>
 4    1  0.7940509E+003  0.2372833E+02  0.7546771E-02  0.1483550E+00
          2   -1    0    0  502    0  0.00000000000E+00  0.00000000000E+00  0.84219480703E+02  0.84219480703E+02  0.00000000000E+00 0.  1.
          2   -1    0    0  501    0 -0.00000000000E+00 -0.00000000000E+00 -0.35250096799E+03  0.35250096799E+03  0.00000000000E+00 0. -1.
          2    1    1    2  501    0  0.93541945720E+01  0.21806706610E+02  0.82138927776E+02  0.85497583974E+02  0.00000000000E+00 0.  1.
          2    1    1    2  502    0 -0.93541945720E+01 -0.21806706610E+02 -0.35042041507E+03  0.35122286472E+03  0.00000000000E+00 0. -1.
</event>
<event>
 4    1  0.7940509E+003  0.2633611E+02  0.7546771E-02  0.1454393E+00
          2   -1    0    0  501    0  0.00000000000E+00  0.00000000000E+00  0.18724873354E+02  0.18724873354E+02  0.00000000000E+00 0. -1.
          2   -1    0    0  502    0 -0.00000000000E+00 -0.00000000000E+00 -0.15309871835E+04  0.15309871835E+04  0.00000000000E+00 0.  1.
          2    1    1    2  501    0 -0.11082872103E+02  0.23890592761E+02 -0.15215562493E+04  0.15217841536E+04  0.00000000000E+00 0.  1.
          2    1    1    2  502    0  0.11082872103E+02 -0.23890592761E+02  0.92939391088E+01  0.27927903263E+02  0.00000000000E+00 0. -1.
</event>
<event>
 4    1  0.7940509E+003  0.7765695E+02  0.7546771E-02  0.1209394E+00
          2   -1    0    0  502    0  0.00000000000E+00  0.00000000000E+00  0.11830980925E+02  0.11830980925E+02  0.00000000000E+00 0. -1.
          2   -1    0    0  501    0 -0.00000000000E+00 -0.00000000000E+00 -0.52581331986E+03  0.52581331986E+03  0.00000000000E+00 0. -1.
          2    1    1    2  501    0 -0.68232806753E+02 -0.37079449090E+02 -0.30400679088E+03  0.31376859365E+03  0.00000000000E+00 0. -1.
          2    1    1    2  502    0  0.68232806753E+02  0.37079449090E+02 -0.20997554806E+03  0.22387570713E+03  0.00000000000E+00 0. -1.
</event>
<event>
 4    1  0.7940509E+003  0.2211387E+02  0.7546771E-02  0.1503935E+00
          2   -1    0    0  501    0  0.00000000000E+00  0.00000000000E+00  0.15600064903E+03  0.15600064903E+03  0.00000000000E+00 0. -1.
          2   -1    0    0  502    0 -0.00000000000E+00 -0.00000000000E+00 -0.68811686484E+01  0.68811686484E+01  0.00000000000E+00 0. -1.
          2    1    1    2  501    0 -0.17679605459E+02 -0.13283630564E+02  0.14467337504E+02  0.26425880205E+02  0.00000000000E+00 0. -1.
          2    1    1    2  502    0  0.17679605459E+02  0.13283630564E+02  0.13465214288E+03  0.13645593747E+03  0.00000000000E+00 0. -1.
</event>
<event>
 4    1  0.7940509E+003  0.3735139E+02  0.7546771E-02  0.1364747E+00
          2   -1    0    0  501    0  0.00000000000E+00  0.00000000000E+00  0.11006327237E+03  0.11006327237E+03  0.00000000000E+00 0. -1.
          2   -1    0    0  502    0 -0.00000000000E+00 -0.00000000000E+00 -0.13902037872E+03  0.13902037872E+03  0.00000000000E+00 0. -1.
          2    1    1    2  501    0 -0.44531851574E+01 -0.37084972421E+02 -0.13320692660E+03  0.13834453850E+03  0.00000000000E+00 0. -1.
          2    1    1    2  502    0  0.44531851574E+01  0.37084972421E+02  0.10424982025E+03  0.11073911260E+03  0.00000000000E+00 0. -1.
</event>
<event>
 4    1  0.7940509E+003  0.2493400E+02  0.7546771E-02  0.1469543E+00
          2   -1    0    0  501    0  0.00000000000E+00  0.00000000000E+00  0.19200465539E+04  0.19200465539E+04  0.00000000000E+00 0.  1.
          2   -1    0    0  502    0 -0.00000000000E+00 -0.00000000000E+00 -0.54165773796E+00  0.54165773796E+00  0.00000000000E+00 0.  1.
          2    1    1    2  501    0 -0.36846184974E+01  0.24660246973E+02  0.35073202895E+03  0.35161720710E+03  0.00000000000E+00 0.  1.
          2    1    1    2  502    0  0.36846184974E+01 -0.24660246973E+02  0.15687728672E+04  0.15689710045E+04  0.00000000000E+00 0.  1.
</event>
<event>
 4    1  0.7940509E+003  0.2876496E+02  0.7546771E-02  0.1430641E+00
          2   -1    0    0  502    0  0.00000000000E+00  0.00000000000E+00  0.11949949279E+01  0.11949949279E+01  0.00000000000E+00 0.  1.
          2   -1    0    0  501    0 -0.00000000000E+00 -0.00000000000E+00 -0.19391873624E+04  0.19391873624E+04  0.00000000000E+00 0. -1.
          2    1    1    2  501    0  0.24741924907E+02  0.14671744140E+02 -0.19106281298E+03  0.19321599683E+03  0.00000000000E+00 0.  1.
          2    1    1    2  502    0 -0.24741924907E+02 -0.14671744140E+02 -0.17469295545E+04  0.17471663605E+04  0.00000000000E+00 0. -1.
</event>
<event>
 4    1  0.7940509E+003  0.2294525E+02  0.7546771E-02  0.1493187E+00
          2   -1    0    0  502    0  0.00000000000E+00  0.00000000000E+00  0.15187315295E+02  0.15187315295E+02  0.00000000000E+00 0. -1.
          2   -1    0    0  501    0 -0.00000000000E+00 -0.00000000000E+00 -0.12379038413E+03  0.12379038413E+03  0.00000000000E+00 0. -1.
          2    1    1    2  501    0 -0.22518610971E+02 -0.44041571684E+01  0.46601365477E+01  0.23413699261E+02  0.00000000000E+00 0. -1.
          2    1    1    2  502    0  0.22518610971E+02  0.44041571684E+01 -0.11326320538E+03  0.11556400016E+03  0.00000000000E+00 0. -1.
</event>
<event>
 4    1  0.7940509E+003  0.9940278E+02  0.7546771E-02  0.1164847E+00
          2   -1    0    0  502    0  0.00000000000E+00  0.00000000000E+00  0.41894718299E+03  0.41894718299E+03  0.00000000000E+00 0.  1.
          2   -1    0    0  501    0 -0.00000000000E+00 -0.00000000000E+00 -0.86493805369E+02  0.86493805369E+02  0.00000000000E+00 0. -1.
          2    1    1    2  501    0 -0.20310756032E+02 -0.97305628991E+02  0.38175450331E+03  0.39448372975E+03  0.00000000000E+00 0.  1.
          2    1    1    2  502    0  0.20310756032E+02  0.97305628991E+02 -0.49301125684E+02  0.11095725861E+03  0.00000000000E+00 0. -1.
</event>
<event>
 4    1  0.7940509E+003  0.2921553E+02  0.7546771E-02  0.1426538E+00
          2   -1    0    0  502    0  0.00000000000E+00  0.00000000000E+00  0.10284081719E+04  0.10284081719E+04  0.00000000000E+00 0. -1.
          2   -1    0    0  501    0 -0.00000000000E+00 -0.00000000000E+00 -0.89332385971E+01  0.89332385971E+01  0.00000000000E+00 0. -1.
          2    1    1    2  501    0 -0.17606555080E+02  0.23314301340E+02  0.10037265858E+04  0.10041516850E+04  0.00000000000E+00 0. -1.
          2    1    1    2  502    0  0.17606555080E+02 -0.23314301340E+02  0.15748347466E+02  0.33189725469E+02  0.00000000000E+00 0. -1.
</event>
<event>
 4    1  0.7940509E+003  0.2828936E+02  0.7546771E-02  0.1435069E+00
          2   -1    0    0  502    0  0.00000000000E+00  0.00000000000E+00  0.10267963238E+04  0.10267963238E+04  0.00000000000E+00 0. -1.
          2   -1    0    0  501    0 -0.00000000000E+00 -0.00000000000E+00 -0.20282966808E+01  0.20282966808E+01  0.00000000000E+00 0.  1.
          2    1    1    2  501    0  0.11416472428E+02  0.25883429346E+02  0.91603722413E+03  0.91647394057E+03  0.00000000000E+00 0. -1.
          2    1    1    2  502    0 -0.11416472428E+02 -0.25883429346E+02  0.10873080303E+03  0.11235067995E+03  0.00000000000E+00 0.  1.
</event>
<event>
 4    1  0.7940509E+003  0.2691959E+02  0.7546771E-02  0.1448418E+00
          2   -1    0    0  501    0  0.00000000000E+00  0.00000000000E+00  0.84460554363E+00  0.84460554363E+00  0.00000000000E+00 0.  1.
          2   -1    0    0  502    0 -0.00000000000E+00 -0.00000000000E+00 -0.86046463482E+03  0.86046463482E+03  0.00000000000E+00 0.  1.
          2    1    1    2  501    0 -0.13643634553E+02 -0.23205936402E+02 -0.45289873816E+03  0.45369806179E+03  0.00000000000E+00 0.  1.
          2    1    1    2  502    0  0.13643634553E+02  0.23205936402E+02 -0.40672129111E+03  0.40761117857E+03  0.00000000000E+00 0.  1.
</event>
<event>
 4    1  0.7940509E+003  0.2068134E+02  0.7546771E-02  0.1523864E+00
          2   -1    0    0  501    0  0.00000000000E+00  0.00000000000E+00  0.67000775721E+00  0.67000775721E+00  0.00000000000E+00 0.  1.
          2   -1    0    0  502    0 -0.00000000000E+00 -0.00000000000E+00 -0.93283289556E+03  0.93283289556E+03  0.00000000000E+00 0. -1.
          2    1    1    2  501    0  0.10184261521E+02 -0.17999960660E+02 -0.72831824046E+03  0.72861181513E+03  0.00000000000E+00 0. -1.
          2    1    1    2  502    0 -0.10184261521E+02  0.17999960660E+02 -0.20384464734E+03  0.20489108818E+03  0.00000000000E+00 0.  1.
</event>
<event>
 4    1  0.7940509E+003  0.3552111E+02  0.7546771E-02  0.1376936E+00
          2   -1    0    0  502    0  0.00000000000E+00  0.00000000000E+00  0.32426626447E+03  0.32426626447E+03  0.00000000000E+00 0.  1.
          2   -1    0    0  501    0 -0.00000000000E+00 -0.00000000000E+00 -0.84092792834E+01  0.84092792834E+01  0.00000000000E+00 0. -1.
          2    1    1    2  501    0 -0.68938447927E-01  0.35521040589E+02  0.27985376182E+03  0.28209905544E+03  0.00000000000E+00 0.  1.
          2    1    1    2  502    0  0.68938447927E-01 -0.35521040589E+02  0.36003223366E+02  0.50576488310E+02  0.00000000000E+00 0. -1.
</event>
<event>
 4    1  0.7940509E+003  0.2166344E+02  0.7546771E-02  0.1510000E+00
          2   -1    0    0  502    0  0.00000000000E+00  0.00000000000E+00  0.12488634062E+03  0.12488634062E+03  0.00000000000E+00 0. -1.
          2   -1    0    0  501    0 -0.00000000000E+00 -0.00000000000E+00 -0.73393148725E+01  0.73393148725E+01  0.00000000000E+00 0.  1.
          2    1    1    2  501    0  0.18691105021E+02  0.10952032240E+02  0.10495715550E+03  0.10716953349E+03  0.00000000000E+00 0. -1.
          2    1    1    2  502    0 -0.18691105021E+02 -0.10952032240E+02  0.12589870245E+02  0.25056122004E+02  0.00000000000E+00 0.  1.
</event>
<event>
 4    1  0.7940509E+003  0.5602174E+02  0.7546771E-02  0.1273983E+00
          2   -1    0    0  501    0  0.00000000000E+00  0.00000000000E+00  0.32050324033E+02  0.32050324033E+02  0.00000000000E+00 0. -1.
          2   -1    0    0  502    0 -0.00000000000E+00 -0.00000000000E+00 -0.52900295662E+03  0.52900295662E+03  0.00000000000E+00 0. -1.
          2    1    1    2  501    0  0.40667976887E+02  0.38529873634E+02 -0.50171171981E+03  0.50482975873E+03  0.00000000000E+00 0. -1.
          2    1    1    2  502    0 -0.40667976887E+02 -0.38529873634E+02  0.47590872214E+01  0.56223521924E+02  0.00000000000E+00 0. -1.
</event>
<event>
 4    1  0.7940509E+003  0.4063954E+02  0.7546771E-02  0.1344778E+00
          2   -1    0    0  502    0  0.00000000000E+00  0.00000000000E+00  0.97455983336E+01  0.97455983336E+01  0.00000000000E+00 0. -1.
          2   -1    0    0  501    0 -0.00000000000E+00 -0.00000000000E+00 -0.17137407202E+03  0.17137407202E+03  0.00000000000E+00 0. -1.
          2    1    1    2  501    0  0.15259551781E+02 -0.37665876426E+02 -0.71264904993E+02  0.82038154850E+02  0.00000000000E+00 0. -1.
          2    1    1    2  502    0 -0.15259551781E+02  0.37665876426E+02 -0.90363568694E+02  0.99081515505E+02  0.00000000000E+00 0. -1.
</event>
<event>
 4    1  0.7940509E+003  0.2874839E+02  0.7546771E-02  0.1430794E+00
          2   -1    0    0  501    0  0.00000000000E+00  0.00000000000E+00  0.15882760147E+03  0.15882760147E+03  0.00000000000E+00 0. -1.
          2   -1    0    0  502    0 -0.00000000000E+00 -0.00000000000E+00 -0.51838778074E+02  0.51838778074E+02  0.00000000000E+00 0.  1.
          2    1    1    2  501    0  0.27984186729E+02  0.65844548786E+01 -0.46412340397E+02  0.54594643455E+02  0.00000000000E+00 0.  1.
          2    1    1    2  502    0 -0.27984186729E+02 -0.65844548786E+01  0.15340116379E+03  0.15607173609E+03  0.00000000000E+00 0. -1.
</event>
<event>
 4    1  0.7940509E+003  0.2029233E+02  0.7546771E-02  0.1529613E+00
          2   -1    0    0  502    0  0.00000000000E+00  0.00000000000E+00  0.39805598640E+02  0.39805598640E+02  0.00000000000E+00 0.  1.
          2   -1    0    0  501    0 -0.00000000000E+00 -0.00000000000E+00 -0.85131925151E+02  0.85131925151E+02  0.00000000000E+00 0. -1.
          2    1    1    2  501    0  0.12644455766E+02  0.15871242732E+02  0.35887290098E+02  0.41227129394E+02  0.00000000000E+00 0.  1.
          2    1    1    2  502    0 -0.12644455766E+02 -0.15871242732E+02 -0.81213616609E+02  0.83710394398E+02  0.00000000000E+00 0. -1.
</event>
<event>
 4    1  0.1581250E+004  0.2846340E+02  0.7546771E-02  0.1433437E+00
          2   -1    0    0  501    0  0.00000000000E+00  0.00000000000E+00  0.20841434096E+04  0.20841434096E+04  0.00000000000E+00 0.  1.
          2   -1    0    0  502    0 -0.00000000000E+00 -0.00000000000E+00 -0.83091611907E+03  0.83091611907E+03  0.00000000000E+00 0. -1.
          2    1    1    2  501    0 -0.22663143384E+02 -0.17220541933E+02 -0.83057514057E+03  0.83106271078E+03  0.00000000000E+00 0. -1.
          2    1    1    2  502    0  0.22663143384E+02  0.17220541933E+02  0.20838024311E+04  0.20839968179E+04  0.00000000000E+00 0.  1.
</event>
<event>
 4    1  0.7940509E+003  0.4558753E+02  0.7546771E-02  0.1318527E+00
          2   -1    0    0  502    0  0.00000000000E+00  0.00000000000E+00  0.20497824855E+02  0.20497824855E+02  0.00000000000E+00 0. -1.
          2   -1    0    0  501    0 -0.00000000000E+00 -0.00000000000E+00 -0.33746997097E+03  0.33746997097E+03  0.00000000000E+00 0. -1.
          2    1    1    2  501    0  0.30474383032E+01 -0.45485560037E+02 -0.87838418277E+01  0.46426058731E+02  0.00000000000E+00 0. -1.
          2    1    1    2  502    0 -0.30474383032E+01  0.45485560037E+02 -0.30818830429E+03  0.31154173709E+03  0.00000000000E+00 0. -1.
</event>
<event>
 4    1  0.7940509E+003  0.2917675E+02  0.7546771E-02  0.1426888E+00
          2   -1    0    0  501    0  0.00000000000E+00  0.00000000000E+00  0.29961186336E+02  0.29961186336E+02  0.00000000000E+00 0.  1.
          2   -1    0    0  502    0 -0.00000000000E+00 -0.00000000000E+00 -0.52006955935E+03  0.52006955935E+03  0.00000000000E+00 0.  1.
          2    1    1    2  501    0 -0.28091347222E+02 -0.78840877567E+01 -0.51245162308E+03  0.51328154908E+03  0.00000000000E+00 0.  1.
          2    1    1    2  502    0  0.28091347222E+02  0.78840877567E+01  0.22343250060E+02  0.36749196613E+02  0.00000000000E+00 0.  1.
</event>
<event>
 4    1  0.7940509E+003  0.2906914E+02  0.7546771E-02  0.1427862E+00
          2   -1    0    0  501    0  0.00000000000E+00  0.00000000000E+00  0.97687543303E+03  0.97687543303E+03  0.00000000000E+00 0.  1.
          2   -1    0    0  502    0 -0.00000000000E+00 -0.00000000000E+00 -0.77908043964E+02  0.77908043964E+02  0.00000000000E+00 0.  1.
          2    1    1    2  501    0  0.29068643994E+02 -0.16902801679E+00 -0.74972040129E+02  0.80410331645E+02  0.00000000000E+00 0.  1.
          2    1    1    2  502    0 -0.29068643994E+02  0.16902801679E+00  0.97393942919E+03  0.97437314534E+03  0.00000000000E+00 0.  1.
</event>
<event>
 4    1  0.7940509E+003  0.3586500E+02  0.7546771E-02  0.1374582E+00
          2   -1    0    0  501    0  0.00000000000E+00  0.00000000000E+00  0.20074345959E+04  0.20074345959E+04  0.00000000000E+00 0. -1.
          2   -1    0    0  502    0 -0.00000000000E+00 -0.00000000000E+00 -0.32767513074E+01  0.32767513074E+01  0.00000000000E+00 0. -1.
          2    1    1    2  501    0  0.66971449420E+00  0.35858743303E+02  0.10036370939E+03  0.10657941711E+03  0.00000000000E+00 0. -1.
          2    1    1    2  502    0 -0.66971449420E+00 -0.35858743303E+02  0.19037941352E+04  0.19041319301E+04  0.00000000000E+00 0. -1.
</event>
<event>
 4    1  0.7940509E+003  0.2129670E+02  0.7546771E-02  0.1515071E+00
          2   -1    0    0  502    0  0.00000000000E+00  0.00000000000E+00  0.17568677941E+03  0.17568677941E+03  0.00000000000E+00 0. -1.
          2   -1    0    0  501    0 -0.00000000000E+00 -0.00000000000E+00 -0.25543677117E+02  0.25543677117E+02  0.00000000000E+00 0.  1.
          2    1    1    2  501    0  0.91931810786E+01  0.19210284852E+02  0.17046702634E+03  0.17179219042E+03  0.00000000000E+00 0. -1.
          2    1    1    2  502    0 -0.91931810786E+01 -0.19210284852E+02 -0.20323924046E+02  0.29438266102E+02  0.00000000000E+00 0.  1.
</event>
<event>
 4    1  0.7940509E+003  0.6776634E+02  0.7546771E-02  0.1235507E+00
          2   -1    0    0  501    0  0.00000000000E+00  0.00000000000E+00  0.11453735280E+03  0.11453735280E+03  0.00000000000E+00 0.  1.
          2   -1    0    0  502    0 -0.00000000000E+00 -0.00000000000E+00 -0.43140548312E+02  0.43140548312E+02  0.00000000000E+00 0.  1.
          2    1    1    2  501    0  0.46306748322E+02 -0.49476875827E+02  0.14748000431E+02  0.69352575283E+02  0.00000000000E+00 0.  1.
          2    1    1    2  502    0 -0.46306748322E+02  0.49476875827E+02  0.56648804054E+02  0.88325325827E+02  0.00000000000E+00 0.  1.
</event>
<event>
 4    1  0.7940509E+003  0.2463800E+02  0.7546771E-02  0.1472894E+00
          2   -1    0    0  501    0  0.00000000000E+00  0.00000000000E+00  0.30860507290E+01  0.30860507290E+01  0.00000000000E+00 0.  1.
          2   -1    0    0  502    0 -0.00000000000E+00 -0.00000000000E+00 -0.20277700222E+03  0.20277700222E+03  0.00000000000E+00 0. -1.
          2    1    1    2  501    0 -0.16750744376E+02 -0.18067743831E+02 -0.82028655730E+02  0.85648883036E+02  0.00000000000E+00 0.  1.
          2    1    1    2  502    0  0.16750744376E+02  0.18067743831E+02 -0.11766229576E+03  0.12021416991E+03  0.00000000000E+00 0. -1.
</event>
<event>
 4    1  0.7940509E+003  0.2718476E+02  0.7546771E-02  0.1445761E+00
          2   -1    0    0  502    0  0.00000000000E+00  0.00000000000E+00  0.55673026152E+01  0.55673026152E+01  0.00000000000E+00 0. -1.
          2   -1    0    0  501    0 -0.00000000000E+00 -0.00000000000E+00 -0.12652948487E+04  0.12652948487E+04  0.00000000000E+00 0.  1.
          2    1    1    2  501    0 -0.23680282218E+02 -0.13351231197E+02 -0.28687339775E+02  0.39521824398E+02  0.00000000000E+00 0. -1.
          2    1    1    2  502    0  0.23680282218E+02  0.13351231197E+02 -0.12310402063E+04  0.12313403269E+04  0.00000000000E+00 0.  1.
</event>
<event>
 4    1  0.7940509E+003  0.2623925E+02  0.7546771E-02  0.1455403E+00
          2   -1    0    0  502    0  0.00000000000E+00  0.00000000000E+00  0.29513750860E+03  0.29513750860E+03  0.00000000000E+00 0.  1.
          2   -1    0    0  501    0 -0.00000000000E+00 -0.00000000000E+00 -0.52350361717E+01  0.52350361717E+01  0.00000000000E+00 0. -1.
          2    1    1    2  501    0  0.23532536873E+02 -0.11606801587E+02  0.25677559762E+03  0.25811277703E+03  0.00000000000E+00 0.  1.
          2    1    1    2  502    0 -0.23532536873E+02  0.11606801587E+02  0.33126874810E+02  0.42259767740E+02  0.00000000000E+00 0. -1.
</event>
<event>
 4    1  0.7940509E+003  0.3543410E+02  0.7546771E-02  0.1377537E+00
          2   -1    0    0  502    0  0.00000000000E+00  0.00000000000E+00  0.49064678464E+03  0.49064678464E+03  0.00000000000E+00 0. -1.
          2   -1    0    0  501    0 -0.00000000000E+00 -0.00000000000E+00 -0.80083425580E+02  0.80083425580E+02  0.00000000000E+00 0.  1.
          2    1    1    2  501    0 -0.34805657368E+01  0.35262747456E+02  0.48605042598E+03  0.48734032492E+03  0.00000000000E+00 0. -1.
          2    1    1    2  502    0  0.34805657368E+01 -0.35262747456E+02 -0.75487066928E+02  0.83389885294E+02  0.00000000000E+00 0.  1.
</event>
<event>
 4    1  0.7940509E+003  0.2589231E+02  0.7546771E-02  0.1459064E+00
          2   -1    0    0  502    0  0.00000000000E+00  0.00000000000E+00  0.21599422514E+03  0.21599422514E+03  0.00000000000E+00 0. -1.
          2   -1    0    0  501    0 -0.00000000000E+00 -0.00000000000E+00 -0.17318729507E+04  0.17318729507E+04  0.00000000000E+00 0.  1.
          2    1    1    2  501    0 -0.23710688097E+02 -0.10402638484E+02  0.21512109813E+03  0.21667371432E+03  0.00000000000E+00 0. -1.
          2    1    1    2  502    0  0.23710688097E+02  0.10402638484E+02 -0.17309998237E+04  0.17311934615E+04  0.00000000000E+00 0.  1.
</event>
<event>
 4    1  0.7940509E+003  0.3340775E+02  0.7546771E-02  0.1392116E+00
          2   -1    0    0  502    0  0.00000000000E+00  0.00000000000E+00  0.23785230624E+02  0.23785230624E+02  0.00000000000E+00 0. -1.
          2   -1    0    0  501    0 -0.00000000000E+00 -0.00000000000E+00 -0.49752298129E+02  0.49752298129E+02  0.00000000000E+00 0. -1.
          2    1    1    2  501    0  0.30523459889E+02 -0.13579246578E+02 -0.42155122369E+01  0.33672660789E+02  0.00000000000E+00 0. -1.
          2    1    1    2  502    0 -0.30523459889E+02  0.13579246578E+02 -0.21751555269E+02  0.39864867964E+02  0.00000000000E+00 0. -1.
</event>
<event>
 4    1  0.7940509E+003  0.5103687E+02  0.7546771E-02  0.1293738E+00
          2   -1    0    0  501    0  0.00000000000E+00  0.00000000000E+00  0.50102355050E+01  0.50102355050E+01  0.00000000000E+00 0.  1.
          2   -1    0    0  502    0 -0.00000000000E+00 -0.00000000000E+00 -0.80787151755E+03  0.80787151755E+03  0.00000000000E+00 0.  1.
          2    1    1    2  501    0  0.32549419632E+02 -0.39310268365E+02 -0.64409721373E+03  0.64611607522E+03  0.00000000000E+00 0.  1.
          2    1    1    2  502    0 -0.32549419632E+02  0.39310268365E+02 -0.15876406832E+03  0.16676567784E+03  0.00000000000E+00 0.  1.
</event>
<event>
 4    1  0.7940509E+003  0.4250354E+02  0.7546771E-02  0.1334408E+00
          2   -1    0    0  501    0  0.00000000000E+00  0.00000000000E+00  0.94874291169E+01  0.94874291169E+01  0.00000000000E+00 0.  1.
          2   -1    0    0  502    0 -0.00000000000E+00 -0.00000000000E+00 -0.41826106673E+03  0.41826106673E+03  0.00000000000E+00 0.  1.
          2    1    1    2  501    0 -0.68762051454E+01  0.41943642064E+02 -0.36224071024E+03  0.36472576474E+03  0.00000000000E+00 0.  1.
          2    1    1    2  502    0  0.68762051454E+01 -0.41943642064E+02 -0.46532927374E+02  0.63022731112E+02  0.00000000000E+00 0.  1.
</event>
<event>
 4    1  0.7940509E+003  0.2492436E+02  0.7546771E-02  0.1469651E+00
          2   -1    0    0  501    0  0.00000000000E+00  0.00000000000E+00  0.12365245992E+03  0.12365245992E+03  0.00000000000E+00 0. -1.
          2   -1    0    0  502    0 -0.00000000000E+00 -0.00000000000E+00 -0.44838026344E+03  0.44838026344E+03  0.00000000000E+00 0. -1.
          2    1    1    2  501    0 -0.11040398080E+02 -0.22345773170E+02 -0.44677339059E+03  0.44746808435E+03  0.00000000000E+00 0. -1.
          2    1    1    2  502    0  0.11040398080E+02  0.22345773170E+02  0.12204558707E+03  0.12456463901E+03  0.00000000000E+00 0. -1.
</event>
<event>
 4    1  0.7940509E+003  0.4588711E+02  0.7546771E-02  0.1317062E+00
          2   -1    0    0  501    0  0.00000000000E+00  0.00000000000E+00  0.79996396924E+03  0.79996396924E+03  0.00000000000E+00 0. -1.
          2   -1    0    0  502    0 -0.00000000000E+00 -0.00000000000E+00 -0.23061257703E+02  0.23061257703E+02  0.00000000000E+00 0.  1.
          2    1    1    2  501    0 -0.45529427938E+02 -0.57182461416E+01  0.11345605597E+01  0.45901136968E+02  0.00000000000E+00 0.  1.
          2    1    1    2  502    0  0.45529427938E+02  0.57182461416E+01  0.77576815098E+03  0.77712408997E+03  0.00000000000E+00 0. -1.
</event>
<event>
 4    1  0.7940509E+003  0.2177471E+02  0.7546771E-02  0.1508485E+00
          2   -1    0    0  501    0  0.00000000000E+00  0.00000000000E+00  0.59255504407E+03  0.59255504407E+03  0.00000000000E+00 0. -1.
          2   -1    0    0  502    0 -0.00000000000E+00 -0.00000000000E+00 -0.16408641027E+01  0.16408641027E+01  0.00000000000E+00 0.  1.
          2    1    1    2  501    0  0.21540793637E+02  0.31831165923E+01  0.82797341472E+02  0.85612719713E+02  0.00000000000E+00 0.  1.
          2    1    1    2  502    0 -0.21540793637E+02 -0.31831165923E+01  0.50811683850E+03  0.50858318846E+03  0.00000000000E+00 0. -1.
</event>
<event>
 4    1  0.7940509E+003  0.2266157E+02  0.7546771E-02  0.1496792E+00
          2   -1    0    0  501    0  0.00000000000E+00  0.00000000000E+00  0.66082967583E+03  0.66082967583E+03  0.00000000000E+00 0. -1.
          2   -1    0    0  502    0 -0.00000000000E+00 -0.00000000000E+00 -0.54584767393E+02  0.54584767393E+02  0.00000000000E+00 0.  1.
          2    1    1    2  501    0  0.20438953566E+02 -0.97875376337E+01 -0.52029297611E+02  0.56750282164E+02  0.00000000000E+00 0.  1.
          2    1    1    2  502    0 -0.20438953566E+02  0.97875376337E+01  0.65827420604E+03  0.65866416106E+03  0.00000000000E+00 0. -1.
</event>
<event>
 4    1  0.7940509E+003  0.2361609E+02  0.7546771E-02  0.1484903E+00
          2   -1    0    0  501    0  0.00000000000E+00  0.00000000000E+00  0.50356762064E+03  0.50356762064E+03  0.00000000000E+00 0.  1.
          2   -1    0    0  502    0 -0.00000000000E+00 -0.00000000000E+00 -0.13327131006E+01  0.13327131006E+01  0.00000000000E+00 0.  1.
          2    1    1    2  501    0 -0.33916617641E-01  0.23616069110E+02  0.14734829723E+03  0.14922881950E+03  0.00000000000E+00 0.  1.
          2    1    1    2  502    0  0.33916617641E-01 -0.23616069110E+02  0.35488661031E+03  0.35567151424E+03  0.00000000000E+00 0.  1.
</event>
<event>
 4    1  0.7940509E+003  0.3983128E+02  0.7546771E-02  0.1349477E+00
          2   -1    0    0  502    0  0.00000000000E+00  0.00000000000E+00  0.41159142169E+03  0.41159142169E+03  0.00000000000E+00 0. -1.
          2   -1    0    0  501    0 -0.00000000000E+00 -0.00000000000E+00 -0.57418109708E+01  0.57418109708E+01  0.00000000000E+00 0.  1.
          2    1    1    2  501    0  0.26021252847E+02 -0.30156673174E+02  0.32255364527E+03  0.32500366862E+03  0.00000000000E+00 0. -1.
          2    1    1    2  502    0 -0.26021252847E+02  0.30156673174E+02  0.83295965446E+02  0.92329564042E+02  0.00000000000E+00 0.  1.
</event>
<event>
 4    1  0.7940509E+003  0.2663792E+02  0.7546771E-02  0.1451280E+00
          2   -1    0    0  502    0  0.00000000000E+00  0.00000000000E+00  0.52500899979E+03  0.52500899979E+03  0.00000000000E+00 0. -1.
          2   -1    0    0  501    0 -0.00000000000E+00 -0.00000000000E+00 -0.20124527268E+03  0.20124527268E+03  0.00000000000E+00 0.  1.
          2    1    1    2  501    0  0.60429796526E+01  0.25943425808E+02  0.52378757139E+03  0.52446448772E+03  0.00000000000E+00 0. -1.
          2    1    1    2  502    0 -0.60429796526E+01 -0.25943425808E+02 -0.20002384428E+03  0.20178978474E+03  0.00000000000E+00 0.  1.
</event>
<event>
 4    1  0.7940509E+003  0.1048397E+03  0.7546771E-02  0.1155676E+00
          2   -1    0    0  501    0  0.00000000000E+00  0.00000000000E+00  0.28912226078E+02  0.28912226078E+02  0.00000000000E+00 0.  1.
          2   -1    0    0  502    0 -0.00000000000E+00 -0.00000000000E+00 -0.38813937792E+03  0.38813937792E+03  0.00000000000E+00 0.  1.
          2    1    1    2  501    0  0.95418319275E+02  0.43436297560E+02 -0.20950594510E+03  0.23427357646E+03  0.00000000000E+00 0.  1.
          2    1    1    2  502    0 -0.95418319275E+02 -0.43436297560E+02 -0.14972120674E+03  0.18277802753E+03  0.00000000000E+00 0.  1.
</event>
<event>
 4    1  0.1112743E+004  0.2601462E+02  0.7546771E-02  0.1457766E+00
          2   -1    0    0  501    0  0.00000000000E+00  0.00000000000E+00  0.41768207902E+03  0.41768207902E+03  0.00000000000E+00 0.  1.
          2   -1    0    0  502    0 -0.00000000000E+00 -0.00000000000E+00 -0.14783511699E+04  0.14783511699E+04  0.00000000000E+00 0. -1.
          2    1    1    2  501    0 -0.21105780587E+02  0.15208762915E+02 -0.14778315133E+04  0.14780604663E+04  0.00000000000E+00 0. -1.
          2    1    1    2  502    0  0.21105780587E+02 -0.15208762915E+02  0.41716242234E+03  0.41797278267E+03  0.00000000000E+00 0.  1.
</event>
<event>
 4    1  0.7940509E+003  0.2518940E+02  0.7546771E-02  0.1466696E+00
          2   -1    0    0  502    0  0.00000000000E+00  0.00000000000E+00  0.12820049072E+01  0.12820049072E+01  0.00000000000E+00 0.  1.
          2   -1    0    0  501    0 -0.00000000000E+00 -0.00000000000E+00 -0.12104021989E+04  0.12104021989E+04  0.00000000000E+00 0. -1.
          2    1    1    2  501    0  0.73571908560E+01 -0.24091030625E+02 -0.13877006222E+03  0.14103771192E+03  0.00000000000E+00 0.  1.
          2    1    1    2  502    0 -0.73571908560E+01  0.24091030625E+02 -0.10703501318E+04  0.10706464919E+04  0.00000000000E+00 0. -1.
</event>
<event>
 4    1  0.7940509E+003  0.2741205E+02  0.7546771E-02  0.1443512E+00
          2   -1    0    0  501    0  0.00000000000E+00  0.00000000000E+00  0.71958484069E+03  0.71958484069E+03  0.00000000000E+00 0.  1.
          2   -1    0    0  502    0 -0.00000000000E+00 -0.00000000000E+00 -0.13493751695E+01  0.13493751695E+01  0.00000000000E+00 0.  1.
          2    1    1    2  501    0 -0.93468893926E+01 -0.25769287179E+02  0.18770455626E+03  0.18969560075E+03  0.00000000000E+00 0.  1.
          2    1    1    2  502    0  0.93468893926E+01  0.25769287179E+02  0.53053090926E+03  0.53123861511E+03  0.00000000000E+00 0.  1.
</event>
<event>
 4    1  0.7940509E+003  0.2650119E+02  0.7546771E-02  0.1452684E+00
          2   -1    0    0  502    0  0.00000000000E+00  0.00000000000E+00  0.21483231641E+03  0.21483231641E+03  0.00000000000E+00 0.  1.
          2   -1    0    0  501    0 -0.00000000000E+00 -0.00000000000E+00 -0.98988257027E+02  0.98988257027E+02  0.00000000000E+00 0.  1.
          2    1    1    2  501    0  0.26330495097E+02 -0.30030455703E+01  0.21221955400E+03  0.21386783852E+03  0.00000000000E+00 0.  1.
          2    1    1    2  502    0 -0.26330495097E+02  0.30030455703E+01 -0.96375494615E+02  0.99952734916E+02  0.00000000000E+00 0.  1.
</event>
<event>
 4    1  0.7940509E+003  0.2383057E+02  0.7546771E-02  0.1482324E+00
          2   -1    0    0  501    0  0.00000000000E+00  0.00000000000E+00  0.74226705176E+03  0.74226705176E+03  0.00000000000E+00 0.  1.
          2   -1    0    0  502    0 -0.00000000000E+00 -0.00000000000E+00 -0.75990428254E+02  0.75990428254E+02  0.00000000000E+00 0.  1.
          2    1    1    2  501    0 -0.87325212357E+01  0.22172935779E+02 -0.73925632875E+02  0.77671714312E+02  0.00000000000E+00 0.  1.
          2    1    1    2  502    0  0.87325212357E+01 -0.22172935779E+02  0.74020225638E+03  0.74058576570E+03  0.00000000000E+00 0.  1.
</event>
<event>
 4    1  0.7940509E+003  0.3014539E+02  0.7546771E-02  0.1418337E+00
          2   -1    0    0  501    0  0.00000000000E+00  0.00000000000E+00  0.12306837636E+04  0.12306837636E+04  0.00000000000E+00 0.  1.
          2   -1    0    0  502    0 -0.00000000000E+00 -0.00000000000E+00 -0.31103637427E+01  0.31103637427E+01  0.00000000000E+00 0.  1.
          2    1    1    2  501    0  0.59099462220E+01  0.29560400942E+02  0.75069862054E+02  0.80896408801E+02  0.00000000000E+00 0.  1.
          2    1    1    2  502    0 -0.59099462220E+01 -0.29560400942E+02  0.11525035378E+04  0.11528977186E+04  0.00000000000E+00 0.  1.
</event>
<event>
 4    1  0.7940509E+003  0.2071673E+02  0.7546771E-02  0.1523348E+00
          2   -1    0    0  502    0  0.00000000000E+00  0.00000000000E+00  0.26254335115E+03  0.26254335115E+03  0.00000000000E+00 0.  1.
          2   -1    0    0  501    0 -0.00000000000E+00 -0.00000000000E+00 -0.91484650388E+03  0.91484650388E+03  0.00000000000E+00 0.  1.
          2    1    1    2  501    0 -0.18692479777E+02 -0.89316455982E+01  0.26201715486E+03  0.26283487693E+03  0.00000000000E+00 0.  1.
          2    1    1    2  502    0  0.18692479777E+02  0.89316455982E+01 -0.91432030759E+03  0.91455497810E+03  0.00000000000E+00 0.  1.
</event>
<event>
 4    1  0.7940509E+003  0.2185086E+02  0.7546771E-02  0.1507455E+00
          2   -1    0    0  502    0  0.00000000000E+00  0.00000000000E+00  0.20872778554E+02  0.20872778554E+02  0.00000000000E+00 0. -1.
          2   -1    0    0  501    0 -0.00000000000E+00 -0.00000000000E+00 -0.17786839187E+03  0.17786839187E+03  0.00000000000E+00 0. -1.
          2    1    1    2  501    0 -0.11637676337E+01 -0.21819849137E+02  0.14263180283E+02  0.26094031564E+02  0.00000000000E+00 0. -1.
          2    1    1    2  502    0  0.11637676337E+01  0.21819849137E+02 -0.17125879360E+03  0.17264713886E+03  0.00000000000E+00 0. -1.
</event>
<event>
 4    1  0.7940509E+003  0.3191480E+02  0.7546771E-02  0.1403656E+00
          2   -1    0    0  502    0  0.00000000000E+00  0.00000000000E+00  0.44925986915E+03  0.44925986915E+03  0.00000000000E+00 0.  1.
          2   -1    0    0  501    0 -0.00000000000E+00 -0.00000000000E+00 -0.64632920432E+01  0.64632920432E+01  0.00000000000E+00 0. -1.
          2    1    1    2  501    0 -0.44709858529E+01  0.31600078234E+02  0.40499612601E+03  0.40625166675E+03  0.00000000000E+00 0.  1.
          2    1    1    2  502    0  0.44709858529E+01 -0.31600078234E+02  0.37800451104E+02  0.49471494444E+02  0.00000000000E+00 0. -1.
</event>
<event>
 4    1  0.7940509E+003  0.4522240E+02  0.7546771E-02  0.1320331E+00
          2   -1    0    0  502    0  0.00000000000E+00  0.00000000000E+00  0.15061015991E+04  0.15061015991E+04  0.00000000000E+00 0.  1.
          2   -1    0    0  501    0 -0.00000000000E+00 -0.00000000000E+00 -0.77691045632E+02  0.77691045632E+02  0.00000000000E+00 0.  1.
          2    1    1    2  501    0 -0.15350181084E+01  0.45196341416E+02  0.14991508679E+04  0.14998327874E+04  0.00000000000E+00 0.  1.
          2    1    1    2  502    0  0.15350181084E+01 -0.45196341416E+02 -0.70740314408E+02  0.83959857316E+02  0.00000000000E+00 0.  1.
</event>
<event>
 4    1  0.7940509E+003  0.2227478E+02  0.7546771E-02  0.1501811E+00
          2   -1    0    0  501    0  0.00000000000E+00  0.00000000000E+00  0.23637415307E+01  0.23637415307E+01  0.00000000000E+00 0.  1.
          2   -1    0    0  502    0 -0.00000000000E+00 -0.00000000000E+00 -0.28497831884E+03  0.28497831884E+03  0.00000000000E+00 0. -1.
          2    1    1    2  501    0  0.13046095663E+01 -0.22236539110E+02 -0.67567721739E+02  0.71144660366E+02  0.00000000000E+00 0.  1.
          2    1    1    2  502    0 -0.13046095663E+01  0.22236539110E+02 -0.21504685557E+03  0.21619740000E+03  0.00000000000E+00 0. -1.
</event>
<event>
 4    1  0.7940509E+003  0.6845126E+02  0.7546771E-02  0.1233539E+00
          2   -1    0    0  501    0  0.00000000000E+00  0.00000000000E+00  0.55651142391E+03  0.55651142391E+03  0.00000000000E+00 0.  1.
          2   -1    0    0  502    0 -0.00000000000E+00 -0.00000000000E+00 -0.13659374833E+02  0.13659374833E+02  0.00000000000E+00 0.  1.
          2    1    1    2  501    0 -0.21995152170E+02 -0.64821197991E+02  0.94855564871E+02  0.11697500851E+03  0.00000000000E+00 0.  1.
          2    1    1    2  502    0  0.21995152170E+02  0.64821197991E+02  0.44799648421E+03  0.45319579024E+03  0.00000000000E+00 0.  1.
</event>
<event>
 4    1  0.7940509E+003  0.2088337E+02  0.7546771E-02  0.1520936E+00
          2   -1    0    0  501    0  0.00000000000E+00  0.00000000000E+00  0.19218239902E+03  0.19218239902E+03  0.00000000000E+00 0. -1.
          2   -1    0    0  502    0 -0.00000000000E+00 -0.00000000000E+00 -0.26525102093E+01  0.26525102093E+01  0.00000000000E+00 0. -1.
          2    1    1    2  501    0 -0.19804002156E+02  0.66269772036E+01  0.57736187321E+02  0.61396927078E+02  0.00000000000E+00 0. -1.
          2    1    1    2  502    0  0.19804002156E+02 -0.66269772036E+01  0.13179370149E+03  0.13343798215E+03  0.00000000000E+00 0. -1.
</event>
<event>
 4    1  0.7940509E+003  0.3328805E+02  0.7546771E-02  0.1393015E+00
          2   -1    0    0  502    0  0.00000000000E+00  0.00000000000E+00  0.23950714339E+02  0.23950714339E+02  0.00000000000E+00 0. -1.
          2   -1    0    0  501    0 -0.00000000000E+00 -0.00000000000E+00 -0.48965874995E+03  0.48965874995E+03  0.00000000000E+00 0. -1.
          2    1    1    2  501    0  0.25101618300E+01 -0.33193270732E+02  0.11517593733E+02  0.35224268618E+02  0.00000000000E+00 0. -1.
          2    1    1    2  502    0 -0.25101618300E+01  0.33193270732E+02 -0.47722562934E+03  0.47838519567E+03  0.00000000000E+00 0. -1.
</event>
<event>
 4    1  0.7940509E+003  0.2173438E+02  0.7546771E-02  0.1509033E+00
          2   -1    0    0  502    0  0.00000000000E+00  0.00000000000E+00  0.88910602001E+01  0.88910602001E+01  0.00000000000E+00 0. -1.
          2   -1    0    0  501    0 -0.00000000000E+00 -0.00000000000E+00 -0.39812292100E+03  0.39812292100E+03  0.00000000000E+00 0. -1.
          2    1    1    2  501    0  0.20506238317E+02  0.72026131683E+01 -0.51741647863E+01  0.22341786580E+02  0.00000000000E+00 0. -1.
          2    1    1    2  502    0 -0.20506238317E+02 -0.72026131683E+01 -0.38405769601E+03  0.38467219462E+03  0.00000000000E+00 0. -1.
</event>
<event>
 4    1  0.7940509E+003  0.2325986E+02  0.7546771E-02  0.1489261E+00
          2   -1    0    0  501    0  0.00000000000E+00  0.00000000000E+00  0.16004675906E+03  0.16004675906E+03  0.00000000000E+00 0.  1.
          2   -1    0    0  502    0 -0.00000000000E+00 -0.00000000000E+00 -0.11798034042E+02  0.11798034042E+02  0.00000000000E+00 0. -1.
          2    1    1    2  501    0 -0.13773832083E+01 -0.23219042194E+02  0.15477432031E+01  0.23311297989E+02  0.00000000000E+00 0. -1.
          2    1    1    2  502    0  0.13773832083E+01  0.23219042194E+02  0.14670098182E+03  0.14853349512E+03  0.00000000000E+00 0.  1.
</event>
<event>
 4    1  0.7940509E+003  0.2244642E+02  0.7546771E-02  0.1499569E+00
          2   -1    0    0  502    0  0.00000000000E+00  0.00000000000E+00  0.50066798318E+03  0.50066798318E+03  0.00000000000E+00 0.  1.
          2   -1    0    0  501    0 -0.00000000000E+00 -0.00000000000E+00 -0.18903873185E+03  0.18903873185E+03  0.00000000000E+00 0. -1.
          2    1    1    2  501    0 -0.36644564307E+01  0.22145280480E+02  0.49974885287E+03  0.50025269378E+03  0.00000000000E+00 0.  1.
          2    1    1    2  502    0  0.36644564307E+01 -0.22145280480E+02 -0.18811960154E+03  0.18945402126E+03  0.00000000000E+00 0. -1.
</event>
<event>
 4    1  0.7940509E+003  0.2821251E+02  0.7546771E-02  0.1435794E+00
          2   -1    0    0  502    0  0.00000000000E+00  0.00000000000E+00  0.11293297453E+04  0.11293297453E+04  0.00000000000E+00 0. -1.
          2   -1    0    0  501    0 -0.00000000000E+00 -0.00000000000E+00 -0.40382411116E+02  0.40382411116E+02  0.00000000000E+00 0. -1.
          2    1    1    2  501    0 -0.47191974217E+01 -0.27815010863E+02  0.11242035296E+04  0.11245574781E+04  0.00000000000E+00 0. -1.
          2    1    1    2  502    0  0.47191974217E+01  0.27815010863E+02 -0.35256195430E+02  0.45154678271E+02  0.00000000000E+00 0. -1.
</event>
<event>
 4    1  0.7940509E+003  0.2183555E+02  0.7546771E-02  0.1507662E+00
          2   -1    0    0  502    0  0.00000000000E+00  0.00000000000E+00  0.15137437919E+04  0.15137437919E+04  0.00000000000E+00 0. -1.
          2   -1    0    0  501    0 -0.00000000000E+00 -0.00000000000E+00 -0.14235552147E+03  0.14235552147E+03  0.00000000000E+00 0. -1.
          2    1    1    2  501    0 -0.89076556697E+01  0.19936022282E+02  0.15128272160E+04  0.15129847906E+04  0.00000000000E+00 0. -1.
          2    1    1    2  502    0  0.89076556697E+01 -0.19936022282E+02 -0.14143894552E+03  0.14311452275E+03  0.00000000000E+00 0. -1.
</event>
<event>
 4    1  0.7940509E+003  0.4180540E+02  0.7546771E-02  0.1338219E+00
          2   -1    0    0  501    0  0.00000000000E+00  0.00000000000E+00  0.19760388346E+01  0.19760388346E+01  0.00000000000E+00 0.  1.
          2   -1    0    0  502    0 -0.00000000000E+00 -0.00000000000E+00 -0.92236365447E+03  0.92236365447E+03  0.00000000000E+00 0.  1.
          2    1    1    2  501    0 -0.26171452417E+02  0.32599798762E+02 -0.55390554212E+03  0.55548091001E+03  0.00000000000E+00 0.  1.
          2    1    1    2  502    0  0.26171452417E+02 -0.32599798762E+02 -0.36648207352E+03  0.36885878329E+03  0.00000000000E+00 0.  1.
</event>
<event>
 4    1  0.7940509E+003  0.2427436E+02  0.7546771E-02  0.1477087E+00
          2   -1    0    0  501    0  0.00000000000E+00  0.00000000000E+00  0.21192740063E+01  0.21192740063E+01  0.00000000000E+00 0.  1.
          2   -1    0    0  502    0 -0.00000000000E+00 -0.00000000000E+00 -0.28464847623E+03  0.28464847623E+03  0.00000000000E+00 0.  1.
          2    1    1    2  501    0 -0.24249659640E+02  0.10948114305E+01 -0.11941865750E+03  0.12186082374E+03  0.00000000000E+00 0.  1.
          2    1    1    2  502    0  0.24249659640E+02 -0.10948114305E+01 -0.16311054472E+03  0.16490692649E+03  0.00000000000E+00 0.  1.
</event>
<event>
 4    1  0.7940509E+003  0.4069888E+02  0.7546771E-02  0.1344438E+00
          2   -1    0    0  501    0  0.00000000000E+00  0.00000000000E+00  0.19120981964E+02  0.19120981964E+02  0.00000000000E+00 0. -1.
          2   -1    0    0  502    0 -0.00000000000E+00 -0.00000000000E+00 -0.10088144671E+03  0.10088144671E+03  0.00000000000E+00 0.  1.
          2    1    1    2  501    0  0.97643554292E+01 -0.39510202773E+02 -0.63434318014E+02  0.75367841033E+02  0.00000000000E+00 0.  1.
          2    1    1    2  502    0 -0.97643554292E+01  0.39510202773E+02 -0.18326146736E+02  0.44634587645E+02  0.00000000000E+00 0. -1.
</event>
<event>
 4    1  0.7940509E+003  0.2516288E+02  0.7546771E-02  0.1466989E+00
          2   -1    0    0  501    0  0.00000000000E+00  0.00000000000E+00  0.13002245898E+02  0.13002245898E+02  0.00000000000E+00 0. -1.
          2   -1    0    0  502    0 -0.00000000000E+00 -0.00000000000E+00 -0.47146512916E+03  0.47146512916E+03  0.00000000000E+00 0.  1.
          2    1    1    2  501    0 -0.34688449586E+01  0.24922629047E+02 -0.45861425444E+03  0.45930404385E+03  0.00000000000E+00 0.  1.
          2    1    1    2  502    0  0.34688449586E+01 -0.24922629047E+02  0.15137118046E+00  0.25163331203E+02  0.00000000000E+00 0. -1.
</event>
<event>
 4    1  0.7940509E+003  0.2196304E+02  0.7546771E-02  0.1505947E+00
          2   -1    0    0  501    0  0.00000000000E+00  0.00000000000E+00  0.83272590691E+03  0.83272590691E+03  0.00000000000E+00 0. -1.
          2   -1    0    0  502    0 -0.00000000000E+00 -0.00000000000E+00 -0.13960531753E+01  0.13960531753E+01  0.00000000000E+00 0.  1.
          2    1    1    2  501    0  0.64153648987E+01 -0.21005190617E+02  0.96657058667E+02  0.99120945969E+02  0.00000000000E+00 0.  1.
          2    1    1    2  502    0 -0.64153648987E+01  0.21005190617E+02  0.73467279507E+03  0.73500101412E+03  0.00000000000E+00 0. -1.
</event>
<event>
 4    1  0.7940509E+003  0.2514323E+02  0.7546771E-02  0.1467207E+00
          2   -1    0    0  501    0  0.00000000000E+00  0.00000000000E+00  0.13769840415E+03  0.13769840415E+03  0.00000000000E+00 0.  1.
          2   -1    0    0  502    0 -0.00000000000E+00 -0.00000000000E+00 -0.18086439338E+04  0.18086439338E+04  0.00000000000E+00 0. -1.
          2    1    1    2  501    0 -0.36579155029E+01  0.24875723116E+02 -0.18074080000E+04  0.18075828779E+04  0.00000000000E+00 0. -1.
          2    1    1    2  502    0  0.36579155029E+01 -0.24875723116E+02  0.13646247035E+03  0.13875946007E+03  0.00000000000E+00 0.  1.
</event>
<event>
 4    1  0.7940509E+003  0.2393703E+02  0.7546771E-02  0.1481055E+00
          2   -1    0    0  501    0  0.00000000000E+00  0.00000000000E+00  0.72907271335E+01  0.72907271335E+01  0.00000000000E+00 0.  1.
          2   -1    0    0  502    0 -0.00000000000E+00 -0.00000000000E+00 -0.62287207222E+03  0.62287207222E+03  0.00000000000E+00 0.  1.
          2    1    1    2  501    0  0.23616145612E+00  0.23935868841E+02 -0.60232449144E+03  0.60279994574E+03  0.00000000000E+00 0.  1.
          2    1    1    2  502    0 -0.23616145612E+00 -0.23935868841E+02 -0.13256853641E+02  0.27362853613E+02  0.00000000000E+00 0.  1.
</event>
<event>
 4    1  0.7940509E+003  0.2874168E+02  0.7546771E-02  0.1430856E+00
          2   -1    0    0  501    0  0.00000000000E+00  0.00000000000E+00  0.11535277294E+04  0.11535277294E+04  0.00000000000E+00 0. -1.
          2   -1    0    0  502    0 -0.00000000000E+00 -0.00000000000E+00 -0.15473980728E+02  0.15473980728E+02  0.00000000000E+00 0. -1.
          2    1    1    2  501    0  0.17511620578E+02  0.22790945541E+02 -0.17883877945E+01  0.28797263495E+02  0.00000000000E+00 0. -1.
          2    1    1    2  502    0 -0.17511620578E+02 -0.22790945541E+02  0.11398421364E+04  0.11402044466E+04  0.00000000000E+00 0. -1.
</event>
<event>
 4    1  0.7940509E+003  0.2706322E+02  0.7546771E-02  0.1446974E+00
          2   -1    0    0  501    0  0.00000000000E+00  0.00000000000E+00  0.14880343518E+04  0.14880343518E+04  0.00000000000E+00 0.  1.
          2   -1    0    0  502    0 -0.00000000000E+00 -0.00000000000E+00 -0.12382716412E+01  0.12382716412E+01  0.00000000000E+00 0.  1.
          2    1    1    2  501    0 -0.24790678686E+02  0.10855426413E+02  0.16540176244E+03  0.16760119644E+03  0.00000000000E+00 0.  1.
          2    1    1    2  502    0  0.24790678686E+02 -0.10855426413E+02  0.13213943177E+04  0.13216714270E+04  0.00000000000E+00 0.  1.
</event>
<event>
 4    1  0.7940509E+003  0.2384485E+02  0.7546771E-02  0.1482153E+00
          2   -1    0    0  502    0  0.00000000000E+00  0.00000000000E+00  0.41610992497E+03  0.41610992497E+03  0.00000000000E+00 0.  1.
          2   -1    0    0  501    0 -0.00000000000E+00 -0.00000000000E+00 -0.88059964863E+01  0.88059964863E+01  0.00000000000E+00 0. -1.
          2    1    1    2  501    0 -0.86336792522E+01  0.22226929533E+02  0.39893213651E+03  0.39964412463E+03  0.00000000000E+00 0.  1.
          2    1    1    2  502    0  0.86336792522E+01 -0.22226929533E+02  0.83717919775E+01  0.25271796826E+02  0.00000000000E+00 0. -1.
</event>
<event>
 4    1  0.7940509E+003  0.2375255E+02  0.7546771E-02  0.1483259E+00
          2   -1    0    0  501    0  0.00000000000E+00  0.00000000000E+00  0.32434710494E+03  0.32434710494E+03  0.00000000000E+00 0.  1.
          2   -1    0    0  502    0 -0.00000000000E+00 -0.00000000000E+00 -0.64472351467E+03  0.64472351467E+03  0.00000000000E+00 0.  1.
          2    1    1    2  501    0  0.20563731734E+02 -0.11887656685E+02 -0.64406944282E+03  0.64450727740E+03  0.00000000000E+00 0.  1.
          2    1    1    2  502    0 -0.20563731734E+02  0.11887656685E+02  0.32369303309E+03  0.32456334222E+03  0.00000000000E+00 0.  1.
</event>
<event>
 4    1  0.7940509E+003  0.3013164E+02  0.7546771E-02  0.1418456E+00
          2   -1    0    0  501    0  0.00000000000E+00  0.00000000000E+00  0.43477740927E+03  0.43477740927E+03  0.00000000000E+00 0.  1.
          2   -1    0    0  502    0 -0.00000000000E+00 -0.00000000000E+00 -0.95705129605E+01  0.95705129605E+01  0.00000000000E+00 0.  1.
          2    1    1    2  501    0  0.10631725711E+02 -0.28193651163E+02  0.16157718585E+02  0.34190458133E+02  0.00000000000E+00 0.  1.
          2    1    1    2  502    0 -0.10631725711E+02  0.28193651163E+02  0.40904917772E+03  0.41015746409E+03  0.00000000000E+00 0.  1.
</event>
<event>
 4    1  0.7940509E+003  0.2047541E+02  0.7546771E-02  0.1526888E+00
          2   -1    0    0  501    0  0.00000000000E+00  0.00000000000E+00  0.71405459006E+03  0.71405459006E+03  0.00000000000E+00 0.  1.
          2   -1    0    0  502    0 -0.00000000000E+00 -0.00000000000E+00 -0.80556528382E+02  0.80556528382E+02  0.00000000000E+00 0.  1.
          2    1    1    2  501    0  0.13370559169E+02 -0.15507118806E+02 -0.79106016195E+02  0.81712938905E+02  0.00000000000E+00 0.  1.
          2    1    1    2  502    0 -0.13370559169E+02  0.15507118806E+02  0.71260407787E+03  0.71289817954E+03  0.00000000000E+00 0.  1.
</event>
<event>
 4    1  0.7940509E+003  0.2247952E+02  0.7546771E-02  0.1499139E+00
          2   -1    0    0  501    0  0.00000000000E+00  0.00000000000E+00  0.10034004735E+04  0.10034004735E+04  0.00000000000E+00 0. -1.
          2   -1    0    0  502    0 -0.00000000000E+00 -0.00000000000E+00 -0.21405256449E+01  0.21405256449E+01  0.00000000000E+00 0. -1.
          2    1    1    2  501    0  0.20974945323E+02  0.80858289294E+01  0.60965002005E+02  0.64977383991E+02  0.00000000000E+00 0. -1.
          2    1    1    2  502    0 -0.20974945323E+02 -0.80858289294E+01  0.94029494587E+03  0.94056361517E+03  0.00000000000E+00 0. -1.
</event>
<event>
 4    1  0.7940509E+003  0.2199646E+02  0.7546771E-02  0.1505499E+00
          2   -1    0    0  502    0  0.00000000000E+00  0.00000000000E+00  0.23940857137E+01  0.23940857137E+01  0.00000000000E+00 0. -1.
          2   -1    0    0  501    0 -0.00000000000E+00 -0.00000000000E+00 -0.51293073353E+03  0.51293073353E+03  0.00000000000E+00 0.  1.
          2    1    1    2  501    0 -0.32551407129E+01  0.21754272644E+02 -0.54690092571E+02  0.58947862936E+02  0.00000000000E+00 0. -1.
          2    1    1    2  502    0  0.32551407129E+01 -0.21754272644E+02 -0.45584655524E+03  0.45637695631E+03  0.00000000000E+00 0.  1.
</event>
<event>
 4    1  0.7940509E+003  0.2281652E+02  0.7546771E-02  0.1494815E+00
          2   -1    0    0  501    0  0.00000000000E+00  0.00000000000E+00  0.12559358782E+01  0.12559358782E+01  0.00000000000E+00 0.  1.
          2   -1    0    0  502    0 -0.00000000000E+00 -0.00000000000E+00 -0.87501188548E+03  0.87501188548E+03  0.00000000000E+00 0. -1.
          2    1    1    2  501    0  0.18194404172E+02  0.13767972718E+02 -0.75472438600E+03  0.75506919698E+03  0.00000000000E+00 0. -1.
          2    1    1    2  502    0 -0.18194404172E+02 -0.13767972718E+02 -0.11903156361E+03  0.12119862438E+03  0.00000000000E+00 0.  1.
</event>
<event>
 4    1  0.7940509E+003  0.4258040E+02  0.7546771E-02  0.1333994E+00
          2   -1    0    0  501    0  0.00000000000E+00  0.00000000000E+00  0.49946051051E+03  0.49946051051E+03  0.00000000000E+00 0.  1.
          2   -1    0    0  502    0 -0.00000000000E+00 -0.00000000000E+00 -0.22496968961E+04  0.22496968961E+04  0.00000000000E+00 0.  1.
          2    1    1    2  501    0 -0.66810757671E+01 -0.42052984247E+02 -0.22485874424E+04  0.22489905683E+04  0.00000000000E+00 0.  1.
          2    1    1    2  502    0  0.66810757671E+01  0.42052984247E+02  0.49835105684E+03  0.50016683827E+03  0.00000000000E+00 0.  1.
</event>
<event>
 4    1  0.7940509E+003  0.3212142E+02  0.7546771E-02  0.1402015E+00
          2   -1    0    0  501    0  0.00000000000E+00  0.00000000000E+00  0.24565666607E+03  0.24565666607E+03  0.00000000000E+00 0.  1.
          2   -1    0    0  502    0 -0.00000000000E+00 -0.00000000000E+00 -0.16229769295E+02  0.16229769295E+02  0.00000000000E+00 0.  1.
          2    1    1    2  501    0 -0.32026429865E+02 -0.24685184459E+01  0.19798311264E+01  0.32182379099E+02  0.00000000000E+00 0.  1.
          2    1    1    2  502    0  0.32026429865E+02  0.24685184459E+01  0.22744706565E+03  0.22970405626E+03  0.00000000000E+00 0.  1.
</event>
<event>
 4    1  0.7940509E+003  0.3417930E+02  0.7546771E-02  0.1386427E+00
          2   -1    0    0  502    0  0.00000000000E+00  0.00000000000E+00  0.54783756973E+03  0.54783756973E+03  0.00000000000E+00 0. -1.
          2   -1    0    0  501    0 -0.00000000000E+00 -0.00000000000E+00 -0.59604536755E+03  0.59604536755E+03  0.00000000000E+00 0.  1.
          2    1    1    2  501    0 -0.29542813692E+02 -0.17188560543E+02  0.54681355616E+03  0.54788072576E+03  0.00000000000E+00 0. -1.
          2    1    1    2  502    0  0.29542813692E+02  0.17188560543E+02 -0.59502135398E+03  0.59600221152E+03  0.00000000000E+00 0.  1.
</event>
<event>
 4    1  0.7940509E+003  0.2614397E+02  0.7546771E-02  0.1456402E+00
          2   -1    0    0  502    0  0.00000000000E+00  0.00000000000E+00  0.10971830018E+04  0.10971830018E+04  0.00000000000E+00 0. -1.
          2   -1    0    0  501    0 -0.00000000000E+00 -0.00000000000E+00 -0.15303053802E+03  0.15303053802E+03  0.00000000000E+00 0. -1.
          2    1    1    2  501    0 -0.84464663243E+01 -0.24741953671E+02  0.10959093441E+04  0.10962211445E+04  0.00000000000E+00 0. -1.
          2    1    1    2  502    0  0.84464663243E+01  0.24741953671E+02 -0.15175688039E+03  0.15399239530E+03  0.00000000000E+00 0. -1.
</event>
<event>
 4    1  0.7940509E+003  0.2035925E+02  0.7546771E-02  0.1528613E+00
          2   -1    0    0  501    0  0.00000000000E+00  0.00000000000E+00  0.10066356050E+04  0.10066356050E+04  0.00000000000E+00 0. -1.
          2   -1    0    0  502    0 -0.00000000000E+00 -0.00000000000E+00 -0.11530447855E+02  0.11530447855E+02  0.00000000000E+00 0.  1.
          2    1    1    2  501    0  0.87332649858E+01  0.18391004866E+02 -0.23578173536E+01  0.20495323368E+02  0.00000000000E+00 0.  1.
          2    1    1    2  502    0 -0.87332649858E+01 -0.18391004866E+02  0.99746297446E+03  0.99767072945E+03  0.00000000000E+00 0. -1.
</event>
<event>
 4    1  0.7940509E+003  0.3563113E+02  0.7546771E-02  0.1376180E+00
          2   -1    0    0  501    0  0.00000000000E+00  0.00000000000E+00  0.16180496496E+03  0.16180496496E+03  0.00000000000E+00 0.  1.
          2   -1    0    0  502    0 -0.00000000000E+00 -0.00000000000E+00 -0.18754040944E+04  0.18754040944E+04  0.00000000000E+00 0. -1.
          2    1    1    2  501    0 -0.26457683887E+02 -0.23865638952E+02 -0.18732710339E+04  0.18736098698E+04  0.00000000000E+00 0. -1.
          2    1    1    2  502    0  0.26457683887E+02  0.23865638952E+02  0.15967190445E+03  0.16359918958E+03  0.00000000000E+00 0.  1.
</event>
<event>
 4    1  0.7940509E+003  0.2431550E+02  0.7546771E-02  0.1476609E+00
          2   -1    0    0  502    0  0.00000000000E+00  0.00000000000E+00  0.12380569933E+02  0.12380569933E+02  0.00000000000E+00 0. -1.
          2   -1    0    0  501    0 -0.00000000000E+00 -0.00000000000E+00 -0.13538214102E+04  0.13538214102E+04  0.00000000000E+00 0. -1.
          2    1    1    2  501    0  0.24241417758E+02 -0.18965736816E+01  0.22428856030E+00  0.24316530016E+02  0.00000000000E+00 0. -1.
          2    1    1    2  502    0 -0.24241417758E+02  0.18965736816E+01 -0.13416651289E+04  0.13418854502E+04  0.00000000000E+00 0. -1.
</event>
<event>
 4    1  0.7940509E+003  0.4971973E+02  0.7546771E-02  0.1299392E+00
          2   -1    0    0  502    0  0.00000000000E+00  0.00000000000E+00  0.13231179226E+03  0.13231179226E+03  0.00000000000E+00 0.  1.
          2   -1    0    0  501    0 -0.00000000000E+00 -0.00000000000E+00 -0.10102332761E+03  0.10102332761E+03  0.00000000000E+00 0. -1.
          2    1    1    2  501    0 -0.48029165936E+02 -0.12854971002E+02  0.12097231610E+03  0.13079125476E+03  0.00000000000E+00 0.  1.
          2    1    1    2  502    0  0.48029165936E+02  0.12854971002E+02 -0.89683851451E+02  0.10254386511E+03  0.00000000000E+00 0. -1.
</event>
<event>
 4    1  0.7940509E+003  0.2353892E+02  0.7546771E-02  0.1485840E+00
          2   -1    0    0  501    0  0.00000000000E+00  0.00000000000E+00  0.81888982030E+00  0.81888982030E+00  0.00000000000E+00 0. -1.
          2   -1    0    0  502    0 -0.00000000000E+00 -0.00000000000E+00 -0.70012955345E+03  0.70012955345E+03  0.00000000000E+00 0. -1.
          2    1    1    2  501    0  0.25834890160E+01 -0.23396718332E+02 -0.41387207812E+03  0.41454092427E+03  0.00000000000E+00 0. -1.
          2    1    1    2  502    0 -0.25834890160E+01  0.23396718332E+02 -0.28543858551E+03  0.28640751900E+03  0.00000000000E+00 0. -1.
</event>
<event>
 4    1  0.7940509E+003  0.2424689E+02  0.7546771E-02  0.1477408E+00
          2   -1    0    0  501    0  0.00000000000E+00  0.00000000000E+00  0.12678744260E+03  0.12678744260E+03  0.00000000000E+00 0. -1.
          2   -1    0    0  502    0 -0.00000000000E+00 -0.00000000000E+00 -0.64574887993E+03  0.64574887993E+03  0.00000000000E+00 0. -1.
          2    1    1    2  501    0  0.12167171199E+02 -0.20973120024E+02 -0.64435952580E+03  0.64481556302E+03  0.00000000000E+00 0. -1.
          2    1    1    2  502    0 -0.12167171199E+02  0.20973120024E+02  0.12539808847E+03  0.12772075952E+03  0.00000000000E+00 0. -1.
</event>
<event>
 4    1  0.7940509E+003  0.2555258E+02  0.7546771E-02  0.1462716E+00
          2   -1    0    0  502    0  0.00000000000E+00  0.00000000000E+00  0.44495134423E+03  0.44495134423E+03  0.00000000000E+00 0.  1.
          2   -1    0    0  501    0 -0.00000000000E+00 -0.00000000000E+00 -0.11558140955E+02  0.11558140955E+02  0.00000000000E+00 0.  1.
          2    1    1    2  501    0  0.14759257513E+01 -0.25509921922E+02  0.42997001652E+03  0.43072862638E+03  0.00000000000E+00 0.  1.
          2    1    1    2  502    0 -0.14759257513E+01  0.25509921922E+02  0.34231867523E+01  0.25780858807E+02  0.00000000000E+00 0.  1.
</event>
<event>
 4    1  0.7940509E+003  0.2675681E+02  0.7546771E-02  0.1450066E+00
          2   -1    0    0  502    0  0.00000000000E+00  0.00000000000E+00  0.53519564221E+03  0.53519564221E+03  0.00000000000E+00 0. -1.
          2   -1    0    0  501    0 -0.00000000000E+00 -0.00000000000E+00 -0.35145518936E+03  0.35145518936E+03  0.00000000000E+00 0.  1.
          2    1    1    2  501    0 -0.25253145339E+02  0.88433913329E+01  0.53435115586E+03  0.53502063949E+03  0.00000000000E+00 0. -1.
          2    1    1    2  502    0  0.25253145339E+02 -0.88433913329E+01 -0.35061070300E+03  0.35163019208E+03  0.00000000000E+00 0.  1.
</event>
<event>
 4    1  0.7940509E+003  0.8121748E+02  0.7546771E-02  0.1201049E+00
          2   -1    0    0  501    0  0.00000000000E+00  0.00000000000E+00  0.33833615180E+02  0.33833615180E+02  0.00000000000E+00 0. -1.
          2   -1    0    0  502    0 -0.00000000000E+00 -0.00000000000E+00 -0.59417761931E+03  0.59417761931E+03  0.00000000000E+00 0.  1.
          2    1    1    2  501    0 -0.20918498870E+02  0.78477360929E+02 -0.53755678455E+03  0.54365759112E+03  0.00000000000E+00 0.  1.
          2    1    1    2  502    0  0.20918498870E+02 -0.78477360929E+02 -0.22787219586E+02  0.84353643370E+02  0.00000000000E+00 0. -1.
</event>
<event>
 4    1  0.7940509E+003  0.4831288E+02  0.7546771E-02  0.1305658E+00
          2   -1    0    0  502    0  0.00000000000E+00  0.00000000000E+00  0.35529203397E+03  0.35529203397E+03  0.00000000000E+00 0. -1.
          2   -1    0    0  501    0 -0.00000000000E+00 -0.00000000000E+00 -0.33334991871E+03  0.33334991871E+03  0.00000000000E+00 0. -1.
          2    1    1    2  501    0 -0.47251514628E+02 -0.10071194942E+02  0.35188223085E+03  0.35518338783E+03  0.00000000000E+00 0. -1.
          2    1    1    2  502    0  0.47251514628E+02  0.10071194942E+02 -0.32994011559E+03  0.33345856486E+03  0.00000000000E+00 0. -1.
</event>
<event>
 4    1  0.7940509E+003  0.2981284E+02  0.7546771E-02  0.1421230E+00
          2   -1    0    0  501    0  0.00000000000E+00  0.00000000000E+00  0.13409894807E+04  0.13409894807E+04  0.00000000000E+00 0. -1.
          2   -1    0    0  502    0 -0.00000000000E+00 -0.00000000000E+00 -0.29214691767E+02  0.29214691767E+02  0.00000000000E+00 0. -1.
          2    1    1    2  501    0  0.17980224619E+02  0.23780600172E+02 -0.21398598000E+02  0.36697485176E+02  0.00000000000E+00 0. -1.
          2    1    1    2  502    0 -0.17980224619E+02 -0.23780600172E+02  0.13331733869E+04  0.13335066873E+04  0.00000000000E+00 0. -1.
</event>
<event>
 4    1  0.7940509E+003  0.3058407E+02  0.7546771E-02  0.1414588E+00
          2   -1    0    0  501    0  0.00000000000E+00  0.00000000000E+00  0.90489683765E+02  0.90489683765E+02  0.00000000000E+00 0.  1.
          2   -1    0    0  502    0 -0.00000000000E+00 -0.00000000000E+00 -0.11849601366E+04  0.11849601366E+04  0.00000000000E+00 0. -1.
          2    1    1    2  501    0  0.11874036093E+02 -0.28184969586E+02 -0.11821724668E+04  0.11825680219E+04  0.00000000000E+00 0. -1.
          2    1    1    2  502    0 -0.11874036093E+02  0.28184969586E+02  0.87702013916E+02  0.92881798479E+02  0.00000000000E+00 0.  1.
</event>
<event>
 4    1  0.7940509E+003  0.2483175E+02  0.7546771E-02  0.1470694E+00
          2   -1    0    0  502    0  0.00000000000E+00  0.00000000000E+00  0.47735067319E+01  0.47735067319E+01  0.00000000000E+00 0. -1.
          2   -1    0    0  501    0 -0.00000000000E+00 -0.00000000000E+00 -0.13469409095E+04  0.13469409095E+04  0.00000000000E+00 0.  1.
          2    1    1    2  501    0  0.23468543184E+02  0.81143817786E+01 -0.28451239411E+02  0.37763590068E+02  0.00000000000E+00 0. -1.
          2    1    1    2  502    0 -0.23468543184E+02 -0.81143817786E+01 -0.13137161633E+04  0.13139508262E+04  0.00000000000E+00 0.  1.
</event>
<event>
 4    1  0.7940509E+003  0.2754916E+02  0.7546771E-02  0.1442168E+00
          2   -1    0    0  501    0  0.00000000000E+00  0.00000000000E+00  0.89008250933E+03  0.89008250933E+03  0.00000000000E+00 0.  1.
          2   -1    0    0  502    0 -0.00000000000E+00 -0.00000000000E+00 -0.66019190209E+01  0.66019190209E+01  0.00000000000E+00 0.  1.
          2    1    1    2  501    0  0.21935090336E+02  0.16667570432E+02  0.23351837150E+02  0.36114600793E+02  0.00000000000E+00 0.  1.
          2    1    1    2  502    0 -0.21935090336E+02 -0.16667570432E+02  0.86012875316E+03  0.86056982756E+03  0.00000000000E+00 0.  1.
</event>
<event>
 4    1  0.7940509E+003  0.2055891E+02  0.7546771E-02  0.1525657E+00
          2   -1    0    0  501    0  0.00000000000E+00  0.00000000000E+00  0.20899323166E+02  0.20899323166E+02  0.00000000000E+00 0.  1.
          2   -1    0    0  502    0 -0.00000000000E+00 -0.00000000000E+00 -0.86821987673E+02  0.86821987673E+02  0.00000000000E+00 0. -1.
          2    1    1    2  501    0 -0.39545462289E+00  0.20555109558E+02 -0.80133644972E+02  0.82728894407E+02  0.00000000000E+00 0. -1.
          2    1    1    2  502    0  0.39545462289E+00 -0.20555109558E+02  0.14210980465E+02  0.24992416432E+02  0.00000000000E+00 0.  1.
</event>
<event>
 4    1  0.7940509E+003  0.2481439E+02  0.7546771E-02  0.1470891E+00
          2   -1    0    0  502    0  0.00000000000E+00  0.00000000000E+00  0.26120963314E+01  0.26120963314E+01  0.00000000000E+00 0.  1.
          2   -1    0    0  501    0 -0.00000000000E+00 -0.00000000000E+00 -0.68024334197E+03  0.68024334197E+03  0.00000000000E+00 0. -1.
          2    1    1    2  501    0 -0.11510367319E+02 -0.21983298527E+02 -0.62816192626E+02  0.67539825481E+02  0.00000000000E+00 0.  1.
          2    1    1    2  502    0  0.11510367319E+02  0.21983298527E+02 -0.61481505302E+03  0.61531561282E+03  0.00000000000E+00 0. -1.
</event>
<event>
 4    1  0.7940509E+003  0.2684064E+02  0.7546771E-02  0.1449216E+00
          2   -1    0    0  501    0  0.00000000000E+00  0.00000000000E+00  0.54174091842E+02  0.54174091842E+02  0.00000000000E+00 0. -1.
          2   -1    0    0  502    0 -0.00000000000E+00 -0.00000000000E+00 -0.18381489904E+03  0.18381489904E+03  0.00000000000E+00 0.  1.
          2    1    1    2  501    0 -0.18723025921E+02  0.19231955808E+02 -0.17942972212E+03  0.18142614201E+03  0.00000000000E+00 0.  1.
          2    1    1    2  502    0  0.18723025921E+02 -0.19231955808E+02  0.49788914921E+02  0.56562848875E+02  0.00000000000E+00 0. -1.
</event>
<event>
 4    1  0.7940509E+003  0.3171420E+02  0.7546771E-02  0.1405263E+00
          2   -1    0    0  502    0  0.00000000000E+00  0.00000000000E+00  0.11393323906E+03  0.11393323906E+03  0.00000000000E+00 0. -1.
          2   -1    0    0  501    0 -0.00000000000E+00 -0.00000000000E+00 -0.60602919654E+03  0.60602919654E+03  0.00000000000E+00 0.  1.
          2    1    1    2  501    0 -0.28537109002E+02  0.13835613677E+02  0.11130173654E+03  0.11573187700E+03  0.00000000000E+00 0. -1.
          2    1    1    2  502    0  0.28537109002E+02 -0.13835613677E+02 -0.60339769402E+03  0.60423055860E+03  0.00000000000E+00 0.  1.
</event>
<event>
 4    1  0.7940509E+003  0.4732881E+02  0.7546771E-02  0.1310189E+00
          2   -1    0    0  501    0  0.00000000000E+00  0.00000000000E+00  0.11342372472E+02  0.11342372472E+02  0.00000000000E+00 0.  1.
          2   -1    0    0  502    0 -0.00000000000E+00 -0.00000000000E+00 -0.48252129037E+03  0.48252129037E+03  0.00000000000E+00 0. -1.
          2    1    1    2  501    0  0.47257774981E+02 -0.25921625066E+01 -0.42537553067E+03  0.42800041904E+03  0.00000000000E+00 0. -1.
          2    1    1    2  502    0 -0.47257774981E+02  0.25921625066E+01 -0.45803387221E+02  0.65863243798E+02  0.00000000000E+00 0.  1.
</event>
<event>
 4    1  0.7940509E+003  0.2164208E+02  0.7546771E-02  0.1510292E+00
          2   -1    0    0  501    0  0.00000000000E+00  0.00000000000E+00  0.17266602204E+04  0.17266602204E+04  0.00000000000E+00 0.  1.
          2   -1    0    0  502    0 -0.00000000000E+00 -0.00000000000E+00 -0.37540470122E+00  0.37540470122E+00  0.00000000000E+00 0. -1.
          2    1    1    2  501    0 -0.14840417887E+02 -0.15752514476E+02  0.40832931855E+03  0.40890244815E+03  0.00000000000E+00 0. -1.
          2    1    1    2  502    0  0.14840417887E+02  0.15752514476E+02  0.13179554972E+04  0.13181331770E+04  0.00000000000E+00 0.  1.
</event>
<event>
 4    1  0.7940509E+003  0.1120631E+03  0.7546771E-02  0.1144402E+00
          2   -1    0    0  502    0  0.00000000000E+00  0.00000000000E+00  0.10320018386E+03  0.10320018386E+03  0.00000000000E+00 0.  1.
          2   -1    0    0  501    0 -0.00000000000E+00 -0.00000000000E+00 -0.76268729425E+03  0.76268729425E+03  0.00000000000E+00 0. -1.
          2    1    1    2  501    0  0.57545382467E+01 -0.11191528620E+03  0.67162056676E+02  0.13064795387E+03  0.00000000000E+00 0.  1.
          2    1    1    2  502    0 -0.57545382467E+01  0.11191528620E+03 -0.72664916707E+03  0.73523952424E+03  0.00000000000E+00 0. -1.
</event>
<event>
 4    1  0.1215860E+004  0.2955859E+02  0.7546771E-02  0.1423472E+00
          2   -1    0    0  502    0  0.00000000000E+00  0.00000000000E+00  0.91688780927E+03  0.91688780927E+03  0.00000000000E+00 0. -1.
          2   -1    0    0  501    0 -0.00000000000E+00 -0.00000000000E+00 -0.67093479553E+03  0.67093479553E+03  0.00000000000E+00 0.  1.
          2    1    1    2  501    0  0.18596394851E+02 -0.22975738231E+02  0.91632382462E+03  0.91680044830E+03  0.00000000000E+00 0. -1.
          2    1    1    2  502    0 -0.18596394851E+02  0.22975738231E+02 -0.67037081087E+03  0.67102215650E+03  0.00000000000E+00 0.  1.
</event>
<event>
 4    1  0.7940509E+003  0.3557060E+02  0.7546771E-02  0.1376596E+00
          2   -1    0    0  502    0  0.00000000000E+00  0.00000000000E+00  0.17101163175E+01  0.17101163175E+01  0.00000000000E+00 0. -1.
          2   -1    0    0  501    0 -0.00000000000E+00 -0.00000000000E+00 -0.16260289731E+04  0.16260289731E+04  0.00000000000E+00 0. -1.
          2    1    1    2  501    0  0.85378202959E+01 -0.34530758377E+02 -0.21133729946E+03  0.21430987329E+03  0.00000000000E+00 0. -1.
          2    1    1    2  502    0 -0.85378202959E+01  0.34530758377E+02 -0.14129815573E+04  0.14134292161E+04  0.00000000000E+00 0. -1.
</event>
<event>
 4    1  0.7940509E+003  0.2723255E+02  0.7546771E-02  0.1445286E+00
          2   -1    0    0  502    0  0.00000000000E+00  0.00000000000E+00  0.69883057653E+03  0.69883057653E+03  0.00000000000E+00 0.  1.
          2   -1    0    0  501    0 -0.00000000000E+00 -0.00000000000E+00 -0.11321198423E+01  0.11321198423E+01  0.00000000000E+00 0.  1.
          2    1    1    2  501    0 -0.19843971088E+02  0.18650170108E+02  0.26126508218E+03  0.26268051926E+03  0.00000000000E+00 0.  1.
          2    1    1    2  502    0  0.19843971088E+02 -0.18650170108E+02  0.43643337451E+03  0.43728217711E+03  0.00000000000E+00 0.  1.
</event>
<event>
 4    1  0.7940509E+003  0.2242360E+02  0.7546771E-02  0.1499866E+00
          2   -1    0    0  501    0  0.00000000000E+00  0.00000000000E+00  0.14687932085E+01  0.14687932085E+01  0.00000000000E+00 0.  1.
          2   -1    0    0  502    0 -0.00000000000E+00 -0.00000000000E+00 -0.48515239647E+03  0.48515239647E+03  0.00000000000E+00 0.  1.
          2    1    1    2  501    0 -0.10865581103E+02 -0.19615225003E+02 -0.10982963645E+03  0.11209534757E+03  0.00000000000E+00 0.  1.
          2    1    1    2  502    0  0.10865581103E+02  0.19615225003E+02 -0.37385396681E+03  0.37452584211E+03  0.00000000000E+00 0.  1.
</event>
<event>
 4    1  0.7940509E+003  0.2171909E+02  0.7546771E-02  0.1509241E+00
          2   -1    0    0  501    0  0.00000000000E+00  0.00000000000E+00  0.54983510398E+02  0.54983510398E+02  0.00000000000E+00 0.  1.
          2   -1    0    0  502    0 -0.00000000000E+00 -0.00000000000E+00 -0.13701026285E+02  0.13701026285E+02  0.00000000000E+00 0.  1.
          2    1    1    2  501    0 -0.20305743924E+02 -0.77068643971E+01 -0.35595909580E+00  0.21722009622E+02  0.00000000000E+00 0.  1.
          2    1    1    2  502    0  0.20305743924E+02  0.77068643971E+01  0.41638443209E+02  0.46962527061E+02  0.00000000000E+00 0.  1.
</event>
<event>
 4    1  0.7940509E+003  0.3091236E+02  0.7546771E-02  0.1411830E+00
          2   -1    0    0  502    0  0.00000000000E+00  0.00000000000E+00  0.13128635160E+02  0.13128635160E+02  0.00000000000E+00 0. -1.
          2   -1    0    0  501    0 -0.00000000000E+00 -0.00000000000E+00 -0.88714506468E+02  0.88714506468E+02  0.00000000000E+00 0. -1.
          2    1    1    2  501    0 -0.46100135763E+01  0.30566673958E+02 -0.16215524981E+02  0.34907263320E+02  0.00000000000E+00 0. -1.
          2    1    1    2  502    0  0.46100135763E+01 -0.30566673958E+02 -0.59370346327E+02  0.66935878309E+02  0.00000000000E+00 0. -1.
</event>
<event>
 4    1  0.7940509E+003  0.3407329E+02  0.7546771E-02  0.1387198E+00
          2   -1    0    0  501    0  0.00000000000E+00  0.00000000000E+00  0.13793526906E+04  0.13793526906E+04  0.00000000000E+00 0. -1.
          2   -1    0    0  502    0 -0.00000000000E+00 -0.00000000000E+00 -0.20781684519E+02  0.20781684519E+02  0.00000000000E+00 0. -1.
          2    1    1    2  501    0 -0.32382953393E+02 -0.10598742345E+02 -0.64582390991E+01  0.34679934574E+02  0.00000000000E+00 0. -1.
          2    1    1    2  502    0  0.32382953393E+02  0.10598742345E+02  0.13650292452E+04  0.13654544406E+04  0.00000000000E+00 0. -1.
</event>
<event>
 4    1  0.7940509E+003  0.2251355E+02  0.7546771E-02  0.1498699E+00
          2   -1    0    0  501    0  0.00000000000E+00  0.00000000000E+00  0.13039820563E+04  0.13039820563E+04  0.00000000000E+00 0. -1.
          2   -1    0    0  502    0 -0.00000000000E+00 -0.00000000000E+00 -0.13664425019E+01  0.13664425019E+01  0.00000000000E+00 0.  1.
          2    1    1    2  501    0 -0.14146849790E+02  0.17513608994E+02  0.99214225444E+02  0.10173653419E+03  0.00000000000E+00 0.  1.
          2    1    1    2  502    0  0.14146849790E+02 -0.17513608994E+02  0.12034013883E+04  0.12036119646E+04  0.00000000000E+00 0. -1.
</event>
<event>
 4    1  0.7940509E+003  0.3178552E+02  0.7546771E-02  0.1404690E+00
          2   -1    0    0  502    0  0.00000000000E+00  0.00000000000E+00  0.65916285374E+03  0.65916285374E+03  0.00000000000E+00 0.  1.
          2   -1    0    0  501    0 -0.00000000000E+00 -0.00000000000E+00 -0.47345126610E+03  0.47345126610E+03  0.00000000000E+00 0.  1.
          2    1    1    2  501    0 -0.48261076061E+01  0.31417004934E+02  0.65824544128E+03  0.65901242817E+03  0.00000000000E+00 0.  1.
          2    1    1    2  502    0  0.48261076061E+01 -0.31417004934E+02 -0.47253385365E+03  0.47360169167E+03  0.00000000000E+00 0.  1.
</event>
<event>
 4    1  0.7940509E+003  0.2467985E+02  0.7546771E-02  0.1472417E+00
          2   -1    0    0  501    0  0.00000000000E+00  0.00000000000E+00  0.11112091320E+02  0.11112091320E+02  0.00000000000E+00 0.  1.
          2   -1    0    0  502    0 -0.00000000000E+00 -0.00000000000E+00 -0.60786377653E+02  0.60786377653E+02  0.00000000000E+00 0.  1.
          2    1    1    2  501    0 -0.57556348825E+00 -0.24673139413E+02 -0.36105750916E+02  0.43734658236E+02  0.00000000000E+00 0.  1.
          2    1    1    2  502    0  0.57556348825E+00  0.24673139413E+02 -0.13568535417E+02  0.28163810736E+02  0.00000000000E+00 0.  1.
</event>
<event>
 4    1  0.7940509E+003  0.2383778E+02  0.7546771E-02  0.1482238E+00
          2   -1    0    0  501    0  0.00000000000E+00  0.00000000000E+00  0.26541565510E+01  0.26541565510E+01  0.00000000000E+00 0. -1.
          2   -1    0    0  502    0 -0.00000000000E+00 -0.00000000000E+00 -0.51750316308E+03  0.51750316308E+03  0.00000000000E+00 0.  1.
          2    1    1    2  501    0  0.23679647095E+02 -0.27412232131E+01 -0.45656624041E+03  0.45718811432E+03  0.00000000000E+00 0.  1.
          2    1    1    2  502    0 -0.23679647095E+02  0.27412232131E+01 -0.58282766113E+02  0.62969205308E+02  0.00000000000E+00 0. -1.
</event>
<event>
 4    1  0.7940509E+003  0.2063331E+02  0.7546771E-02  0.1524565E+00
          2   -1    0    0  501    0  0.00000000000E+00  0.00000000000E+00  0.46820712802E+02  0.46820712802E+02  0.00000000000E+00 0. -1.
          2   -1    0    0  502    0 -0.00000000000E+00 -0.00000000000E+00 -0.37590274453E+03  0.37590274453E+03  0.00000000000E+00 0.  1.
          2    1    1    2  501    0  0.11555453087E+02  0.17094007409E+02 -0.37333074298E+03  0.37390049109E+03  0.00000000000E+00 0.  1.
          2    1    1    2  502    0 -0.11555453087E+02 -0.17094007409E+02  0.44248711250E+02  0.48822966242E+02  0.00000000000E+00 0. -1.
</event>
<event>
 4    1  0.7940509E+003  0.4057551E+02  0.7546771E-02  0.1345146E+00
          2   -1    0    0  501    0  0.00000000000E+00  0.00000000000E+00  0.22691256159E+03  0.22691256159E+03  0.00000000000E+00 0. -1.
          2   -1    0    0  502    0 -0.00000000000E+00 -0.00000000000E+00 -0.17248510452E+04  0.17248510452E+04  0.00000000000E+00 0. -1.
          2    1    1    2  501    0  0.27162673921E+02  0.30142345618E+02 -0.17227963734E+04  0.17232741268E+04  0.00000000000E+00 0. -1.
          2    1    1    2  502    0 -0.27162673921E+02 -0.30142345618E+02  0.22485788981E+03  0.22848947999E+03  0.00000000000E+00 0. -1.
</event>
<event>
 4    1  0.7940509E+003  0.2821565E+02  0.7546771E-02  0.1435765E+00
          2   -1    0    0  502    0  0.00000000000E+00  0.00000000000E+00  0.31563852084E+01  0.31563852084E+01  0.00000000000E+00 0.  1.
          2   -1    0    0  501    0 -0.00000000000E+00 -0.00000000000E+00 -0.52191828354E+03  0.52191828354E+03  0.00000000000E+00 0. -1.
          2    1    1    2  501    0  0.28197424248E+02  0.10139290804E+01 -0.70658318560E+02  0.76083643237E+02  0.00000000000E+00 0.  1.
          2    1    1    2  502    0 -0.28197424248E+02 -0.10139290804E+01 -0.44810357977E+03  0.44899102551E+03  0.00000000000E+00 0. -1.
</event>
<event>
 4    1  0.7940509E+003  0.3470501E+02  0.7546771E-02  0.1382649E+00
          2   -1    0    0  501    0  0.00000000000E+00  0.00000000000E+00  0.13295709416E+04  0.13295709416E+04  0.00000000000E+00 0.  1.
          2   -1    0    0  502    0 -0.00000000000E+00 -0.00000000000E+00 -0.15477903467E+02  0.15477903467E+02  0.00000000000E+00 0.  1.
          2    1    1    2  501    0 -0.32400558315E+02 -0.12435492412E+02  0.44994280851E+01  0.34995464045E+02  0.00000000000E+00 0.  1.
          2    1    1    2  502    0  0.32400558315E+02  0.12435492412E+02  0.13095936100E+04  0.13100533810E+04  0.00000000000E+00 0.  1.
</event>
<event>
 4    1  0.7940509E+003  0.2036613E+02  0.7546771E-02  0.1528510E+00
          2   -1    0    0  501    0  0.00000000000E+00  0.00000000000E+00  0.14652622537E+03  0.14652622537E+03  0.00000000000E+00 0.  1.
          2   -1    0    0  502    0 -0.00000000000E+00 -0.00000000000E+00 -0.20272192586E+03  0.20272192586E+03  0.00000000000E+00 0.  1.
          2    1    1    2  501    0  0.14315660432E+02  0.14485899570E+02 -0.20149843894E+03  0.20252506095E+03  0.00000000000E+00 0.  1.
          2    1    1    2  502    0 -0.14315660432E+02 -0.14485899570E+02  0.14530273844E+03  0.14672309027E+03  0.00000000000E+00 0.  1.
</event>
<event>
 4    1  0.7940509E+003  0.2149442E+02  0.7546771E-02  0.1512322E+00
          2   -1    0    0  502    0  0.00000000000E+00  0.00000000000E+00  0.89730496233E+01  0.89730496233E+01  0.00000000000E+00 0. -1.
          2   -1    0    0  501    0 -0.00000000000E+00 -0.00000000000E+00 -0.15114038544E+04  0.15114038544E+04  0.00000000000E+00 0.  1.
          2    1    1    2  501    0 -0.78429224528E+01  0.20012459626E+02 -0.40877252876E+01  0.21879658839E+02  0.00000000000E+00 0. -1.
          2    1    1    2  502    0  0.78429224528E+01 -0.20012459626E+02 -0.14983430795E+04  0.14984972451E+04  0.00000000000E+00 0.  1.
</event>
<event>
 4    1  0.7940509E+003  0.2025477E+02  0.7546771E-02  0.1530176E+00
          2   -1    0    0  502    0  0.00000000000E+00  0.00000000000E+00  0.73591085764E+01  0.73591085764E+01  0.00000000000E+00 0. -1.
          2   -1    0    0  501    0 -0.00000000000E+00 -0.00000000000E+00 -0.10345621555E+03  0.10345621555E+03  0.00000000000E+00 0. -1.
          2    1    1    2  501    0  0.17652864512E+02 -0.99313734806E+01 -0.10422559482E+02  0.22779059481E+02  0.00000000000E+00 0. -1.
          2    1    1    2  502    0 -0.17652864512E+02  0.99313734806E+01 -0.85674547494E+02  0.88036264647E+02  0.00000000000E+00 0. -1.
</event>
<event>
 4    1  0.7940509E+003  0.2541755E+02  0.7546771E-02  0.1464186E+00
          2   -1    0    0  501    0  0.00000000000E+00  0.00000000000E+00  0.84505654837E+03  0.84505654837E+03  0.00000000000E+00 0.  1.
          2   -1    0    0  502    0 -0.00000000000E+00 -0.00000000000E+00 -0.34421279712E+01  0.34421279712E+01  0.00000000000E+00 0. -1.
          2    1    1    2  501    0  0.11311672629E+02 -0.22761759203E+02  0.46625788951E+02  0.53103821096E+02  0.00000000000E+00 0. -1.
          2    1    1    2  502    0 -0.11311672629E+02  0.22761759203E+02  0.79498863145E+03  0.79539485524E+03  0.00000000000E+00 0.  1.
</event>
<event>
 4    1  0.7940509E+003  0.3435713E+02  0.7546771E-02  0.1385140E+00
          2   -1    0    0  502    0  0.00000000000E+00  0.00000000000E+00  0.16160434131E+03  0.16160434131E+03  0.00000000000E+00 0. -1.
          2   -1    0    0  501    0 -0.00000000000E+00 -0.00000000000E+00 -0.14147150951E+04  0.14147150951E+04  0.00000000000E+00 0. -1.
          2    1    1    2  501    0 -0.33558663685E+02 -0.73639832173E+01  0.15956702920E+03  0.16322392277E+03  0.00000000000E+00 0. -1.
          2    1    1    2  502    0  0.33558663685E+02  0.73639832173E+01 -0.14126777830E+04  0.14130955137E+04  0.00000000000E+00 0. -1.
</event>
<event>
 4    1  0.7940509E+003  0.3304067E+02  0.7546771E-02  0.1394887E+00
          2   -1    0    0  502    0  0.00000000000E+00  0.00000000000E+00  0.63354435677E+01  0.63354435677E+01  0.00000000000E+00 0.  1.
          2   -1    0    0  501    0 -0.00000000000E+00 -0.00000000000E+00 -0.59403713015E+03  0.59403713015E+03  0.00000000000E+00 0. -1.
          2    1    1    2  501    0 -0.16921474023E+02  0.28378685067E+02 -0.40922366121E+02  0.52595875296E+02  0.00000000000E+00 0.  1.
          2    1    1    2  502    0  0.16921474023E+02 -0.28378685067E+02 -0.54677932046E+03  0.54777669842E+03  0.00000000000E+00 0. -1.
</event>
<event>
 4    1  0.7940509E+003  0.2791799E+02  0.7546771E-02  0.1438598E+00
          2   -1    0    0  501    0  0.00000000000E+00  0.00000000000E+00  0.23170915423E+03  0.23170915423E+03  0.00000000000E+00 0.  1.
          2   -1    0    0  502    0 -0.00000000000E+00 -0.00000000000E+00 -0.69866806228E+02  0.69866806228E+02  0.00000000000E+00 0.  1.
          2    1    1    2  501    0 -0.21510919683E+02  0.17795905410E+02 -0.66192163714E+02  0.71838822736E+02  0.00000000000E+00 0.  1.
          2    1    1    2  502    0  0.21510919683E+02 -0.17795905410E+02  0.22803451172E+03  0.22973713772E+03  0.00000000000E+00 0.  1.
</event>
<event>
 4    1  0.7940509E+003  0.2850868E+02  0.7546771E-02  0.1433015E+00
          2   -1    0    0  502    0  0.00000000000E+00  0.00000000000E+00  0.10288533104E+02  0.10288533104E+02  0.00000000000E+00 0. -1.
          2   -1    0    0  501    0 -0.00000000000E+00 -0.00000000000E+00 -0.32199678771E+03  0.32199678771E+03  0.00000000000E+00 0. -1.
          2    1    1    2  501    0  0.53812695065E+01  0.27996187908E+02 -0.11523015227E+02  0.30749381763E+02  0.00000000000E+00 0. -1.
          2    1    1    2  502    0 -0.53812695065E+01 -0.27996187908E+02 -0.30018523937E+03  0.30153593905E+03  0.00000000000E+00 0. -1.
</event>
<event>
 4    1  0.7940509E+003  0.2118589E+02  0.7546771E-02  0.1516627E+00
          2   -1    0    0  501    0  0.00000000000E+00  0.00000000000E+00  0.86087222263E+03  0.86087222263E+03  0.00000000000E+00 0. -1.
          2   -1    0    0  502    0 -0.00000000000E+00 -0.00000000000E+00 -0.26441733890E+01  0.26441733890E+01  0.00000000000E+00 0.  1.
          2    1    1    2  501    0 -0.16356497204E+02 -0.13465019079E+02  0.42257906850E+02  0.47271264326E+02  0.00000000000E+00 0.  1.
          2    1    1    2  502    0  0.16356497204E+02  0.13465019079E+02  0.81597014239E+03  0.81624513170E+03  0.00000000000E+00 0. -1.
</event>
<event>
 4    1  0.7940509E+003  0.2557180E+02  0.7546771E-02  0.1462507E+00
          2   -1    0    0  502    0  0.00000000000E+00  0.00000000000E+00  0.11650311603E+03  0.11650311603E+03  0.00000000000E+00 0.  1.
          2   -1    0    0  501    0 -0.00000000000E+00 -0.00000000000E+00 -0.14292278513E+04  0.14292278513E+04  0.00000000000E+00 0.  1.
          2    1    1    2  501    0 -0.60551644861E+00  0.25564628888E+02  0.11498402260E+03  0.11779321862E+03  0.00000000000E+00 0.  1.
          2    1    1    2  502    0  0.60551644861E+00 -0.25564628888E+02 -0.14277087578E+04  0.14279377487E+04  0.00000000000E+00 0.  1.
</event>
<event>
 4    1  0.7940509E+003  0.3952681E+02  0.7546771E-02  0.1351281E+00
          2   -1    0    0  502    0  0.00000000000E+00  0.00000000000E+00  0.16790936883E+02  0.16790936883E+02  0.00000000000E+00 0. -1.
          2   -1    0    0  501    0 -0.00000000000E+00 -0.00000000000E+00 -0.24779637413E+04  0.24779637413E+04  0.00000000000E+00 0.  1.
          2    1    1    2  501    0 -0.50819090280E+01  0.39198757329E+02 -0.68528495800E+01  0.40116454516E+02  0.00000000000E+00 0. -1.
          2    1    1    2  502    0  0.50819090280E+01 -0.39198757329E+02 -0.24543199548E+04  0.24546382236E+04  0.00000000000E+00 0.  1.
</event>
<event>
 4    1  0.7940509E+003  0.2035227E+02  0.7546771E-02  0.1528717E+00
          2   -1    0    0  502    0  0.00000000000E+00  0.00000000000E+00  0.41745192078E+02  0.41745192078E+02  0.00000000000E+00 0.  1.
          2   -1    0    0  501    0 -0.00000000000E+00 -0.00000000000E+00 -0.80646198367E+02  0.80646198367E+02  0.00000000000E+00 0.  1.
          2    1    1    2  501    0  0.63677986043E+01 -0.19330444197E+02  0.37857006016E+02  0.42981017163E+02  0.00000000000E+00 0.  1.
          2    1    1    2  502    0 -0.63677986043E+01  0.19330444197E+02 -0.76758012304E+02  0.79410373282E+02  0.00000000000E+00 0.  1.
</event>
<event>
 4    1  0.7940509E+003  0.2020236E+02  0.7546771E-02  0.1530964E+00
          2   -1    0    0  501    0  0.00000000000E+00  0.00000000000E+00  0.93037194918E+03  0.93037194918E+03  0.00000000000E+00 0.  1.
          2   -1    0    0  502    0 -0.00000000000E+00 -0.00000000000E+00 -0.32028151060E+01  0.32028151060E+01  0.00000000000E+00 0.  1.
          2    1    1    2  501    0  0.18376240397E+02  0.83933999474E+01  0.29941084453E+02  0.36119301101E+02  0.00000000000E+00 0.  1.
          2    1    1    2  502    0 -0.18376240397E+02 -0.83933999474E+01  0.89722804962E+03  0.89745546319E+03  0.00000000000E+00 0.  1.
</event>
<event>
 4    1  0.7940509E+003  0.2229252E+02  0.7546771E-02  0.1501578E+00
          2   -1    0    0  502    0  0.00000000000E+00  0.00000000000E+00  0.12804295661E+04  0.12804295661E+04  0.00000000000E+00 0.  1.
          2   -1    0    0  501    0 -0.00000000000E+00 -0.00000000000E+00 -0.19101842931E+02  0.19101842931E+02  0.00000000000E+00 0. -1.
          2    1    1    2  501    0  0.22263408739E+02  0.11389235516E+01  0.12737946223E+04  0.12739896767E+04  0.00000000000E+00 0.  1.
          2    1    1    2  502    0 -0.22263408739E+02 -0.11389235516E+01 -0.12466899149E+02  0.25541732321E+02  0.00000000000E+00 0. -1.
</event>
<event>
 4    1  0.7940509E+003  0.3031011E+02  0.7546771E-02  0.1416920E+00
          2   -1    0    0  501    0  0.00000000000E+00  0.00000000000E+00  0.11172137571E+02  0.11172137571E+02  0.00000000000E+00 0. -1.
          2   -1    0    0  502    0 -0.00000000000E+00 -0.00000000000E+00 -0.22434185536E+03  0.22434185536E+03  0.00000000000E+00 0. -1.
          2    1    1    2  501    0  0.29295190825E+02  0.77778245823E+01 -0.20030744733E+03  0.20258770007E+03  0.00000000000E+00 0. -1.
          2    1    1    2  502    0 -0.29295190825E+02 -0.77778245823E+01 -0.12862270459E+02  0.32926292869E+02  0.00000000000E+00 0. -1.
</event>
<event>
 4    1  0.7940509E+003  0.8262332E+02  0.7546771E-02  0.1197885E+00
          2   -1    0    0  501    0  0.00000000000E+00  0.00000000000E+00  0.35125181076E+01  0.35125181076E+01  0.00000000000E+00 0.  1.
          2   -1    0    0  502    0 -0.00000000000E+00 -0.00000000000E+00 -0.31285644246E+04  0.31285644246E+04  0.00000000000E+00 0.  1.
          2    1    1    2  501    0 -0.18127512601E+02  0.80610213420E+02 -0.25263529078E+04  0.25277036274E+04  0.00000000000E+00 0.  1.
          2    1    1    2  502    0  0.18127512601E+02 -0.80610213420E+02 -0.59869899869E+03  0.60437331531E+03  0.00000000000E+00 0.  1.
</event>
<event>
 4    1  0.7940509E+003  0.2141681E+02  0.7546771E-02  0.1513396E+00
          2   -1    0    0  502    0  0.00000000000E+00  0.00000000000E+00  0.48639543601E+01  0.48639543601E+01  0.00000000000E+00 0.  1.
          2   -1    0    0  501    0 -0.00000000000E+00 -0.00000000000E+00 -0.45556908112E+03  0.45556908112E+03  0.00000000000E+00 0.  1.
          2    1    1    2  501    0  0.32546014916E+01  0.21168073891E+02 -0.20343218041E+02  0.29538556217E+02  0.00000000000E+00 0.  1.
          2    1    1    2  502    0 -0.32546014916E+01 -0.21168073891E+02 -0.43036190871E+03  0.43089447926E+03  0.00000000000E+00 0.  1.
</event>
<event>
 4    1  0.7940509E+003  0.2768125E+02  0.7546771E-02  0.1440882E+00
          2   -1    0    0  501    0  0.00000000000E+00  0.00000000000E+00  0.10264669690E+04  0.10264669690E+04  0.00000000000E+00 0. -1.
          2   -1    0    0  502    0 -0.00000000000E+00 -0.00000000000E+00 -0.17654509380E+01  0.17654509380E+01  0.00000000000E+00 0. -1.
          2    1    1    2  501    0  0.24237453571E+02 -0.13371511373E+02  0.12176952054E+03  0.12487620912E+03  0.00000000000E+00 0. -1.
          2    1    1    2  502    0 -0.24237453571E+02  0.13371511373E+02  0.90293199756E+03  0.90335621086E+03  0.00000000000E+00 0. -1.
</event>
<event>
 4    1  0.7940509E+003  0.6673623E+02  0.7546771E-02  0.1238516E+00
          2   -1    0    0  501    0  0.00000000000E+00  0.00000000000E+00  0.23661559520E+03  0.23661559520E+03  0.00000000000E+00 0. -1.
          2   -1    0    0  502    0 -0.00000000000E+00 -0.00000000000E+00 -0.69353535777E+02  0.69353535777E+02  0.00000000000E+00 0. -1.
          2    1    1    2  501    0 -0.27600256681E+02 -0.60761421042E+02 -0.46953556155E+02  0.81598779963E+02  0.00000000000E+00 0. -1.
          2    1    1    2  502    0  0.27600256681E+02  0.60761421042E+02  0.21421561558E+03  0.22437035101E+03  0.00000000000E+00 0. -1.
</event>
<event>
 4    1  0.7940509E+003  0.5659859E+02  0.7546771E-02  0.1271849E+00
          2   -1    0    0  502    0  0.00000000000E+00  0.00000000000E+00  0.28925533736E+02  0.28925533736E+02  0.00000000000E+00 0.  1.
          2   -1    0    0  501    0 -0.00000000000E+00 -0.00000000000E+00 -0.91284129984E+03  0.91284129984E+03  0.00000000000E+00 0. -1.
          2    1    1    2  501    0 -0.55302101980E+02  0.12044842536E+02 -0.56165808055E+00  0.56601379621E+02  0.00000000000E+00 0.  1.
          2    1    1    2  502    0  0.55302101980E+02 -0.12044842536E+02 -0.88335410802E+03  0.88516545396E+03  0.00000000000E+00 0. -1.
</event>
<event>
 4    1  0.7940509E+003  0.2376537E+02  0.7546771E-02  0.1483105E+00
          2   -1    0    0  502    0  0.00000000000E+00  0.00000000000E+00  0.12438265939E+03  0.12438265939E+03  0.00000000000E+00 0. -1.
          2   -1    0    0  501    0 -0.00000000000E+00 -0.00000000000E+00 -0.61147548804E+01  0.61147548804E+01  0.00000000000E+00 0. -1.
          2    1    1    2  501    0 -0.15702693650E+02 -0.17838673861E+02  0.92238133970E+02  0.95250544519E+02  0.00000000000E+00 0. -1.
          2    1    1    2  502    0  0.15702693650E+02  0.17838673861E+02  0.26029770543E+02  0.35246869754E+02  0.00000000000E+00 0. -1.
</event>
<event>
 4    1  0.7940509E+003  0.4160355E+02  0.7546771E-02  0.1339337E+00
          2   -1    0    0  502    0  0.00000000000E+00  0.00000000000E+00  0.43376925542E+03  0.43376925542E+03  0.00000000000E+00 0.  1.
          2   -1    0    0  501    0 -0.00000000000E+00 -0.00000000000E+00 -0.54134331995E+01  0.54134331995E+01  0.00000000000E+00 0. -1.
          2    1    1    2  501    0  0.40738506315E+02 -0.84397731462E+01  0.32676963096E+03  0.32940741854E+03  0.00000000000E+00 0.  1.
          2    1    1    2  502    0 -0.40738506315E+02  0.84397731462E+01  0.10158619126E+03  0.10977527009E+03  0.00000000000E+00 0. -1.
</event>
<event>
 4    1  0.7940509E+003  0.4578886E+02  0.7546771E-02  0.1317541E+00
          2   -1    0    0  502    0  0.00000000000E+00  0.00000000000E+00  0.21185323420E+04  0.21185323420E+04  0.00000000000E+00 0.  1.
          2   -1    0    0  501    0 -0.00000000000E+00 -0.00000000000E+00 -0.44956068743E+03  0.44956068743E+03  0.00000000000E+00 0. -1.
          2    1    1    2  501    0 -0.29097032323E+02 -0.35355092824E+02  0.21171182220E+04  0.21176133230E+04  0.00000000000E+00 0.  1.
          2    1    1    2  502    0  0.29097032323E+02  0.35355092824E+02 -0.44814656750E+03  0.45047970635E+03  0.00000000000E+00 0. -1.
</event>
<event>
 4    1  0.7940509E+003  0.2347536E+02  0.7546771E-02  0.1486614E+00
          2   -1    0    0  502    0  0.00000000000E+00  0.00000000000E+00  0.28472202524E+01  0.28472202524E+01  0.00000000000E+00 0.  1.
          2   -1    0    0  501    0 -0.00000000000E+00 -0.00000000000E+00 -0.90301148644E+03  0.90301148644E+03  0.00000000000E+00 0. -1.
          2    1    1    2  501    0  0.22772899078E+02 -0.56997896521E+01 -0.48617919164E+02  0.53988837720E+02  0.00000000000E+00 0.  1.
          2    1    1    2  502    0 -0.22772899078E+02  0.56997896521E+01 -0.85154634702E+03  0.85186986897E+03  0.00000000000E+00 0. -1.
</event>
<event>
 4    1  0.7940509E+003  0.2097057E+02  0.7546771E-02  0.1519685E+00
          2   -1    0    0  501    0  0.00000000000E+00  0.00000000000E+00  0.14292250701E+04  0.14292250701E+04  0.00000000000E+00 0. -1.
          2   -1    0    0  502    0 -0.00000000000E+00 -0.00000000000E+00 -0.23426004018E+01  0.23426004018E+01  0.00000000000E+00 0.  1.
          2    1    1    2  501    0 -0.10632509788E+02  0.18075246241E+02  0.46319733762E+02  0.50845673630E+02  0.00000000000E+00 0.  1.
          2    1    1    2  502    0  0.10632509788E+02 -0.18075246241E+02  0.13805627359E+04  0.13807219969E+04  0.00000000000E+00 0. -1.
</event>
<event>
 4    1  0.7940509E+003  0.3377773E+02  0.7546771E-02  0.1389366E+00
          2   -1    0    0  502    0  0.00000000000E+00  0.00000000000E+00  0.10469667357E+04  0.10469667357E+04  0.00000000000E+00 0. -1.
          2   -1    0    0  501    0 -0.00000000000E+00 -0.00000000000E+00 -0.11974663571E+01  0.11974663571E+01  0.00000000000E+00 0. -1.
          2    1    1    2  501    0  0.31081615223E+02  0.13223768106E+02  0.68006670793E+03  0.68090503162E+03  0.00000000000E+00 0. -1.
          2    1    1    2  502    0 -0.31081615223E+02 -0.13223768106E+02  0.36570256143E+03  0.36725917045E+03  0.00000000000E+00 0. -1.
</event>
<event>
 4    1  0.7940509E+003  0.2030229E+02  0.7546771E-02  0.1529464E+00
          2   -1    0    0  502    0  0.00000000000E+00  0.00000000000E+00  0.16048051856E+02  0.16048051856E+02  0.00000000000E+00 0. -1.
          2   -1    0    0  501    0 -0.00000000000E+00 -0.00000000000E+00 -0.67546586764E+02  0.67546586764E+02  0.00000000000E+00 0.  1.
          2    1    1    2  501    0 -0.11949282207E+02  0.16413340232E+02  0.71554499434E+01  0.21526345411E+02  0.00000000000E+00 0. -1.
          2    1    1    2  502    0  0.11949282207E+02 -0.16413340232E+02 -0.58653984852E+02  0.62068293209E+02  0.00000000000E+00 0.  1.
</event>
<event>
 4    1  0.7940509E+003  0.2580324E+02  0.7546771E-02  0.1460015E+00
          2   -1    0    0  501    0  0.00000000000E+00  0.00000000000E+00  0.16697251407E+03  0.16697251407E+03  0.00000000000E+00 0. -1.
          2   -1    0    0  502    0 -0.00000000000E+00 -0.00000000000E+00 -0.48823045474E+01  0.48823045474E+01  0.00000000000E+00 0.  1.
          2    1    1    2  501    0 -0.41900676811E+01 -0.25460768413E+02  0.44259589602E+02  0.51232008228E+02  0.00000000000E+00 0.  1.
          2    1    1    2  502    0  0.41900676811E+01  0.25460768413E+02  0.11783061992E+03  0.12062281039E+03  0.00000000000E+00 0. -1.
</event>
<event>
 4    1  0.7940509E+003  0.2029005E+02  0.7546771E-02  0.1529647E+00
          2   -1    0    0  501    0  0.00000000000E+00  0.00000000000E+00  0.15799986612E+03  0.15799986612E+03  0.00000000000E+00 0.  1.
          2   -1    0    0  502    0 -0.00000000000E+00 -0.00000000000E+00 -0.81655790937E+01  0.81655790937E+01  0.00000000000E+00 0.  1.
          2    1    1    2  501    0 -0.19403987023E+02  0.59305327244E+01  0.63598856466E+01  0.21263444599E+02  0.00000000000E+00 0.  1.
          2    1    1    2  502    0  0.19403987023E+02 -0.59305327244E+01  0.14347440138E+03  0.14490200062E+03  0.00000000000E+00 0.  1.
</event>
<event>
 4    1  0.7940509E+003  0.2056237E+02  0.7546771E-02  0.1525606E+00
          2   -1    0    0  502    0  0.00000000000E+00  0.00000000000E+00  0.57468873929E+02  0.57468873929E+02  0.00000000000E+00 0.  1.
          2   -1    0    0  501    0 -0.00000000000E+00 -0.00000000000E+00 -0.34627897618E+02  0.34627897618E+02  0.00000000000E+00 0.  1.
          2    1    1    2  501    0 -0.15486503852E+02  0.13526976107E+02  0.52285285501E+02  0.56183289011E+02  0.00000000000E+00 0.  1.
          2    1    1    2  502    0  0.15486503852E+02 -0.13526976107E+02 -0.29444309190E+02  0.35913482536E+02  0.00000000000E+00 0.  1.
</event>
<event>
 4    1  0.7940509E+003  0.2804512E+02  0.7546771E-02  0.1437383E+00
          2   -1    0    0  501    0  0.00000000000E+00  0.00000000000E+00  0.74957225842E+01  0.74957225842E+01  0.00000000000E+00 0.  1.
          2   -1    0    0  502    0 -0.00000000000E+00 -0.00000000000E+00 -0.50213419694E+03  0.50213419694E+03  0.00000000000E+00 0.  1.
          2    1    1    2  501    0  0.77734256224E+01 -0.26946295075E+02 -0.47395149848E+03  0.47478053022E+03  0.00000000000E+00 0.  1.
          2    1    1    2  502    0 -0.77734256224E+01  0.26946295075E+02 -0.20686975882E+02  0.34849389311E+02  0.00000000000E+00 0.  1.
</event>
<event>
 4    1  0.7940509E+003  0.3671781E+02  0.7546771E-02  0.1368873E+00
          2   -1    0    0  501    0  0.00000000000E+00  0.00000000000E+00  0.58462733153E+03  0.58462733153E+03  0.00000000000E+00 0. -1.
          2   -1    0    0  502    0 -0.00000000000E+00 -0.00000000000E+00 -0.49942510544E+03  0.49942510544E+03  0.00000000000E+00 0.  1.
          2    1    1    2  501    0 -0.28542363982E+01 -0.36606701834E+02 -0.49817226297E+03  0.49952357389E+03  0.00000000000E+00 0.  1.
          2    1    1    2  502    0  0.28542363982E+01  0.36606701834E+02  0.58337448906E+03  0.58452886308E+03  0.00000000000E+00 0. -1.
</event>
<event>
 4    1  0.7940509E+003  0.3109195E+02  0.7546771E-02  0.1410339E+00
          2   -1    0    0  501    0  0.00000000000E+00  0.00000000000E+00  0.15339466541E+04  0.15339466541E+04  0.00000000000E+00 0.  1.
          2   -1    0    0  502    0 -0.00000000000E+00 -0.00000000000E+00 -0.38104777655E+02  0.38104777655E+02  0.00000000000E+00 0.  1.
          2    1    1    2  501    0 -0.20881978426E+02 -0.23035898563E+02 -0.31577680902E+02  0.44315455281E+02  0.00000000000E+00 0.  1.
          2    1    1    2  502    0  0.20881978426E+02  0.23035898563E+02  0.15274195573E+04  0.15277359765E+04  0.00000000000E+00 0.  1.
</event>
<event>
 4    1  0.7940509E+003  0.5681753E+02  0.7546771E-02  0.1271046E+00
          2   -1    0    0  502    0  0.00000000000E+00  0.00000000000E+00  0.63032195135E+02  0.63032195135E+02  0.00000000000E+00 0. -1.
          2   -1    0    0  501    0 -0.00000000000E+00 -0.00000000000E+00 -0.13192009461E+04  0.13192009461E+04  0.00000000000E+00 0. -1.
          2    1    1    2  501    0  0.48720374381E+02  0.29232813531E+02  0.49483714340E+02  0.75345008140E+02  0.00000000000E+00 0. -1.
          2    1    1    2  502    0 -0.48720374381E+02 -0.29232813531E+02 -0.13056524653E+04  0.13068881331E+04  0.00000000000E+00 0. -1.
</event>
<event>
 4    1  0.7940509E+003  0.2348876E+02  0.7546771E-02  0.1486450E+00
          2   -1    0    0  501    0  0.00000000000E+00  0.00000000000E+00  0.58820116928E+03  0.58820116928E+03  0.00000000000E+00 0. -1.
          2   -1    0    0  502    0 -0.00000000000E+00 -0.00000000000E+00 -0.22879558540E+02  0.22879558540E+02  0.00000000000E+00 0. -1.
          2    1    1    2  501    0 -0.20284692955E+02 -0.11842849929E+02 -0.16550976198E+02  0.28734242218E+02  0.00000000000E+00 0. -1.
          2    1    1    2  502    0  0.20284692955E+02  0.11842849929E+02  0.58187258694E+03  0.58234648560E+03  0.00000000000E+00 0. -1.
</event>
<event>
 4    1  0.7940509E+003  0.3119186E+02  0.7546771E-02  0.1409514E+00
          2   -1    0    0  501    0  0.00000000000E+00  0.00000000000E+00  0.74536042598E+00  0.74536042598E+00  0.00000000000E+00 0. -1.
          2   -1    0    0  502    0 -0.00000000000E+00 -0.00000000000E+00 -0.21558789189E+04  0.21558789189E+04  0.00000000000E+00 0. -1.
          2    1    1    2  501    0  0.28694910309E+02  0.12228411900E+02 -0.17548731743E+04  0.17551503610E+04  0.00000000000E+00 0. -1.
          2    1    1    2  502    0 -0.28694910309E+02 -0.12228411900E+02 -0.40026038417E+03  0.40147391830E+03  0.00000000000E+00 0. -1.
</event>
<event>
 4    1  0.7940509E+003  0.2389907E+02  0.7546771E-02  0.1481507E+00
          2   -1    0    0  501    0  0.00000000000E+00  0.00000000000E+00  0.58509537735E+02  0.58509537735E+02  0.00000000000E+00 0. -1.
          2   -1    0    0  502    0 -0.00000000000E+00 -0.00000000000E+00 -0.15498127196E+02  0.15498127196E+02  0.00000000000E+00 0.  1.
          2    1    1    2  501    0 -0.14960431030E+01  0.23852202735E+02 -0.10065663748E+01  0.23920261206E+02  0.00000000000E+00 0.  1.
          2    1    1    2  502    0  0.14960431030E+01 -0.23852202735E+02  0.44017976914E+02  0.50087403725E+02  0.00000000000E+00 0. -1.
</event>
<event>
 4    1  0.7940509E+003  0.4162449E+02  0.7546771E-02  0.1339221E+00
          2   -1    0    0  501    0  0.00000000000E+00  0.00000000000E+00  0.30840286576E+02  0.30840286576E+02  0.00000000000E+00 0.  1.
          2   -1    0    0  502    0 -0.00000000000E+00 -0.00000000000E+00 -0.96145595571E+03  0.96145595571E+03  0.00000000000E+00 0.  1.
          2    1    1    2  501    0  0.23162099286E+02  0.34584904035E+02 -0.94674234220E+03  0.94765693209E+03  0.00000000000E+00 0.  1.
          2    1    1    2  502    0 -0.23162099286E+02 -0.34584904035E+02  0.16126673064E+02  0.44639310194E+02  0.00000000000E+00 0.  1.
</event>
<event>
 4    1  0.7940509E+003  0.3310596E+02  0.7546771E-02  0.1394391E+00
          2   -1    0    0  502    0  0.00000000000E+00  0.00000000000E+00  0.20575925311E+03  0.20575925311E+03  0.00000000000E+00 0. -1.
          2   -1    0    0  501    0 -0.00000000000E+00 -0.00000000000E+00 -0.75972812929E+01  0.75972812929E+01  0.00000000000E+00 0. -1.
          2    1    1    2  501    0 -0.32727480192E+02  0.49916884523E+01  0.15740150394E+03  0.16084538650E+03  0.00000000000E+00 0. -1.
          2    1    1    2  502    0  0.32727480192E+02 -0.49916884523E+01  0.40760467875E+02  0.52511147909E+02  0.00000000000E+00 0. -1.
</event>
<event>
 4    1  0.7940509E+003  0.3747270E+02  0.7546771E-02  0.1363968E+00
          2   -1    0    0  501    0  0.00000000000E+00  0.00000000000E+00  0.10065539439E+03  0.10065539439E+03  0.00000000000E+00 0. -1.
          2   -1    0    0  502    0 -0.00000000000E+00 -0.00000000000E+00 -0.55799298214E+03  0.55799298214E+03  0.00000000000E+00 0. -1.
          2    1    1    2  501    0 -0.35715794039E+02 -0.11339538025E+02 -0.55385014309E+03  0.55511636985E+03  0.00000000000E+00 0. -1.
          2    1    1    2  502    0  0.35715794039E+02  0.11339538025E+02  0.96512555345E+02  0.10353200667E+03  0.00000000000E+00 0. -1.
</event>
<event>
 4    1  0.7940509E+003  0.2070335E+02  0.7546771E-02  0.1523543E+00
          2   -1    0    0  501    0  0.00000000000E+00  0.00000000000E+00  0.32727243689E+02  0.32727243689E+02  0.00000000000E+00 0.  1.
          2   -1    0    0  502    0 -0.00000000000E+00 -0.00000000000E+00 -0.72474593629E+02  0.72474593629E+02  0.00000000000E+00 0. -1.
          2    1    1    2  501    0  0.32019730177E+01  0.20454246849E+02 -0.67485158741E+02  0.70589485730E+02  0.00000000000E+00 0. -1.
          2    1    1    2  502    0 -0.32019730177E+01 -0.20454246849E+02  0.27737808801E+02  0.34612351588E+02  0.00000000000E+00 0.  1.
</event>
<event>
 4    1  0.8231475E+003  0.2408172E+02  0.7546771E-02  0.1479344E+00
          2   -1    0    0  501    0  0.00000000000E+00  0.00000000000E+00  0.12779040079E+04  0.12779040079E+04  0.00000000000E+00 0.  1.
          2   -1    0    0  502    0 -0.00000000000E+00 -0.00000000000E+00 -0.28167080791E+03  0.28167080791E+03  0.00000000000E+00 0. -1.
          2    1    1    2  501    0  0.82439802539E+01  0.22626662095E+02 -0.28104237915E+03  0.28207223885E+03  0.00000000000E+00 0. -1.
          2    1    1    2  502    0 -0.82439802539E+01 -0.22626662095E+02  0.12772755791E+04  0.12775025769E+04  0.00000000000E+00 0.  1.
</event>
<event>
 4    1  0.7940509E+003  0.2170574E+02  0.7546771E-02  0.1509423E+00
          2   -1    0    0  502    0  0.00000000000E+00  0.00000000000E+00  0.59562249436E+01  0.59562249436E+01  0.00000000000E+00 0.  1.
          2   -1    0    0  501    0 -0.00000000000E+00 -0.00000000000E+00 -0.24994957669E+03  0.24994957669E+03  0.00000000000E+00 0.  1.
          2    1    1    2  501    0  0.86325929266E+01  0.19915260612E+02 -0.16210117702E+02  0.27090721323E+02  0.00000000000E+00 0.  1.
          2    1    1    2  502    0 -0.86325929266E+01 -0.19915260612E+02 -0.22778323405E+03  0.22881508031E+03  0.00000000000E+00 0.  1.
</event>
<event>
 4    1  0.7940509E+003  0.2265835E+02  0.7546771E-02  0.1496833E+00
          2   -1    0    0  502    0  0.00000000000E+00  0.00000000000E+00  0.17586718065E+03  0.17586718065E+03  0.00000000000E+00 0.  1.
          2   -1    0    0  501    0 -0.00000000000E+00 -0.00000000000E+00 -0.15064557664E+03  0.15064557664E+03  0.00000000000E+00 0.  1.
          2    1    1    2  501    0  0.14175721635E+02 -0.17676251525E+02  0.17427762742E+03  0.17574439499E+03  0.00000000000E+00 0.  1.
          2    1    1    2  502    0 -0.14175721635E+02  0.17676251525E+02 -0.14905602342E+03  0.15076836230E+03  0.00000000000E+00 0.  1.
</event>
<event>
 4    1  0.1165891E+004  0.2764272E+02  0.7546771E-02  0.1441257E+00
          2   -1    0    0  502    0  0.00000000000E+00  0.00000000000E+00  0.44921808358E+03  0.44921808358E+03  0.00000000000E+00 0. -1.
          2   -1    0    0  501    0 -0.00000000000E+00 -0.00000000000E+00 -0.95641098109E+03  0.95641098109E+03  0.00000000000E+00 0. -1.
          2    1    1    2  501    0  0.18458816094E+02  0.20576490635E+02  0.44859281923E+03  0.44944369761E+03  0.00000000000E+00 0. -1.
          2    1    1    2  502    0 -0.18458816094E+02 -0.20576490635E+02 -0.95578571674E+03  0.95618536706E+03  0.00000000000E+00 0. -1.
</event>
<event>
 4    1  0.7940509E+003  0.2795264E+02  0.7546771E-02  0.1438266E+00
          2   -1    0    0  501    0  0.00000000000E+00  0.00000000000E+00  0.89331669845E+03  0.89331669845E+03  0.00000000000E+00 0.  1.
          2   -1    0    0  502    0 -0.00000000000E+00 -0.00000000000E+00 -0.28330295703E+02  0.28330295703E+02  0.00000000000E+00 0.  1.
          2    1    1    2  501    0  0.27949821524E+02  0.39706364026E+00 -0.21160853968E+02  0.35058977786E+02  0.00000000000E+00 0.  1.
          2    1    1    2  502    0 -0.27949821524E+02 -0.39706364026E+00  0.88614725672E+03  0.88658801637E+03  0.00000000000E+00 0.  1.
</event>
<event>
 4    1  0.7940509E+003  0.2193878E+02  0.7546771E-02  0.1506272E+00
          2   -1    0    0  501    0  0.00000000000E+00  0.00000000000E+00  0.15622004950E+02  0.15622004950E+02  0.00000000000E+00 0. -1.
          2   -1    0    0  502    0 -0.00000000000E+00 -0.00000000000E+00 -0.15362974907E+04  0.15362974907E+04  0.00000000000E+00 0.  1.
          2    1    1    2  501    0  0.17655288494E+02  0.13023096049E+02 -0.15284773213E+04  0.15286347608E+04  0.00000000000E+00 0.  1.
          2    1    1    2  502    0 -0.17655288494E+02 -0.13023096049E+02  0.78018354839E+01  0.23284734901E+02  0.00000000000E+00 0. -1.
</event>
<event>
 4    1  0.7940509E+003  0.2010231E+02  0.7546771E-02  0.1532477E+00
          2   -1    0    0  501    0  0.00000000000E+00  0.00000000000E+00  0.11391674571E+01  0.11391674571E+01  0.00000000000E+00 0.  1.
          2   -1    0    0  502    0 -0.00000000000E+00 -0.00000000000E+00 -0.11289390304E+04  0.11289390304E+04  0.00000000000E+00 0.  1.
          2    1    1    2  501    0  0.93885703881E+00  0.20080378227E+02 -0.10318191185E+04  0.10320149206E+04  0.00000000000E+00 0.  1.
          2    1    1    2  502    0 -0.93885703881E+00 -0.20080378227E+02 -0.95980744443E+02  0.98063277256E+02  0.00000000000E+00 0.  1.
</event>
<event>
 4    1  0.7940509E+003  0.3708308E+02  0.7546771E-02  0.1366482E+00
          2   -1    0    0  501    0  0.00000000000E+00  0.00000000000E+00  0.16717575299E+03  0.16717575299E+03  0.00000000000E+00 0.  1.
          2   -1    0    0  502    0 -0.00000000000E+00 -0.00000000000E+00 -0.98187008448E+02  0.98187008448E+02  0.00000000000E+00 0.  1.
          2    1    1    2  501    0 -0.13674316754E+02  0.34469811467E+02 -0.92507639611E+02  0.99663525062E+02  0.00000000000E+00 0.  1.
          2    1    1    2  502    0  0.13674316754E+02 -0.34469811467E+02  0.16149638415E+03  0.16569923637E+03  0.00000000000E+00 0.  1.
</event>
<event>
 4    1  0.7940509E+003  0.4218103E+02  0.7546771E-02  0.1336158E+00
          2   -1    0    0  502    0  0.00000000000E+00  0.00000000000E+00  0.21286258729E+03  0.21286258729E+03  0.00000000000E+00 0.  1.
          2   -1    0    0  501    0 -0.00000000000E+00 -0.00000000000E+00 -0.32232470938E+02  0.32232470938E+02  0.00000000000E+00 0.  1.
          2    1    1    2  501    0  0.31824144940E+02 -0.27685077182E+02  0.19578261930E+03  0.20027499525E+03  0.00000000000E+00 0.  1.
          2    1    1    2  502    0 -0.31824144940E+02  0.27685077182E+02 -0.15152502953E+02  0.44820062979E+02  0.00000000000E+00 0.  1.
</event>
<event>
 4    1  0.7940509E+003  0.2186581E+02  0.7546771E-02  0.1507253E+00
          2   -1    0    0  501    0  0.00000000000E+00  0.00000000000E+00  0.11129168538E+04  0.11129168538E+04  0.00000000000E+00 0.  1.
          2   -1    0    0  502    0 -0.00000000000E+00 -0.00000000000E+00 -0.46912180288E+00  0.46912180288E+00  0.00000000000E+00 0. -1.
          2    1    1    2  501    0  0.21785398776E+02  0.18734586775E+01  0.39465050610E+03  0.39525578479E+03  0.00000000000E+00 0. -1.
          2    1    1    2  502    0 -0.21785398776E+02 -0.18734586775E+01  0.71779722595E+03  0.71813019086E+03  0.00000000000E+00 0.  1.
</event>
<event>
 4    1  0.7940509E+003  0.5216744E+02  0.7546771E-02  0.1289039E+00
          2   -1    0    0  502    0  0.00000000000E+00  0.00000000000E+00  0.13711668960E+02  0.13711668960E+02  0.00000000000E+00 0. -1.
          2   -1    0    0  501    0 -0.00000000000E+00 -0.00000000000E+00 -0.35310004330E+03  0.35310004330E+03  0.00000000000E+00 0.  1.
          2    1    1    2  501    0 -0.26326773935E+02  0.45037130241E+02 -0.48326710630E+02  0.71111975690E+02  0.00000000000E+00 0. -1.
          2    1    1    2  502    0  0.26326773935E+02 -0.45037130241E+02 -0.29106166371E+03  0.29569973657E+03  0.00000000000E+00 0.  1.
</event>
<event>
 4    1  0.7940509E+003  0.2278399E+02  0.7546771E-02  0.1495229E+00
          2   -1    0    0  501    0  0.00000000000E+00  0.00000000000E+00  0.28810269764E+03  0.28810269764E+03  0.00000000000E+00 0. -1.
          2   -1    0    0  502    0 -0.00000000000E+00 -0.00000000000E+00 -0.70722763936E+02  0.70722763936E+02  0.00000000000E+00 0. -1.
          2    1    1    2  501    0  0.22568153943E+02  0.31286973359E+01 -0.68422544110E+02  0.72116259345E+02  0.00000000000E+00 0. -1.
          2    1    1    2  502    0 -0.22568153943E+02 -0.31286973359E+01  0.28580247781E+03  0.28670920223E+03  0.00000000000E+00 0. -1.
</event>
<event>
 4    1  0.7940509E+003  0.2068258E+02  0.7546771E-02  0.1523845E+00
          2   -1    0    0  501    0  0.00000000000E+00  0.00000000000E+00  0.82805016885E+03  0.82805016885E+03  0.00000000000E+00 0.  1.
          2   -1    0    0  502    0 -0.00000000000E+00 -0.00000000000E+00 -0.85490437593E+01  0.85490437593E+01  0.00000000000E+00 0.  1.
          2    1    1    2  501    0 -0.17338230004E+02 -0.11276302604E+02  0.42863002854E+01  0.21122064062E+02  0.00000000000E+00 0.  1.
          2    1    1    2  502    0  0.17338230004E+02  0.11276302604E+02  0.81521482481E+03  0.81547714855E+03  0.00000000000E+00 0.  1.
</event>
<event>
 4    1  0.7940509E+003  0.2074242E+02  0.7546771E-02  0.1522974E+00
          2   -1    0    0  502    0  0.00000000000E+00  0.00000000000E+00  0.33849812550E+02  0.33849812550E+02  0.00000000000E+00 0. -1.
          2   -1    0    0  501    0 -0.00000000000E+00 -0.00000000000E+00 -0.30112455099E+03  0.30112455099E+03  0.00000000000E+00 0. -1.
          2    1    1    2  501    0  0.12603523451E+01 -0.20704089226E+02  0.30276878533E+02  0.36700642670E+02  0.00000000000E+00 0. -1.
          2    1    1    2  502    0 -0.12603523451E+01  0.20704089226E+02 -0.29755161697E+03  0.29827372087E+03  0.00000000000E+00 0. -1.
</event>
<event>
 4    1  0.7940509E+003  0.4425026E+02  0.7546771E-02  0.1325231E+00
          2   -1    0    0  502    0  0.00000000000E+00  0.00000000000E+00  0.14142713186E+03  0.14142713186E+03  0.00000000000E+00 0.  1.
          2   -1    0    0  501    0 -0.00000000000E+00 -0.00000000000E+00 -0.67915172119E+02  0.67915172119E+02  0.00000000000E+00 0. -1.
          2    1    1    2  501    0  0.19960259603E+02 -0.39492701916E+02  0.13015056888E+03  0.13746729083E+03  0.00000000000E+00 0.  1.
          2    1    1    2  502    0 -0.19960259603E+02  0.39492701916E+02 -0.56638609148E+02  0.71875013142E+02  0.00000000000E+00 0. -1.
</event>
<event>
 4    1  0.7940509E+003  0.1015744E+03  0.7546771E-02  0.1161107E+00
          2   -1    0    0  501    0  0.00000000000E+00  0.00000000000E+00  0.35988144560E+03  0.35988144560E+03  0.00000000000E+00 0.  1.
          2   -1    0    0  502    0 -0.00000000000E+00 -0.00000000000E+00 -0.33056431972E+02  0.33056431972E+02  0.00000000000E+00 0.  1.
          2    1    1    2  501    0 -0.24400887648E+02 -0.98600025624E+02  0.91834249546E+02  0.13693391750E+03  0.00000000000E+00 0.  1.
          2    1    1    2  502    0  0.24400887648E+02  0.98600025624E+02  0.23499076409E+03  0.25600396008E+03  0.00000000000E+00 0.  1.
</event>
<event>
 4    1  0.7940509E+003  0.2279994E+02  0.7546771E-02  0.1495026E+00
          2   -1    0    0  502    0  0.00000000000E+00  0.00000000000E+00  0.92084131013E+00  0.92084131013E+00  0.00000000000E+00 0. -1.
          2   -1    0    0  501    0 -0.00000000000E+00 -0.00000000000E+00 -0.16357096576E+04  0.16357096576E+04  0.00000000000E+00 0.  1.
          2    1    1    2  501    0 -0.42036133203E+01 -0.22409083588E+02 -0.15517816661E+03  0.15684419271E+03  0.00000000000E+00 0. -1.
          2    1    1    2  502    0  0.42036133203E+01  0.22409083588E+02 -0.14796106497E+04  0.14797863062E+04  0.00000000000E+00 0.  1.
</event>
<event>
 4    1  0.7940509E+003  0.2608760E+02  0.7546771E-02  0.1456995E+00
          2   -1    0    0  502    0  0.00000000000E+00  0.00000000000E+00  0.62302792499E+03  0.62302792499E+03  0.00000000000E+00 0. -1.
          2   -1    0    0  501    0 -0.00000000000E+00 -0.00000000000E+00 -0.17859104516E+01  0.17859104516E+01  0.00000000000E+00 0. -1.
          2    1    1    2  501    0 -0.19992297345E+02 -0.16759207391E+02  0.50530657192E+03  0.50597953971E+03  0.00000000000E+00 0. -1.
          2    1    1    2  502    0  0.19992297345E+02  0.16759207391E+02  0.11593544262E+03  0.11883429573E+03  0.00000000000E+00 0. -1.
</event>
<event>
 4    1  0.7940509E+003  0.2094010E+02  0.7546771E-02  0.1520122E+00
          2   -1    0    0  501    0  0.00000000000E+00  0.00000000000E+00  0.22088787081E+01  0.22088787081E+01  0.00000000000E+00 0.  1.
          2   -1    0    0  502    0 -0.00000000000E+00 -0.00000000000E+00 -0.45814505674E+03  0.45814505674E+03  0.00000000000E+00 0. -1.
          2    1    1    2  501    0 -0.19407860131E+02 -0.78627494484E+01 -0.40124502468E+03  0.40179106223E+03  0.00000000000E+00 0. -1.
          2    1    1    2  502    0  0.19407860131E+02  0.78627494484E+01 -0.54691153360E+02  0.58562873218E+02  0.00000000000E+00 0.  1.
</event>
<event>
 4    1  0.7940509E+003  0.6829024E+02  0.7546771E-02  0.1234000E+00
          2   -1    0    0  501    0  0.00000000000E+00  0.00000000000E+00  0.14863949053E+03  0.14863949053E+03  0.00000000000E+00 0. -1.
          2   -1    0    0  502    0 -0.00000000000E+00 -0.00000000000E+00 -0.60350601533E+03  0.60350601533E+03  0.00000000000E+00 0.  1.
          2    1    1    2  501    0 -0.13269542980E+02  0.66988623540E+02 -0.59359995116E+03  0.59751523702E+03  0.00000000000E+00 0.  1.
          2    1    1    2  502    0  0.13269542980E+02 -0.66988623540E+02  0.13873342635E+03  0.15463026884E+03  0.00000000000E+00 0. -1.
</event>
<event>
 4    1  0.7940509E+003  0.2394826E+02  0.7546771E-02  0.1480922E+00
          2   -1    0    0  501    0  0.00000000000E+00  0.00000000000E+00  0.13802669519E+03  0.13802669519E+03  0.00000000000E+00 0.  1.
          2   -1    0    0  502    0 -0.00000000000E+00 -0.00000000000E+00 -0.70622507263E+01  0.70622507263E+01  0.00000000000E+00 0. -1.
          2    1    1    2  501    0 -0.78781969266E+00 -0.23935293209E+02  0.18938162021E+02  0.30531506704E+02  0.00000000000E+00 0. -1.
          2    1    1    2  502    0  0.78781969266E+00  0.23935293209E+02  0.11202628244E+03  0.11455743921E+03  0.00000000000E+00 0.  1.
</event>
<event>
 4    1  0.7940509E+003  0.2597802E+02  0.7546771E-02  0.1458153E+00
          2   -1    0    0  501    0  0.00000000000E+00  0.00000000000E+00  0.48187524348E+03  0.48187524348E+03  0.00000000000E+00 0. -1.
          2   -1    0    0  502    0 -0.00000000000E+00 -0.00000000000E+00 -0.16326844643E+01  0.16326844643E+01  0.00000000000E+00 0. -1.
          2    1    1    2  501    0 -0.21616315215E+02  0.14408070820E+02  0.14895044754E+03  0.15119885387E+03  0.00000000000E+00 0. -1.
          2    1    1    2  502    0  0.21616315215E+02 -0.14408070820E+02  0.33129211147E+03  0.33230907407E+03  0.00000000000E+00 0. -1.
</event>
<event>
 4    1  0.7940509E+003  0.2068122E+02  0.7546771E-02  0.1523865E+00
          2   -1    0    0  502    0  0.00000000000E+00  0.00000000000E+00  0.61636138487E+03  0.61636138487E+03  0.00000000000E+00 0. -1.
          2   -1    0    0  501    0 -0.00000000000E+00 -0.00000000000E+00 -0.13700695790E+02  0.13700695790E+02  0.00000000000E+00 0.  1.
          2    1    1    2  501    0  0.20675137911E+02 -0.50148084989E+00  0.60827965665E+03  0.60863113090E+03  0.00000000000E+00 0. -1.
          2    1    1    2  502    0 -0.20675137911E+02  0.50148084989E+00 -0.56189675733E+01  0.21430949752E+02  0.00000000000E+00 0.  1.
</event>
<event>
 4    1  0.7940509E+003  0.2012489E+02  0.7546771E-02  0.1532135E+00
          2   -1    0    0  502    0  0.00000000000E+00  0.00000000000E+00  0.80739619060E+01  0.80739619060E+01  0.00000000000E+00 0.  1.
          2   -1    0    0  501    0 -0.00000000000E+00 -0.00000000000E+00 -0.65039987519E+03  0.65039987519E+03  0.00000000000E+00 0.  1.
          2    1    1    2  501    0 -0.13954667935E+02 -0.14500984714E+02 -0.48771036166E+01  0.20707425107E+02  0.00000000000E+00 0.  1.
          2    1    1    2  502    0  0.13954667935E+02  0.14500984714E+02 -0.63744880967E+03  0.63776641199E+03  0.00000000000E+00 0.  1.
</event>
<event>
 4    1  0.7940509E+003  0.3884519E+02  0.7546771E-02  0.1355389E+00
          2   -1    0    0  502    0  0.00000000000E+00  0.00000000000E+00  0.86528823526E+02  0.86528823526E+02  0.00000000000E+00 0.  1.
          2   -1    0    0  501    0 -0.00000000000E+00 -0.00000000000E+00 -0.16476798692E+03  0.16476798692E+03  0.00000000000E+00 0. -1.
          2    1    1    2  501    0  0.29975479317E+02  0.24706674558E+02  0.79693736376E+02  0.88656870831E+02  0.00000000000E+00 0.  1.
          2    1    1    2  502    0 -0.29975479317E+02 -0.24706674558E+02 -0.15793289977E+03  0.16263993962E+03  0.00000000000E+00 0. -1.
</event>
<event>
 4    1  0.7940509E+003  0.3447475E+02  0.7546771E-02  0.1384294E+00
          2   -1    0    0  502    0  0.00000000000E+00  0.00000000000E+00  0.23220860432E+03  0.23220860432E+03  0.00000000000E+00 0.  1.
          2   -1    0    0  501    0 -0.00000000000E+00 -0.00000000000E+00 -0.11639521210E+04  0.11639521210E+04  0.00000000000E+00 0.  1.
          2    1    1    2  501    0 -0.20300858483E+02  0.27863656886E+02  0.23067206946E+03  0.23323402809E+03  0.00000000000E+00 0.  1.
          2    1    1    2  502    0  0.20300858483E+02 -0.27863656886E+02 -0.11624155861E+04  0.11629266972E+04  0.00000000000E+00 0.  1.
</event>
<event>
 4    1  0.7940509E+003  0.2376647E+02  0.7546771E-02  0.1483091E+00
          2   -1    0    0  501    0  0.00000000000E+00  0.00000000000E+00  0.10304280719E+04  0.10304280719E+04  0.00000000000E+00 0.  1.
          2   -1    0    0  502    0 -0.00000000000E+00 -0.00000000000E+00 -0.16240827442E+02  0.16240827442E+02  0.00000000000E+00 0.  1.
          2    1    1    2  501    0  0.23673825479E+02 -0.20964297479E+01 -0.73331457368E+01  0.24872073836E+02  0.00000000000E+00 0.  1.
          2    1    1    2  502    0 -0.23673825479E+02  0.20964297479E+01  0.10215203901E+04  0.10217968255E+04  0.00000000000E+00 0.  1.
</event>
<event>
 4    1  0.7940509E+003  0.2203246E+02  0.7546771E-02  0.1505019E+00
          2   -1    0    0  502    0  0.00000000000E+00  0.00000000000E+00  0.18090377792E+03  0.18090377792E+03  0.00000000000E+00 0. -1.
          2   -1    0    0  501    0 -0.00000000000E+00 -0.00000000000E+00 -0.80791745595E+01  0.80791745595E+01  0.00000000000E+00 0.  1.
          2    1    1    2  501    0 -0.20339317454E+02  0.84700236330E+01  0.16363372994E+03  0.16511034707E+03  0.00000000000E+00 0. -1.
          2    1    1    2  502    0  0.20339317454E+02 -0.84700236330E+01  0.91908734190E+01  0.23872605410E+02  0.00000000000E+00 0.  1.
</event>
<event>
 4    1  0.7940509E+003  0.2005298E+02  0.7546771E-02  0.1533227E+00
          2   -1    0    0  501    0  0.00000000000E+00  0.00000000000E+00  0.10247577577E+04  0.10247577577E+04  0.00000000000E+00 0. -1.
          2   -1    0    0  502    0 -0.00000000000E+00 -0.00000000000E+00 -0.61229319206E+02  0.61229319206E+02  0.00000000000E+00 0.  1.
          2    1    1    2  501    0  0.15854527801E+02  0.12278275894E+02 -0.59486551596E+02  0.62775567951E+02  0.00000000000E+00 0.  1.
          2    1    1    2  502    0 -0.15854527801E+02 -0.12278275894E+02  0.10230149901E+04  0.10232115090E+04  0.00000000000E+00 0. -1.
</event>
<event>
 4    1  0.7940509E+003  0.4483868E+02  0.7546771E-02  0.1322248E+00
          2   -1    0    0  501    0  0.00000000000E+00  0.00000000000E+00  0.20738751612E+04  0.20738751612E+04  0.00000000000E+00 0. -1.
          2   -1    0    0  502    0 -0.00000000000E+00 -0.00000000000E+00 -0.24630803225E+02  0.24630803225E+02  0.00000000000E+00 0. -1.
          2    1    1    2  501    0  0.37245195300E+02 -0.24966031782E+02 -0.37747305366E+01  0.44997287768E+02  0.00000000000E+00 0. -1.
          2    1    1    2  502    0 -0.37245195300E+02  0.24966031782E+02  0.20530190885E+04  0.20535086767E+04  0.00000000000E+00 0. -1.
</event>
<event>
 4    1  0.7940509E+003  0.2475422E+02  0.7546771E-02  0.1471572E+00
          2   -1    0    0  501    0  0.00000000000E+00  0.00000000000E+00  0.25077915383E+00  0.25077915383E+00  0.00000000000E+00 0.  1.
          2   -1    0    0  502    0 -0.00000000000E+00 -0.00000000000E+00 -0.26713829900E+04  0.26713829900E+04  0.00000000000E+00 0.  1.
          2    1    1    2  501    0 -0.23476048519E+02  0.78515179259E+01 -0.17257451711E+04  0.17259227001E+04  0.00000000000E+00 0.  1.
          2    1    1    2  502    0  0.23476048519E+02 -0.78515179259E+01 -0.94538703980E+03  0.94571106910E+03  0.00000000000E+00 0.  1.
</event>
<event>
 4    1  0.7940509E+003  0.3638742E+02  0.7546771E-02  0.1371063E+00
          2   -1    0    0  502    0  0.00000000000E+00  0.00000000000E+00  0.72615112965E+03  0.72615112965E+03  0.00000000000E+00 0. -1.
          2   -1    0    0  501    0 -0.00000000000E+00 -0.00000000000E+00 -0.70184674201E+01  0.70184674201E+01  0.00000000000E+00 0. -1.
          2    1    1    2  501    0 -0.10904839545E+02  0.34714965205E+02  0.67495786544E+03  0.67593798862E+03  0.00000000000E+00 0. -1.
          2    1    1    2  502    0  0.10904839545E+02 -0.34714965205E+02  0.44174796783E+02  0.57231608448E+02  0.00000000000E+00 0. -1.
</event>
<event>
 4    1  0.7940509E+003  0.2079236E+02  0.7546771E-02  0.1522250E+00
          2   -1    0    0  502    0  0.00000000000E+00  0.00000000000E+00  0.13734017394E+04  0.13734017394E+04  0.00000000000E+00 0. -1.
          2   -1    0    0  501    0 -0.00000000000E+00 -0.00000000000E+00 -0.54313109460E+00  0.54313109460E+00  0.00000000000E+00 0.  1.
          2    1    1    2  501    0  0.15152876674E+02  0.14237720979E+02  0.11318664900E+04  0.11320574515E+04  0.00000000000E+00 0. -1.
          2    1    1    2  502    0 -0.15152876674E+02 -0.14237720979E+02  0.24099211838E+03  0.24188741904E+03  0.00000000000E+00 0.  1.
</event>
<event>
 4    1  0.7940509E+003  0.3002662E+02  0.7546771E-02  0.1419365E+00
          2   -1    0    0  502    0  0.00000000000E+00  0.00000000000E+00  0.18950035978E+04  0.18950035978E+04  0.00000000000E+00 0.  1.
          2   -1    0    0  501    0 -0.00000000000E+00 -0.00000000000E+00 -0.14720085608E+01  0.14720085608E+01  0.00000000000E+00 0. -1.
          2    1    1    2  501    0  0.29726679133E+02  0.42334826279E+01  0.17268516350E+04  0.17271126677E+04  0.00000000000E+00 0.  1.
          2    1    1    2  502    0 -0.29726679133E+02 -0.42334826279E+01  0.16667995431E+03  0.16936293868E+03  0.00000000000E+00 0. -1.
</event>
<event>
 4    1  0.7940509E+003  0.2195395E+02  0.7546771E-02  0.1506068E+00
          2   -1    0    0  502    0  0.00000000000E+00  0.00000000000E+00  0.32857176928E+03  0.32857176928E+03  0.00000000000E+00 0. -1.
          2   -1    0    0  501    0 -0.00000000000E+00 -0.00000000000E+00 -0.27033571821E+02  0.27033571821E+02  0.00000000000E+00 0. -1.
          2    1    1    2  501    0  0.18394011350E+02  0.11984833358E+02  0.32368057508E+03  0.32442424473E+03  0.00000000000E+00 0. -1.
          2    1    1    2  502    0 -0.18394011350E+02 -0.11984833358E+02 -0.22142377621E+02  0.31181096371E+02  0.00000000000E+00 0. -1.
</event>
<event>
 4    1  0.7940509E+003  0.2613809E+02  0.7546771E-02  0.1456464E+00
          2   -1    0    0  501    0  0.00000000000E+00  0.00000000000E+00  0.13912984510E+01  0.13912984510E+01  0.00000000000E+00 0. -1.
          2   -1    0    0  502    0 -0.00000000000E+00 -0.00000000000E+00 -0.65043179962E+03  0.65043179962E+03  0.00000000000E+00 0. -1.
          2    1    1    2  501    0 -0.20962115774E+02 -0.15613764989E+02 -0.48585036407E+03  0.48655295315E+03  0.00000000000E+00 0. -1.
          2    1    1    2  502    0  0.20962115774E+02  0.15613764989E+02 -0.16319013710E+03  0.16527014492E+03  0.00000000000E+00 0. -1.
</event>
<event>
 4    1  0.7940509E+003  0.3715085E+02  0.7546771E-02  0.1366042E+00
          2   -1    0    0  502    0  0.00000000000E+00  0.00000000000E+00  0.18825247878E+04  0.18825247878E+04  0.00000000000E+00 0.  1.
          2   -1    0    0  501    0 -0.00000000000E+00 -0.00000000000E+00 -0.18072227438E+01  0.18072227438E+01  0.00000000000E+00 0.  1.
          2    1    1    2  501    0 -0.83589496013E+01  0.36198255479E+02  0.16666939523E+04  0.16671079498E+04  0.00000000000E+00 0.  1.
          2    1    1    2  502    0  0.83589496013E+01 -0.36198255479E+02  0.21402361283E+03  0.21722406079E+03  0.00000000000E+00 0.  1.
</event>
<event>
 4    1  0.7940509E+003  0.2808629E+02  0.7546771E-02  0.1436991E+00
          2   -1    0    0  501    0  0.00000000000E+00  0.00000000000E+00  0.26959319179E+01  0.26959319179E+01  0.00000000000E+00 0. -1.
          2   -1    0    0  502    0 -0.00000000000E+00 -0.00000000000E+00 -0.17633997948E+04  0.17633997948E+04  0.00000000000E+00 0.  1.
          2    1    1    2  501    0  0.27237420948E+02  0.68529059333E+01 -0.16868161402E+04  0.16870499489E+04  0.00000000000E+00 0.  1.
          2    1    1    2  502    0 -0.27237420948E+02 -0.68529059333E+01 -0.73887722698E+02  0.79045777782E+02  0.00000000000E+00 0. -1.
</event>
<event>
 4    1  0.7940509E+003  0.2137930E+02  0.7546771E-02  0.1513918E+00
          2   -1    0    0  501    0  0.00000000000E+00  0.00000000000E+00  0.11450440886E+02  0.11450440886E+02  0.00000000000E+00 0.  1.
          2   -1    0    0  502    0 -0.00000000000E+00 -0.00000000000E+00 -0.11802583858E+03  0.11802583858E+03  0.00000000000E+00 0.  1.
          2    1    1    2  501    0  0.19471017133E+02  0.88291444471E+01 -0.10595245122E+03  0.10808790968E+03  0.00000000000E+00 0.  1.
          2    1    1    2  502    0 -0.19471017133E+02 -0.88291444471E+01 -0.62294647766E+00  0.21388369787E+02  0.00000000000E+00 0.  1.
</event>
<event>
 4    1  0.7940509E+003  0.2368562E+02  0.7546771E-02  0.1484064E+00
          2   -1    0    0  502    0  0.00000000000E+00  0.00000000000E+00  0.37496001986E+03  0.37496001986E+03  0.00000000000E+00 0.  1.
          2   -1    0    0  501    0 -0.00000000000E+00 -0.00000000000E+00 -0.31295873706E+01  0.31295873706E+01  0.00000000000E+00 0.  1.
          2    1    1    2  501    0 -0.23636728947E+02  0.15210799576E+01  0.32248924480E+03  0.32335788478E+03  0.00000000000E+00 0.  1.
          2    1    1    2  502    0  0.23636728947E+02 -0.15210799576E+01  0.49341187693E+02  0.54731722452E+02  0.00000000000E+00 0.  1.
</event>
<event>
 4    1  0.7940509E+003  0.2633718E+02  0.7546771E-02  0.1454382E+00
          2   -1    0    0  501    0  0.00000000000E+00  0.00000000000E+00  0.18715805086E+03  0.18715805086E+03  0.00000000000E+00 0.  1.
          2   -1    0    0  502    0 -0.00000000000E+00 -0.00000000000E+00 -0.16443487147E+03  0.16443487147E+03  0.00000000000E+00 0. -1.
          2    1    1    2  501    0  0.22242256358E+02 -0.14104222839E+02 -0.16244243561E+03  0.16456364106E+03  0.00000000000E+00 0. -1.
          2    1    1    2  502    0 -0.22242256358E+02  0.14104222839E+02  0.18516561501E+03  0.18702928127E+03  0.00000000000E+00 0.  1.
</event>
<event>
 4    1  0.7940509E+003  0.2127913E+02  0.7546771E-02  0.1515317E+00
          2   -1    0    0  501    0  0.00000000000E+00  0.00000000000E+00  0.73219686542E+03  0.73219686542E+03  0.00000000000E+00 0. -1.
          2   -1    0    0  502    0 -0.00000000000E+00 -0.00000000000E+00 -0.21429725889E+02  0.21429725889E+02  0.00000000000E+00 0. -1.
          2    1    1    2  501    0  0.19252445467E+02  0.90633800228E+01 -0.15952921005E+02  0.26595059738E+02  0.00000000000E+00 0. -1.
          2    1    1    2  502    0 -0.19252445467E+02 -0.90633800228E+01  0.72672006053E+03  0.72703153157E+03  0.00000000000E+00 0. -1.
</event>
<event>
 4    1  0.7940509E+003  0.4028709E+02  0.7546771E-02  0.1346812E+00
          2   -1    0    0  502    0  0.00000000000E+00  0.00000000000E+00  0.79704389103E+01  0.79704389103E+01  0.00000000000E+00 0.  1.
          2   -1    0    0  501    0 -0.00000000000E+00 -0.00000000000E+00 -0.23079052938E+03  0.23079052938E+03  0.00000000000E+00 0.  1.
          2    1    1    2  501    0  0.11382363829E+02 -0.38645712226E+02 -0.15236105023E+03  0.15759739499E+03  0.00000000000E+00 0.  1.
          2    1    1    2  502    0 -0.11382363829E+02  0.38645712226E+02 -0.70459040244E+02  0.81163573306E+02  0.00000000000E+00 0.  1.
</event>
<event>
 4    1  0.7940509E+003  0.2261454E+02  0.7546771E-02  0.1497396E+00
          2   -1    0    0  501    0  0.00000000000E+00  0.00000000000E+00  0.76585856911E+01  0.76585856911E+01  0.00000000000E+00 0.  1.
          2   -1    0    0  502    0 -0.00000000000E+00 -0.00000000000E+00 -0.69109874006E+02  0.69109874006E+02  0.00000000000E+00 0. -1.
          2    1    1    2  501    0  0.67620445554E+01  0.21579906519E+02 -0.37777859475E+02  0.44029357006E+02  0.00000000000E+00 0. -1.
          2    1    1    2  502    0 -0.67620445554E+01 -0.21579906519E+02 -0.23673428841E+02  0.32739102691E+02  0.00000000000E+00 0.  1.
</event>
<event>
 4    1  0.7940509E+003  0.3347727E+02  0.7546771E-02  0.1391596E+00
          2   -1    0    0  502    0  0.00000000000E+00  0.00000000000E+00  0.35120015747E+03  0.35120015747E+03  0.00000000000E+00 0.  1.
          2   -1    0    0  501    0 -0.00000000000E+00 -0.00000000000E+00 -0.18337974231E+02  0.18337974231E+02  0.00000000000E+00 0.  1.
          2    1    1    2  501    0  0.33346898405E+02  0.29516159719E+01  0.33435578706E+03  0.33602755841E+03  0.00000000000E+00 0.  1.
          2    1    1    2  502    0 -0.33346898405E+02 -0.29516159719E+01 -0.14936038190E+01  0.33510573293E+02  0.00000000000E+00 0.  1.
</event>
<event>
 4    1  0.7940509E+003  0.2595543E+02  0.7546771E-02  0.1458393E+00
          2   -1    0    0  501    0  0.00000000000E+00  0.00000000000E+00  0.13669955562E+02  0.13669955562E+02  0.00000000000E+00 0. -1.
          2   -1    0    0  502    0 -0.00000000000E+00 -0.00000000000E+00 -0.67738299697E+03  0.67738299697E+03  0.00000000000E+00 0.  1.
          2    1    1    2  501    0  0.19912269422E+02  0.16648897124E+02 -0.66457650668E+03  0.66508316583E+03  0.00000000000E+00 0.  1.
          2    1    1    2  502    0 -0.19912269422E+02 -0.16648897124E+02  0.86346526676E+00  0.25969786700E+02  0.00000000000E+00 0. -1.
</event>
<event>
 4    1  0.7940509E+003  0.2304904E+02  0.7546771E-02  0.1491883E+00
          2   -1    0    0  501    0  0.00000000000E+00  0.00000000000E+00  0.84507153148E+03  0.84507153148E+03  0.00000000000E+00 0.  1.
          2   -1    0    0  502    0 -0.00000000000E+00 -0.00000000000E+00 -0.17045566191E+01  0.17045566191E+01  0.00000000000E+00 0. -1.
          2    1    1    2  501    0 -0.18168551662E+02  0.14183161482E+02  0.85311996885E+02  0.88370782228E+02  0.00000000000E+00 0. -1.
          2    1    1    2  502    0  0.18168551662E+02 -0.14183161482E+02  0.75805497797E+03  0.75840530587E+03  0.00000000000E+00 0.  1.
</event>
<event>
 4    1  0.7940509E+003  0.2057617E+02  0.7546771E-02  0.1525403E+00
          2   -1    0    0  501    0  0.00000000000E+00  0.00000000000E+00  0.11056925657E+03  0.11056925657E+03  0.00000000000E+00 0.  1.
          2   -1    0    0  502    0 -0.00000000000E+00 -0.00000000000E+00 -0.11548031726E+02  0.11548031726E+02  0.00000000000E+00 0.  1.
          2    1    1    2  501    0  0.16054854584E+02  0.12869356214E+02 -0.40912528631E+00  0.20580234901E+02  0.00000000000E+00 0.  1.
          2    1    1    2  502    0 -0.16054854584E+02 -0.12869356214E+02  0.99430350130E+02  0.10153705339E+03  0.00000000000E+00 0.  1.
</event>
<event>
 4    1  0.7940509E+003  0.2607864E+02  0.7546771E-02  0.1457089E+00
          2   -1    0    0  501    0  0.00000000000E+00  0.00000000000E+00  0.14638993167E+01  0.14638993167E+01  0.00000000000E+00 0.  1.
          2   -1    0    0  502    0 -0.00000000000E+00 -0.00000000000E+00 -0.48908742322E+03  0.48908742322E+03  0.00000000000E+00 0.  1.
          2    1    1    2  501    0 -0.16130730696E+02 -0.20491343493E+02 -0.29871860286E+03  0.29985479707E+03  0.00000000000E+00 0.  1.
          2    1    1    2  502    0  0.16130730696E+02  0.20491343493E+02 -0.18890492105E+03  0.19069652547E+03  0.00000000000E+00 0.  1.
</event>
<event>
 4    1  0.7940509E+003  0.4771607E+02  0.7546771E-02  0.1308390E+00
          2   -1    0    0  502    0  0.00000000000E+00  0.00000000000E+00  0.19362842507E+04  0.19362842507E+04  0.00000000000E+00 0. -1.
          2   -1    0    0  501    0 -0.00000000000E+00 -0.00000000000E+00 -0.96276333779E+01  0.96276333779E+01  0.00000000000E+00 0.  1.
          2    1    1    2  501    0 -0.37979890559E+01 -0.47564674452E+02  0.18749339604E+04  0.18755410363E+04  0.00000000000E+00 0. -1.
          2    1    1    2  502    0  0.37979890559E+01  0.47564674452E+02  0.51722656881E+02  0.70370847739E+02  0.00000000000E+00 0.  1.
</event>
<event>
 4    1  0.7940509E+003  0.3859723E+02  0.7546771E-02  0.1356908E+00
          2   -1    0    0  502    0  0.00000000000E+00  0.00000000000E+00  0.20975444131E+04  0.20975444131E+04  0.00000000000E+00 0. -1.
          2   -1    0    0  501    0 -0.00000000000E+00 -0.00000000000E+00 -0.75677681124E+02  0.75677681124E+02  0.00000000000E+00 0. -1.
          2    1    1    2  501    0 -0.37395788199E+02 -0.95551608040E+01  0.20924334829E+04  0.20927894367E+04  0.00000000000E+00 0. -1.
          2    1    1    2  502    0  0.37395788199E+02  0.95551608040E+01 -0.70566750874E+02  0.80432657558E+02  0.00000000000E+00 0. -1.
</event>
<event>
 4    1  0.7940509E+003  0.4827085E+02  0.7546771E-02  0.1305849E+00
          2   -1    0    0  501    0  0.00000000000E+00  0.00000000000E+00  0.20012157300E+03  0.20012157300E+03  0.00000000000E+00 0.  1.
          2   -1    0    0  502    0 -0.00000000000E+00 -0.00000000000E+00 -0.30877257618E+02  0.30877257618E+02  0.00000000000E+00 0.  1.
          2    1    1    2  501    0  0.47504207692E+02  0.85688353929E+01 -0.65358445415E+01  0.48711312365E+02  0.00000000000E+00 0.  1.
          2    1    1    2  502    0 -0.47504207692E+02 -0.85688353929E+01  0.17578015993E+03  0.18228751826E+03  0.00000000000E+00 0.  1.
</event>
<event>
 4    1  0.7940509E+003  0.2007765E+02  0.7546771E-02  0.1532852E+00
          2   -1    0    0  502    0  0.00000000000E+00  0.00000000000E+00  0.32516740670E+03  0.32516740670E+03  0.00000000000E+00 0.  1.
          2   -1    0    0  501    0 -0.00000000000E+00 -0.00000000000E+00 -0.13514145107E+02  0.13514145107E+02  0.00000000000E+00 0.  1.
          2    1    1    2  501    0  0.14020193506E+02 -0.14371709650E+02  0.31721346069E+03  0.31784822087E+03  0.00000000000E+00 0.  1.
          2    1    1    2  502    0 -0.14020193506E+02  0.14371709650E+02 -0.55601990964E+01  0.20833330943E+02  0.00000000000E+00 0.  1.
</event>
<event>
 4    1  0.7940509E+003  0.6920269E+02  0.7546771E-02  0.1231410E+00
          2   -1    0    0  502    0  0.00000000000E+00  0.00000000000E+00  0.45113414880E+03  0.45113414880E+03  0.00000000000E+00 0.  1.
          2   -1    0    0  501    0 -0.00000000000E+00 -0.00000000000E+00 -0.44013274423E+03  0.44013274423E+03  0.00000000000E+00 0. -1.
          2    1    1    2  501    0 -0.66598954657E+02  0.18804038002E+02  0.44572726471E+03  0.45106740861E+03  0.00000000000E+00 0.  1.
          2    1    1    2  502    0  0.66598954657E+02 -0.18804038002E+02 -0.43472586014E+03  0.44019948442E+03  0.00000000000E+00 0. -1.
</event>
<event>
 4    1  0.7940509E+003  0.2137663E+02  0.7546771E-02  0.1513955E+00
          2   -1    0    0  501    0  0.00000000000E+00  0.00000000000E+00  0.14593968601E+04  0.14593968601E+04  0.00000000000E+00 0. -1.
          2   -1    0    0  502    0 -0.00000000000E+00 -0.00000000000E+00 -0.20020001682E+01  0.20020001682E+01  0.00000000000E+00 0. -1.
          2    1    1    2  501    0 -0.21331664358E+02 -0.13857106126E+01  0.57567384180E+02  0.61408173882E+02  0.00000000000E+00 0. -1.
          2    1    1    2  502    0  0.21331664358E+02  0.13857106126E+01  0.13998274758E+04  0.13999906864E+04  0.00000000000E+00 0. -1.
</event>
<event>
 4    1  0.7940509E+003  0.2390564E+02  0.7546771E-02  0.1481429E+00
          2   -1    0    0  502    0  0.00000000000E+00  0.00000000000E+00  0.51790124408E+03  0.51790124408E+03  0.00000000000E+00 0. -1.
          2   -1    0    0  501    0 -0.00000000000E+00 -0.00000000000E+00 -0.23751705044E+02  0.23751705044E+02  0.00000000000E+00 0. -1.
          2    1    1    2  501    0 -0.16698565291E+02 -0.17106657446E+02  0.51153542074E+03  0.51209370870E+03  0.00000000000E+00 0. -1.
          2    1    1    2  502    0  0.16698565291E+02  0.17106657446E+02 -0.17385881709E+02  0.29559240425E+02  0.00000000000E+00 0. -1.
</event>
<event>
 4    1  0.7940509E+003  0.3163544E+02  0.7546771E-02  0.1405898E+00
          2   -1    0    0  501    0  0.00000000000E+00  0.00000000000E+00  0.36294350982E+03  0.36294350982E+03  0.00000000000E+00 0. -1.
          2   -1    0    0  502    0 -0.00000000000E+00 -0.00000000000E+00 -0.26880864352E+03  0.26880864352E+03  0.00000000000E+00 0. -1.
          2    1    1    2  501    0 -0.29749285147E+02  0.10760154226E+02 -0.26718432865E+03  0.26905067620E+03  0.00000000000E+00 0. -1.
          2    1    1    2  502    0  0.29749285147E+02 -0.10760154226E+02  0.36131919494E+03  0.36270147714E+03  0.00000000000E+00 0. -1.
</event>
<event>
 4    1  0.7940509E+003  0.3243343E+02  0.7546771E-02  0.1399564E+00
          2   -1    0    0  502    0  0.00000000000E+00  0.00000000000E+00  0.64803540138E+01  0.64803540138E+01  0.00000000000E+00 0.  1.
          2   -1    0    0  501    0 -0.00000000000E+00 -0.00000000000E+00 -0.15512297056E+04  0.15512297056E+04  0.00000000000E+00 0.  1.
          2    1    1    2  501    0  0.21307028289E+02  0.24452771601E+02 -0.35396376565E+02  0.48008655130E+02  0.00000000000E+00 0.  1.
          2    1    1    2  502    0 -0.21307028289E+02 -0.24452771601E+02 -0.15093529750E+04  0.15097014045E+04  0.00000000000E+00 0.  1.
</event>
<event>
 4    1  0.7940509E+003  0.5896612E+02  0.7546771E-02  0.1263386E+00
          2   -1    0    0  501    0  0.00000000000E+00  0.00000000000E+00  0.85806995875E+02  0.85806995875E+02  0.00000000000E+00 0. -1.
          2   -1    0    0  502    0 -0.00000000000E+00 -0.00000000000E+00 -0.13190596946E+04  0.13190596946E+04  0.00000000000E+00 0.  1.
          2    1    1    2  501    0 -0.26500076689E+02  0.52675886657E+02 -0.13081862410E+04  0.13095145071E+04  0.00000000000E+00 0.  1.
          2    1    1    2  502    0  0.26500076689E+02 -0.52675886657E+02  0.74933542338E+02  0.95352183336E+02  0.00000000000E+00 0. -1.
</event>
<event>
 4    1  0.7940509E+003  0.2355705E+02  0.7546771E-02  0.1485619E+00
          2   -1    0    0  502    0  0.00000000000E+00  0.00000000000E+00  0.20831367309E+03  0.20831367309E+03  0.00000000000E+00 0.  1.
          2   -1    0    0  501    0 -0.00000000000E+00 -0.00000000000E+00 -0.84141828802E+02  0.84141828802E+02  0.00000000000E+00 0.  1.
          2    1    1    2  501    0 -0.93118788244E+01  0.21638474183E+02  0.20598026381E+03  0.20732294550E+03  0.00000000000E+00 0.  1.
          2    1    1    2  502    0  0.93118788244E+01 -0.21638474183E+02 -0.81808419524E+02  0.85132556389E+02  0.00000000000E+00 0.  1.
</event>
<event>
 4    1  0.7940509E+003  0.2506767E+02  0.7546771E-02  0.1468048E+00
          2   -1    0    0  501    0  0.00000000000E+00  0.00000000000E+00  0.42619366095E+03  0.42619366095E+03  0.00000000000E+00 0. -1.
          2   -1    0    0  502    0 -0.00000000000E+00 -0.00000000000E+00 -0.37518053434E+03  0.37518053434E+03  0.00000000000E+00 0.  1.
          2    1    1    2  501    0  0.23803297850E+02 -0.78607230521E+01 -0.37439243086E+03  0.37523070269E+03  0.00000000000E+00 0.  1.
          2    1    1    2  502    0 -0.23803297850E+02  0.78607230521E+01  0.42540555747E+03  0.42614349260E+03  0.00000000000E+00 0. -1.
</event>
<event>
 4    1  0.7940509E+003  0.2377378E+02  0.7546771E-02  0.1483004E+00
          2   -1    0    0  501    0  0.00000000000E+00  0.00000000000E+00  0.25491452719E+03  0.25491452719E+03  0.00000000000E+00 0. -1.
          2   -1    0    0  502    0 -0.00000000000E+00 -0.00000000000E+00 -0.46357192496E+02  0.46357192496E+02  0.00000000000E+00 0.  1.
          2    1    1    2  501    0 -0.19570594767E+02  0.13497574438E+02 -0.42710729705E+02  0.48881480410E+02  0.00000000000E+00 0.  1.
          2    1    1    2  502    0  0.19570594767E+02 -0.13497574438E+02  0.25126806440E+03  0.25239023928E+03  0.00000000000E+00 0. -1.
</event>
<event>
 4    1  0.7940509E+003  0.2267732E+02  0.7546771E-02  0.1496590E+00
          2   -1    0    0  502    0  0.00000000000E+00  0.00000000000E+00  0.14585201221E+04  0.14585201221E+04  0.00000000000E+00 0.  1.
          2   -1    0    0  501    0 -0.00000000000E+00 -0.00000000000E+00 -0.30053956727E+01  0.30053956727E+01  0.00000000000E+00 0.  1.
          2    1    1    2  501    0  0.22361186747E+02  0.37733249654E+01  0.14143169543E+04  0.14144987480E+04  0.00000000000E+00 0.  1.
          2    1    1    2  502    0 -0.22361186747E+02 -0.37733249654E+01  0.41197772104E+02  0.47026769827E+02  0.00000000000E+00 0.  1.
</event>
<event>
 4    1  0.7940509E+003  0.2373276E+02  0.7546771E-02  0.1483496E+00
          2   -1    0    0  501    0  0.00000000000E+00  0.00000000000E+00  0.23835337342E+03  0.23835337342E+03  0.00000000000E+00 0.  1.
          2   -1    0    0  502    0 -0.00000000000E+00 -0.00000000000E+00 -0.15002159444E+04  0.15002159444E+04  0.00000000000E+00 0.  1.
          2    1    1    2  501    0  0.72731744107E+01 -0.22590809826E+02 -0.14995310487E+04  0.14997188436E+04  0.00000000000E+00 0.  1.
          2    1    1    2  502    0 -0.72731744107E+01  0.22590809826E+02  0.23766847772E+03  0.23885047426E+03  0.00000000000E+00 0.  1.
</event>
<event>
 4    1  0.7940509E+003  0.3400895E+02  0.7546771E-02  0.1387668E+00
          2   -1    0    0  502    0  0.00000000000E+00  0.00000000000E+00  0.62363952283E+03  0.62363952283E+03  0.00000000000E+00 0. -1.
          2   -1    0    0  501    0 -0.00000000000E+00 -0.00000000000E+00 -0.30501430930E+01  0.30501430930E+01  0.00000000000E+00 0. -1.
          2    1    1    2  501    0 -0.28251994437E+02  0.18932342813E+02  0.50646940387E+03  0.50760995445E+03  0.00000000000E+00 0. -1.
          2    1    1    2  502    0  0.28251994437E+02 -0.18932342813E+02  0.11411997586E+03  0.11907971148E+03  0.00000000000E+00 0. -1.
</event>
<event>
 4    1  0.7940509E+003  0.3504558E+02  0.7546771E-02  0.1380243E+00
          2   -1    0    0  501    0  0.00000000000E+00  0.00000000000E+00  0.20308489343E+04  0.20308489343E+04  0.00000000000E+00 0. -1.
          2   -1    0    0  502    0 -0.00000000000E+00 -0.00000000000E+00 -0.18481411166E+03  0.18481411166E+03  0.00000000000E+00 0.  1.
          2    1    1    2  501    0  0.11321346503E+02 -0.33166551218E+02 -0.18300004468E+03  0.18632554672E+03  0.00000000000E+00 0.  1.
          2    1    1    2  502    0 -0.11321346503E+02  0.33166551218E+02  0.20290348673E+04  0.20293374992E+04  0.00000000000E+00 0. -1.
</event>
<event>
 4    1  0.7940509E+003  0.5235346E+02  0.7546771E-02  0.1288279E+00
          2   -1    0    0  501    0  0.00000000000E+00  0.00000000000E+00  0.24078526917E+04  0.24078526917E+04  0.00000000000E+00 0.  1.
          2   -1    0    0  502    0 -0.00000000000E+00 -0.00000000000E+00 -0.24228846829E+03  0.24228846829E+03  0.00000000000E+00 0.  1.
          2    1    1    2  501    0  0.16782788087E+02  0.49590546951E+02 -0.23917210513E+03  0.24483500607E+03  0.00000000000E+00 0.  1.
          2    1    1    2  502    0 -0.16782788087E+02 -0.49590546951E+02  0.24047363285E+04  0.24053061539E+04  0.00000000000E+00 0.  1.
</event>
<event>
 4    1  0.7940509E+003  0.4253112E+02  0.7546771E-02  0.1334259E+00
          2   -1    0    0  501    0  0.00000000000E+00  0.00000000000E+00  0.16108055735E+01  0.16108055735E+01  0.00000000000E+00 0.  1.
          2   -1    0    0  502    0 -0.00000000000E+00 -0.00000000000E+00 -0.17253099362E+04  0.17253099362E+04  0.00000000000E+00 0.  1.
          2    1    1    2  501    0 -0.20584075607E+02  0.37218164206E+02 -0.13720343865E+04  0.13726934303E+04  0.00000000000E+00 0.  1.
          2    1    1    2  502    0  0.20584075607E+02 -0.37218164206E+02 -0.35166474415E+03  0.35422731147E+03  0.00000000000E+00 0.  1.
</event>
<event>
 4    1  0.7940509E+003  0.3971303E+02  0.7546771E-02  0.1350176E+00
          2   -1    0    0  502    0  0.00000000000E+00  0.00000000000E+00  0.21041792703E+03  0.21041792703E+03  0.00000000000E+00 0.  1.
          2   -1    0    0  501    0 -0.00000000000E+00 -0.00000000000E+00 -0.34918836450E+02  0.34918836450E+02  0.00000000000E+00 0.  1.
          2    1    1    2  501    0 -0.39474790349E+02  0.43435071224E+01  0.19645848251E+03  0.20043218424E+03  0.00000000000E+00 0.  1.
          2    1    1    2  502    0  0.39474790349E+02 -0.43435071224E+01 -0.20959391929E+02  0.44904579246E+02  0.00000000000E+00 0.  1.
</event>
<event>
 4    1  0.7940509E+003  0.3495497E+02  0.7546771E-02  0.1380880E+00
          2   -1    0    0  502    0  0.00000000000E+00  0.00000000000E+00  0.22991400183E+03  0.22991400183E+03  0.00000000000E+00 0. -1.
          2   -1    0    0  501    0 -0.00000000000E+00 -0.00000000000E+00 -0.87019743994E+01  0.87019743994E+01  0.00000000000E+00 0. -1.
          2    1    1    2  501    0 -0.34453264622E+02 -0.59010776738E+01  0.18504601704E+03  0.18831855613E+03  0.00000000000E+00 0. -1.
          2    1    1    2  502    0  0.34453264622E+02  0.59010776738E+01  0.36166010385E+02  0.50297420093E+02  0.00000000000E+00 0. -1.
</event>
<event>
 4    1  0.7940509E+003  0.3732758E+02  0.7546771E-02  0.1364900E+00
          2   -1    0    0  502    0  0.00000000000E+00  0.00000000000E+00  0.29540080735E+04  0.29540080735E+04  0.00000000000E+00 0. -1.
          2   -1    0    0  501    0 -0.00000000000E+00 -0.00000000000E+00 -0.59512775374E+00  0.59512775374E+00  0.00000000000E+00 0.  1.
          2    1    1    2  501    0 -0.33712910682E+02 -0.16024607017E+02  0.21495352553E+04  0.21498593354E+04  0.00000000000E+00 0. -1.
          2    1    1    2  502    0  0.33712910682E+02  0.16024607017E+02  0.80387769048E+03  0.80474386585E+03  0.00000000000E+00 0.  1.
</event>
<event>
 4    1  0.7940509E+003  0.2465360E+02  0.7546771E-02  0.1472716E+00
          2   -1    0    0  502    0  0.00000000000E+00  0.00000000000E+00  0.12436937646E+04  0.12436937646E+04  0.00000000000E+00 0.  1.
          2   -1    0    0  501    0 -0.00000000000E+00 -0.00000000000E+00 -0.28708054068E+03  0.28708054068E+03  0.00000000000E+00 0.  1.
          2    1    1    2  501    0  0.28024554481E+01  0.24493803575E+02  0.12430420166E+04  0.12432864735E+04  0.00000000000E+00 0.  1.
          2    1    1    2  502    0 -0.28024554481E+01 -0.24493803575E+02 -0.28642879265E+03  0.28748783180E+03  0.00000000000E+00 0.  1.
</event>
<event>
 4    1  0.7940509E+003  0.2538486E+02  0.7546771E-02  0.1464544E+00
          2   -1    0    0  501    0  0.00000000000E+00  0.00000000000E+00  0.53485132454E+01  0.53485132454E+01  0.00000000000E+00 0.  1.
          2   -1    0    0  502    0 -0.00000000000E+00 -0.00000000000E+00 -0.89369137826E+03  0.89369137826E+03  0.00000000000E+00 0.  1.
          2    1    1    2  501    0 -0.23493271421E+01  0.25275909297E+02 -0.86229456265E+03  0.86266813069E+03  0.00000000000E+00 0.  1.
          2    1    1    2  502    0  0.23493271421E+01 -0.25275909297E+02 -0.26048302361E+02  0.36371760813E+02  0.00000000000E+00 0.  1.
</event>
<event>
 4    1  0.7940509E+003  0.4291157E+02  0.7546771E-02  0.1332220E+00
          2   -1    0    0  502    0  0.00000000000E+00  0.00000000000E+00  0.15031039906E+02  0.15031039906E+02  0.00000000000E+00 0. -1.
          2   -1    0    0  501    0 -0.00000000000E+00 -0.00000000000E+00 -0.68315409801E+03  0.68315409801E+03  0.00000000000E+00 0. -1.
          2    1    1    2  501    0 -0.42904412885E+02 -0.78369414160E+00 -0.17814701316E+02  0.46462526885E+02  0.00000000000E+00 0. -1.
          2    1    1    2  502    0  0.42904412885E+02  0.78369414160E+00 -0.65030835679E+03  0.65172261103E+03  0.00000000000E+00 0. -1.
</event>
<event>
 4    1  0.7940509E+003  0.5311178E+02  0.7546771E-02  0.1285217E+00
          2   -1    0    0  501    0  0.00000000000E+00  0.00000000000E+00  0.17661424935E+03  0.17661424935E+03  0.00000000000E+00 0. -1.
          2   -1    0    0  502    0 -0.00000000000E+00 -0.00000000000E+00 -0.15910041349E+04  0.15910041349E+04  0.00000000000E+00 0. -1.
          2    1    1    2  501    0  0.30716381911E+02  0.43328571892E+02 -0.15865567238E+04  0.15874454633E+04  0.00000000000E+00 0. -1.
          2    1    1    2  502    0 -0.30716381911E+02 -0.43328571892E+02  0.17216683822E+03  0.18017292094E+03  0.00000000000E+00 0. -1.
</event>
<event>
 4    1  0.7940509E+003  0.2845087E+02  0.7546771E-02  0.1433554E+00
          2   -1    0    0  502    0  0.00000000000E+00  0.00000000000E+00  0.19563439093E+03  0.19563439093E+03  0.00000000000E+00 0.  1.
          2   -1    0    0  501    0 -0.00000000000E+00 -0.00000000000E+00 -0.28092774900E+03  0.28092774900E+03  0.00000000000E+00 0.  1.
          2    1    1    2  501    0  0.27931298150E+02  0.54124596672E+01  0.19387314954E+03  0.19594961150E+03  0.00000000000E+00 0.  1.
          2    1    1    2  502    0 -0.27931298150E+02 -0.54124596672E+01 -0.27916650762E+03  0.28061252843E+03  0.00000000000E+00 0.  1.
</event>
<event>
 4    1  0.7940509E+003  0.4495235E+02  0.7546771E-02  0.1321678E+00
          2   -1    0    0  501    0  0.00000000000E+00  0.00000000000E+00  0.16560829355E+01  0.16560829355E+01  0.00000000000E+00 0. -1.
          2   -1    0    0  502    0 -0.00000000000E+00 -0.00000000000E+00 -0.19590593388E+04  0.19590593388E+04  0.00000000000E+00 0.  1.
          2    1    1    2  501    0 -0.44752895096E+02 -0.42298839708E+01 -0.15807737984E+04  0.15814128225E+04  0.00000000000E+00 0.  1.
          2    1    1    2  502    0  0.44752895096E+02  0.42298839708E+01 -0.37662945744E+03  0.37930259918E+03  0.00000000000E+00 0. -1.
</event>
<event>
 4    1  0.7940509E+003  0.2090750E+02  0.7546771E-02  0.1520590E+00
          2   -1    0    0  502    0  0.00000000000E+00  0.00000000000E+00  0.12524363734E+03  0.12524363734E+03  0.00000000000E+00 0. -1.
          2   -1    0    0  501    0 -0.00000000000E+00 -0.00000000000E+00 -0.41564461958E+01  0.41564461958E+01  0.00000000000E+00 0.  1.
          2    1    1    2  501    0 -0.20216467674E+02 -0.53308477344E+01  0.86447524482E+02  0.88939856037E+02  0.00000000000E+00 0. -1.
          2    1    1    2  502    0  0.20216467674E+02  0.53308477344E+01  0.34639666660E+02  0.40460227497E+02  0.00000000000E+00 0.  1.
</event>
<event>
 4    1  0.7940509E+003  0.6635440E+02  0.7546771E-02  0.1239647E+00
          2   -1    0    0  502    0  0.00000000000E+00  0.00000000000E+00  0.18647920338E+01  0.18647920338E+01  0.00000000000E+00 0. -1.
          2   -1    0    0  501    0 -0.00000000000E+00 -0.00000000000E+00 -0.23611326766E+04  0.23611326766E+04  0.00000000000E+00 0. -1.
          2    1    1    2  501    0  0.50668422711E+02 -0.42844112357E+02 -0.11856559007E+04  0.11875111881E+04  0.00000000000E+00 0. -1.
          2    1    1    2  502    0 -0.50668422711E+02  0.42844112357E+02 -0.11736119839E+04  0.11754862806E+04  0.00000000000E+00 0. -1.
</event>
<event>
 4    1  0.7940509E+003  0.2079720E+02  0.7546771E-02  0.1522180E+00
          2   -1    0    0  502    0  0.00000000000E+00  0.00000000000E+00  0.82229392931E+03  0.82229392931E+03  0.00000000000E+00 0. -1.
          2   -1    0    0  501    0 -0.00000000000E+00 -0.00000000000E+00 -0.33159325015E+02  0.33159325015E+02  0.00000000000E+00 0. -1.
          2    1    1    2  501    0  0.18033911889E+02 -0.10358647530E+02  0.81888791947E+03  0.81915196894E+03  0.00000000000E+00 0. -1.
          2    1    1    2  502    0 -0.18033911889E+02  0.10358647530E+02 -0.29753315178E+02  0.36301285387E+02  0.00000000000E+00 0. -1.
</event>
<event>
 4    1  0.7940509E+003  0.2256769E+02  0.7546771E-02  0.1497999E+00
          2   -1    0    0  502    0  0.00000000000E+00  0.00000000000E+00  0.27014833333E+02  0.27014833333E+02  0.00000000000E+00 0. -1.
          2   -1    0    0  501    0 -0.00000000000E+00 -0.00000000000E+00 -0.70828268406E+02  0.70828268406E+02  0.00000000000E+00 0.  1.
          2    1    1    2  501    0 -0.10166096570E+01 -0.22544778393E+02  0.20001273295E+02  0.30155454919E+02  0.00000000000E+00 0. -1.
          2    1    1    2  502    0  0.10166096570E+01  0.22544778393E+02 -0.63814708368E+02  0.67687646820E+02  0.00000000000E+00 0.  1.
</event>
<event>
 4    1  0.7940509E+003  0.6285395E+02  0.7546771E-02  0.1250432E+00
          2   -1    0    0  501    0  0.00000000000E+00  0.00000000000E+00  0.48812376674E+02  0.48812376674E+02  0.00000000000E+00 0.  1.
          2   -1    0    0  502    0 -0.00000000000E+00 -0.00000000000E+00 -0.35263491825E+03  0.35263491825E+03  0.00000000000E+00 0. -1.
          2    1    1    2  501    0 -0.32713970087E+02 -0.53669498743E+02 -0.32810109135E+03  0.33406727627E+03  0.00000000000E+00 0. -1.
          2    1    1    2  502    0  0.32713970087E+02  0.53669498743E+02  0.24278549772E+02  0.67380018650E+02  0.00000000000E+00 0.  1.
</event>
<event>
 4    1  0.7940509E+003  0.2310360E+02  0.7546771E-02  0.1491201E+00
          2   -1    0    0  501    0  0.00000000000E+00  0.00000000000E+00  0.84966063565E+02  0.84966063565E+02  0.00000000000E+00 0. -1.
          2   -1    0    0  502    0 -0.00000000000E+00 -0.00000000000E+00 -0.90218067973E+03  0.90218067973E+03  0.00000000000E+00 0.  1.
          2    1    1    2  501    0 -0.18204049592E+02 -0.14226341969E+02 -0.90045920777E+03  0.90075555013E+03  0.00000000000E+00 0.  1.
          2    1    1    2  502    0  0.18204049592E+02  0.14226341969E+02  0.83244591599E+02  0.86391193173E+02  0.00000000000E+00 0. -1.
</event>
<event>
 4    1  0.7940509E+003  0.2386392E+02  0.7546771E-02  0.1481926E+00
          2   -1    0    0  501    0  0.00000000000E+00  0.00000000000E+00  0.44719284821E+03  0.44719284821E+03  0.00000000000E+00 0.  1.
          2   -1    0    0  502    0 -0.00000000000E+00 -0.00000000000E+00 -0.46569163621E+01  0.46569163621E+01  0.00000000000E+00 0.  1.
          2    1    1    2  501    0  0.23712282461E+02 -0.26859136940E+01  0.28695353093E+02  0.37321706298E+02  0.00000000000E+00 0.  1.
          2    1    1    2  502    0 -0.23712282461E+02  0.26859136940E+01  0.41384057875E+03  0.41452805827E+03  0.00000000000E+00 0.  1.
</event>
<event>
 4    1  0.7940509E+003  0.2511039E+02  0.7546771E-02  0.1467572E+00
          2   -1    0    0  501    0  0.00000000000E+00  0.00000000000E+00  0.26871202198E+00  0.26871202198E+00  0.00000000000E+00 0.  1.
          2   -1    0    0  502    0 -0.00000000000E+00 -0.00000000000E+00 -0.23465562634E+04  0.23465562634E+04  0.00000000000E+00 0.  1.
          2    1    1    2  501    0 -0.48367565069E+00 -0.25105731329E+02 -0.11790897386E+04  0.11793570890E+04  0.00000000000E+00 0.  1.
          2    1    1    2  502    0  0.48367565069E+00  0.25105731329E+02 -0.11671978128E+04  0.11674678865E+04  0.00000000000E+00 0.  1.
</event>
<event>
 4    1  0.7940509E+003  0.3042166E+02  0.7546771E-02  0.1415967E+00
          2   -1    0    0  502    0  0.00000000000E+00  0.00000000000E+00  0.33292278203E+02  0.33292278203E+02  0.00000000000E+00 0.  1.
          2   -1    0    0  501    0 -0.00000000000E+00 -0.00000000000E+00 -0.79897078463E+02  0.79897078463E+02  0.00000000000E+00 0.  1.
          2    1    1    2  501    0  0.26125467125E+02  0.15586447245E+02  0.22398298148E+02  0.37777786200E+02  0.00000000000E+00 0.  1.
          2    1    1    2  502    0 -0.26125467125E+02 -0.15586447245E+02 -0.69003098408E+02  0.75411570466E+02  0.00000000000E+00 0.  1.
</event>
<event>
 4    1  0.7940509E+003  0.5593499E+02  0.7546771E-02  0.1274307E+00
          2   -1    0    0  502    0  0.00000000000E+00  0.00000000000E+00  0.14767007184E+02  0.14767007184E+02  0.00000000000E+00 0.  1.
          2   -1    0    0  501    0 -0.00000000000E+00 -0.00000000000E+00 -0.11346950775E+04  0.11346950775E+04  0.00000000000E+00 0.  1.
          2    1    1    2  501    0 -0.17649572047E+01  0.55907137778E+02 -0.41660502712E+02  0.69744681623E+02  0.00000000000E+00 0.  1.
          2    1    1    2  502    0  0.17649572047E+01 -0.55907137778E+02 -0.10782675676E+04  0.10797174031E+04  0.00000000000E+00 0.  1.
</event>
<event>
 4    1  0.7940509E+003  0.5020267E+02  0.7546771E-02  0.1297296E+00
          2   -1    0    0  502    0  0.00000000000E+00  0.00000000000E+00  0.27165650156E+03  0.27165650156E+03  0.00000000000E+00 0. -1.
          2   -1    0    0  501    0 -0.00000000000E+00 -0.00000000000E+00 -0.50927165563E+03  0.50927165563E+03  0.00000000000E+00 0.  1.
          2    1    1    2  501    0  0.25941764044E+02  0.42980611319E+02  0.26808355369E+03  0.27274365222E+03  0.00000000000E+00 0. -1.
          2    1    1    2  502    0 -0.25941764044E+02 -0.42980611319E+02 -0.50569870775E+03  0.50818450497E+03  0.00000000000E+00 0.  1.
</event>
<event>
 4    1  0.7940509E+003  0.3723919E+02  0.7546771E-02  0.1365470E+00
          2   -1    0    0  502    0  0.00000000000E+00  0.00000000000E+00  0.46842101394E+01  0.46842101394E+01  0.00000000000E+00 0. -1.
          2   -1    0    0  501    0 -0.00000000000E+00 -0.00000000000E+00 -0.32336319345E+03  0.32336319345E+03  0.00000000000E+00 0. -1.
          2    1    1    2  501    0  0.37047534899E+02  0.37732903285E+01 -0.11166869677E+03  0.11771429565E+03  0.00000000000E+00 0. -1.
          2    1    1    2  502    0 -0.37047534899E+02 -0.37732903285E+01 -0.20701028654E+03  0.21033310794E+03  0.00000000000E+00 0. -1.
</event>
<event>
 4    1  0.7940509E+003  0.2214380E+02  0.7546771E-02  0.1503539E+00
          2   -1    0    0  502    0  0.00000000000E+00  0.00000000000E+00  0.40750594246E+00  0.40750594246E+00  0.00000000000E+00 0.  1.
          2   -1    0    0  501    0 -0.00000000000E+00 -0.00000000000E+00 -0.12321010420E+04  0.12321010420E+04  0.00000000000E+00 0. -1.
          2    1    1    2  501    0  0.45925056837E+01  0.21662330192E+02 -0.52161022056E+03  0.52208004161E+03  0.00000000000E+00 0.  1.
          2    1    1    2  502    0 -0.45925056837E+01 -0.21662330192E+02 -0.71008331550E+03  0.71042850633E+03  0.00000000000E+00 0. -1.
</event>
<event>
 4    1  0.7940509E+003  0.2674093E+02  0.7546771E-02  0.1450228E+00
          2   -1    0    0  502    0  0.00000000000E+00  0.00000000000E+00  0.82223071890E+02  0.82223071890E+02  0.00000000000E+00 0. -1.
          2   -1    0    0  501    0 -0.00000000000E+00 -0.00000000000E+00 -0.38653976883E+03  0.38653976883E+03  0.00000000000E+00 0. -1.
          2    1    1    2  501    0  0.15615128937E+02  0.21708177716E+02  0.79571386868E+02  0.83944522392E+02  0.00000000000E+00 0. -1.
          2    1    1    2  502    0 -0.15615128937E+02 -0.21708177716E+02 -0.38388808381E+03  0.38481831833E+03  0.00000000000E+00 0. -1.
</event>
<event>
 4    1  0.7940509E+003  0.2391424E+02  0.7546771E-02  0.1481326E+00
          2   -1    0    0  502    0  0.00000000000E+00  0.00000000000E+00  0.50351835986E+01  0.50351835986E+01  0.00000000000E+00 0.  1.
          2   -1    0    0  501    0 -0.00000000000E+00 -0.00000000000E+00 -0.88614136918E+03  0.88614136918E+03  0.00000000000E+00 0. -1.
          2    1    1    2  501    0 -0.17832446361E+02 -0.15934069824E+02 -0.24499720042E+02  0.34236340437E+02  0.00000000000E+00 0.  1.
          2    1    1    2  502    0  0.17832446361E+02  0.15934069824E+02 -0.85660646553E+03  0.85694021234E+03  0.00000000000E+00 0. -1.
</event>
<event>
 4    1  0.7940509E+003  0.2094836E+02  0.7546771E-02  0.1520003E+00
          2   -1    0    0  502    0  0.00000000000E+00  0.00000000000E+00  0.51397507259E+01  0.51397507259E+01  0.00000000000E+00 0.  1.
          2   -1    0    0  501    0 -0.00000000000E+00 -0.00000000000E+00 -0.15885108180E+03  0.15885108180E+03  0.00000000000E+00 0.  1.
          2    1    1    2  501    0 -0.89516754040E+01  0.18939409171E+02 -0.21091954060E+02  0.29727163308E+02  0.00000000000E+00 0.  1.
          2    1    1    2  502    0  0.89516754040E+01 -0.18939409171E+02 -0.13261937701E+03  0.13426366922E+03  0.00000000000E+00 0.  1.
</event>
<event>
 4    1  0.7940509E+003  0.2089855E+02  0.7546771E-02  0.1520718E+00
          2   -1    0    0  501    0  0.00000000000E+00  0.00000000000E+00  0.31663057912E+00  0.31663057912E+00  0.00000000000E+00 0.  1.
          2   -1    0    0  502    0 -0.00000000000E+00 -0.00000000000E+00 -0.15480901507E+04  0.15480901507E+04  0.00000000000E+00 0.  1.
          2    1    1    2  501    0  0.79459431918E+01  0.19329030594E+02 -0.10294778121E+04  0.10296899121E+04  0.00000000000E+00 0.  1.
          2    1    1    2  502    0 -0.79459431918E+01 -0.19329030594E+02 -0.51829570795E+03  0.51871686913E+03  0.00000000000E+00 0.  1.
</event>
<event>
 4    1  0.7940509E+003  0.2093826E+02  0.7546771E-02  0.1520148E+00
          2   -1    0    0  502    0  0.00000000000E+00  0.00000000000E+00  0.17190463581E+01  0.17190463581E+01  0.00000000000E+00 0.  1.
          2   -1    0    0  501    0 -0.00000000000E+00 -0.00000000000E+00 -0.75122223602E+03  0.75122223602E+03  0.00000000000E+00 0.  1.
          2    1    1    2  501    0 -0.94359838723E+01  0.18691517790E+02 -0.68786904816E+02  0.71903052113E+02  0.00000000000E+00 0.  1.
          2    1    1    2  502    0  0.94359838723E+01 -0.18691517790E+02 -0.68071628485E+03  0.68103823027E+03  0.00000000000E+00 0.  1.
</event>
<event>
 4    1  0.7940509E+003  0.2581655E+02  0.7546771E-02  0.1459872E+00
          2   -1    0    0  501    0  0.00000000000E+00  0.00000000000E+00  0.17691530930E+04  0.17691530930E+04  0.00000000000E+00 0. -1.
          2   -1    0    0  502    0 -0.00000000000E+00 -0.00000000000E+00 -0.26254438448E+01  0.26254438448E+01  0.00000000000E+00 0.  1.
          2    1    1    2  501    0 -0.34675400145E+01  0.25582623004E+02  0.63393636567E+02  0.68448868440E+02  0.00000000000E+00 0.  1.
          2    1    1    2  502    0  0.34675400145E+01 -0.25582623004E+02  0.17031340126E+04  0.17033296684E+04  0.00000000000E+00 0. -1.
</event>
<event>
 4    1  0.7940509E+003  0.2748196E+02  0.7546771E-02  0.1442826E+00
          2   -1    0    0  501    0  0.00000000000E+00  0.00000000000E+00  0.48907153762E+03  0.48907153762E+03  0.00000000000E+00 0. -1.
          2   -1    0    0  502    0 -0.00000000000E+00 -0.00000000000E+00 -0.98256408381E+02  0.98256408381E+02  0.00000000000E+00 0.  1.
          2    1    1    2  501    0  0.27385761904E+02  0.22974518275E+01 -0.95939550253E+02  0.99798073843E+02  0.00000000000E+00 0.  1.
          2    1    1    2  502    0 -0.27385761904E+02 -0.22974518275E+01  0.48675467949E+03  0.48752987216E+03  0.00000000000E+00 0. -1.
</event>
<event>
 4    1  0.7940509E+003  0.2083294E+02  0.7546771E-02  0.1521663E+00
          2   -1    0    0  501    0  0.00000000000E+00  0.00000000000E+00  0.64329734945E+03  0.64329734945E+03  0.00000000000E+00 0.  1.
          2   -1    0    0  502    0 -0.00000000000E+00 -0.00000000000E+00 -0.14367795029E+02  0.14367795029E+02  0.00000000000E+00 0. -1.
          2    1    1    2  501    0 -0.63384538082E+01 -0.19845286454E+02 -0.65544941894E+01  0.21839706619E+02  0.00000000000E+00 0. -1.
          2    1    1    2  502    0  0.63384538082E+01  0.19845286454E+02  0.63548404861E+03  0.63582543786E+03  0.00000000000E+00 0.  1.
</event>
<event>
 4    1  0.7940509E+003  0.2787089E+02  0.7546771E-02  0.1439051E+00
          2   -1    0    0  501    0  0.00000000000E+00  0.00000000000E+00  0.79174561360E+01  0.79174561360E+01  0.00000000000E+00 0. -1.
          2   -1    0    0  502    0 -0.00000000000E+00 -0.00000000000E+00 -0.10005085471E+03  0.10005085471E+03  0.00000000000E+00 0. -1.
          2    1    1    2  501    0  0.25168199120E+02 -0.11972819470E+02 -0.38549062992E+02  0.47569075149E+02  0.00000000000E+00 0. -1.
          2    1    1    2  502    0 -0.25168199120E+02  0.11972819470E+02 -0.53584335581E+02  0.60399235696E+02  0.00000000000E+00 0. -1.
</event>
<event>
 4    1  0.7940509E+003  0.2130057E+02  0.7546771E-02  0.1515016E+00
          2   -1    0    0  501    0  0.00000000000E+00  0.00000000000E+00  0.58251732765E+03  0.58251732765E+03  0.00000000000E+00 0. -1.
          2   -1    0    0  502    0 -0.00000000000E+00 -0.00000000000E+00 -0.50913692936E+02  0.50913692936E+02  0.00000000000E+00 0.  1.
          2    1    1    2  501    0 -0.13563018255E+02 -0.16424339201E+02 -0.48481774404E+02  0.52954667705E+02  0.00000000000E+00 0.  1.
          2    1    1    2  502    0  0.13563018255E+02  0.16424339201E+02  0.58008540912E+03  0.58047635288E+03  0.00000000000E+00 0. -1.
</event>
<event>
 4    1  0.7940510E+003  0.2396606E+02  0.7546771E-02  0.1480711E+00
          2   -1    0    0  501    0  0.00000000000E+00  0.00000000000E+00  0.12539543800E+04  0.12539543800E+04  0.00000000000E+00 0.  1.
          2   -1    0    0  502    0 -0.00000000000E+00 -0.00000000000E+00 -0.30720862875E+03  0.30720862875E+03  0.00000000000E+00 0.  1.
          2    1    1    2  501    0 -0.23662635536E+02 -0.38015288719E+01 -0.30662648759E+03  0.30756166022E+03  0.00000000000E+00 0.  1.
          2    1    1    2  502    0  0.23662635536E+02  0.38015288719E+01  0.12533722389E+04  0.12536013486E+04  0.00000000000E+00 0.  1.
</event>
<event>
 4    1  0.7940509E+003  0.2024739E+02  0.7546771E-02  0.1530287E+00
          2   -1    0    0  502    0  0.00000000000E+00  0.00000000000E+00  0.47554273398E+02  0.47554273398E+02  0.00000000000E+00 0. -1.
          2   -1    0    0  501    0 -0.00000000000E+00 -0.00000000000E+00 -0.15896529630E+03  0.15896529630E+03  0.00000000000E+00 0. -1.
          2    1    1    2  501    0  0.14124791120E+02 -0.14506793515E+02  0.44715315563E+02  0.49085804753E+02  0.00000000000E+00 0. -1.
          2    1    1    2  502    0 -0.14124791120E+02  0.14506793515E+02 -0.15612633847E+03  0.15743376495E+03  0.00000000000E+00 0. -1.
</event>
<event>
 4    1  0.7940509E+003  0.2899206E+02  0.7546771E-02  0.1428562E+00
          2   -1    0    0  501    0  0.00000000000E+00  0.00000000000E+00  0.73212740663E+02  0.73212740663E+02  0.00000000000E+00 0. -1.
          2   -1    0    0  502    0 -0.00000000000E+00 -0.00000000000E+00 -0.19117291413E+02  0.19117291413E+02  0.00000000000E+00 0. -1.
          2    1    1    2  501    0  0.88886397169E+01  0.27595858598E+02 -0.21297250801E+01  0.29070174693E+02  0.00000000000E+00 0. -1.
          2    1    1    2  502    0 -0.88886397169E+01 -0.27595858598E+02  0.56225174330E+02  0.63259857384E+02  0.00000000000E+00 0. -1.
</event>
<event>
 4    1  0.7940509E+003  0.3090569E+02  0.7546771E-02  0.1411886E+00
          2   -1    0    0  502    0  0.00000000000E+00  0.00000000000E+00  0.22228863120E+01  0.22228863120E+01  0.00000000000E+00 0. -1.
          2   -1    0    0  501    0 -0.00000000000E+00 -0.00000000000E+00 -0.84685196448E+03  0.84685196448E+03  0.00000000000E+00 0.  1.
          2    1    1    2  501    0 -0.13906554517E+02  0.27600172032E+02 -0.12435156233E+03  0.12813458865E+03  0.00000000000E+00 0. -1.
          2    1    1    2  502    0  0.13906554517E+02 -0.27600172032E+02 -0.72027751583E+03  0.72094026214E+03  0.00000000000E+00 0.  1.
</event>
<event>
 4    1  0.7940509E+003  0.2064747E+02  0.7546771E-02  0.1524358E+00
          2   -1    0    0  501    0  0.00000000000E+00  0.00000000000E+00  0.29322971849E+03  0.29322971849E+03  0.00000000000E+00 0.  1.
          2   -1    0    0  502    0 -0.00000000000E+00 -0.00000000000E+00 -0.26330481092E+01  0.26330481092E+01  0.00000000000E+00 0.  1.
          2    1    1    2  501    0  0.10576013992E+02  0.17733186150E+02  0.46301666636E+02  0.50696768104E+02  0.00000000000E+00 0.  1.
          2    1    1    2  502    0 -0.10576013992E+02 -0.17733186150E+02  0.24429500375E+03  0.24516599850E+03  0.00000000000E+00 0.  1.
</event>
<event>
 4    1  0.7940509E+003  0.2179883E+02  0.7546771E-02  0.1508158E+00
          2   -1    0    0  501    0  0.00000000000E+00  0.00000000000E+00  0.14621364358E+04  0.14621364358E+04  0.00000000000E+00 0. -1.
          2   -1    0    0  502    0 -0.00000000000E+00 -0.00000000000E+00 -0.47868880561E+01  0.47868880561E+01  0.00000000000E+00 0.  1.
          2    1    1    2  501    0 -0.21278214932E+02  0.47356584794E+01  0.20549167768E+02  0.29957589821E+02  0.00000000000E+00 0.  1.
          2    1    1    2  502    0  0.21278214932E+02 -0.47356584794E+01  0.14368003800E+04  0.14369657340E+04  0.00000000000E+00 0. -1.
</event>
<event>
 4    1  0.7940509E+003  0.3683147E+02  0.7546771E-02  0.1368125E+00
          2   -1    0    0  502    0  0.00000000000E+00  0.00000000000E+00  0.19678516784E+02  0.19678516784E+02  0.00000000000E+00 0.  1.
          2   -1    0    0  501    0 -0.00000000000E+00 -0.00000000000E+00 -0.84089215361E+03  0.84089215361E+03  0.00000000000E+00 0. -1.
          2    1    1    2  501    0  0.85630746840E+01  0.35822214787E+02  0.16641226921E+01  0.36869046972E+02  0.00000000000E+00 0.  1.
          2    1    1    2  502    0 -0.85630746840E+01 -0.35822214787E+02 -0.82287775952E+03  0.82370162342E+03  0.00000000000E+00 0. -1.
</event>
<event>
 4    1  0.7940509E+003  0.2126262E+02  0.7546771E-02  0.1515548E+00
          2   -1    0    0  502    0  0.00000000000E+00  0.00000000000E+00  0.37869060893E+03  0.37869060893E+03  0.00000000000E+00 0. -1.
          2   -1    0    0  501    0 -0.00000000000E+00 -0.00000000000E+00 -0.19030600557E+01  0.19030600557E+01  0.00000000000E+00 0.  1.
          2    1    1    2  501    0  0.19088826179E+01 -0.21176760581E+02  0.30456361026E+03  0.30530491597E+03  0.00000000000E+00 0. -1.
          2    1    1    2  502    0 -0.19088826179E+01  0.21176760581E+02  0.72223938619E+02  0.75288753020E+02  0.00000000000E+00 0.  1.
</event>
<event>
 4    1  0.7940509E+003  0.2021426E+02  0.7546771E-02  0.1530785E+00
          2   -1    0    0  501    0  0.00000000000E+00  0.00000000000E+00  0.95016079436E+03  0.95016079436E+03  0.00000000000E+00 0. -1.
          2   -1    0    0  502    0 -0.00000000000E+00 -0.00000000000E+00 -0.43164999093E+00  0.43164999093E+00  0.00000000000E+00 0. -1.
          2    1    1    2  501    0 -0.91663991711E+01 -0.18016473838E+02  0.44592307505E+03  0.44638100885E+03  0.00000000000E+00 0. -1.
          2    1    1    2  502    0  0.91663991711E+01  0.18016473838E+02  0.50380606932E+03  0.50421143550E+03  0.00000000000E+00 0. -1.
</event>
<event>
 4    1  0.1370006E+004  0.2220226E+02  0.7546771E-02  0.1502766E+00
          2   -1    0    0  501    0  0.00000000000E+00  0.00000000000E+00  0.58883699913E+03  0.58883699913E+03  0.00000000000E+00 0.  1.
          2   -1    0    0  502    0 -0.00000000000E+00 -0.00000000000E+00 -0.10303650770E+04  0.10303650770E+04  0.00000000000E+00 0.  1.
          2    1    1    2  501    0  0.91731467638E+01  0.20218646905E+02 -0.10300361213E+04  0.10302753766E+04  0.00000000000E+00 0.  1.
          2    1    1    2  502    0 -0.91731467638E+01 -0.20218646905E+02  0.58850804344E+03  0.58892669959E+03  0.00000000000E+00 0.  1.
</event>
<event>
 4    1  0.7940509E+003  0.5629527E+02  0.7546771E-02  0.1272967E+00
          2   -1    0    0  501    0  0.00000000000E+00  0.00000000000E+00  0.46456074632E+03  0.46456074632E+03  0.00000000000E+00 0.  1.
          2   -1    0    0  502    0 -0.00000000000E+00 -0.00000000000E+00 -0.10046271682E+02  0.10046271682E+02  0.00000000000E+00 0. -1.
          2    1    1    2  501    0 -0.24776633332E+02  0.50549737325E+02  0.92817232437E+02  0.10855503738E+03  0.00000000000E+00 0. -1.
          2    1    1    2  502    0  0.24776633332E+02 -0.50549737325E+02  0.36169724220E+03  0.36605198062E+03  0.00000000000E+00 0.  1.
</event>
<event>
 4    1  0.7940509E+003  0.2599788E+02  0.7546771E-02  0.1457943E+00
          2   -1    0    0  502    0  0.00000000000E+00  0.00000000000E+00  0.70377344069E+03  0.70377344069E+03  0.00000000000E+00 0.  1.
          2   -1    0    0  501    0 -0.00000000000E+00 -0.00000000000E+00 -0.36270509479E+01  0.36270509479E+01  0.00000000000E+00 0. -1.
          2    1    1    2  501    0  0.19974769447E+02  0.16640258903E+02  0.65335285437E+03  0.65386989681E+03  0.00000000000E+00 0.  1.
          2    1    1    2  502    0 -0.19974769447E+02 -0.16640258903E+02  0.46793535369E+02  0.53530594833E+02  0.00000000000E+00 0. -1.
</event>
<event>
 4    1  0.7940509E+003  0.7015342E+02  0.7546771E-02  0.1228760E+00
          2   -1    0    0  502    0  0.00000000000E+00  0.00000000000E+00  0.27420074464E+03  0.27420074464E+03  0.00000000000E+00 0.  1.
          2   -1    0    0  501    0 -0.00000000000E+00 -0.00000000000E+00 -0.22210204369E+03  0.22210204369E+03  0.00000000000E+00 0. -1.
          2    1    1    2  501    0 -0.66859735218E+02  0.21243305822E+02  0.26396272886E+03  0.27312602304E+03  0.00000000000E+00 0.  1.
          2    1    1    2  502    0  0.66859735218E+02 -0.21243305822E+02 -0.21186402791E+03  0.22317676528E+03  0.00000000000E+00 0. -1.
</event>
<event>
 4    1  0.7940509E+003  0.2650600E+02  0.7546771E-02  0.1452635E+00
          2   -1    0    0  501    0  0.00000000000E+00  0.00000000000E+00  0.38318194243E+02  0.38318194243E+02  0.00000000000E+00 0.  1.
          2   -1    0    0  502    0 -0.00000000000E+00 -0.00000000000E+00 -0.19539882718E+02  0.19539882718E+02  0.00000000000E+00 0. -1.
          2    1    1    2  501    0  0.26408364697E+02 -0.22729519171E+01  0.22058086089E+01  0.26597624481E+02  0.00000000000E+00 0. -1.
          2    1    1    2  502    0 -0.26408364697E+02  0.22729519171E+01  0.16572502916E+02  0.31260452481E+02  0.00000000000E+00 0.  1.
</event>
<event>
 4    1  0.7940509E+003  0.2617575E+02  0.7546771E-02  0.1456068E+00
          2   -1    0    0  502    0  0.00000000000E+00  0.00000000000E+00  0.11700178619E+02  0.11700178619E+02  0.00000000000E+00 0.  1.
          2   -1    0    0  501    0 -0.00000000000E+00 -0.00000000000E+00 -0.18051644667E+03  0.18051644667E+03  0.00000000000E+00 0.  1.
          2    1    1    2  501    0 -0.19943441451E+02  0.16953735689E+02 -0.54123713428E+01  0.26729455181E+02  0.00000000000E+00 0.  1.
          2    1    1    2  502    0  0.19943441451E+02 -0.16953735689E+02 -0.16340389671E+03  0.16548717011E+03  0.00000000000E+00 0.  1.
</event>
<event>
 4    1  0.7940509E+003  0.6768056E+02  0.7546771E-02  0.1235756E+00
          2   -1    0    0  501    0  0.00000000000E+00  0.00000000000E+00  0.35097418285E+03  0.35097418285E+03  0.00000000000E+00 0.  1.
          2   -1    0    0  502    0 -0.00000000000E+00 -0.00000000000E+00 -0.22740080649E+02  0.22740080649E+02  0.00000000000E+00 0.  1.
          2    1    1    2  501    0  0.23597936549E+02  0.63433396533E+02  0.42148198360E+02  0.79731606218E+02  0.00000000000E+00 0.  1.
          2    1    1    2  502    0 -0.23597936549E+02 -0.63433396533E+02  0.28608590384E+03  0.29398265728E+03  0.00000000000E+00 0.  1.
</event>
<event>
 4    1  0.7940509E+003  0.2168844E+02  0.7546771E-02  0.1509658E+00
          2   -1    0    0  501    0  0.00000000000E+00  0.00000000000E+00  0.81094852177E+03  0.81094852177E+03  0.00000000000E+00 0. -1.
          2   -1    0    0  502    0 -0.00000000000E+00 -0.00000000000E+00 -0.13371374828E+03  0.13371374828E+03  0.00000000000E+00 0.  1.
          2    1    1    2  501    0  0.77897718287E+01  0.20241244609E+02 -0.13268815372E+03  0.13444900396E+03  0.00000000000E+00 0.  1.
          2    1    1    2  502    0 -0.77897718287E+01 -0.20241244609E+02  0.80992292721E+03  0.81021326609E+03  0.00000000000E+00 0. -1.
</event>
<event>
 4    1  0.7940509E+003  0.3796225E+02  0.7546771E-02  0.1360859E+00
          2   -1    0    0  501    0  0.00000000000E+00  0.00000000000E+00  0.23159004494E+04  0.23159004494E+04  0.00000000000E+00 0. -1.
          2   -1    0    0  502    0 -0.00000000000E+00 -0.00000000000E+00 -0.18257864076E+01  0.18257864076E+01  0.00000000000E+00 0.  1.
          2    1    1    2  501    0 -0.28248111014E+02  0.25360924527E+02  0.21616250760E+03  0.21947064031E+03  0.00000000000E+00 0.  1.
          2    1    1    2  502    0  0.28248111014E+02 -0.25360924527E+02  0.20979121554E+04  0.20982555955E+04  0.00000000000E+00 0. -1.
</event>
<event>
 4    1  0.2079476E+004  0.2795245E+02  0.7546771E-02  0.1438268E+00
          2   -1    0    0  501    0  0.00000000000E+00  0.00000000000E+00  0.13321070436E+04  0.13321070436E+04  0.00000000000E+00 0. -1.
          2   -1    0    0  502    0 -0.00000000000E+00 -0.00000000000E+00 -0.12796887897E+04  0.12796887897E+04  0.00000000000E+00 0.  1.
          2    1    1    2  501    0 -0.48722974625E+01 -0.27524534477E+02 -0.12793894770E+04  0.12796947968E+04  0.00000000000E+00 0.  1.
          2    1    1    2  502    0  0.48722974625E+01  0.27524534477E+02  0.13318077308E+04  0.13321010364E+04  0.00000000000E+00 0. -1.
</event>
<event>
 4    1  0.7940509E+003  0.3327849E+02  0.7546771E-02  0.1393087E+00
          2   -1    0    0  501    0  0.00000000000E+00  0.00000000000E+00  0.15741189672E+03  0.15741189672E+03  0.00000000000E+00 0. -1.
          2   -1    0    0  502    0 -0.00000000000E+00 -0.00000000000E+00 -0.37563267485E+02  0.37563267485E+02  0.00000000000E+00 0.  1.
          2    1    1    2  501    0 -0.18708701191E+02  0.27521666950E+02 -0.27960888645E+02  0.43465721503E+02  0.00000000000E+00 0.  1.
          2    1    1    2  502    0  0.18708701191E+02 -0.27521666950E+02  0.14780951788E+03  0.15150944270E+03  0.00000000000E+00 0. -1.
</event>
<event>
 4    1  0.7940509E+003  0.2729829E+02  0.7546771E-02  0.1444635E+00
          2   -1    0    0  501    0  0.00000000000E+00  0.00000000000E+00  0.11562608461E+01  0.11562608461E+01  0.00000000000E+00 0.  1.
          2   -1    0    0  502    0 -0.00000000000E+00 -0.00000000000E+00 -0.14947837783E+04  0.14947837783E+04  0.00000000000E+00 0. -1.
          2    1    1    2  501    0 -0.76774638008E+01 -0.26196436408E+02 -0.13109446808E+04  0.13112288713E+04  0.00000000000E+00 0. -1.
          2    1    1    2  502    0  0.76774638008E+01  0.26196436408E+02 -0.18268283670E+03  0.18471116792E+03  0.00000000000E+00 0.  1.
</event>
<event>
 4    1  0.7940509E+003  0.2980609E+02  0.7546771E-02  0.1421289E+00
          2   -1    0    0  502    0  0.00000000000E+00  0.00000000000E+00  0.90747050929E+00  0.90747050929E+00  0.00000000000E+00 0.  1.
          2   -1    0    0  501    0 -0.00000000000E+00 -0.00000000000E+00 -0.12416988910E+04  0.12416988910E+04  0.00000000000E+00 0.  1.
          2    1    1    2  501    0 -0.24192150488E+02  0.17410999231E+02 -0.33461415501E+03  0.33593903580E+03  0.00000000000E+00 0.  1.
          2    1    1    2  502    0  0.24192150488E+02 -0.17410999231E+02 -0.90617726547E+03  0.90666732570E+03  0.00000000000E+00 0.  1.
</event>
<event>
 4    1  0.7940509E+003  0.3782004E+02  0.7546771E-02  0.1361757E+00
          2   -1    0    0  501    0  0.00000000000E+00  0.00000000000E+00  0.45327641507E+03  0.45327641507E+03  0.00000000000E+00 0.  1.
          2   -1    0    0  502    0 -0.00000000000E+00 -0.00000000000E+00 -0.58403777494E+02  0.58403777494E+02  0.00000000000E+00 0. -1.
          2    1    1    2  501    0 -0.33230537203E+02  0.18057872913E+02 -0.51396208771E+02  0.63811641986E+02  0.00000000000E+00 0. -1.
          2    1    1    2  502    0  0.33230537203E+02 -0.18057872913E+02  0.44626884634E+03  0.44786855058E+03  0.00000000000E+00 0.  1.
</event>
<event>
 4    1  0.7940509E+003  0.3018304E+02  0.7546771E-02  0.1418012E+00
          2   -1    0    0  501    0  0.00000000000E+00  0.00000000000E+00  0.39899820484E+02  0.39899820484E+02  0.00000000000E+00 0.  1.
          2   -1    0    0  502    0 -0.00000000000E+00 -0.00000000000E+00 -0.31874338618E+03  0.31874338618E+03  0.00000000000E+00 0.  1.
          2    1    1    2  501    0 -0.28789837114E+02  0.90642924422E+01 -0.31220136913E+03  0.31365699579E+03  0.00000000000E+00 0.  1.
          2    1    1    2  502    0  0.28789837114E+02 -0.90642924422E+01  0.33357803439E+02  0.44986210874E+02  0.00000000000E+00 0.  1.
</event>
<event>
 4    1  0.7940509E+003  0.4085469E+02  0.7546771E-02  0.1343549E+00
          2   -1    0    0  501    0  0.00000000000E+00  0.00000000000E+00  0.12065787406E+02  0.12065787406E+02  0.00000000000E+00 0. -1.
          2   -1    0    0  502    0 -0.00000000000E+00 -0.00000000000E+00 -0.72098993908E+03  0.72098993908E+03  0.00000000000E+00 0.  1.
          2    1    1    2  501    0  0.25309748773E+02  0.32070577391E+02 -0.68395689029E+03  0.68517598695E+03  0.00000000000E+00 0.  1.
          2    1    1    2  502    0 -0.25309748773E+02 -0.32070577391E+02 -0.24967261384E+02  0.47879739537E+02  0.00000000000E+00 0. -1.
</event>
<event>
 4    1  0.7940509E+003  0.2022193E+02  0.7546771E-02  0.1530670E+00
          2   -1    0    0  501    0  0.00000000000E+00  0.00000000000E+00  0.15662057992E+03  0.15662057992E+03  0.00000000000E+00 0.  1.
          2   -1    0    0  502    0 -0.00000000000E+00 -0.00000000000E+00 -0.28188806701E+03  0.28188806701E+03  0.00000000000E+00 0. -1.
          2    1    1    2  501    0 -0.20140599501E+02 -0.18118605707E+01 -0.28087030285E+03  0.28159732529E+03  0.00000000000E+00 0. -1.
          2    1    1    2  502    0  0.20140599501E+02  0.18118605707E+01  0.15560281576E+03  0.15691132164E+03  0.00000000000E+00 0.  1.
</event>
<event>
 4    1  0.7940509E+003  0.3785795E+02  0.7546771E-02  0.1361517E+00
          2   -1    0    0  501    0  0.00000000000E+00  0.00000000000E+00  0.38325028990E+03  0.38325028990E+03  0.00000000000E+00 0.  1.
          2   -1    0    0  502    0 -0.00000000000E+00 -0.00000000000E+00 -0.41849207811E+01  0.41849207811E+01  0.00000000000E+00 0.  1.
          2    1    1    2  501    0 -0.96119176487E+01 -0.36617417883E+02  0.12634468090E+03  0.13189466496E+03  0.00000000000E+00 0.  1.
          2    1    1    2  502    0  0.96119176487E+01  0.36617417883E+02  0.25272068822E+03  0.25554054572E+03  0.00000000000E+00 0.  1.
</event>
<event>
 4    1  0.7940509E+003  0.2850292E+02  0.7546771E-02  0.1433068E+00
          2   -1    0    0  502    0  0.00000000000E+00  0.00000000000E+00  0.18099458907E+04  0.18099458907E+04  0.00000000000E+00 0.  1.
          2   -1    0    0  501    0 -0.00000000000E+00 -0.00000000000E+00 -0.67957206529E+02  0.67957206529E+02  0.00000000000E+00 0. -1.
          2    1    1    2  501    0  0.17655341810E+02 -0.22376445063E+02  0.18068398319E+04  0.18070646349E+04  0.00000000000E+00 0.  1.
          2    1    1    2  502    0 -0.17655341810E+02  0.22376445063E+02 -0.64851147737E+02  0.70838462370E+02  0.00000000000E+00 0. -1.
</event>
<event>
 4    1  0.7940509E+003  0.2213959E+02  0.7546771E-02  0.1503594E+00
          2   -1    0    0  501    0  0.00000000000E+00  0.00000000000E+00  0.54272664262E+02  0.54272664262E+02  0.00000000000E+00 0.  1.
          2   -1    0    0  502    0 -0.00000000000E+00 -0.00000000000E+00 -0.15166954633E+02  0.15166954633E+02  0.00000000000E+00 0.  1.
          2    1    1    2  501    0  0.31620311475E+01 -0.21912624630E+02 -0.25298782751E+01  0.22283667634E+02  0.00000000000E+00 0.  1.
          2    1    1    2  502    0 -0.31620311475E+01  0.21912624630E+02  0.41635587904E+02  0.47155951261E+02  0.00000000000E+00 0.  1.
</event>
<event>
 4    1  0.7940509E+003  0.2308020E+02  0.7546771E-02  0.1491493E+00
          2   -1    0    0  501    0  0.00000000000E+00  0.00000000000E+00  0.11016107190E+04  0.11016107190E+04  0.00000000000E+00 0.  1.
          2   -1    0    0  502    0 -0.00000000000E+00 -0.00000000000E+00 -0.13359539606E+02  0.13359539606E+02  0.00000000000E+00 0. -1.
          2    1    1    2  501    0  0.18610792101E+02 -0.13650430540E+02 -0.31772062050E+01  0.23297864190E+02  0.00000000000E+00 0. -1.
          2    1    1    2  502    0 -0.18610792101E+02  0.13650430540E+02  0.10914283856E+04  0.10916723944E+04  0.00000000000E+00 0.  1.
</event>
<event>
 4    1  0.7940509E+003  0.2426551E+02  0.7546771E-02  0.1477190E+00
          2   -1    0    0  502    0  0.00000000000E+00  0.00000000000E+00  0.24677690099E+03  0.24677690099E+03  0.00000000000E+00 0. -1.
          2   -1    0    0  501    0 -0.00000000000E+00 -0.00000000000E+00 -0.58568243572E+01  0.58568243572E+01  0.00000000000E+00 0. -1.
          2    1    1    2  501    0 -0.18568562641E+02 -0.15621246244E+02  0.21770010296E+03  0.21904828162E+03  0.00000000000E+00 0. -1.
          2    1    1    2  502    0  0.18568562641E+02  0.15621246244E+02  0.23219973670E+02  0.33585443722E+02  0.00000000000E+00 0. -1.
</event>
<event>
 4    1  0.7940509E+003  0.2304360E+02  0.7546771E-02  0.1491951E+00
          2   -1    0    0  501    0  0.00000000000E+00  0.00000000000E+00  0.18640478544E+04  0.18640478544E+04  0.00000000000E+00 0.  1.
          2   -1    0    0  502    0 -0.00000000000E+00 -0.00000000000E+00 -0.29278934240E+00  0.29278934240E+00  0.00000000000E+00 0. -1.
          2    1    1    2  501    0  0.13101390396E+02  0.18956815538E+02  0.10852055157E+04  0.10854501456E+04  0.00000000000E+00 0.  1.
          2    1    1    2  502    0 -0.13101390396E+02 -0.18956815538E+02  0.77854954932E+03  0.77889049810E+03  0.00000000000E+00 0. -1.
</event>
<event>
 4    1  0.7940509E+003  0.2176796E+02  0.7546771E-02  0.1508577E+00
          2   -1    0    0  502    0  0.00000000000E+00  0.00000000000E+00  0.50616587670E+02  0.50616587670E+02  0.00000000000E+00 0. -1.
          2   -1    0    0  501    0 -0.00000000000E+00 -0.00000000000E+00 -0.38687377999E+03  0.38687377999E+03  0.00000000000E+00 0.  1.
          2    1    1    2  501    0 -0.21319472470E+02 -0.43959334828E+01  0.47953820165E+02  0.52663203529E+02  0.00000000000E+00 0. -1.
          2    1    1    2  502    0  0.21319472470E+02  0.43959334828E+01 -0.38421101248E+03  0.38482716413E+03  0.00000000000E+00 0.  1.
</event>
<event>
 4    1  0.7940509E+003  0.2560468E+02  0.7546771E-02  0.1462151E+00
          2   -1    0    0  501    0  0.00000000000E+00  0.00000000000E+00  0.26986833601E+03  0.26986833601E+03  0.00000000000E+00 0.  1.
          2   -1    0    0  502    0 -0.00000000000E+00 -0.00000000000E+00 -0.12966907138E+02  0.12966907138E+02  0.00000000000E+00 0.  1.
          2    1    1    2  501    0  0.13534395519E+02 -0.21735223264E+02  0.96671784223E+00  0.25622925980E+02  0.00000000000E+00 0.  1.
          2    1    1    2  502    0 -0.13534395519E+02  0.21735223264E+02  0.25593471103E+03  0.25721231717E+03  0.00000000000E+00 0.  1.
</event>
<event>
 4    1  0.7940509E+003  0.3435880E+02  0.7546771E-02  0.1385128E+00
          2   -1    0    0  502    0  0.00000000000E+00  0.00000000000E+00  0.95692759835E+03  0.95692759835E+03  0.00000000000E+00 0.  1.
          2   -1    0    0  501    0 -0.00000000000E+00 -0.00000000000E+00 -0.15591746807E+03  0.15591746807E+03  0.00000000000E+00 0.  1.
          2    1    1    2  501    0  0.11297624199E+02  0.32448278911E+02  0.95472193893E+03  0.95533999591E+03  0.00000000000E+00 0.  1.
          2    1    1    2  502    0 -0.11297624199E+02 -0.32448278911E+02 -0.15371180865E+03  0.15750507050E+03  0.00000000000E+00 0.  1.
</event>
<event>
 4    1  0.7940509E+003  0.3131370E+02  0.7546771E-02  0.1408514E+00
          2   -1    0    0  502    0  0.00000000000E+00  0.00000000000E+00  0.83855821263E+03  0.83855821263E+03  0.00000000000E+00 0.  1.
          2   -1    0    0  501    0 -0.00000000000E+00 -0.00000000000E+00 -0.87158423153E+02  0.87158423153E+02  0.00000000000E+00 0. -1.
          2    1    1    2  501    0 -0.97956431562E+01 -0.29742107192E+02  0.83544285306E+03  0.83602949009E+03  0.00000000000E+00 0.  1.
          2    1    1    2  502    0  0.97956431562E+01  0.29742107192E+02 -0.84043063588E+02  0.89687145692E+02  0.00000000000E+00 0. -1.
</event>
<event>
 4    1  0.7940509E+003  0.2082371E+02  0.7546771E-02  0.1521797E+00
          2   -1    0    0  501    0  0.00000000000E+00  0.00000000000E+00  0.13466228831E+04  0.13466228831E+04  0.00000000000E+00 0. -1.
          2   -1    0    0  502    0 -0.00000000000E+00 -0.00000000000E+00 -0.53098452433E+00  0.53098452433E+00  0.00000000000E+00 0. -1.
          2    1    1    2  501    0  0.32881133264E+01 -0.20562475722E+02  0.25048230667E+03  0.25134640052E+03  0.00000000000E+00 0. -1.
          2    1    1    2  502    0 -0.32881133264E+01  0.20562475722E+02  0.10956095919E+04  0.10958074671E+04  0.00000000000E+00 0. -1.
</event>
<event>
 4    1  0.7940509E+003  0.2154477E+02  0.7546771E-02  0.1511627E+00
          2   -1    0    0  502    0  0.00000000000E+00  0.00000000000E+00  0.80585668072E+03  0.80585668072E+03  0.00000000000E+00 0. -1.
          2   -1    0    0  501    0 -0.00000000000E+00 -0.00000000000E+00 -0.22225063743E+03  0.22225063743E+03  0.00000000000E+00 0.  1.
          2    1    1    2  501    0  0.10953312646E+02  0.18552681546E+02  0.80519011502E+03  0.80547830410E+03  0.00000000000E+00 0. -1.
          2    1    1    2  502    0 -0.10953312646E+02 -0.18552681546E+02 -0.22158407173E+03  0.22262901404E+03  0.00000000000E+00 0.  1.
</event>
<event>
 4    1  0.7940509E+003  0.5140485E+02  0.7546771E-02  0.1292194E+00
          2   -1    0    0  501    0  0.00000000000E+00  0.00000000000E+00  0.12684545569E+03  0.12684545569E+03  0.00000000000E+00 0. -1.
          2   -1    0    0  502    0 -0.00000000000E+00 -0.00000000000E+00 -0.31619320796E+02  0.31619320796E+02  0.00000000000E+00 0. -1.
          2    1    1    2  501    0 -0.50347740428E+02 -0.10371305783E+02  0.93891750045E+02  0.10704260683E+03  0.00000000000E+00 0. -1.
          2    1    1    2  502    0  0.50347740428E+02  0.10371305783E+02  0.13343848522E+01  0.51422169662E+02  0.00000000000E+00 0. -1.
</event>
<event>
 4    1  0.7940509E+003  0.2180361E+02  0.7546771E-02  0.1508094E+00
          2   -1    0    0  501    0  0.00000000000E+00  0.00000000000E+00  0.55165349697E+00  0.55165349697E+00  0.00000000000E+00 0.  1.
          2   -1    0    0  502    0 -0.00000000000E+00 -0.00000000000E+00 -0.10565163810E+04  0.10565163810E+04  0.00000000000E+00 0. -1.
          2    1    1    2  501    0 -0.18228579980E+02 -0.11963117483E+02 -0.75490185483E+03  0.75521666278E+03  0.00000000000E+00 0. -1.
          2    1    1    2  502    0  0.18228579980E+02  0.11963117483E+02 -0.30106287267E+03  0.30185137171E+03  0.00000000000E+00 0.  1.
</event>
<event>
 4    1  0.7940509E+003  0.2057555E+02  0.7546771E-02  0.1525412E+00
          2   -1    0    0  502    0  0.00000000000E+00  0.00000000000E+00  0.38281971538E+02  0.38281971538E+02  0.00000000000E+00 0.  1.
          2   -1    0    0  501    0 -0.00000000000E+00 -0.00000000000E+00 -0.23680369581E+02  0.23680369581E+02  0.00000000000E+00 0.  1.
          2    1    1    2  501    0  0.37813290863E+01  0.20225100041E+02  0.29919106352E+02  0.36311238566E+02  0.00000000000E+00 0.  1.
          2    1    1    2  502    0 -0.37813290863E+01 -0.20225100041E+02 -0.15317504395E+02  0.25651102553E+02  0.00000000000E+00 0.  1.
</event>
<event>
 4    1  0.7940509E+003  0.2093078E+02  0.7546771E-02  0.1520255E+00
          2   -1    0    0  502    0  0.00000000000E+00  0.00000000000E+00  0.16822160108E+03  0.16822160108E+03  0.00000000000E+00 0. -1.
          2   -1    0    0  501    0 -0.00000000000E+00 -0.00000000000E+00 -0.63577071764E+03  0.63577071764E+03  0.00000000000E+00 0. -1.
          2    1    1    2  501    0  0.81321702893E+00 -0.20914971490E+02  0.16739741422E+03  0.16870089402E+03  0.00000000000E+00 0. -1.
          2    1    1    2  502    0 -0.81321702893E+00  0.20914971490E+02 -0.63494653078E+03  0.63529142470E+03  0.00000000000E+00 0. -1.
</event>
<event>
 4    1  0.7940509E+003  0.3182142E+02  0.7546771E-02  0.1404402E+00
          2   -1    0    0  501    0  0.00000000000E+00  0.00000000000E+00  0.14145978817E+04  0.14145978817E+04  0.00000000000E+00 0.  1.
          2   -1    0    0  502    0 -0.00000000000E+00 -0.00000000000E+00 -0.19690518098E+01  0.19690518098E+01  0.00000000000E+00 0.  1.
          2    1    1    2  501    0  0.11526585211E+02  0.29660424990E+02  0.14125572128E+03  0.14479565523E+03  0.00000000000E+00 0.  1.
          2    1    1    2  502    0 -0.11526585211E+02 -0.29660424990E+02  0.12713731087E+04  0.12717712783E+04  0.00000000000E+00 0.  1.
</event>
<event>
 4    1  0.7940509E+003  0.2089887E+02  0.7546771E-02  0.1520714E+00
          2   -1    0    0  502    0  0.00000000000E+00  0.00000000000E+00  0.25439038509E+01  0.25439038509E+01  0.00000000000E+00 0.  1.
          2   -1    0    0  501    0 -0.00000000000E+00 -0.00000000000E+00 -0.32634241547E+03  0.32634241547E+03  0.00000000000E+00 0. -1.
          2    1    1    2  501    0  0.20851268625E+02 -0.14097314050E+01 -0.48696379069E+02  0.52991509512E+02  0.00000000000E+00 0.  1.
          2    1    1    2  502    0 -0.20851268625E+02  0.14097314050E+01 -0.27510213255E+03  0.27589480981E+03  0.00000000000E+00 0. -1.
</event>
<event>
 4    1  0.7940509E+003  0.4022417E+02  0.7546771E-02  0.1347177E+00
          2   -1    0    0  502    0  0.00000000000E+00  0.00000000000E+00  0.15894615244E+04  0.15894615244E+04  0.00000000000E+00 0.  1.
          2   -1    0    0  501    0 -0.00000000000E+00 -0.00000000000E+00 -0.97735642182E+01  0.97735642182E+01  0.00000000000E+00 0.  1.
          2    1    1    2  501    0  0.38389237294E+02  0.12010427703E+02  0.15466756023E+04  0.15471985660E+04  0.00000000000E+00 0.  1.
          2    1    1    2  502    0 -0.38389237294E+02 -0.12010427703E+02  0.33012357917E+02  0.52036522644E+02  0.00000000000E+00 0.  1.
</event>
<event>
 4    1  0.7940509E+003  0.4074719E+02  0.7546771E-02  0.1344162E+00
          2   -1    0    0  501    0  0.00000000000E+00  0.00000000000E+00  0.18630773835E+03  0.18630773835E+03  0.00000000000E+00 0.  1.
          2   -1    0    0  502    0 -0.00000000000E+00 -0.00000000000E+00 -0.83635905145E+03  0.83635905145E+03  0.00000000000E+00 0.  1.
          2    1    1    2  501    0 -0.35111000928E+02  0.20677305804E+02 -0.83362751279E+03  0.83462276715E+03  0.00000000000E+00 0.  1.
          2    1    1    2  502    0  0.35111000928E+02 -0.20677305804E+02  0.18357619969E+03  0.18804402265E+03  0.00000000000E+00 0.  1.
</event>
<event>
 4    1  0.7940509E+003  0.5162302E+02  0.7546771E-02  0.1291285E+00
          2   -1    0    0  501    0  0.00000000000E+00  0.00000000000E+00  0.13145632958E+04  0.13145632958E+04  0.00000000000E+00 0. -1.
          2   -1    0    0  502    0 -0.00000000000E+00 -0.00000000000E+00 -0.27270040204E+04  0.27270040204E+04  0.00000000000E+00 0.  1.
          2    1    1    2  501    0 -0.21841883745E+02 -0.46774656629E+02 -0.27262527607E+04  0.27267414713E+04  0.00000000000E+00 0.  1.
          2    1    1    2  502    0  0.21841883745E+02  0.46774656629E+02  0.13138120360E+04  0.13148258449E+04  0.00000000000E+00 0. -1.
</event>
<event>
 4    1  0.7940509E+003  0.2119438E+02  0.7546771E-02  0.1516508E+00
          2   -1    0    0  501    0  0.00000000000E+00  0.00000000000E+00  0.78829381727E+03  0.78829381727E+03  0.00000000000E+00 0.  1.
          2   -1    0    0  502    0 -0.00000000000E+00 -0.00000000000E+00 -0.53782388964E+02  0.53782388964E+02  0.00000000000E+00 0. -1.
          2    1    1    2  501    0 -0.44740324357E+01  0.20716776839E+02 -0.51545936562E+02  0.55733162344E+02  0.00000000000E+00 0. -1.
          2    1    1    2  502    0  0.44740324357E+01 -0.20716776839E+02  0.78605736487E+03  0.78634304389E+03  0.00000000000E+00 0.  1.
</event>
<event>
 4    1  0.7940509E+003  0.2904187E+02  0.7546771E-02  0.1428109E+00
          2   -1    0    0  502    0  0.00000000000E+00  0.00000000000E+00  0.25148417924E+02  0.25148417924E+02  0.00000000000E+00 0. -1.
          2   -1    0    0  501    0 -0.00000000000E+00 -0.00000000000E+00 -0.14756189820E+03  0.14756189820E+03  0.00000000000E+00 0. -1.
          2    1    1    2  501    0 -0.11900304696E+02  0.26491756235E+02  0.14703243883E+02  0.32551740060E+02  0.00000000000E+00 0. -1.
          2    1    1    2  502    0  0.11900304696E+02 -0.26491756235E+02 -0.13711672416E+03  0.14015857606E+03  0.00000000000E+00 0. -1.
</event>
<event>
 4    1  0.7940509E+003  0.2051878E+02  0.7546771E-02  0.1526248E+00
          2   -1    0    0  501    0  0.00000000000E+00  0.00000000000E+00  0.14670535796E+03  0.14670535796E+03  0.00000000000E+00 0. -1.
          2   -1    0    0  502    0 -0.00000000000E+00 -0.00000000000E+00 -0.65291509260E+02  0.65291509260E+02  0.00000000000E+00 0. -1.
          2    1    1    2  501    0  0.19224909745E+02  0.71710071599E+01 -0.62935793340E+02  0.66196182532E+02  0.00000000000E+00 0. -1.
          2    1    1    2  502    0 -0.19224909745E+02 -0.71710071599E+01  0.14434964204E+03  0.14580068469E+03  0.00000000000E+00 0. -1.
</event>
<event>
 4    1  0.7940509E+003  0.2558580E+02  0.7546771E-02  0.1462356E+00
          2   -1    0    0  502    0  0.00000000000E+00  0.00000000000E+00  0.14453623438E+04  0.14453623438E+04  0.00000000000E+00 0. -1.
          2   -1    0    0  501    0 -0.00000000000E+00 -0.00000000000E+00 -0.27756313142E+01  0.27756313142E+01  0.00000000000E+00 0. -1.
          2    1    1    2  501    0 -0.20712562648E+02  0.15020745742E+02  0.13836573329E+04  0.13838938716E+04  0.00000000000E+00 0. -1.
          2    1    1    2  502    0  0.20712562648E+02 -0.15020745742E+02  0.58929379611E+02  0.64244103507E+02  0.00000000000E+00 0. -1.
</event>
<event>
 4    1  0.7940509E+003  0.2574572E+02  0.7546771E-02  0.1460631E+00
          2   -1    0    0  501    0  0.00000000000E+00  0.00000000000E+00  0.46780594678E+03  0.46780594678E+03  0.00000000000E+00 0.  1.
          2   -1    0    0  502    0 -0.00000000000E+00 -0.00000000000E+00 -0.16306711878E+02  0.16306711878E+02  0.00000000000E+00 0. -1.
          2    1    1    2  501    0  0.18027272756E+02  0.18380960947E+02 -0.55514297047E+01  0.26337438375E+02  0.00000000000E+00 0. -1.
          2    1    1    2  502    0 -0.18027272756E+02 -0.18380960947E+02  0.45705066460E+03  0.45777522028E+03  0.00000000000E+00 0.  1.
</event>
<event>
 4    1  0.7940509E+003  0.3666913E+02  0.7546771E-02  0.1369194E+00
          2   -1    0    0  502    0  0.00000000000E+00  0.00000000000E+00  0.13360074243E+02  0.13360074243E+02  0.00000000000E+00 0. -1.
          2   -1    0    0  501    0 -0.00000000000E+00 -0.00000000000E+00 -0.13796680220E+04  0.13796680220E+04  0.00000000000E+00 0.  1.
          2    1    1    2  501    0  0.11189836435E+01 -0.36652050933E+02 -0.12525856315E+02  0.38749477911E+02  0.00000000000E+00 0. -1.
          2    1    1    2  502    0 -0.11189836435E+01  0.36652050933E+02 -0.13537820915E+04  0.13542786183E+04  0.00000000000E+00 0.  1.
</event>
<event>
 4    1  0.7940509E+003  0.2431872E+02  0.7546771E-02  0.1476571E+00
          2   -1    0    0  502    0  0.00000000000E+00  0.00000000000E+00  0.11526962224E+04  0.11526962224E+04  0.00000000000E+00 0. -1.
          2   -1    0    0  501    0 -0.00000000000E+00 -0.00000000000E+00 -0.60095831421E+00  0.60095831421E+00  0.00000000000E+00 0. -1.
          2    1    1    2  501    0 -0.38221759990E+01  0.24016480003E+02  0.35550955525E+03  0.35634034884E+03  0.00000000000E+00 0. -1.
          2    1    1    2  502    0  0.38221759990E+01 -0.24016480003E+02  0.79658570880E+03  0.79695683183E+03  0.00000000000E+00 0. -1.
</event>
<event>
 4    1  0.7940509E+003  0.3072150E+02  0.7546771E-02  0.1413428E+00
          2   -1    0    0  501    0  0.00000000000E+00  0.00000000000E+00  0.94464164992E+03  0.94464164992E+03  0.00000000000E+00 0.  1.
          2   -1    0    0  502    0 -0.00000000000E+00 -0.00000000000E+00 -0.28526296512E+02  0.28526296512E+02  0.00000000000E+00 0. -1.
          2    1    1    2  501    0 -0.46903950325E+01  0.30361334069E+02 -0.19929161103E+02  0.36619419360E+02  0.00000000000E+00 0. -1.
          2    1    1    2  502    0  0.46903950325E+01 -0.30361334069E+02  0.93604451452E+03  0.93654852708E+03  0.00000000000E+00 0.  1.
</event>
<event>
 4    1  0.7940509E+003  0.2106674E+02  0.7546771E-02  0.1518314E+00
          2   -1    0    0  502    0  0.00000000000E+00  0.00000000000E+00  0.58642060694E+02  0.58642060694E+02  0.00000000000E+00 0. -1.
          2   -1    0    0  501    0 -0.00000000000E+00 -0.00000000000E+00 -0.11020788432E+03  0.11020788432E+03  0.00000000000E+00 0.  1.
          2    1    1    2  501    0 -0.13770213261E+02 -0.15943297621E+02  0.55691740079E+02  0.59543072018E+02  0.00000000000E+00 0. -1.
          2    1    1    2  502    0  0.13770213261E+02  0.15943297621E+02 -0.10725756370E+03  0.10930687299E+03  0.00000000000E+00 0.  1.
</event>
<event>
 4    1  0.7940509E+003  0.7810605E+02  0.7546771E-02  0.1208314E+00
          2   -1    0    0  501    0  0.00000000000E+00  0.00000000000E+00  0.54066616755E+02  0.54066616755E+02  0.00000000000E+00 0.  1.
          2   -1    0    0  502    0 -0.00000000000E+00 -0.00000000000E+00 -0.25413417989E+03  0.25413417989E+03  0.00000000000E+00 0.  1.
          2    1    1    2  501    0 -0.65864262983E+02 -0.41981591343E+02 -0.21493999343E+03  0.22869139888E+03  0.00000000000E+00 0.  1.
          2    1    1    2  502    0  0.65864262983E+02  0.41981591343E+02  0.14872430287E+02  0.79509397763E+02  0.00000000000E+00 0.  1.
</event>
<event>
 4    1  0.7940509E+003  0.2326198E+02  0.7546771E-02  0.1489234E+00
          2   -1    0    0  501    0  0.00000000000E+00  0.00000000000E+00  0.16170506443E+04  0.16170506443E+04  0.00000000000E+00 0.  1.
          2   -1    0    0  502    0 -0.00000000000E+00 -0.00000000000E+00 -0.52988662756E+02  0.52988662756E+02  0.00000000000E+00 0.  1.
          2    1    1    2  501    0 -0.70924318460E+01  0.22154394972E+02 -0.50347830330E+02  0.55461913284E+02  0.00000000000E+00 0.  1.
          2    1    1    2  502    0  0.70924318460E+01 -0.22154394972E+02  0.16144098119E+04  0.16145773938E+04  0.00000000000E+00 0.  1.
</event>
<event>
 4    1  0.7940509E+003  0.4936471E+02  0.7546771E-02  0.1300951E+00
          2   -1    0    0  502    0  0.00000000000E+00  0.00000000000E+00  0.37526731688E+04  0.37526731688E+04  0.00000000000E+00 0. -1.
          2   -1    0    0  501    0 -0.00000000000E+00 -0.00000000000E+00 -0.70265406661E+00  0.70265406661E+00  0.00000000000E+00 0.  1.
          2    1    1    2  501    0  0.36159626388E+02  0.33605886837E+02  0.13591893699E+04  0.13600855184E+04  0.00000000000E+00 0.  1.
          2    1    1    2  502    0 -0.36159626388E+02 -0.33605886837E+02  0.23927811448E+04  0.23932903044E+04  0.00000000000E+00 0. -1.
</event>
<event>
 4    1  0.7940509E+003  0.2886467E+02  0.7546771E-02  0.1429726E+00
          2   -1    0    0  502    0  0.00000000000E+00  0.00000000000E+00  0.12130292761E+04  0.12130292761E+04  0.00000000000E+00 0.  1.
          2   -1    0    0  501    0 -0.00000000000E+00 -0.00000000000E+00 -0.10590446625E+03  0.10590446625E+03  0.00000000000E+00 0.  1.
          2    1    1    2  501    0  0.28306366383E+02 -0.56496502224E+01  0.12108872914E+04  0.12112312749E+04  0.00000000000E+00 0.  1.
          2    1    1    2  502    0 -0.28306366383E+02  0.56496502224E+01 -0.10376248151E+03  0.10770246745E+03  0.00000000000E+00 0.  1.
</event>
<event>
 4    1  0.7940509E+003  0.3046578E+02  0.7546771E-02  0.1415591E+00
          2   -1    0    0  502    0  0.00000000000E+00  0.00000000000E+00  0.88528437207E+01  0.88528437207E+01  0.00000000000E+00 0.  1.
          2   -1    0    0  501    0 -0.00000000000E+00 -0.00000000000E+00 -0.70008500961E+03  0.70008500961E+03  0.00000000000E+00 0. -1.
          2    1    1    2  501    0 -0.19425303987E+02 -0.23469578973E+02 -0.18765422343E+02  0.35781344970E+02  0.00000000000E+00 0.  1.
          2    1    1    2  502    0  0.19425303987E+02  0.23469578973E+02 -0.67246674355E+03  0.67315650836E+03  0.00000000000E+00 0. -1.
</event>
<event>
 4    1  0.7940509E+003  0.2231600E+02  0.7546771E-02  0.1501271E+00
          2   -1    0    0  502    0  0.00000000000E+00  0.00000000000E+00  0.18217666636E+04  0.18217666636E+04  0.00000000000E+00 0.  1.
          2   -1    0    0  501    0 -0.00000000000E+00 -0.00000000000E+00 -0.37308704770E+00  0.37308704770E+00  0.00000000000E+00 0. -1.
          2    1    1    2  501    0 -0.13438348137E+02 -0.17816135566E+02  0.13817242272E+04  0.13819044265E+04  0.00000000000E+00 0.  1.
          2    1    1    2  502    0  0.13438348137E+02  0.17816135566E+02  0.43966934930E+03  0.44023532412E+03  0.00000000000E+00 0. -1.
</event>
<event>
 4    1  0.7940509E+003  0.3503885E+02  0.7546771E-02  0.1380290E+00
          2   -1    0    0  501    0  0.00000000000E+00  0.00000000000E+00  0.36587195451E+03  0.36587195451E+03  0.00000000000E+00 0. -1.
          2   -1    0    0  502    0 -0.00000000000E+00 -0.00000000000E+00 -0.53154151306E+03  0.53154151306E+03  0.00000000000E+00 0. -1.
          2    1    1    2  501    0  0.14371207032E+02  0.31956059559E+02 -0.53012293534E+03  0.53127963250E+03  0.00000000000E+00 0. -1.
          2    1    1    2  502    0 -0.14371207032E+02 -0.31956059559E+02  0.36445337679E+03  0.36613383507E+03  0.00000000000E+00 0. -1.
</event>
<event>
 4    1  0.7940509E+003  0.2262575E+02  0.7546771E-02  0.1497252E+00
          2   -1    0    0  502    0  0.00000000000E+00  0.00000000000E+00  0.19811663794E+02  0.19811663794E+02  0.00000000000E+00 0. -1.
          2   -1    0    0  501    0 -0.00000000000E+00 -0.00000000000E+00 -0.20107422663E+03  0.20107422663E+03  0.00000000000E+00 0.  1.
          2    1    1    2  501    0  0.73238655287E+01 -0.21407606401E+02  0.12471360297E+02  0.25835236514E+02  0.00000000000E+00 0. -1.
          2    1    1    2  502    0 -0.73238655287E+01  0.21407606401E+02 -0.19373392313E+03  0.19505065391E+03  0.00000000000E+00 0.  1.
</event>
<event>
 4    1  0.7940509E+003  0.2588244E+02  0.7546771E-02  0.1459169E+00
          2   -1    0    0  501    0  0.00000000000E+00  0.00000000000E+00  0.79690975960E+03  0.79690975960E+03  0.00000000000E+00 0.  1.
          2   -1    0    0  502    0 -0.00000000000E+00 -0.00000000000E+00 -0.22503298721E+02  0.22503298721E+02  0.00000000000E+00 0. -1.
          2    1    1    2  501    0 -0.25817905007E+02 -0.18266021965E+01 -0.14778061262E+02  0.29804224352E+02  0.00000000000E+00 0. -1.
          2    1    1    2  502    0  0.25817905007E+02  0.18266021965E+01  0.78918452214E+03  0.78960883397E+03  0.00000000000E+00 0.  1.
</event>
<event>
 4    1  0.7940509E+003  0.2712931E+02  0.7546771E-02  0.1446314E+00
          2   -1    0    0  502    0  0.00000000000E+00  0.00000000000E+00  0.21590833423E+02  0.21590833423E+02  0.00000000000E+00 0. -1.
          2   -1    0    0  501    0 -0.00000000000E+00 -0.00000000000E+00 -0.13516850383E+04  0.13516850383E+04  0.00000000000E+00 0.  1.
          2    1    1    2  501    0  0.20351079691E+02 -0.17939701453E+02  0.12877291658E+02  0.30030384168E+02  0.00000000000E+00 0. -1.
          2    1    1    2  502    0 -0.20351079691E+02  0.17939701453E+02 -0.13429714966E+04  0.13432454876E+04  0.00000000000E+00 0.  1.
</event>
<event>
 4    1  0.7940509E+003  0.2221774E+02  0.7546771E-02  0.1502562E+00
          2   -1    0    0  501    0  0.00000000000E+00  0.00000000000E+00  0.46737068129E+03  0.46737068129E+03  0.00000000000E+00 0.  1.
          2   -1    0    0  502    0 -0.00000000000E+00 -0.00000000000E+00 -0.12006806366E+01  0.12006806366E+01  0.00000000000E+00 0.  1.
          2    1    1    2  501    0  0.19100078776E+02  0.11349673706E+02  0.15180847128E+03  0.15342568252E+03  0.00000000000E+00 0.  1.
          2    1    1    2  502    0 -0.19100078776E+02 -0.11349673706E+02  0.31436152937E+03  0.31514567941E+03  0.00000000000E+00 0.  1.
</event>
<event>
 4    1  0.7940509E+003  0.2166041E+02  0.7546771E-02  0.1510041E+00
          2   -1    0    0  501    0  0.00000000000E+00  0.00000000000E+00  0.19957683614E+03  0.19957683614E+03  0.00000000000E+00 0. -1.
          2   -1    0    0  502    0 -0.00000000000E+00 -0.00000000000E+00 -0.37637976047E+01  0.37637976047E+01  0.00000000000E+00 0. -1.
          2    1    1    2  501    0  0.20993504509E+02 -0.53335045308E+01  0.35612638604E+02  0.41682532678E+02  0.00000000000E+00 0. -1.
          2    1    1    2  502    0 -0.20993504509E+02  0.53335045308E+01  0.16020039994E+03  0.16165810107E+03  0.00000000000E+00 0. -1.
</event>
<event>
 4    1  0.7940509E+003  0.4941871E+02  0.7546771E-02  0.1300713E+00
          2   -1    0    0  502    0  0.00000000000E+00  0.00000000000E+00  0.80999443685E+01  0.80999443685E+01  0.00000000000E+00 0. -1.
          2   -1    0    0  501    0 -0.00000000000E+00 -0.00000000000E+00 -0.86514136306E+03  0.86514136306E+03  0.00000000000E+00 0. -1.
          2    1    1    2  501    0 -0.44988114433E+02 -0.20451856983E+02 -0.76102316302E+02  0.90740131369E+02  0.00000000000E+00 0. -1.
          2    1    1    2  502    0  0.44988114433E+02  0.20451856983E+02 -0.78093910239E+03  0.78250117606E+03  0.00000000000E+00 0. -1.
</event>
<event>
 4    1  0.7940509E+003  0.2389072E+02  0.7546771E-02  0.1481606E+00
          2   -1    0    0  501    0  0.00000000000E+00  0.00000000000E+00  0.20398406130E+02  0.20398406130E+02  0.00000000000E+00 0. -1.
          2   -1    0    0  502    0 -0.00000000000E+00 -0.00000000000E+00 -0.76199950759E+03  0.76199950759E+03  0.00000000000E+00 0.  1.
          2    1    1    2  501    0 -0.18090105129E+02 -0.15604948457E+02 -0.75474984124E+03  0.75512786279E+03  0.00000000000E+00 0.  1.
          2    1    1    2  502    0  0.18090105129E+02  0.15604948457E+02  0.13148739775E+02  0.27270050928E+02  0.00000000000E+00 0. -1.
</event>
<event>
 4    1  0.7940509E+003  0.2068387E+02  0.7546771E-02  0.1523827E+00
          2   -1    0    0  501    0  0.00000000000E+00  0.00000000000E+00  0.11783729321E+01  0.11783729321E+01  0.00000000000E+00 0.  1.
          2   -1    0    0  502    0 -0.00000000000E+00 -0.00000000000E+00 -0.51477207207E+03  0.51477207207E+03  0.00000000000E+00 0. -1.
          2    1    1    2  501    0 -0.18120449282E+02  0.99735569186E+01 -0.39684507483E+03  0.39738373889E+03  0.00000000000E+00 0. -1.
          2    1    1    2  502    0  0.18120449282E+02 -0.99735569186E+01 -0.11674862431E+03  0.11856670611E+03  0.00000000000E+00 0.  1.
</event>
<event>
 4    1  0.7940509E+003  0.2856542E+02  0.7546771E-02  0.1432487E+00
          2   -1    0    0  501    0  0.00000000000E+00  0.00000000000E+00  0.67629870728E+03  0.67629870728E+03  0.00000000000E+00 0. -1.
          2   -1    0    0  502    0 -0.00000000000E+00 -0.00000000000E+00 -0.16121764777E+01  0.16121764777E+01  0.00000000000E+00 0.  1.
          2    1    1    2  501    0 -0.22816212044E+02  0.17187310639E+02  0.16732192043E+03  0.16974277079E+03  0.00000000000E+00 0.  1.
          2    1    1    2  502    0  0.22816212044E+02 -0.17187310639E+02  0.50736461037E+03  0.50816811297E+03  0.00000000000E+00 0. -1.
</event>
<event>
 4    1  0.8946397E+003  0.3649568E+02  0.7546771E-02  0.1370342E+00
          2   -1    0    0  501    0  0.00000000000E+00  0.00000000000E+00  0.88849963208E+03  0.88849963208E+03  0.00000000000E+00 0.  1.
          2   -1    0    0  502    0 -0.00000000000E+00 -0.00000000000E+00 -0.61869312027E+03  0.61869312027E+03  0.00000000000E+00 0.  1.
          2    1    1    2  501    0 -0.27790643633E+02 -0.23656181642E+02 -0.61777959084E+03  0.61885665356E+03  0.00000000000E+00 0.  1.
          2    1    1    2  502    0  0.27790643633E+02  0.23656181642E+02  0.88758610265E+03  0.88833609879E+03  0.00000000000E+00 0.  1.
</event>
<event>
 4    1  0.7940509E+003  0.5134946E+02  0.7546771E-02  0.1292425E+00
          2   -1    0    0  502    0  0.00000000000E+00  0.00000000000E+00  0.76278225362E+01  0.76278225362E+01  0.00000000000E+00 0.  1.
          2   -1    0    0  501    0 -0.00000000000E+00 -0.00000000000E+00 -0.35529550491E+03  0.35529550491E+03  0.00000000000E+00 0.  1.
          2    1    1    2  501    0  0.43347820132E+02  0.27526961889E+02 -0.20368979849E+03  0.21006261245E+03  0.00000000000E+00 0.  1.
          2    1    1    2  502    0 -0.43347820132E+02 -0.27526961889E+02 -0.14397788388E+03  0.15286071500E+03  0.00000000000E+00 0.  1.
</event>
<event>
 4    1  0.7940509E+003  0.2016060E+02  0.7546771E-02  0.1531595E+00
          2   -1    0    0  501    0  0.00000000000E+00  0.00000000000E+00  0.57376812757E+03  0.57376812757E+03  0.00000000000E+00 0. -1.
          2   -1    0    0  502    0 -0.00000000000E+00 -0.00000000000E+00 -0.11571653404E+01  0.11571653404E+01  0.00000000000E+00 0. -1.
          2    1    1    2  501    0 -0.71223226263E+01 -0.18860598040E+02  0.10728617838E+03  0.10916397624E+03  0.00000000000E+00 0. -1.
          2    1    1    2  502    0  0.71223226263E+01  0.18860598040E+02  0.46532478385E+03  0.46576131666E+03  0.00000000000E+00 0. -1.
</event>
<event>
 4    1  0.7940509E+003  0.3448260E+02  0.7546771E-02  0.1384238E+00
          2   -1    0    0  501    0  0.00000000000E+00  0.00000000000E+00  0.19184408547E+04  0.19184408547E+04  0.00000000000E+00 0. -1.
          2   -1    0    0  502    0 -0.00000000000E+00 -0.00000000000E+00 -0.83650584319E+00  0.83650584319E+00  0.00000000000E+00 0.  1.
          2    1    1    2  501    0  0.16655692488E+02  0.30193339343E+02  0.47036527432E+03  0.47162754491E+03  0.00000000000E+00 0.  1.
          2    1    1    2  502    0 -0.16655692488E+02 -0.30193339343E+02  0.14472390746E+04  0.14476498156E+04  0.00000000000E+00 0. -1.
</event>
<event>
 4    1  0.7940509E+003  0.2739849E+02  0.7546771E-02  0.1443646E+00
          2   -1    0    0  501    0  0.00000000000E+00  0.00000000000E+00  0.10670465079E+04  0.10670465079E+04  0.00000000000E+00 0.  1.
          2   -1    0    0  502    0 -0.00000000000E+00 -0.00000000000E+00 -0.13553024337E+01  0.13553024337E+01  0.00000000000E+00 0. -1.
          2    1    1    2  501    0 -0.13873252042E+02 -0.23626471163E+02  0.16238556761E+03  0.16468075124E+03  0.00000000000E+00 0. -1.
          2    1    1    2  502    0  0.13873252042E+02  0.23626471163E+02  0.90330563791E+03  0.90372105914E+03  0.00000000000E+00 0.  1.
</event>
<event>
 4    1  0.7940509E+003  0.4590013E+02  0.7546771E-02  0.1316999E+00
          2   -1    0    0  502    0  0.00000000000E+00  0.00000000000E+00  0.11879605068E+04  0.11879605068E+04  0.00000000000E+00 0.  1.
          2   -1    0    0  501    0 -0.00000000000E+00 -0.00000000000E+00 -0.20545748460E+01  0.20545748460E+01  0.00000000000E+00 0.  1.
          2    1    1    2  501    0 -0.12824345869E+02  0.44072194512E+02  0.81303735766E+03  0.81433197599E+03  0.00000000000E+00 0.  1.
          2    1    1    2  502    0  0.12824345869E+02 -0.44072194512E+02  0.37286857430E+03  0.37568310566E+03  0.00000000000E+00 0.  1.
</event>
<event>
 4    1  0.7940509E+003  0.3499629E+02  0.7546771E-02  0.1380589E+00
          2   -1    0    0  502    0  0.00000000000E+00  0.00000000000E+00  0.11379434142E+04  0.11379434142E+04  0.00000000000E+00 0.  1.
          2   -1    0    0  501    0 -0.00000000000E+00 -0.00000000000E+00 -0.20840925583E+01  0.20840925583E+01  0.00000000000E+00 0. -1.
          2    1    1    2  501    0 -0.34493654449E+02 -0.59099844936E+01  0.96431518038E+03  0.96495000245E+03  0.00000000000E+00 0.  1.
          2    1    1    2  502    0  0.34493654449E+02  0.59099844936E+01  0.17154414124E+03  0.17507750429E+03  0.00000000000E+00 0. -1.
</event>
<event>
 4    1  0.7940509E+003  0.2544060E+02  0.7546771E-02  0.1463934E+00
          2   -1    0    0  501    0  0.00000000000E+00  0.00000000000E+00  0.12274383468E+03  0.12274383468E+03  0.00000000000E+00 0.  1.
          2   -1    0    0  502    0 -0.00000000000E+00 -0.00000000000E+00 -0.23738450776E+03  0.23738450776E+03  0.00000000000E+00 0. -1.
          2    1    1    2  501    0 -0.89005020086E+01 -0.23832856361E+02 -0.23537341589E+03  0.23674431120E+03  0.00000000000E+00 0. -1.
          2    1    1    2  502    0  0.89005020086E+01  0.23832856361E+02  0.12073274281E+03  0.12338403124E+03  0.00000000000E+00 0.  1.
</event>
<event>
 4    1  0.7940509E+003  0.2198780E+02  0.7546771E-02  0.1505615E+00
          2   -1    0    0  501    0  0.00000000000E+00  0.00000000000E+00  0.17114234666E+03  0.17114234666E+03  0.00000000000E+00 0.  1.
          2   -1    0    0  502    0 -0.00000000000E+00 -0.00000000000E+00 -0.28831460334E+01  0.28831460334E+01  0.00000000000E+00 0.  1.
          2    1    1    2  501    0  0.19819529719E+02  0.95210023607E+01  0.71764080463E+02  0.75056954967E+02  0.00000000000E+00 0.  1.
          2    1    1    2  502    0 -0.19819529719E+02 -0.95210023607E+01  0.96495120163E+02  0.98968537726E+02  0.00000000000E+00 0.  1.
</event>
<event>
 4    1  0.7940509E+003  0.2470459E+02  0.7546771E-02  0.1472135E+00
          2   -1    0    0  502    0  0.00000000000E+00  0.00000000000E+00  0.37522387668E+01  0.37522387668E+01  0.00000000000E+00 0. -1.
          2   -1    0    0  501    0 -0.00000000000E+00 -0.00000000000E+00 -0.44019010726E+03  0.44019010726E+03  0.00000000000E+00 0.  1.
          2    1    1    2  501    0 -0.63822424256E+01  0.23865954060E+02 -0.41966081214E+02  0.48697728428E+02  0.00000000000E+00 0. -1.
          2    1    1    2  502    0  0.63822424256E+01 -0.23865954060E+02 -0.39447178728E+03  0.39524461760E+03  0.00000000000E+00 0.  1.
</event>
<event>
 4    1  0.7940509E+003  0.2609847E+02  0.7546771E-02  0.1456880E+00
          2   -1    0    0  502    0  0.00000000000E+00  0.00000000000E+00  0.13590804849E+02  0.13590804849E+02  0.00000000000E+00 0.  1.
          2   -1    0    0  501    0 -0.00000000000E+00 -0.00000000000E+00 -0.85550625577E+02  0.85550625577E+02  0.00000000000E+00 0. -1.
          2    1    1    2  501    0  0.25274852335E+01 -0.25975796733E+02 -0.40776494704E+01  0.26415098385E+02  0.00000000000E+00 0.  1.
          2    1    1    2  502    0 -0.25274852335E+01  0.25975796733E+02 -0.67882171258E+02  0.72726332041E+02  0.00000000000E+00 0. -1.
</event>
<event>
 4    1  0.7940509E+003  0.4377415E+02  0.7546771E-02  0.1327684E+00
          2   -1    0    0  502    0  0.00000000000E+00  0.00000000000E+00  0.69489382353E+03  0.69489382353E+03  0.00000000000E+00 0. -1.
          2   -1    0    0  501    0 -0.00000000000E+00 -0.00000000000E+00 -0.24542004411E+02  0.24542004411E+02  0.00000000000E+00 0. -1.
          2    1    1    2  501    0  0.33272938275E+02  0.28444460950E+02  0.67408311825E+03  0.67550294306E+03  0.00000000000E+00 0. -1.
          2    1    1    2  502    0 -0.33272938275E+02 -0.28444460950E+02 -0.37312991314E+01  0.43932884874E+02  0.00000000000E+00 0. -1.
</event>
<event>
 4    1  0.7940509E+003  0.2395892E+02  0.7546771E-02  0.1480796E+00
          2   -1    0    0  502    0  0.00000000000E+00  0.00000000000E+00  0.24967656514E+02  0.24967656514E+02  0.00000000000E+00 0.  1.
          2   -1    0    0  501    0 -0.00000000000E+00 -0.00000000000E+00 -0.81134786880E+02  0.81134786880E+02  0.00000000000E+00 0.  1.
          2    1    1    2  501    0 -0.17353665239E+01  0.23895988837E+02  0.16826505401E+02  0.29277313119E+02  0.00000000000E+00 0.  1.
          2    1    1    2  502    0  0.17353665239E+01 -0.23895988837E+02 -0.72993635766E+02  0.76825130275E+02  0.00000000000E+00 0.  1.
</event>
<event>
 4    1  0.7940509E+003  0.2391216E+02  0.7546771E-02  0.1481351E+00
          2   -1    0    0  501    0  0.00000000000E+00  0.00000000000E+00  0.12234970211E+02  0.12234970211E+02  0.00000000000E+00 0. -1.
          2   -1    0    0  502    0 -0.00000000000E+00 -0.00000000000E+00 -0.37376083419E+03  0.37376083419E+03  0.00000000000E+00 0. -1.
          2    1    1    2  501    0 -0.18301644975E+02  0.15389645679E+02 -0.36129205118E+03  0.36208250117E+03  0.00000000000E+00 0. -1.
          2    1    1    2  502    0  0.18301644975E+02 -0.15389645679E+02 -0.23381279037E+00  0.23913303229E+02  0.00000000000E+00 0. -1.
</event>
<event>
 4    1  0.7940509E+003  0.3472181E+02  0.7546771E-02  0.1382530E+00
          2   -1    0    0  502    0  0.00000000000E+00  0.00000000000E+00  0.25105333479E+01  0.25105333479E+01  0.00000000000E+00 0.  1.
          2   -1    0    0  501    0 -0.00000000000E+00 -0.00000000000E+00 -0.23783474792E+04  0.23783474792E+04  0.00000000000E+00 0. -1.
          2    1    1    2  501    0  0.27492773283E+02  0.21207348644E+02 -0.12443995207E+03  0.12919328887E+03  0.00000000000E+00 0.  1.
          2    1    1    2  502    0 -0.27492773283E+02 -0.21207348644E+02 -0.22513969938E+04  0.22516647237E+04  0.00000000000E+00 0. -1.
</event>
<event>
 4    1  0.7940509E+003  0.3560400E+02  0.7546771E-02  0.1376366E+00
          2   -1    0    0  502    0  0.00000000000E+00  0.00000000000E+00  0.13781158559E+02  0.13781158559E+02  0.00000000000E+00 0. -1.
          2   -1    0    0  501    0 -0.00000000000E+00 -0.00000000000E+00 -0.14934912601E+04  0.14934912601E+04  0.00000000000E+00 0.  1.
          2    1    1    2  501    0 -0.33246289773E+02  0.12740830312E+02 -0.97958022315E+01  0.36926985825E+02  0.00000000000E+00 0. -1.
          2    1    1    2  502    0  0.33246289773E+02 -0.12740830312E+02 -0.14699142993E+04  0.14703454328E+04  0.00000000000E+00 0.  1.
</event>
<event>
 4    1  0.7940509E+003  0.3377552E+02  0.7546771E-02  0.1389382E+00
          2   -1    0    0  501    0  0.00000000000E+00  0.00000000000E+00  0.62139352680E+02  0.62139352680E+02  0.00000000000E+00 0.  1.
          2   -1    0    0  502    0 -0.00000000000E+00 -0.00000000000E+00 -0.18400504935E+02  0.18400504935E+02  0.00000000000E+00 0.  1.
          2    1    1    2  501    0 -0.33659668758E+02  0.27950695699E+01  0.23793322368E+02  0.41314741971E+02  0.00000000000E+00 0.  1.
          2    1    1    2  502    0  0.33659668758E+02 -0.27950695699E+01  0.19945525376E+02  0.39225115644E+02  0.00000000000E+00 0.  1.
</event>
<event>
 4    1  0.7940509E+003  0.2478023E+02  0.7546771E-02  0.1471277E+00
          2   -1    0    0  502    0  0.00000000000E+00  0.00000000000E+00  0.83248934926E+03  0.83248934926E+03  0.00000000000E+00 0.  1.
          2   -1    0    0  501    0 -0.00000000000E+00 -0.00000000000E+00 -0.81706841131E+00  0.81706841131E+00  0.00000000000E+00 0.  1.
          2    1    1    2  501    0  0.23981635242E+02  0.62402753033E+01  0.54576067790E+03  0.54632296072E+03  0.00000000000E+00 0.  1.
          2    1    1    2  502    0 -0.23981635242E+02 -0.62402753033E+01  0.28591160295E+03  0.28698345695E+03  0.00000000000E+00 0.  1.
</event>
<event>
 4    1  0.7940509E+003  0.2894878E+02  0.7546771E-02  0.1428957E+00
          2   -1    0    0  502    0  0.00000000000E+00  0.00000000000E+00  0.37649017940E+03  0.37649017940E+03  0.00000000000E+00 0.  1.
          2   -1    0    0  501    0 -0.00000000000E+00 -0.00000000000E+00 -0.38287069640E+02  0.38287069640E+02  0.00000000000E+00 0. -1.
          2    1    1    2  501    0 -0.13250673563E+02 -0.25738132754E+02  0.37037141009E+03  0.37150102724E+03  0.00000000000E+00 0.  1.
          2    1    1    2  502    0  0.13250673563E+02  0.25738132754E+02 -0.32168300328E+02  0.43276221803E+02  0.00000000000E+00 0. -1.
</event>
<event>
 4    1  0.7940509E+003  0.2229550E+02  0.7546771E-02  0.1501539E+00
          2   -1    0    0  502    0  0.00000000000E+00  0.00000000000E+00  0.39377729637E+01  0.39377729637E+01  0.00000000000E+00 0.  1.
          2   -1    0    0  501    0 -0.00000000000E+00 -0.00000000000E+00 -0.10133330264E+04  0.10133330264E+04  0.00000000000E+00 0. -1.
          2    1    1    2  501    0  0.13315472494E+02  0.17882608643E+02 -0.28797307086E+02  0.36419423321E+02  0.00000000000E+00 0.  1.
          2    1    1    2  502    0 -0.13315472494E+02 -0.17882608643E+02 -0.98059794638E+03  0.98085137607E+03  0.00000000000E+00 0. -1.
</event>
<event>
 4    1  0.7940509E+003  0.2418946E+02  0.7546771E-02  0.1478079E+00
          2   -1    0    0  502    0  0.00000000000E+00  0.00000000000E+00  0.22926948822E+03  0.22926948822E+03  0.00000000000E+00 0.  1.
          2   -1    0    0  501    0 -0.00000000000E+00 -0.00000000000E+00 -0.95049510150E+02  0.95049510150E+02  0.00000000000E+00 0.  1.
          2    1    1    2  501    0  0.19761740287E+02 -0.13950043175E+02  0.22707762341E+03  0.22836238118E+03  0.00000000000E+00 0.  1.
          2    1    1    2  502    0 -0.19761740287E+02  0.13950043175E+02 -0.92857645342E+02  0.95956617189E+02  0.00000000000E+00 0.  1.
</event>
<event>
 4    1  0.7940509E+003  0.2861086E+02  0.7546771E-02  0.1432065E+00
          2   -1    0    0  501    0  0.00000000000E+00  0.00000000000E+00  0.16324663243E+03  0.16324663243E+03  0.00000000000E+00 0. -1.
          2   -1    0    0  502    0 -0.00000000000E+00 -0.00000000000E+00 -0.22665819587E+03  0.22665819587E+03  0.00000000000E+00 0.  1.
          2    1    1    2  501    0 -0.24439494305E+02 -0.14875904220E+02 -0.22448965804E+03  0.22630551910E+03  0.00000000000E+00 0.  1.
          2    1    1    2  502    0  0.24439494305E+02  0.14875904220E+02  0.16107809460E+03  0.16359930919E+03  0.00000000000E+00 0. -1.
</event>
<event>
 4    1  0.7940509E+003  0.2130289E+02  0.7546771E-02  0.1514984E+00
          2   -1    0    0  501    0  0.00000000000E+00  0.00000000000E+00  0.80797529190E+03  0.80797529190E+03  0.00000000000E+00 0.  1.
          2   -1    0    0  502    0 -0.00000000000E+00 -0.00000000000E+00 -0.10302282933E+01  0.10302282933E+01  0.00000000000E+00 0. -1.
          2    1    1    2  501    0  0.10438487225E+01 -0.21277296899E+02  0.67626853352E+03  0.67660397753E+03  0.00000000000E+00 0.  1.
          2    1    1    2  502    0 -0.10438487225E+01  0.21277296899E+02  0.13067653009E+03  0.13240154266E+03  0.00000000000E+00 0. -1.
</event>
<event>
 4    1  0.7940509E+003  0.2031426E+02  0.7546771E-02  0.1529285E+00
          2   -1    0    0  502    0  0.00000000000E+00  0.00000000000E+00  0.64315422677E+03  0.64315422677E+03  0.00000000000E+00 0.  1.
          2   -1    0    0  501    0 -0.00000000000E+00 -0.00000000000E+00 -0.17396370507E+01  0.17396370507E+01  0.00000000000E+00 0. -1.
          2    1    1    2  501    0 -0.86370067450E+01  0.18386718691E+02  0.57687878417E+03  0.57723634755E+03  0.00000000000E+00 0.  1.
          2    1    1    2  502    0  0.86370067450E+01 -0.18386718691E+02  0.64535805549E+02  0.67657516269E+02  0.00000000000E+00 0. -1.
</event>
<event>
 4    1  0.7940509E+003  0.3260364E+02  0.7546771E-02  0.1398241E+00
          2   -1    0    0  501    0  0.00000000000E+00  0.00000000000E+00  0.17363337415E+01  0.17363337415E+01  0.00000000000E+00 0.  1.
          2   -1    0    0  502    0 -0.00000000000E+00 -0.00000000000E+00 -0.14633045488E+04  0.14633045488E+04  0.00000000000E+00 0. -1.
          2    1    1    2  501    0  0.31399773551E+02  0.87779045902E+01 -0.12894366821E+04  0.12898488107E+04  0.00000000000E+00 0. -1.
          2    1    1    2  502    0 -0.31399773551E+02 -0.87779045902E+01 -0.17213153294E+03  0.17519207180E+03  0.00000000000E+00 0.  1.
</event>
<event>
 4    1  0.7940509E+003  0.2325137E+02  0.7546771E-02  0.1489366E+00
          2   -1    0    0  502    0  0.00000000000E+00  0.00000000000E+00  0.13881349023E+04  0.13881349023E+04  0.00000000000E+00 0.  1.
          2   -1    0    0  501    0 -0.00000000000E+00 -0.00000000000E+00 -0.13990132451E+02  0.13990132451E+02  0.00000000000E+00 0.  1.
          2    1    1    2  501    0 -0.18101646682E+02  0.14593036219E+02  0.13783078109E+04  0.13785039165E+04  0.00000000000E+00 0.  1.
          2    1    1    2  502    0  0.18101646682E+02 -0.14593036219E+02 -0.41630409826E+01  0.23621118282E+02  0.00000000000E+00 0.  1.
</event>
<event>
 4    1  0.7940509E+003  0.2455744E+02  0.7546771E-02  0.1473816E+00
          2   -1    0    0  501    0  0.00000000000E+00  0.00000000000E+00  0.54989933621E+01  0.54989933621E+01  0.00000000000E+00 0.  1.
          2   -1    0    0  502    0 -0.00000000000E+00 -0.00000000000E+00 -0.60153650449E+03  0.60153650449E+03  0.00000000000E+00 0.  1.
          2    1    1    2  501    0 -0.15380471335E+02 -0.19144428170E+02 -0.57247761279E+03  0.57300408827E+03  0.00000000000E+00 0.  1.
          2    1    1    2  502    0  0.15380471335E+02  0.19144428170E+02 -0.23559898337E+02  0.34031409582E+02  0.00000000000E+00 0.  1.
</event>
<event>
 4    1  0.7940509E+003  0.3530777E+02  0.7546771E-02  0.1378412E+00
          2   -1    0    0  501    0  0.00000000000E+00  0.00000000000E+00  0.55301171073E+03  0.55301171073E+03  0.00000000000E+00 0. -1.
          2   -1    0    0  502    0 -0.00000000000E+00 -0.00000000000E+00 -0.52707322806E+03  0.52707322806E+03  0.00000000000E+00 0.  1.
          2    1    1    2  501    0 -0.65152466423E+01  0.34701445462E+02 -0.52591712016E+03  0.52710099225E+03  0.00000000000E+00 0.  1.
          2    1    1    2  502    0  0.65152466423E+01 -0.34701445462E+02  0.55185560283E+03  0.55298394654E+03  0.00000000000E+00 0. -1.
</event>
<event>
 4    1  0.7940509E+003  0.2057968E+02  0.7546771E-02  0.1525351E+00
          2   -1    0    0  502    0  0.00000000000E+00  0.00000000000E+00  0.14909141635E+04  0.14909141635E+04  0.00000000000E+00 0. -1.
          2   -1    0    0  501    0 -0.00000000000E+00 -0.00000000000E+00 -0.10152084564E+01  0.10152084564E+01  0.00000000000E+00 0. -1.
          2    1    1    2  501    0 -0.19837361363E+02 -0.54774439406E+01  0.13780032570E+04  0.13781569213E+04  0.00000000000E+00 0. -1.
          2    1    1    2  502    0  0.19837361363E+02  0.54774439406E+01  0.11189569799E+03  0.11377245065E+03  0.00000000000E+00 0. -1.
</event>
<event>
 4    1  0.7940509E+003  0.2015611E+02  0.7546771E-02  0.1531663E+00
          2   -1    0    0  502    0  0.00000000000E+00  0.00000000000E+00  0.61943626074E+01  0.61943626074E+01  0.00000000000E+00 0. -1.
          2   -1    0    0  501    0 -0.00000000000E+00 -0.00000000000E+00 -0.12723576884E+04  0.12723576884E+04  0.00000000000E+00 0.  1.
          2    1    1    2  501    0 -0.39845885723E+01 -0.19758338419E+02 -0.10500168752E+02  0.22727129757E+02  0.00000000000E+00 0. -1.
          2    1    1    2  502    0  0.39845885723E+01  0.19758338419E+02 -0.12556631570E+04  0.12558249212E+04  0.00000000000E+00 0.  1.
</event>
<event>
 4    1  0.7940509E+003  0.2349742E+02  0.7546771E-02  0.1486345E+00
          2   -1    0    0  501    0  0.00000000000E+00  0.00000000000E+00  0.38533272086E+01  0.38533272086E+01  0.00000000000E+00 0.  1.
          2   -1    0    0  502    0 -0.00000000000E+00 -0.00000000000E+00 -0.34420296864E+03  0.34420296864E+03  0.00000000000E+00 0. -1.
          2    1    1    2  501    0 -0.23073488175E+02  0.44432767758E+01 -0.30313460391E+03  0.30404393869E+03  0.00000000000E+00 0. -1.
          2    1    1    2  502    0  0.23073488175E+02 -0.44432767758E+01 -0.37215037518E+02  0.44012357157E+02  0.00000000000E+00 0.  1.
</event>
<event>
 4    1  0.7940509E+003  0.3130800E+02  0.7546771E-02  0.1408561E+00
          2   -1    0    0  502    0  0.00000000000E+00  0.00000000000E+00  0.22457897378E+03  0.22457897378E+03  0.00000000000E+00 0. -1.
          2   -1    0    0  501    0 -0.00000000000E+00 -0.00000000000E+00 -0.15036488147E+02  0.15036488147E+02  0.00000000000E+00 0.  1.
          2    1    1    2  501    0  0.25035905162E+02 -0.18798778038E+02  0.20570417318E+03  0.20807305800E+03  0.00000000000E+00 0. -1.
          2    1    1    2  502    0 -0.25035905162E+02  0.18798778038E+02  0.38383124571E+01  0.31542403928E+02  0.00000000000E+00 0.  1.
</event>
<event>
 4    1  0.7940509E+003  0.2970232E+02  0.7546771E-02  0.1422201E+00
          2   -1    0    0  501    0  0.00000000000E+00  0.00000000000E+00  0.17422994339E+04  0.17422994339E+04  0.00000000000E+00 0.  1.
          2   -1    0    0  502    0 -0.00000000000E+00 -0.00000000000E+00 -0.82740624188E+00  0.82740624188E+00  0.00000000000E+00 0.  1.
          2    1    1    2  501    0  0.29699518850E+02  0.40763848984E+00  0.32783004430E+03  0.32917285054E+03  0.00000000000E+00 0.  1.
          2    1    1    2  502    0 -0.29699518850E+02 -0.40763848984E+00  0.14136419834E+04  0.14139539896E+04  0.00000000000E+00 0.  1.
</event>
<event>
 4    1  0.7940509E+003  0.4021184E+02  0.7546771E-02  0.1347249E+00
          2   -1    0    0  502    0  0.00000000000E+00  0.00000000000E+00  0.86488954837E+02  0.86488954837E+02  0.00000000000E+00 0. -1.
          2   -1    0    0  501    0 -0.00000000000E+00 -0.00000000000E+00 -0.44502375477E+02  0.44502375477E+02  0.00000000000E+00 0. -1.
          2    1    1    2  501    0  0.15213105025E+01  0.40183051782E+02  0.70868529588E+02  0.81482148487E+02  0.00000000000E+00 0. -1.
          2    1    1    2  502    0 -0.15213105025E+01 -0.40183051782E+02 -0.28881950229E+02  0.49509181827E+02  0.00000000000E+00 0. -1.
</event>
<event>
 4    1  0.7940509E+003  0.2539317E+02  0.7546771E-02  0.1464453E+00
          2   -1    0    0  501    0  0.00000000000E+00  0.00000000000E+00  0.11632180895E+02  0.11632180895E+02  0.00000000000E+00 0. -1.
          2   -1    0    0  502    0 -0.00000000000E+00 -0.00000000000E+00 -0.35594996372E+03  0.35594996372E+03  0.00000000000E+00 0. -1.
          2    1    1    2  501    0  0.22511359358E+02  0.11749537402E+02 -0.34103337861E+03  0.34197745285E+03  0.00000000000E+00 0. -1.
          2    1    1    2  502    0 -0.22511359358E+02 -0.11749537402E+02 -0.32844042103E+01  0.25604691763E+02  0.00000000000E+00 0. -1.
</event>
<event>
 4    1  0.7940509E+003  0.2661099E+02  0.7546771E-02  0.1451555E+00
          2   -1    0    0  501    0  0.00000000000E+00  0.00000000000E+00  0.15200992126E+02  0.15200992126E+02  0.00000000000E+00 0.  1.
          2   -1    0    0  502    0 -0.00000000000E+00 -0.00000000000E+00 -0.12356785180E+03  0.12356785180E+03  0.00000000000E+00 0.  1.
          2    1    1    2  501    0  0.14844055611E+02  0.22086165492E+02 -0.10894867327E+03  0.11215149620E+03  0.00000000000E+00 0.  1.
          2    1    1    2  502    0 -0.14844055611E+02 -0.22086165492E+02  0.58181358961E+00  0.26617347729E+02  0.00000000000E+00 0.  1.
</event>
<event>
 4    1  0.7940509E+003  0.2291455E+02  0.7546771E-02  0.1493574E+00
          2   -1    0    0  501    0  0.00000000000E+00  0.00000000000E+00  0.15775445642E+04  0.15775445642E+04  0.00000000000E+00 0.  1.
          2   -1    0    0  502    0 -0.00000000000E+00 -0.00000000000E+00 -0.25383384392E+02  0.25383384392E+02  0.00000000000E+00 0.  1.
          2    1    1    2  501    0  0.11645683516E+02 -0.19734604528E+02 -0.20111374434E+02  0.30488423083E+02  0.00000000000E+00 0.  1.
          2    1    1    2  502    0 -0.11645683516E+02  0.19734604528E+02  0.15722725542E+04  0.15724395255E+04  0.00000000000E+00 0.  1.
</event>
<event>
 4    1  0.7940509E+003  0.3050287E+02  0.7546771E-02  0.1415276E+00
          2   -1    0    0  502    0  0.00000000000E+00  0.00000000000E+00  0.12070729360E+02  0.12070729360E+02  0.00000000000E+00 0.  1.
          2   -1    0    0  501    0 -0.00000000000E+00 -0.00000000000E+00 -0.30857889739E+03  0.30857889739E+03  0.00000000000E+00 0.  1.
          2    1    1    2  501    0 -0.18884602607E+02  0.23954060526E+02 -0.93896422053E+01  0.31915366394E+02  0.00000000000E+00 0.  1.
          2    1    1    2  502    0  0.18884602607E+02 -0.23954060526E+02 -0.28711852582E+03  0.28873426036E+03  0.00000000000E+00 0.  1.
</event>
<event>
 4    1  0.7940509E+003  0.2058901E+02  0.7546771E-02  0.1525214E+00
          2   -1    0    0  501    0  0.00000000000E+00  0.00000000000E+00  0.37199610912E+02  0.37199610912E+02  0.00000000000E+00 0.  1.
          2   -1    0    0  502    0 -0.00000000000E+00 -0.00000000000E+00 -0.14473286510E+03  0.14473286510E+03  0.00000000000E+00 0.  1.
          2    1    1    2  501    0 -0.13127377742E+02  0.15861253377E+02 -0.14107836291E+03  0.14257283012E+03  0.00000000000E+00 0.  1.
          2    1    1    2  502    0  0.13127377742E+02 -0.15861253377E+02  0.33545108729E+02  0.39359645892E+02  0.00000000000E+00 0.  1.
</event>
<event>
 4    1  0.7940509E+003  0.2575768E+02  0.7546771E-02  0.1460503E+00
          2   -1    0    0  501    0  0.00000000000E+00  0.00000000000E+00  0.12229888068E+04  0.12229888068E+04  0.00000000000E+00 0. -1.
          2   -1    0    0  502    0 -0.00000000000E+00 -0.00000000000E+00 -0.37499349794E+01  0.37499349794E+01  0.00000000000E+00 0.  1.
          2    1    1    2  501    0 -0.24640694630E+01  0.25639548668E+02  0.42349346162E+02  0.49567380550E+02  0.00000000000E+00 0.  1.
          2    1    1    2  502    0  0.24640694630E+01 -0.25639548668E+02  0.11768895257E+04  0.11771713613E+04  0.00000000000E+00 0. -1.
</event>
<event>
 4    1  0.7940509E+003  0.2103917E+02  0.7546771E-02  0.1518706E+00
          2   -1    0    0  502    0  0.00000000000E+00  0.00000000000E+00  0.37903302054E+01  0.37903302054E+01  0.00000000000E+00 0. -1.
          2   -1    0    0  501    0 -0.00000000000E+00 -0.00000000000E+00 -0.51375694306E+03  0.51375694306E+03  0.00000000000E+00 0. -1.
          2    1    1    2  501    0 -0.25194818111E+01  0.20887770970E+02 -0.27514375557E+02  0.34636507142E+02  0.00000000000E+00 0. -1.
          2    1    1    2  502    0  0.25194818111E+01 -0.20887770970E+02 -0.48245223730E+03  0.48291076613E+03  0.00000000000E+00 0. -1.
</event>
<event>
 4    1  0.7940509E+003  0.4412802E+02  0.7546771E-02  0.1325858E+00
          2   -1    0    0  501    0  0.00000000000E+00  0.00000000000E+00  0.61337769402E+02  0.61337769402E+02  0.00000000000E+00 0. -1.
          2   -1    0    0  502    0 -0.00000000000E+00 -0.00000000000E+00 -0.81396875298E+02  0.81396875298E+02  0.00000000000E+00 0. -1.
          2    1    1    2  501    0 -0.17081667138E+02 -0.40687823760E+02 -0.65768039713E+02  0.79200488648E+02  0.00000000000E+00 0. -1.
          2    1    1    2  502    0  0.17081667138E+02  0.40687823760E+02  0.45708933817E+02  0.63534156051E+02  0.00000000000E+00 0. -1.
</event>
<event>
 4    1  0.7940509E+003  0.2167847E+02  0.7546771E-02  0.1509795E+00
          2   -1    0    0  501    0  0.00000000000E+00  0.00000000000E+00  0.17550675028E+03  0.17550675028E+03  0.00000000000E+00 0. -1.
          2   -1    0    0  502    0 -0.00000000000E+00 -0.00000000000E+00 -0.91496266118E+02  0.91496266118E+02  0.00000000000E+00 0.  1.
          2    1    1    2  501    0 -0.49469661091E+01  0.21106481562E+02 -0.89528247716E+02  0.92115488256E+02  0.00000000000E+00 0.  1.
          2    1    1    2  502    0  0.49469661091E+01 -0.21106481562E+02  0.17353873187E+03  0.17488752814E+03  0.00000000000E+00 0. -1.
</event>
<event>
 4    1  0.7940509E+003  0.6642659E+02  0.7546771E-02  0.1239433E+00
          2   -1    0    0  502    0  0.00000000000E+00  0.00000000000E+00  0.12301812852E+04  0.12301812852E+04  0.00000000000E+00 0. -1.
          2   -1    0    0  501    0 -0.00000000000E+00 -0.00000000000E+00 -0.16968472946E+03  0.16968472946E+03  0.00000000000E+00 0.  1.
          2    1    1    2  501    0 -0.53135537495E+02  0.39863596065E+02  0.12227440421E+04  0.12245470526E+04  0.00000000000E+00 0. -1.
          2    1    1    2  502    0  0.53135537495E+02 -0.39863596065E+02 -0.16224748633E+03  0.17531896205E+03  0.00000000000E+00 0.  1.
</event>
<event>
 4    1  0.7940509E+003  0.6077340E+02  0.7546771E-02  0.1257227E+00
          2   -1    0    0  501    0  0.00000000000E+00  0.00000000000E+00  0.23979313820E+03  0.23979313820E+03  0.00000000000E+00 0. -1.
          2   -1    0    0  502    0 -0.00000000000E+00 -0.00000000000E+00 -0.22405432553E+03  0.22405432553E+03  0.00000000000E+00 0. -1.
          2    1    1    2  501    0 -0.21399042186E+02 -0.56881346185E+02 -0.21594067762E+03  0.22432962979E+03  0.00000000000E+00 0. -1.
          2    1    1    2  502    0  0.21399042186E+02  0.56881346185E+02  0.23167949030E+03  0.23951783394E+03  0.00000000000E+00 0. -1.
</event>
<event>
 4    1  0.7940509E+003  0.2776364E+02  0.7546771E-02  0.1440084E+00
          2   -1    0    0  501    0  0.00000000000E+00  0.00000000000E+00  0.69243190056E+03  0.69243190056E+03  0.00000000000E+00 0.  1.
          2   -1    0    0  502    0 -0.00000000000E+00 -0.00000000000E+00 -0.13385174272E+02  0.13385174272E+02  0.00000000000E+00 0.  1.
          2    1    1    2  501    0 -0.27263676436E+02  0.52451578069E+01  0.16085333112E+01  0.27810197997E+02  0.00000000000E+00 0.  1.
          2    1    1    2  502    0  0.27263676436E+02 -0.52451578069E+01  0.67743819297E+03  0.67800687683E+03  0.00000000000E+00 0.  1.
</event>
<event>
 4    1  0.7940509E+003  0.2422924E+02  0.7546771E-02  0.1477614E+00
          2   -1    0    0  502    0  0.00000000000E+00  0.00000000000E+00  0.48773609133E+03  0.48773609133E+03  0.00000000000E+00 0.  1.
          2   -1    0    0  501    0 -0.00000000000E+00 -0.00000000000E+00 -0.38007968618E+01  0.38007968618E+01  0.00000000000E+00 0.  1.
          2    1    1    2  501    0  0.22801194997E+02 -0.81952106591E+01  0.44512771242E+03  0.44578664889E+03  0.00000000000E+00 0.  1.
          2    1    1    2  502    0 -0.22801194997E+02  0.81952106591E+01  0.38807582048E+02  0.45750239294E+02  0.00000000000E+00 0.  1.
</event>
<event>
 4    1  0.7940509E+003  0.4352685E+02  0.7546771E-02  0.1328972E+00
          2   -1    0    0  501    0  0.00000000000E+00  0.00000000000E+00  0.26541507377E+03  0.26541507377E+03  0.00000000000E+00 0.  1.
          2   -1    0    0  502    0 -0.00000000000E+00 -0.00000000000E+00 -0.76643290116E+01  0.76643290116E+01  0.00000000000E+00 0.  1.
          2    1    1    2  501    0 -0.69144676845E+01 -0.42974142000E+02  0.93101441812E+02  0.10277385471E+03  0.00000000000E+00 0.  1.
          2    1    1    2  502    0  0.69144676845E+01  0.42974142000E+02  0.16464930295E+03  0.17030554807E+03  0.00000000000E+00 0.  1.
</event>
<event>
 4    1  0.7940509E+003  0.2474288E+02  0.7546771E-02  0.1471700E+00
          2   -1    0    0  501    0  0.00000000000E+00  0.00000000000E+00  0.14212248681E+02  0.14212248681E+02  0.00000000000E+00 0.  1.
          2   -1    0    0  502    0 -0.00000000000E+00 -0.00000000000E+00 -0.60796831763E+02  0.60796831763E+02  0.00000000000E+00 0. -1.
          2    1    1    2  501    0 -0.21606367104E+02  0.12057154183E+02 -0.30442684452E+01  0.24929453199E+02  0.00000000000E+00 0.  1.
          2    1    1    2  502    0  0.21606367104E+02 -0.12057154183E+02 -0.43540314637E+02  0.50079627246E+02  0.00000000000E+00 0. -1.
</event>
<event>
 4    1  0.7940509E+003  0.3507579E+02  0.7546771E-02  0.1380031E+00
          2   -1    0    0  502    0  0.00000000000E+00  0.00000000000E+00  0.13323352012E+04  0.13323352012E+04  0.00000000000E+00 0.  1.
          2   -1    0    0  501    0 -0.00000000000E+00 -0.00000000000E+00 -0.26410241120E+02  0.26410241120E+02  0.00000000000E+00 0.  1.
          2    1    1    2  501    0  0.25943292447E+02  0.23606279178E+02  0.13203525176E+04  0.13208183378E+04  0.00000000000E+00 0.  1.
          2    1    1    2  502    0 -0.25943292447E+02 -0.23606279178E+02 -0.14427557507E+02  0.37927104494E+02  0.00000000000E+00 0.  1.
</event>
<event>
 4    1  0.7940509E+003  0.2904042E+02  0.7546771E-02  0.1428122E+00
          2   -1    0    0  501    0  0.00000000000E+00  0.00000000000E+00  0.45433560675E+03  0.45433560675E+03  0.00000000000E+00 0. -1.
          2   -1    0    0  502    0 -0.00000000000E+00 -0.00000000000E+00 -0.39059701310E+01  0.39059701310E+01  0.00000000000E+00 0.  1.
          2    1    1    2  501    0 -0.15505889605E+02 -0.24554290718E+02  0.59236737384E+02  0.65972243110E+02  0.00000000000E+00 0.  1.
          2    1    1    2  502    0  0.15505889605E+02  0.24554290718E+02  0.39119289924E+03  0.39226933377E+03  0.00000000000E+00 0. -1.
</event>
<event>
 4    1  0.7940509E+003  0.2066712E+02  0.7546771E-02  0.1524071E+00
          2   -1    0    0  501    0  0.00000000000E+00  0.00000000000E+00  0.38682461726E+03  0.38682461726E+03  0.00000000000E+00 0. -1.
          2   -1    0    0  502    0 -0.00000000000E+00 -0.00000000000E+00 -0.19499330580E+02  0.19499330580E+02  0.00000000000E+00 0.  1.
          2    1    1    2  501    0  0.11013642690E+02 -0.17487984417E+02 -0.13663244596E+02  0.24775273503E+02  0.00000000000E+00 0.  1.
          2    1    1    2  502    0 -0.11013642690E+02  0.17487984417E+02  0.38098853127E+03  0.38154867433E+03  0.00000000000E+00 0. -1.
</event>
<event>
 4    1  0.7940509E+003  0.1094659E+03  0.7546771E-02  0.1148344E+00
          2   -1    0    0  502    0  0.00000000000E+00  0.00000000000E+00  0.39428001642E+02  0.39428001642E+02  0.00000000000E+00 0.  1.
          2   -1    0    0  501    0 -0.00000000000E+00 -0.00000000000E+00 -0.32516254846E+03  0.32516254846E+03  0.00000000000E+00 0.  1.
          2    1    1    2  501    0 -0.10943331094E+03 -0.26719737213E+01 -0.96268729770E+02  0.14577536595E+03  0.00000000000E+00 0.  1.
          2    1    1    2  502    0  0.10943331094E+03  0.26719737213E+01 -0.18946581705E+03  0.21881518415E+03  0.00000000000E+00 0.  1.
</event>
<event>
 4    1  0.7940509E+003  0.2796794E+02  0.7546771E-02  0.1438120E+00
          2   -1    0    0  502    0  0.00000000000E+00  0.00000000000E+00  0.25492423996E+02  0.25492423996E+02  0.00000000000E+00 0.  1.
          2   -1    0    0  501    0 -0.00000000000E+00 -0.00000000000E+00 -0.34785306493E+02  0.34785306493E+02  0.00000000000E+00 0.  1.
          2    1    1    2  501    0  0.27349606859E+02  0.58484871315E+01  0.57025462343E+01  0.28543385059E+02  0.00000000000E+00 0.  1.
          2    1    1    2  502    0 -0.27349606859E+02 -0.58484871315E+01 -0.14995428731E+02  0.31734345430E+02  0.00000000000E+00 0.  1.
</event>
<event>
 4    1  0.7940509E+003  0.2504567E+02  0.7546771E-02  0.1468293E+00
          2   -1    0    0  501    0  0.00000000000E+00  0.00000000000E+00  0.91463308193E+03  0.91463308193E+03  0.00000000000E+00 0.  1.
          2   -1    0    0  502    0 -0.00000000000E+00 -0.00000000000E+00 -0.38459276394E+02  0.38459276394E+02  0.00000000000E+00 0.  1.
          2    1    1    2  501    0  0.22641363875E+02 -0.10707670666E+02 -0.34191108276E+02  0.42382985435E+02  0.00000000000E+00 0.  1.
          2    1    1    2  502    0 -0.22641363875E+02  0.10707670666E+02  0.91036491381E+03  0.91070937289E+03  0.00000000000E+00 0.  1.
</event>
<event>
 4    1  0.7940509E+003  0.2421201E+02  0.7546771E-02  0.1477815E+00
          2   -1    0    0  501    0  0.00000000000E+00  0.00000000000E+00  0.35234259407E+03  0.35234259407E+03  0.00000000000E+00 0.  1.
          2   -1    0    0  502    0 -0.00000000000E+00 -0.00000000000E+00 -0.83283835647E+02  0.83283835647E+02  0.00000000000E+00 0.  1.
          2    1    1    2  501    0  0.15648856836E+02 -0.18475240222E+02 -0.81097205489E+02  0.84634378119E+02  0.00000000000E+00 0.  1.
          2    1    1    2  502    0 -0.15648856836E+02  0.18475240222E+02  0.35015596391E+03  0.35099205160E+03  0.00000000000E+00 0.  1.
</event>
<event>
 4    1  0.7940509E+003  0.2990319E+02  0.7546771E-02  0.1420440E+00
          2   -1    0    0  501    0  0.00000000000E+00  0.00000000000E+00  0.16771157635E+02  0.16771157635E+02  0.00000000000E+00 0. -1.
          2   -1    0    0  502    0 -0.00000000000E+00 -0.00000000000E+00 -0.87841666273E+02  0.87841666273E+02  0.00000000000E+00 0.  1.
          2    1    1    2  501    0 -0.87501999159E+01 -0.28594316654E+02 -0.68326994705E+02  0.74584040846E+02  0.00000000000E+00 0.  1.
          2    1    1    2  502    0  0.87501999159E+01  0.28594316654E+02 -0.27435139329E+01  0.30028783062E+02  0.00000000000E+00 0. -1.
</event>
<event>
 4    1  0.7940509E+003  0.2180950E+02  0.7546771E-02  0.1508014E+00
          2   -1    0    0  501    0  0.00000000000E+00  0.00000000000E+00  0.17536945409E+02  0.17536945409E+02  0.00000000000E+00 0. -1.
          2   -1    0    0  502    0 -0.00000000000E+00 -0.00000000000E+00 -0.59249497831E+02  0.59249497831E+02  0.00000000000E+00 0.  1.
          2    1    1    2  501    0  0.17839942576E+02 -0.12545550794E+02 -0.49127459001E+02  0.53750922074E+02  0.00000000000E+00 0.  1.
          2    1    1    2  502    0 -0.17839942576E+02  0.12545550794E+02  0.74149065794E+01  0.23035521167E+02  0.00000000000E+00 0. -1.
</event>
<event>
 4    1  0.7940509E+003  0.2186876E+02  0.7546771E-02  0.1507214E+00
          2   -1    0    0  502    0  0.00000000000E+00  0.00000000000E+00  0.53177758186E+03  0.53177758186E+03  0.00000000000E+00 0. -1.
          2   -1    0    0  501    0 -0.00000000000E+00 -0.00000000000E+00 -0.36629390121E+01  0.36629390121E+01  0.00000000000E+00 0. -1.
          2    1    1    2  501    0  0.39910196152E+01  0.21501496332E+02  0.49660115918E+03  0.49708244174E+03  0.00000000000E+00 0. -1.
          2    1    1    2  502    0 -0.39910196152E+01 -0.21501496332E+02  0.31513483658E+02  0.38358079128E+02  0.00000000000E+00 0. -1.
</event>
<event>
 4    1  0.7940509E+003  0.2227113E+02  0.7546771E-02  0.1501859E+00
          2   -1    0    0  501    0  0.00000000000E+00  0.00000000000E+00  0.40358717047E+03  0.40358717047E+03  0.00000000000E+00 0.  1.
          2   -1    0    0  502    0 -0.00000000000E+00 -0.00000000000E+00 -0.18143895891E+02  0.18143895891E+02  0.00000000000E+00 0.  1.
          2    1    1    2  501    0 -0.70604102248E+01 -0.21122349471E+02 -0.10877141249E+02  0.24785383625E+02  0.00000000000E+00 0.  1.
          2    1    1    2  502    0  0.70604102248E+01  0.21122349471E+02  0.39632041582E+03  0.39694568273E+03  0.00000000000E+00 0.  1.
</event>
<event>
 4    1  0.7940509E+003  0.3052936E+02  0.7546771E-02  0.1415051E+00
          2   -1    0    0  501    0  0.00000000000E+00  0.00000000000E+00  0.14007896473E+04  0.14007896473E+04  0.00000000000E+00 0.  1.
          2   -1    0    0  502    0 -0.00000000000E+00 -0.00000000000E+00 -0.28122002989E+03  0.28122002989E+03  0.00000000000E+00 0. -1.
          2    1    1    2  501    0  0.30101447442E+02  0.50935830226E+01 -0.28022452867E+03  0.28188264969E+03  0.00000000000E+00 0. -1.
          2    1    1    2  502    0 -0.30101447442E+02 -0.50935830226E+01  0.13997941461E+04  0.14001270275E+04  0.00000000000E+00 0.  1.
</event>
<event>
 4    1  0.7940509E+003  0.2090948E+02  0.7546771E-02  0.1520561E+00
          2   -1    0    0  502    0  0.00000000000E+00  0.00000000000E+00  0.24236141172E+03  0.24236141172E+03  0.00000000000E+00 0.  1.
          2   -1    0    0  501    0 -0.00000000000E+00 -0.00000000000E+00 -0.24225389613E+02  0.24225389613E+02  0.00000000000E+00 0.  1.
          2    1    1    2  501    0  0.20838378397E+02 -0.17228800779E+01  0.23730256672E+03  0.23822198576E+03  0.00000000000E+00 0.  1.
          2    1    1    2  502    0 -0.20838378397E+02  0.17228800779E+01 -0.19166544611E+02  0.28364815570E+02  0.00000000000E+00 0.  1.
</event>
<event>
 4    1  0.7940509E+003  0.3799667E+02  0.7546771E-02  0.1360643E+00
          2   -1    0    0  501    0  0.00000000000E+00  0.00000000000E+00  0.15563548460E+01  0.15563548460E+01  0.00000000000E+00 0. -1.
          2   -1    0    0  502    0 -0.00000000000E+00 -0.00000000000E+00 -0.94267308404E+03  0.94267308404E+03  0.00000000000E+00 0.  1.
          2    1    1    2  501    0  0.35230477474E+02 -0.14232374424E+02 -0.53016547329E+03  0.53152532968E+03  0.00000000000E+00 0.  1.
          2    1    1    2  502    0 -0.35230477474E+02  0.14232374424E+02 -0.41095125590E+03  0.41270410920E+03  0.00000000000E+00 0. -1.
</event>
<event>
 4    1  0.7940509E+003  0.2700535E+02  0.7546771E-02  0.1447554E+00
          2   -1    0    0  502    0  0.00000000000E+00  0.00000000000E+00  0.46739872442E+02  0.46739872442E+02  0.00000000000E+00 0. -1.
          2   -1    0    0  501    0 -0.00000000000E+00 -0.00000000000E+00 -0.32316577243E+03  0.32316577243E+03  0.00000000000E+00 0. -1.
          2    1    1    2  501    0  0.24945365958E+02 -0.10344929890E+02  0.42219675283E+02  0.50117759709E+02  0.00000000000E+00 0. -1.
          2    1    1    2  502    0 -0.24945365958E+02  0.10344929890E+02 -0.31864557527E+03  0.31978788516E+03  0.00000000000E+00 0. -1.
</event>
<event>
 4    1  0.7940509E+003  0.3568931E+02  0.7546771E-02  0.1375781E+00
          2   -1    0    0  501    0  0.00000000000E+00  0.00000000000E+00  0.19782631337E+03  0.19782631337E+03  0.00000000000E+00 0. -1.
          2   -1    0    0  502    0 -0.00000000000E+00 -0.00000000000E+00 -0.47226986426E+02  0.47226986426E+02  0.00000000000E+00 0.  1.
          2    1    1    2  501    0  0.24545002239E+02 -0.25908868322E+02 -0.38568849347E+02  0.52547908927E+02  0.00000000000E+00 0.  1.
          2    1    1    2  502    0 -0.24545002239E+02  0.25908868322E+02  0.18916817630E+03  0.19250539087E+03  0.00000000000E+00 0. -1.
</event>
<event>
 4    1  0.7940509E+003  0.2214863E+02  0.7546771E-02  0.1503475E+00
          2   -1    0    0  502    0  0.00000000000E+00  0.00000000000E+00  0.11413476249E+02  0.11413476249E+02  0.00000000000E+00 0. -1.
          2   -1    0    0  501    0 -0.00000000000E+00 -0.00000000000E+00 -0.18061116130E+03  0.18061116130E+03  0.00000000000E+00 0. -1.
          2    1    1    2  501    0  0.21695803635E+02 -0.44557644773E+01 -0.78580156072E+00  0.22162563402E+02  0.00000000000E+00 0. -1.
          2    1    1    2  502    0 -0.21695803635E+02  0.44557644773E+01 -0.16841188350E+03  0.16986207415E+03  0.00000000000E+00 0. -1.
</event>
<event>
 4    1  0.7940509E+003  0.2026932E+02  0.7546771E-02  0.1529958E+00
          2   -1    0    0  502    0  0.00000000000E+00  0.00000000000E+00  0.17963169419E+02  0.17963169419E+02  0.00000000000E+00 0.  1.
          2   -1    0    0  501    0 -0.00000000000E+00 -0.00000000000E+00 -0.58924123431E+02  0.58924123431E+02  0.00000000000E+00 0.  1.
          2    1    1    2  501    0  0.18118663661E+02 -0.90862263434E+01  0.95904045001E+01  0.22423678121E+02  0.00000000000E+00 0.  1.
          2    1    1    2  502    0 -0.18118663661E+02  0.90862263434E+01 -0.50551358512E+02  0.54463614729E+02  0.00000000000E+00 0.  1.
</event>
<event>
 4    1  0.7940509E+003  0.2307344E+02  0.7546771E-02  0.1491578E+00
          2   -1    0    0  501    0  0.00000000000E+00  0.00000000000E+00  0.57487211918E+01  0.57487211918E+01  0.00000000000E+00 0.  1.
          2   -1    0    0  502    0 -0.00000000000E+00 -0.00000000000E+00 -0.21454375907E+03  0.21454375907E+03  0.00000000000E+00 0.  1.
          2    1    1    2  501    0 -0.16694358196E+02  0.15927403455E+02 -0.18743522731E+03  0.18885006808E+03  0.00000000000E+00 0.  1.
          2    1    1    2  502    0  0.16694358196E+02 -0.15927403455E+02 -0.21359810567E+02  0.31442412183E+02  0.00000000000E+00 0.  1.
</event>
<event>
 4    1  0.7940509E+003  0.3074847E+02  0.7546771E-02  0.1413202E+00
          2   -1    0    0  501    0  0.00000000000E+00  0.00000000000E+00  0.18500400391E+04  0.18500400391E+04  0.00000000000E+00 0. -1.
          2   -1    0    0  502    0 -0.00000000000E+00 -0.00000000000E+00 -0.18516040734E+01  0.18516040734E+01  0.00000000000E+00 0. -1.
          2    1    1    2  501    0  0.30625622723E+02 -0.27458716254E+01  0.13622671187E+03  0.13965380627E+03  0.00000000000E+00 0. -1.
          2    1    1    2  502    0 -0.30625622723E+02  0.27458716254E+01  0.17119617231E+04  0.17122378369E+04  0.00000000000E+00 0. -1.
</event>
<event>
 4    1  0.7940509E+003  0.2699463E+02  0.7546771E-02  0.1447662E+00
          2   -1    0    0  502    0  0.00000000000E+00  0.00000000000E+00  0.21228734987E+03  0.21228734987E+03  0.00000000000E+00 0.  1.
          2   -1    0    0  501    0 -0.00000000000E+00 -0.00000000000E+00 -0.41196510279E+03  0.41196510279E+03  0.00000000000E+00 0. -1.
          2    1    1    2  501    0 -0.23348014461E+02  0.13549173215E+02  0.21098424942E+03  0.21270416869E+03  0.00000000000E+00 0.  1.
          2    1    1    2  502    0  0.23348014461E+02 -0.13549173215E+02 -0.41066200234E+03  0.41154828397E+03  0.00000000000E+00 0. -1.
</event>
<event>
 4    1  0.7940509E+003  0.2287653E+02  0.7546771E-02  0.1494054E+00
          2   -1    0    0  501    0  0.00000000000E+00  0.00000000000E+00  0.12603487556E+02  0.12603487556E+02  0.00000000000E+00 0.  1.
          2   -1    0    0  502    0 -0.00000000000E+00 -0.00000000000E+00 -0.41560256741E+02  0.41560256741E+02  0.00000000000E+00 0.  1.
          2    1    1    2  501    0  0.21713524642E+02 -0.72012853296E+01 -0.13668438064E+02  0.26648862300E+02  0.00000000000E+00 0.  1.
          2    1    1    2  502    0 -0.21713524642E+02  0.72012853296E+01 -0.15288331122E+02  0.27514881996E+02  0.00000000000E+00 0.  1.
</event>
<event>
 4    1  0.7940509E+003  0.2507920E+02  0.7546771E-02  0.1467919E+00
          2   -1    0    0  501    0  0.00000000000E+00  0.00000000000E+00  0.20763477742E+01  0.20763477742E+01  0.00000000000E+00 0. -1.
          2   -1    0    0  502    0 -0.00000000000E+00 -0.00000000000E+00 -0.75156368526E+03  0.75156368526E+03  0.00000000000E+00 0. -1.
          2    1    1    2  501    0  0.13272491842E+02 -0.21279272526E+02 -0.66588377366E+03  0.66635588577E+03  0.00000000000E+00 0. -1.
          2    1    1    2  502    0 -0.13272491842E+02  0.21279272526E+02 -0.83603563823E+02  0.87284147259E+02  0.00000000000E+00 0. -1.
</event>
<event>
 4    1  0.7940509E+003  0.2576369E+02  0.7546771E-02  0.1460438E+00
          2   -1    0    0  502    0  0.00000000000E+00  0.00000000000E+00  0.50823936278E+02  0.50823936278E+02  0.00000000000E+00 0.  1.
          2   -1    0    0  501    0 -0.00000000000E+00 -0.00000000000E+00 -0.13372572506E+04  0.13372572506E+04  0.00000000000E+00 0. -1.
          2    1    1    2  501    0 -0.25718535595E+02  0.15247321547E+01  0.47426493696E+02  0.53972587353E+02  0.00000000000E+00 0.  1.
          2    1    1    2  502    0  0.25718535595E+02 -0.15247321547E+01 -0.13338598080E+04  0.13341085995E+04  0.00000000000E+00 0. -1.
</event>
<event>
 4    1  0.7940509E+003  0.2089796E+02  0.7546771E-02  0.1520727E+00
          2   -1    0    0  502    0  0.00000000000E+00  0.00000000000E+00  0.16289579867E+01  0.16289579867E+01  0.00000000000E+00 0. -1.
          2   -1    0    0  501    0 -0.00000000000E+00 -0.00000000000E+00 -0.29186838507E+03  0.29186838507E+03  0.00000000000E+00 0. -1.
          2    1    1    2  501    0  0.19593321663E+01 -0.20805903833E+02 -0.10324276884E+03  0.10533657454E+03  0.00000000000E+00 0. -1.
          2    1    1    2  502    0 -0.19593321663E+01  0.20805903833E+02 -0.18699665825E+03  0.18816076852E+03  0.00000000000E+00 0. -1.
</event>
<event>
 4    1  0.7940509E+003  0.2350814E+02  0.7546771E-02  0.1486214E+00
          2   -1    0    0  502    0  0.00000000000E+00  0.00000000000E+00  0.56960620150E+03  0.56960620150E+03  0.00000000000E+00 0.  1.
          2   -1    0    0  501    0 -0.00000000000E+00 -0.00000000000E+00 -0.49691323400E+02  0.49691323400E+02  0.00000000000E+00 0.  1.
          2    1    1    2  501    0 -0.19318901741E+02  0.13394505337E+02  0.56656842210E+03  0.56705591405E+03  0.00000000000E+00 0.  1.
          2    1    1    2  502    0  0.19318901741E+02 -0.13394505337E+02 -0.46653543994E+02  0.52241610857E+02  0.00000000000E+00 0.  1.
</event>
<event>
 4    1  0.7940509E+003  0.2738506E+02  0.7546771E-02  0.1443778E+00
          2   -1    0    0  501    0  0.00000000000E+00  0.00000000000E+00  0.62741067664E+02  0.62741067664E+02  0.00000000000E+00 0.  1.
          2   -1    0    0  502    0 -0.00000000000E+00 -0.00000000000E+00 -0.46655790892E+02  0.46655790892E+02  0.00000000000E+00 0. -1.
          2    1    1    2  501    0 -0.27124790524E+02  0.37666213183E+01 -0.39131557590E+02  0.47762124079E+02  0.00000000000E+00 0. -1.
          2    1    1    2  502    0  0.27124790524E+02 -0.37666213183E+01  0.55216834362E+02  0.61634734477E+02  0.00000000000E+00 0.  1.
</event>
<event>
 4    1  0.7940509E+003  0.3148055E+02  0.7546771E-02  0.1407152E+00
          2   -1    0    0  502    0  0.00000000000E+00  0.00000000000E+00  0.16647455026E+03  0.16647455026E+03  0.00000000000E+00 0.  1.
          2   -1    0    0  501    0 -0.00000000000E+00 -0.00000000000E+00 -0.44373361041E+03  0.44373361041E+03  0.00000000000E+00 0. -1.
          2    1    1    2  501    0 -0.60436154290E-01 -0.31480492304E+02  0.16442104200E+03  0.16740759870E+03  0.00000000000E+00 0.  1.
          2    1    1    2  502    0  0.60436154290E-01  0.31480492304E+02 -0.44168010215E+03  0.44280056197E+03  0.00000000000E+00 0. -1.
</event>
<event>
 4    1  0.7940509E+003  0.3969098E+02  0.7546771E-02  0.1350306E+00
          2   -1    0    0  501    0  0.00000000000E+00  0.00000000000E+00  0.41802339907E+02  0.41802339907E+02  0.00000000000E+00 0.  1.
          2   -1    0    0  502    0 -0.00000000000E+00 -0.00000000000E+00 -0.20477395685E+03  0.20477395685E+03  0.00000000000E+00 0.  1.
          2    1    1    2  501    0  0.73567650553E+01  0.39003225202E+02 -0.19285272982E+03  0.19689476623E+03  0.00000000000E+00 0.  1.
          2    1    1    2  502    0 -0.73567650553E+01 -0.39003225202E+02  0.29881112883E+02  0.49681530526E+02  0.00000000000E+00 0.  1.
</event>
<event>
 4    1  0.7940509E+003  0.7147477E+02  0.7546771E-02  0.1225155E+00
          2   -1    0    0  501    0  0.00000000000E+00  0.00000000000E+00  0.75498091285E+02  0.75498091285E+02  0.00000000000E+00 0.  1.
          2   -1    0    0  502    0 -0.00000000000E+00 -0.00000000000E+00 -0.17274755693E+04  0.17274755693E+04  0.00000000000E+00 0. -1.
          2    1    1    2  501    0  0.20634427912E+02 -0.68431448362E+02 -0.17096434168E+04  0.17111368313E+04  0.00000000000E+00 0. -1.
          2    1    1    2  502    0 -0.20634427912E+02  0.68431448362E+02  0.57665938723E+02  0.91836829371E+02  0.00000000000E+00 0.  1.
</event>
<event>
 4    1  0.7940509E+003  0.2858478E+02  0.7546771E-02  0.1432307E+00
          2   -1    0    0  501    0  0.00000000000E+00  0.00000000000E+00  0.31001719816E+03  0.31001719816E+03  0.00000000000E+00 0.  1.
          2   -1    0    0  502    0 -0.00000000000E+00 -0.00000000000E+00 -0.53260788065E+01  0.53260788065E+01  0.00000000000E+00 0.  1.
          2    1    1    2  501    0  0.19304217025E+02 -0.21081666320E+02  0.40282504163E+02  0.49394023843E+02  0.00000000000E+00 0.  1.
          2    1    1    2  502    0 -0.19304217025E+02  0.21081666320E+02  0.26440861519E+03  0.26594925312E+03  0.00000000000E+00 0.  1.
</event>
<event>
 4    1  0.7940509E+003  0.2504327E+02  0.7546771E-02  0.1468320E+00
          2   -1    0    0  501    0  0.00000000000E+00  0.00000000000E+00  0.87296311621E+02  0.87296311621E+02  0.00000000000E+00 0.  1.
          2   -1    0    0  502    0 -0.00000000000E+00 -0.00000000000E+00 -0.68610362421E+02  0.68610362421E+02  0.00000000000E+00 0. -1.
          2    1    1    2  501    0  0.23208510569E+02 -0.94090606512E+01 -0.64416207430E+02  0.69113046271E+02  0.00000000000E+00 0. -1.
          2    1    1    2  502    0 -0.23208510569E+02  0.94090606512E+01  0.83102156630E+02  0.86793627771E+02  0.00000000000E+00 0.  1.
</event>
<event>
 4    1  0.7940509E+003  0.2104819E+02  0.7546771E-02  0.1518578E+00
          2   -1    0    0  501    0  0.00000000000E+00  0.00000000000E+00  0.24583845324E+01  0.24583845324E+01  0.00000000000E+00 0.  1.
          2   -1    0    0  502    0 -0.00000000000E+00 -0.00000000000E+00 -0.41350592183E+03  0.41350592183E+03  0.00000000000E+00 0.  1.
          2    1    1    2  501    0  0.10505948369E+02  0.18238727094E+02 -0.36174445240E+03  0.36235628180E+03  0.00000000000E+00 0.  1.
          2    1    1    2  502    0 -0.10505948369E+02 -0.18238727094E+02 -0.49303084895E+02  0.53608024561E+02  0.00000000000E+00 0.  1.
</event>
<event>
 4    1  0.7940509E+003  0.3099024E+02  0.7546771E-02  0.1411182E+00
          2   -1    0    0  501    0  0.00000000000E+00  0.00000000000E+00  0.23850137395E+02  0.23850137395E+02  0.00000000000E+00 0. -1.
          2   -1    0    0  502    0 -0.00000000000E+00 -0.00000000000E+00 -0.49843221748E+03  0.49843221748E+03  0.00000000000E+00 0.  1.
          2    1    1    2  501    0 -0.28867649950E+02 -0.11271813673E+02 -0.48766141233E+03  0.48864511466E+03  0.00000000000E+00 0.  1.
          2    1    1    2  502    0  0.28867649950E+02  0.11271813673E+02  0.13079332254E+02  0.33637240215E+02  0.00000000000E+00 0. -1.
</event>
<event>
 4    1  0.7940509E+003  0.5301355E+02  0.7546771E-02  0.1285610E+00
          2   -1    0    0  502    0  0.00000000000E+00  0.00000000000E+00  0.10737951449E+03  0.10737951449E+03  0.00000000000E+00 0. -1.
          2   -1    0    0  501    0 -0.00000000000E+00 -0.00000000000E+00 -0.78147503507E+02  0.78147503507E+02  0.00000000000E+00 0. -1.
          2    1    1    2  501    0 -0.22225319214E+02  0.48129738533E+02  0.90267076394E+02  0.10468324425E+03  0.00000000000E+00 0. -1.
          2    1    1    2  502    0  0.22225319214E+02 -0.48129738533E+02 -0.61035065407E+02  0.80843773753E+02  0.00000000000E+00 0. -1.
</event>
<event>
 4    1  0.7940509E+003  0.2092313E+02  0.7546771E-02  0.1520365E+00
          2   -1    0    0  502    0  0.00000000000E+00  0.00000000000E+00  0.19450509134E+01  0.19450509134E+01  0.00000000000E+00 0.  1.
          2   -1    0    0  501    0 -0.00000000000E+00 -0.00000000000E+00 -0.34156519582E+03  0.34156519582E+03  0.00000000000E+00 0.  1.
          2    1    1    2  501    0  0.20726161783E+02  0.28642190193E+01 -0.27011498053E+03  0.27092412266E+03  0.00000000000E+00 0.  1.
          2    1    1    2  502    0 -0.20726161783E+02 -0.28642190193E+01 -0.69505164373E+02  0.72586124069E+02  0.00000000000E+00 0.  1.
</event>
<event>
 4    1  0.7940509E+003  0.4630032E+02  0.7546771E-02  0.1315062E+00
          2   -1    0    0  501    0  0.00000000000E+00  0.00000000000E+00  0.35585449617E+03  0.35585449617E+03  0.00000000000E+00 0. -1.
          2   -1    0    0  502    0 -0.00000000000E+00 -0.00000000000E+00 -0.11143574381E+02  0.11143574381E+02  0.00000000000E+00 0.  1.
          2    1    1    2  501    0  0.41339023096E+02  0.20851964646E+02  0.47980692650E+02  0.66677328435E+02  0.00000000000E+00 0.  1.
          2    1    1    2  502    0 -0.41339023096E+02 -0.20851964646E+02  0.29673022914E+03  0.30032074212E+03  0.00000000000E+00 0. -1.
</event>
<event>
 4    1  0.7940509E+003  0.2370231E+02  0.7546771E-02  0.1483863E+00
          2   -1    0    0  502    0  0.00000000000E+00  0.00000000000E+00  0.72461870064E+02  0.72461870064E+02  0.00000000000E+00 0.  1.
          2   -1    0    0  501    0 -0.00000000000E+00 -0.00000000000E+00 -0.16120325500E+02  0.16120325500E+02  0.00000000000E+00 0. -1.
          2    1    1    2  501    0 -0.13483773393E+02  0.19493258453E+02  0.60080420526E+02  0.64586811352E+02  0.00000000000E+00 0.  1.
          2    1    1    2  502    0  0.13483773393E+02 -0.19493258453E+02 -0.37388759617E+01  0.23995384212E+02  0.00000000000E+00 0. -1.
</event>
<event>
 4    1  0.7940509E+003  0.3135876E+02  0.7546771E-02  0.1408145E+00
          2   -1    0    0  501    0  0.00000000000E+00  0.00000000000E+00  0.30253250291E+01  0.30253250291E+01  0.00000000000E+00 0.  1.
          2   -1    0    0  502    0 -0.00000000000E+00 -0.00000000000E+00 -0.44186169324E+03  0.44186169324E+03  0.00000000000E+00 0.  1.
          2    1    1    2  501    0  0.30298120030E+02  0.80867649040E+01 -0.33379181290E+03  0.33526160861E+03  0.00000000000E+00 0.  1.
          2    1    1    2  502    0 -0.30298120030E+02 -0.80867649040E+01 -0.10504455531E+03  0.10962540966E+03  0.00000000000E+00 0.  1.
</event>
<event>
 4    1  0.7940509E+003  0.3427149E+02  0.7546771E-02  0.1385758E+00
          2   -1    0    0  502    0  0.00000000000E+00  0.00000000000E+00  0.92931019776E+03  0.92931019776E+03  0.00000000000E+00 0. -1.
          2   -1    0    0  501    0 -0.00000000000E+00 -0.00000000000E+00 -0.13425108951E+01  0.13425108951E+01  0.00000000000E+00 0. -1.
          2    1    1    2  501    0 -0.11062376975E+02 -0.32436997892E+02  0.57659981157E+03  0.57761741466E+03  0.00000000000E+00 0. -1.
          2    1    1    2  502    0  0.11062376975E+02  0.32436997892E+02  0.35136787530E+03  0.35303529400E+03  0.00000000000E+00 0. -1.
</event>
<event>
 4    1  0.7940509E+003  0.2003842E+02  0.7546771E-02  0.1533449E+00
          2   -1    0    0  501    0  0.00000000000E+00  0.00000000000E+00  0.10333259435E+02  0.10333259435E+02  0.00000000000E+00 0. -1.
          2   -1    0    0  502    0 -0.00000000000E+00 -0.00000000000E+00 -0.28239362770E+03  0.28239362770E+03  0.00000000000E+00 0. -1.
          2    1    1    2  501    0 -0.18058176366E+02  0.86856516173E+01 -0.27195091244E+03  0.27268816816E+03  0.00000000000E+00 0. -1.
          2    1    1    2  502    0  0.18058176366E+02 -0.86856516173E+01 -0.10945582658E+00  0.20038718977E+02  0.00000000000E+00 0. -1.
</event>
<event>
 4    1  0.7940509E+003  0.3677415E+02  0.7546771E-02  0.1368502E+00
          2   -1    0    0  502    0  0.00000000000E+00  0.00000000000E+00  0.84699591170E+02  0.84699591170E+02  0.00000000000E+00 0.  1.
          2   -1    0    0  501    0 -0.00000000000E+00 -0.00000000000E+00 -0.58561064129E+02  0.58561064129E+02  0.00000000000E+00 0. -1.
          2    1    1    2  501    0 -0.11197439833E+02 -0.35027923097E+02  0.74159334320E+02  0.82776475657E+02  0.00000000000E+00 0.  1.
          2    1    1    2  502    0  0.11197439833E+02  0.35027923097E+02 -0.48020807279E+02  0.60484179642E+02  0.00000000000E+00 0. -1.
</event>
<event>
 4    1  0.7940509E+003  0.4500063E+02  0.7546771E-02  0.1321436E+00
          2   -1    0    0  501    0  0.00000000000E+00  0.00000000000E+00  0.41800939047E+01  0.41800939047E+01  0.00000000000E+00 0. -1.
          2   -1    0    0  502    0 -0.00000000000E+00 -0.00000000000E+00 -0.17354554400E+04  0.17354554400E+04  0.00000000000E+00 0. -1.
          2    1    1    2  501    0  0.20153593582E+02  0.40235425719E+02 -0.16041380327E+04  0.16047691064E+04  0.00000000000E+00 0. -1.
          2    1    1    2  502    0 -0.20153593582E+02 -0.40235425719E+02 -0.12713731336E+03  0.13486642750E+03  0.00000000000E+00 0. -1.
</event>
<event>
 4    1  0.7940509E+003  0.2060773E+02  0.7546771E-02  0.1524940E+00
          2   -1    0    0  501    0  0.00000000000E+00  0.00000000000E+00  0.34448139254E+03  0.34448139254E+03  0.00000000000E+00 0.  1.
          2   -1    0    0  502    0 -0.00000000000E+00 -0.00000000000E+00 -0.12498729910E+01  0.12498729910E+01  0.00000000000E+00 0. -1.
          2    1    1    2  501    0 -0.16803661986E+02 -0.11929607438E+02  0.19181612818E+03  0.19291994615E+03  0.00000000000E+00 0.  1.
          2    1    1    2  502    0  0.16803661986E+02  0.11929607438E+02  0.15141539136E+03  0.15281131938E+03  0.00000000000E+00 0. -1.
</event>
<event>
 4    1  0.7940509E+003  0.3124065E+02  0.7546771E-02  0.1409113E+00
          2   -1    0    0  501    0  0.00000000000E+00  0.00000000000E+00  0.28626177532E+03  0.28626177532E+03  0.00000000000E+00 0. -1.
          2   -1    0    0  502    0 -0.00000000000E+00 -0.00000000000E+00 -0.74674563723E+01  0.74674563723E+01  0.00000000000E+00 0. -1.
          2    1    1    2  501    0 -0.33566375989E-01  0.31240633847E+02  0.24766272390E+03  0.24962532551E+03  0.00000000000E+00 0. -1.
          2    1    1    2  502    0  0.33566375989E-01 -0.31240633847E+02  0.31131595053E+02  0.44103906181E+02  0.00000000000E+00 0. -1.
</event>
<event>
 4    1  0.7940509E+003  0.3160374E+02  0.7546771E-02  0.1406154E+00
          2   -1    0    0  502    0  0.00000000000E+00  0.00000000000E+00  0.53740435271E+02  0.53740435271E+02  0.00000000000E+00 0.  1.
          2   -1    0    0  501    0 -0.00000000000E+00 -0.00000000000E+00 -0.20475786818E+02  0.20475786818E+02  0.00000000000E+00 0.  1.
          2    1    1    2  501    0 -0.20243839412E+02  0.24268978932E+02  0.27907021546E+02  0.42161572837E+02  0.00000000000E+00 0.  1.
          2    1    1    2  502    0  0.20243839412E+02 -0.24268978932E+02  0.53576269070E+01  0.32054649251E+02  0.00000000000E+00 0.  1.
</event>
<event>
 4    1  0.7940509E+003  0.5902258E+02  0.7546771E-02  0.1263190E+00
          2   -1    0    0  501    0  0.00000000000E+00  0.00000000000E+00  0.12221558486E+04  0.12221558486E+04  0.00000000000E+00 0.  1.
          2   -1    0    0  502    0 -0.00000000000E+00 -0.00000000000E+00 -0.81889228836E+02  0.81889228836E+02  0.00000000000E+00 0.  1.
          2    1    1    2  501    0  0.51192997092E+02 -0.29375877410E+02 -0.70440817781E+02  0.91899803779E+02  0.00000000000E+00 0.  1.
          2    1    1    2  502    0 -0.51192997092E+02  0.29375877410E+02  0.12107074376E+04  0.12121452737E+04  0.00000000000E+00 0.  1.
</event>
<event>
 4    1  0.7940509E+003  0.2857572E+02  0.7546771E-02  0.1432391E+00
          2   -1    0    0  502    0  0.00000000000E+00  0.00000000000E+00  0.14561533136E+04  0.14561533136E+04  0.00000000000E+00 0.  1.
          2   -1    0    0  501    0 -0.00000000000E+00 -0.00000000000E+00 -0.13757759601E+01  0.13757759601E+01  0.00000000000E+00 0.  1.
          2    1    1    2  501    0 -0.92643421072E+01  0.27032269563E+02  0.12882984543E+04  0.12886153340E+04  0.00000000000E+00 0.  1.
          2    1    1    2  502    0  0.92643421072E+01 -0.27032269563E+02  0.16647908335E+03  0.16891375558E+03  0.00000000000E+00 0.  1.
</event>
<event>
 4    1  0.7940509E+003  0.3954693E+02  0.7546771E-02  0.1351161E+00
          2   -1    0    0  501    0  0.00000000000E+00  0.00000000000E+00  0.14563610923E+01  0.14563610923E+01  0.00000000000E+00 0.  1.
          2   -1    0    0  502    0 -0.00000000000E+00 -0.00000000000E+00 -0.11351332767E+04  0.11351332767E+04  0.00000000000E+00 0. -1.
          2    1    1    2  501    0  0.18533534067E+02 -0.34935191612E+02 -0.69884910869E+03  0.69996716796E+03  0.00000000000E+00 0. -1.
          2    1    1    2  502    0 -0.18533534067E+02  0.34935191612E+02 -0.43482780689E+03  0.43662246981E+03  0.00000000000E+00 0.  1.
</event>
<event>
 4    1  0.7940509E+003  0.2353841E+02  0.7546771E-02  0.1485846E+00
          2   -1    0    0  502    0  0.00000000000E+00  0.00000000000E+00  0.48854795154E+01  0.48854795154E+01  0.00000000000E+00 0. -1.
          2   -1    0    0  501    0 -0.00000000000E+00 -0.00000000000E+00 -0.10291723073E+04  0.10291723073E+04  0.00000000000E+00 0.  1.
          2    1    1    2  501    0 -0.13958982498E+02 -0.18952667434E+02 -0.24432568034E+02  0.33926496665E+02  0.00000000000E+00 0. -1.
          2    1    1    2  502    0  0.13958982498E+02  0.18952667434E+02 -0.99985425973E+03  0.10001312901E+04  0.00000000000E+00 0.  1.
</event>
<event>
 4    1  0.7940509E+003  0.2052708E+02  0.7546771E-02  0.1526125E+00
          2   -1    0    0  501    0  0.00000000000E+00  0.00000000000E+00  0.82757725388E+03  0.82757725388E+03  0.00000000000E+00 0.  1.
          2   -1    0    0  502    0 -0.00000000000E+00 -0.00000000000E+00 -0.54226937683E+02  0.54226937683E+02  0.00000000000E+00 0. -1.
          2    1    1    2  501    0 -0.20408837011E+02 -0.22001049369E+01 -0.52152186580E+02  0.56046513317E+02  0.00000000000E+00 0. -1.
          2    1    1    2  502    0  0.20408837011E+02  0.22001049369E+01  0.82550250278E+03  0.82575767825E+03  0.00000000000E+00 0.  1.
</event>
<event>
 4    1  0.7940509E+003  0.2036888E+02  0.7546771E-02  0.1528469E+00
          2   -1    0    0  502    0  0.00000000000E+00  0.00000000000E+00  0.20605964467E+00  0.20605964467E+00  0.00000000000E+00 0.  1.
          2   -1    0    0  501    0 -0.00000000000E+00 -0.00000000000E+00 -0.22279559904E+04  0.22279559904E+04  0.00000000000E+00 0.  1.
          2    1    1    2  501    0 -0.63171110992E+01 -0.19364539588E+02 -0.76818978917E+03  0.76845978650E+03  0.00000000000E+00 0.  1.
          2    1    1    2  502    0  0.63171110992E+01  0.19364539588E+02 -0.14595601416E+04  0.14597022636E+04  0.00000000000E+00 0.  1.
</event>
<event>
 4    1  0.7940509E+003  0.5742710E+02  0.7546771E-02  0.1268834E+00
          2   -1    0    0  502    0  0.00000000000E+00  0.00000000000E+00  0.70467355837E+03  0.70467355837E+03  0.00000000000E+00 0. -1.
          2   -1    0    0  501    0 -0.00000000000E+00 -0.00000000000E+00 -0.47396699518E+01  0.47396699518E+01  0.00000000000E+00 0. -1.
          2    1    1    2  501    0  0.33345370186E+02 -0.46754226903E+02  0.31016747796E+03  0.31543895737E+03  0.00000000000E+00 0. -1.
          2    1    1    2  502    0 -0.33345370186E+02  0.46754226903E+02  0.38976641046E+03  0.39397427095E+03  0.00000000000E+00 0. -1.
</event>
<event>
 4    1  0.7940509E+003  0.2543256E+02  0.7546771E-02  0.1464022E+00
          2   -1    0    0  502    0  0.00000000000E+00  0.00000000000E+00  0.52727391363E+01  0.52727391363E+01  0.00000000000E+00 0.  1.
          2   -1    0    0  501    0 -0.00000000000E+00 -0.00000000000E+00 -0.26313902544E+03  0.26313902544E+03  0.00000000000E+00 0. -1.
          2    1    1    2  501    0  0.21078505614E+00  0.25431681635E+02 -0.30878791131E+02  0.40003932342E+02  0.00000000000E+00 0.  1.
          2    1    1    2  502    0 -0.21078505614E+00 -0.25431681635E+02 -0.22698749517E+03  0.22840783223E+03  0.00000000000E+00 0. -1.
</event>
<event>
 4    1  0.7940509E+003  0.3511560E+02  0.7546771E-02  0.1379752E+00
          2   -1    0    0  502    0  0.00000000000E+00  0.00000000000E+00  0.22272918574E+01  0.22272918574E+01  0.00000000000E+00 0.  1.
          2   -1    0    0  501    0 -0.00000000000E+00 -0.00000000000E+00 -0.15775319503E+04  0.15775319503E+04  0.00000000000E+00 0.  1.
          2    1    1    2  501    0 -0.34942041999E+02  0.34870052497E+01 -0.15129643903E+03  0.15531811860E+03  0.00000000000E+00 0.  1.
          2    1    1    2  502    0  0.34942041999E+02 -0.34870052497E+01 -0.14240082194E+04  0.14244411235E+04  0.00000000000E+00 0.  1.
</event>
<event>
 4    1  0.7940509E+003  0.2690156E+02  0.7546771E-02  0.1448600E+00
          2   -1    0    0  501    0  0.00000000000E+00  0.00000000000E+00  0.88841484190E+03  0.88841484190E+03  0.00000000000E+00 0. -1.
          2   -1    0    0  502    0 -0.00000000000E+00 -0.00000000000E+00 -0.53432802763E+01  0.53432802763E+01  0.00000000000E+00 0.  1.
          2    1    1    2  501    0 -0.23261227548E+02 -0.13513290201E+02  0.30128147919E+02  0.40390580784E+02  0.00000000000E+00 0.  1.
          2    1    1    2  502    0  0.23261227548E+02  0.13513290201E+02  0.85294341370E+03  0.85336754139E+03  0.00000000000E+00 0. -1.
</event>
<event>
 4    1  0.7940509E+003  0.2083613E+02  0.7546771E-02  0.1521617E+00
          2   -1    0    0  501    0  0.00000000000E+00  0.00000000000E+00  0.16937208792E+03  0.16937208792E+03  0.00000000000E+00 0.  1.
          2   -1    0    0  502    0 -0.00000000000E+00 -0.00000000000E+00 -0.67378586401E+02  0.67378586401E+02  0.00000000000E+00 0. -1.
          2    1    1    2  501    0 -0.20558272702E+02 -0.33914123356E+01 -0.65105100946E+02  0.68358016525E+02  0.00000000000E+00 0. -1.
          2    1    1    2  502    0  0.20558272702E+02  0.33914123356E+01  0.16709860247E+03  0.16839265780E+03  0.00000000000E+00 0.  1.
</event>
<event>
 4    1  0.7940509E+003  0.3287609E+02  0.7546771E-02  0.1396143E+00
          2   -1    0    0  501    0  0.00000000000E+00  0.00000000000E+00  0.41619933622E+02  0.41619933622E+02  0.00000000000E+00 0.  1.
          2   -1    0    0  502    0 -0.00000000000E+00 -0.00000000000E+00 -0.18271379783E+04  0.18271379783E+04  0.00000000000E+00 0.  1.
          2    1    1    2  501    0 -0.21946095129E+02  0.24478693934E+02 -0.18204740210E+04  0.18207708529E+04  0.00000000000E+00 0.  1.
          2    1    1    2  502    0  0.21946095129E+02 -0.24478693934E+02  0.34955976365E+02  0.47987059003E+02  0.00000000000E+00 0.  1.
</event>
<event>
 4    1  0.7940509E+003  0.3618796E+02  0.7546771E-02  0.1372398E+00
          2   -1    0    0  502    0  0.00000000000E+00  0.00000000000E+00  0.23029541740E+02  0.23029541740E+02  0.00000000000E+00 0. -1.
          2   -1    0    0  501    0 -0.00000000000E+00 -0.00000000000E+00 -0.73712454854E+03  0.73712454854E+03  0.00000000000E+00 0. -1.
          2    1    1    2  501    0  0.33987813940E+02 -0.12425658278E+02  0.80750129189E+01  0.37077949157E+02  0.00000000000E+00 0. -1.
          2    1    1    2  502    0 -0.33987813940E+02  0.12425658278E+02 -0.72217001972E+03  0.72307614112E+03  0.00000000000E+00 0. -1.
</event>
<event>
 4    1  0.7940509E+003  0.2063979E+02  0.7546771E-02  0.1524470E+00
          2   -1    0    0  502    0  0.00000000000E+00  0.00000000000E+00  0.90677102653E+02  0.90677102653E+02  0.00000000000E+00 0. -1.
          2   -1    0    0  501    0 -0.00000000000E+00 -0.00000000000E+00 -0.23892250220E+02  0.23892250220E+02  0.00000000000E+00 0.  1.
          2    1    1    2  501    0 -0.68552410371E+01 -0.19468087216E+02  0.84737117623E+02  0.87214562159E+02  0.00000000000E+00 0. -1.
          2    1    1    2  502    0  0.68552410371E+01  0.19468087216E+02 -0.17952265190E+02  0.27354790714E+02  0.00000000000E+00 0.  1.
</event>
<event>
 4    1  0.7940509E+003  0.2367147E+02  0.7546771E-02  0.1484234E+00
          2   -1    0    0  502    0  0.00000000000E+00  0.00000000000E+00  0.69168569841E+03  0.69168569841E+03  0.00000000000E+00 0.  1.
          2   -1    0    0  501    0 -0.00000000000E+00 -0.00000000000E+00 -0.19477831583E+01  0.19477831583E+01  0.00000000000E+00 0.  1.
          2    1    1    2  501    0 -0.13252274954E+02  0.19614174730E+02  0.60992596749E+03  0.61038514436E+03  0.00000000000E+00 0.  1.
          2    1    1    2  502    0  0.13252274954E+02 -0.19614174730E+02  0.79811947768E+02  0.83248337210E+02  0.00000000000E+00 0.  1.
</event>
<event>
 4    1  0.7940509E+003  0.2336339E+02  0.7546771E-02  0.1487985E+00
          2   -1    0    0  502    0  0.00000000000E+00  0.00000000000E+00  0.30579331780E+03  0.30579331780E+03  0.00000000000E+00 0. -1.
          2   -1    0    0  501    0 -0.00000000000E+00 -0.00000000000E+00 -0.13115765370E+02  0.13115765370E+02  0.00000000000E+00 0. -1.
          2    1    1    2  501    0 -0.11913869739E+02  0.20097451184E+02  0.29454596625E+03  0.29547110531E+03  0.00000000000E+00 0. -1.
          2    1    1    2  502    0  0.11913869739E+02 -0.20097451184E+02 -0.18684138190E+01  0.23437977866E+02  0.00000000000E+00 0. -1.
</event>
<event>
 4    1  0.7940509E+003  0.4828760E+02  0.7546771E-02  0.1305773E+00
          2   -1    0    0  502    0  0.00000000000E+00  0.00000000000E+00  0.26329547162E+01  0.26329547162E+01  0.00000000000E+00 0.  1.
          2   -1    0    0  501    0 -0.00000000000E+00 -0.00000000000E+00 -0.15047547959E+04  0.15047547959E+04  0.00000000000E+00 0.  1.
          2    1    1    2  501    0  0.44129803422E+02 -0.19602355693E+02 -0.26759176588E+03  0.27191367209E+03  0.00000000000E+00 0.  1.
          2    1    1    2  502    0 -0.44129803422E+02  0.19602355693E+02 -0.12345300753E+04  0.12354740785E+04  0.00000000000E+00 0.  1.
</event>
<event>
 4    1  0.7940509E+003  0.2800491E+02  0.7546771E-02  0.1437767E+00
          2   -1    0    0  502    0  0.00000000000E+00  0.00000000000E+00  0.11121210464E+01  0.11121210464E+01  0.00000000000E+00 0. -1.
          2   -1    0    0  501    0 -0.00000000000E+00 -0.00000000000E+00 -0.11851945139E+04  0.11851945139E+04  0.00000000000E+00 0.  1.
          2    1    1    2  501    0 -0.21057260231E+02  0.18462582962E+02 -0.21456700155E+03  0.21638686035E+03  0.00000000000E+00 0. -1.
          2    1    1    2  502    0  0.21057260231E+02 -0.18462582962E+02 -0.96951539134E+03  0.96991977463E+03  0.00000000000E+00 0.  1.
</event>
<event>
 4    1  0.7940509E+003  0.3039054E+02  0.7546771E-02  0.1416232E+00
          2   -1    0    0  501    0  0.00000000000E+00  0.00000000000E+00  0.69032978237E+02  0.69032978237E+02  0.00000000000E+00 0.  1.
          2   -1    0    0  502    0 -0.00000000000E+00 -0.00000000000E+00 -0.34755706169E+02  0.34755706169E+02  0.00000000000E+00 0.  1.
          2    1    1    2  501    0  0.10315798659E+01 -0.30373022192E+02 -0.23559869530E+02  0.38453245460E+02  0.00000000000E+00 0.  1.
          2    1    1    2  502    0 -0.10315798659E+01  0.30373022192E+02  0.57837141597E+02  0.65335438946E+02  0.00000000000E+00 0.  1.
</event>
<event>
 4    1  0.7940509E+003  0.5550977E+02  0.7546771E-02  0.1275902E+00
          2   -1    0    0  502    0  0.00000000000E+00  0.00000000000E+00  0.14314348706E+01  0.14314348706E+01  0.00000000000E+00 0.  1.
          2   -1    0    0  501    0 -0.00000000000E+00 -0.00000000000E+00 -0.22742105182E+04  0.22742105182E+04  0.00000000000E+00 0.  1.
          2    1    1    2  501    0  0.41294793220E+02  0.37095474895E+02 -0.87329619586E+03  0.87505861513E+03  0.00000000000E+00 0.  1.
          2    1    1    2  502    0 -0.41294793220E+02 -0.37095474895E+02 -0.13994828875E+04  0.14005833379E+04  0.00000000000E+00 0.  1.
</event>
<event>
 4    1  0.7940509E+003  0.3034025E+02  0.7546771E-02  0.1416662E+00
          2   -1    0    0  502    0  0.00000000000E+00  0.00000000000E+00  0.29592448246E+03  0.29592448246E+03  0.00000000000E+00 0.  1.
          2   -1    0    0  501    0 -0.00000000000E+00 -0.00000000000E+00 -0.22074080080E+02  0.22074080080E+02  0.00000000000E+00 0. -1.
          2    1    1    2  501    0 -0.29795918857E+02  0.57213400860E+01  0.28429612223E+03  0.28591050283E+03  0.00000000000E+00 0.  1.
          2    1    1    2  502    0  0.29795918857E+02 -0.57213400860E+01 -0.10445719850E+02  0.32088059712E+02  0.00000000000E+00 0. -1.
</event>
<event>
 4    1  0.7940509E+003  0.2507431E+02  0.7546771E-02  0.1467974E+00
          2   -1    0    0  502    0  0.00000000000E+00  0.00000000000E+00  0.30656996766E+03  0.30656996766E+03  0.00000000000E+00 0. -1.
          2   -1    0    0  501    0 -0.00000000000E+00 -0.00000000000E+00 -0.14740074414E+03  0.14740074414E+03  0.00000000000E+00 0.  1.
          2    1    1    2  501    0  0.21583210748E+02  0.12762680881E+02  0.30498538431E+03  0.30601438798E+03  0.00000000000E+00 0. -1.
          2    1    1    2  502    0 -0.21583210748E+02 -0.12762680881E+02 -0.14581616079E+03  0.14795632382E+03  0.00000000000E+00 0.  1.
</event>
<event>
 4    1  0.7940509E+003  0.2698741E+02  0.7546771E-02  0.1447735E+00
          2   -1    0    0  501    0  0.00000000000E+00  0.00000000000E+00  0.10298776778E+02  0.10298776778E+02  0.00000000000E+00 0. -1.
          2   -1    0    0  502    0 -0.00000000000E+00 -0.00000000000E+00 -0.16102835972E+03  0.16102835972E+03  0.00000000000E+00 0.  1.
          2    1    1    2  501    0 -0.21058494972E+02 -0.16877805194E+02 -0.13951691676E+03  0.14210309842E+03  0.00000000000E+00 0.  1.
          2    1    1    2  502    0  0.21058494972E+02  0.16877805194E+02 -0.11212666184E+02  0.29224038078E+02  0.00000000000E+00 0. -1.
</event>
<event>
 4    1  0.7940509E+003  0.4968246E+02  0.7546771E-02  0.1299555E+00
          2   -1    0    0  502    0  0.00000000000E+00  0.00000000000E+00  0.16831551565E+02  0.16831551565E+02  0.00000000000E+00 0.  1.
          2   -1    0    0  501    0 -0.00000000000E+00 -0.00000000000E+00 -0.78390132811E+03  0.78390132811E+03  0.00000000000E+00 0.  1.
          2    1    1    2  501    0  0.31160409876E+02 -0.38695940778E+02 -0.22555552112E+02  0.54562806997E+02  0.00000000000E+00 0.  1.
          2    1    1    2  502    0 -0.31160409876E+02  0.38695940778E+02 -0.74451422443E+03  0.74617007268E+03  0.00000000000E+00 0.  1.
</event>
<event>
 4    1  0.7940509E+003  0.2248395E+02  0.7546771E-02  0.1499082E+00
          2   -1    0    0  501    0  0.00000000000E+00  0.00000000000E+00  0.84440006743E+02  0.84440006743E+02  0.00000000000E+00 0.  1.
          2   -1    0    0  502    0 -0.00000000000E+00 -0.00000000000E+00 -0.84641428929E+03  0.84641428929E+03  0.00000000000E+00 0.  1.
          2    1    1    2  501    0 -0.67505989229E+01 -0.21446622354E+02 -0.84476534548E+03  0.84506450470E+03  0.00000000000E+00 0.  1.
          2    1    1    2  502    0  0.67505989229E+01  0.21446622354E+02  0.82791062926E+02  0.85789791331E+02  0.00000000000E+00 0.  1.
</event>
<event>
 4    1  0.7940509E+003  0.2041815E+02  0.7546771E-02  0.1527737E+00
          2   -1    0    0  501    0  0.00000000000E+00  0.00000000000E+00  0.27870073181E+02  0.27870073181E+02  0.00000000000E+00 0.  1.
          2   -1    0    0  502    0 -0.00000000000E+00 -0.00000000000E+00 -0.57590836412E+03  0.57590836412E+03  0.00000000000E+00 0.  1.
          2    1    1    2  501    0  0.19178879749E+02 -0.70050971538E+01 -0.57196191203E+03  0.57232624405E+03  0.00000000000E+00 0.  1.
          2    1    1    2  502    0 -0.19178879749E+02  0.70050971538E+01  0.23923621088E+02  0.31452193255E+02  0.00000000000E+00 0.  1.
</event>
<event>
 4    1  0.7940509E+003  0.2793493E+02  0.7546771E-02  0.1438436E+00
          2   -1    0    0  501    0  0.00000000000E+00  0.00000000000E+00  0.11847192109E+02  0.11847192109E+02  0.00000000000E+00 0. -1.
          2   -1    0    0  502    0 -0.00000000000E+00 -0.00000000000E+00 -0.73141874711E+02  0.73141874711E+02  0.00000000000E+00 0.  1.
          2    1    1    2  501    0  0.21119894292E+02 -0.18284162627E+02 -0.44047456000E+02  0.52158785625E+02  0.00000000000E+00 0.  1.
          2    1    1    2  502    0 -0.21119894292E+02  0.18284162627E+02 -0.17247226602E+02  0.32830281195E+02  0.00000000000E+00 0. -1.
</event>
<event>
 4    1  0.7940509E+003  0.2696187E+02  0.7546771E-02  0.1447991E+00
          2   -1    0    0  502    0  0.00000000000E+00  0.00000000000E+00  0.10632536684E+04  0.10632536684E+04  0.00000000000E+00 0.  1.
          2   -1    0    0  501    0 -0.00000000000E+00 -0.00000000000E+00 -0.73770022030E+00  0.73770022030E+00  0.00000000000E+00 0.  1.
          2    1    1    2  501    0 -0.73365887519E+01  0.25944499173E+02  0.67519778559E+03  0.67573588941E+03  0.00000000000E+00 0.  1.
          2    1    1    2  502    0  0.73365887519E+01 -0.25944499173E+02  0.38731818260E+03  0.38825547922E+03  0.00000000000E+00 0.  1.
</event>
<event>
 4    1  0.7940509E+003  0.3415604E+02  0.7546771E-02  0.1386595E+00
          2   -1    0    0  502    0  0.00000000000E+00  0.00000000000E+00  0.42937479928E+02  0.42937479928E+02  0.00000000000E+00 0. -1.
          2   -1    0    0  501    0 -0.00000000000E+00 -0.00000000000E+00 -0.17089544059E+03  0.17089544059E+03  0.00000000000E+00 0. -1.
          2    1    1    2  501    0  0.30860452515E+02  0.14637885122E+02  0.34070504890E+02  0.48243491932E+02  0.00000000000E+00 0. -1.
          2    1    1    2  502    0 -0.30860452515E+02 -0.14637885122E+02 -0.16202846555E+03  0.16558942859E+03  0.00000000000E+00 0. -1.
</event>
<event>
 4    1  0.7940509E+003  0.2327977E+02  0.7546771E-02  0.1489015E+00
          2   -1    0    0  501    0  0.00000000000E+00  0.00000000000E+00  0.11689361214E+01  0.11689361214E+01  0.00000000000E+00 0.  1.
          2   -1    0    0  502    0 -0.00000000000E+00 -0.00000000000E+00 -0.13491782715E+04  0.13491782715E+04  0.00000000000E+00 0.  1.
          2    1    1    2  501    0  0.11756716734E+02  0.20092970163E+02 -0.12210057274E+04  0.12212276340E+04  0.00000000000E+00 0.  1.
          2    1    1    2  502    0 -0.11756716734E+02 -0.20092970163E+02 -0.12700360803E+03  0.12911957361E+03  0.00000000000E+00 0.  1.
</event>
<event>
 4    1  0.7940509E+003  0.2050715E+02  0.7546771E-02  0.1526419E+00
          2   -1    0    0  501    0  0.00000000000E+00  0.00000000000E+00  0.25337937269E+03  0.25337937269E+03  0.00000000000E+00 0.  1.
          2   -1    0    0  502    0 -0.00000000000E+00 -0.00000000000E+00 -0.37669748665E+02  0.37669748665E+02  0.00000000000E+00 0. -1.
          2    1    1    2  501    0 -0.20026287868E+02  0.44148774164E+01 -0.34427712148E+02  0.40072568075E+02  0.00000000000E+00 0. -1.
          2    1    1    2  502    0  0.20026287868E+02 -0.44148774164E+01  0.25013733617E+03  0.25097655327E+03  0.00000000000E+00 0.  1.
</event>
<event>
 4    1  0.7940509E+003  0.2345834E+02  0.7546771E-02  0.1486822E+00
          2   -1    0    0  502    0  0.00000000000E+00  0.00000000000E+00  0.77486242160E+03  0.77486242160E+03  0.00000000000E+00 0.  1.
          2   -1    0    0  501    0 -0.00000000000E+00 -0.00000000000E+00 -0.34883197092E+01  0.34883197092E+01  0.00000000000E+00 0. -1.
          2    1    1    2  501    0  0.23457277519E+02 -0.22352425834E+00  0.73299445539E+03  0.73336973313E+03  0.00000000000E+00 0.  1.
          2    1    1    2  502    0 -0.23457277519E+02  0.22352425834E+00  0.38379646499E+02  0.44981008182E+02  0.00000000000E+00 0. -1.
</event>
<event>
 4    1  0.7940509E+003  0.2863059E+02  0.7546771E-02  0.1431882E+00
          2   -1    0    0  502    0  0.00000000000E+00  0.00000000000E+00  0.21212403934E+04  0.21212403934E+04  0.00000000000E+00 0.  1.
          2   -1    0    0  501    0 -0.00000000000E+00 -0.00000000000E+00 -0.40485951223E+02  0.40485951223E+02  0.00000000000E+00 0. -1.
          2    1    1    2  501    0 -0.27273812724E+02  0.87091734140E+01  0.21160697205E+04  0.21162633987E+04  0.00000000000E+00 0.  1.
          2    1    1    2  502    0  0.27273812724E+02 -0.87091734140E+01 -0.35315278379E+02  0.45462945890E+02  0.00000000000E+00 0. -1.
</event>
<event>
 4    1  0.7940509E+003  0.2449521E+02  0.7546771E-02  0.1474530E+00
          2   -1    0    0  502    0  0.00000000000E+00  0.00000000000E+00  0.27846832252E+02  0.27846832252E+02  0.00000000000E+00 0.  1.
          2   -1    0    0  501    0 -0.00000000000E+00 -0.00000000000E+00 -0.34138616827E+02  0.34138616827E+02  0.00000000000E+00 0. -1.
          2    1    1    2  501    0  0.22132889587E+02  0.10495257323E+02  0.15676630626E+02  0.29082159059E+02  0.00000000000E+00 0.  1.
          2    1    1    2  502    0 -0.22132889587E+02 -0.10495257323E+02 -0.21968415201E+02  0.32903290020E+02  0.00000000000E+00 0. -1.
</event>
<event>
 4    1  0.7940509E+003  0.3266889E+02  0.7546771E-02  0.1397737E+00
          2   -1    0    0  501    0  0.00000000000E+00  0.00000000000E+00  0.48504176157E+03  0.48504176157E+03  0.00000000000E+00 0.  1.
          2   -1    0    0  502    0 -0.00000000000E+00 -0.00000000000E+00 -0.22793166718E+03  0.22793166718E+03  0.00000000000E+00 0.  1.
          2    1    1    2  501    0 -0.32594131341E+02 -0.22087861916E+01 -0.22620682190E+03  0.22855367512E+03  0.00000000000E+00 0.  1.
          2    1    1    2  502    0  0.32594131341E+02  0.22087861916E+01  0.48331691629E+03  0.48441975363E+03  0.00000000000E+00 0.  1.
</event>
<event>
 4    1  0.7940509E+003  0.2117546E+02  0.7546771E-02  0.1516774E+00
          2   -1    0    0  502    0  0.00000000000E+00  0.00000000000E+00  0.10264705058E+02  0.10264705058E+02  0.00000000000E+00 0.  1.
          2   -1    0    0  501    0 -0.00000000000E+00 -0.00000000000E+00 -0.10709421885E+03  0.10709421885E+03  0.00000000000E+00 0.  1.
          2    1    1    2  501    0 -0.20658375418E+02 -0.46509941527E+01 -0.32620503761E+01  0.21425246654E+02  0.00000000000E+00 0.  1.
          2    1    1    2  502    0  0.20658375418E+02  0.46509941527E+01 -0.93567463415E+02  0.95933677254E+02  0.00000000000E+00 0.  1.
</event>
<event>
 4    1  0.7940509E+003  0.5336755E+02  0.7546771E-02  0.1284197E+00
          2   -1    0    0  501    0  0.00000000000E+00  0.00000000000E+00  0.10864891670E+03  0.10864891670E+03  0.00000000000E+00 0. -1.
          2   -1    0    0  502    0 -0.00000000000E+00 -0.00000000000E+00 -0.45885216552E+02  0.45885216552E+02  0.00000000000E+00 0.  1.
          2    1    1    2  501    0  0.38922641485E+02 -0.36511955645E+02 -0.19209522704E+02  0.56719491250E+02  0.00000000000E+00 0.  1.
          2    1    1    2  502    0 -0.38922641485E+02  0.36511955645E+02  0.81973222851E+02  0.97814642001E+02  0.00000000000E+00 0. -1.
</event>
<event>
 4    1  0.7940509E+003  0.2966593E+02  0.7546771E-02  0.1422522E+00
          2   -1    0    0  501    0  0.00000000000E+00  0.00000000000E+00  0.11376072009E+04  0.11376072009E+04  0.00000000000E+00 0. -1.
          2   -1    0    0  502    0 -0.00000000000E+00 -0.00000000000E+00 -0.12064384834E+01  0.12064384834E+01  0.00000000000E+00 0. -1.
          2    1    1    2  501    0 -0.25753231807E+02 -0.14725435819E+02  0.22714365278E+03  0.22907270987E+03  0.00000000000E+00 0. -1.
          2    1    1    2  502    0  0.25753231807E+02  0.14725435819E+02  0.90925710965E+03  0.90974092952E+03  0.00000000000E+00 0. -1.
</event>
<event>
 4    1  0.7940509E+003  0.2116700E+02  0.7546771E-02  0.1516894E+00
          2   -1    0    0  501    0  0.00000000000E+00  0.00000000000E+00  0.24595259215E+01  0.24595259215E+01  0.00000000000E+00 0. -1.
          2   -1    0    0  502    0 -0.00000000000E+00 -0.00000000000E+00 -0.35478789792E+03  0.35478789792E+03  0.00000000000E+00 0. -1.
          2    1    1    2  501    0  0.20299826587E+02  0.59965689539E+01 -0.30075980083E+03  0.30150373064E+03  0.00000000000E+00 0. -1.
          2    1    1    2  502    0 -0.20299826587E+02 -0.59965689539E+01 -0.51568571177E+02  0.55743693203E+02  0.00000000000E+00 0. -1.
</event>
<event>
 4    1  0.7940509E+003  0.2105696E+02  0.7546771E-02  0.1518453E+00
          2   -1    0    0  502    0  0.00000000000E+00  0.00000000000E+00  0.57153589002E+01  0.57153589002E+01  0.00000000000E+00 0.  1.
          2   -1    0    0  501    0 -0.00000000000E+00 -0.00000000000E+00 -0.99093470241E+03  0.99093470241E+03  0.00000000000E+00 0. -1.
          2    1    1    2  501    0  0.89355151279E+01 -0.19067042783E+02 -0.14188929237E+02  0.25391361996E+02  0.00000000000E+00 0.  1.
          2    1    1    2  502    0 -0.89355151279E+01  0.19067042783E+02 -0.97103041427E+03  0.97125869931E+03  0.00000000000E+00 0. -1.
</event>
<event>
 4    1  0.7940509E+003  0.2020918E+02  0.7546771E-02  0.1530862E+00
          2   -1    0    0  502    0  0.00000000000E+00  0.00000000000E+00  0.58305964885E+00  0.58305964885E+00  0.00000000000E+00 0.  1.
          2   -1    0    0  501    0 -0.00000000000E+00 -0.00000000000E+00 -0.71274626410E+03  0.71274626410E+03  0.00000000000E+00 0. -1.
          2    1    1    2  501    0 -0.66724209208E+01 -0.19075897389E+02 -0.30925753128E+03  0.30991713685E+03  0.00000000000E+00 0.  1.
          2    1    1    2  502    0  0.66724209208E+01  0.19075897389E+02 -0.40290567317E+03  0.40341218689E+03  0.00000000000E+00 0. -1.
</event>
<event>
 4    1  0.8605586E+003  0.2344097E+02  0.7546771E-02  0.1487034E+00
          2   -1    0    0  501    0  0.00000000000E+00  0.00000000000E+00  0.50556304179E+03  0.50556304179E+03  0.00000000000E+00 0. -1.
          2   -1    0    0  502    0 -0.00000000000E+00 -0.00000000000E+00 -0.61302946496E+03  0.61302946496E+03  0.00000000000E+00 0.  1.
          2    1    1    2  501    0 -0.48689149063E+01 -0.22929730709E+02 -0.61253344532E+03  0.61298181092E+03  0.00000000000E+00 0.  1.
          2    1    1    2  502    0  0.48689149063E+01  0.22929730709E+02  0.50506702214E+03  0.50561069583E+03  0.00000000000E+00 0. -1.
</event>
<event>
 4    1  0.7940509E+003  0.2060446E+02  0.7546771E-02  0.1524988E+00
          2   -1    0    0  501    0  0.00000000000E+00  0.00000000000E+00  0.15917748319E+01  0.15917748319E+01  0.00000000000E+00 0. -1.
          2   -1    0    0  502    0 -0.00000000000E+00 -0.00000000000E+00 -0.63433409287E+03  0.63433409287E+03  0.00000000000E+00 0. -1.
          2    1    1    2  501    0 -0.67892487621E+01  0.19453784252E+02 -0.55842888494E+03  0.55880887892E+03  0.00000000000E+00 0. -1.
          2    1    1    2  502    0  0.67892487621E+01 -0.19453784252E+02 -0.74313433093E+02  0.77116988780E+02  0.00000000000E+00 0. -1.
</event>
<event>
 4    1  0.7940509E+003  0.2965346E+02  0.7546771E-02  0.1422632E+00
          2   -1    0    0  501    0  0.00000000000E+00  0.00000000000E+00  0.29508795023E+02  0.29508795023E+02  0.00000000000E+00 0.  1.
          2   -1    0    0  502    0 -0.00000000000E+00 -0.00000000000E+00 -0.66454584646E+02  0.66454584646E+02  0.00000000000E+00 0.  1.
          2    1    1    2  501    0 -0.28814447498E+02  0.70039335087E+01 -0.54108502326E+02  0.61701357304E+02  0.00000000000E+00 0.  1.
          2    1    1    2  502    0  0.28814447498E+02 -0.70039335087E+01  0.17162712703E+02  0.34262022365E+02  0.00000000000E+00 0.  1.
</event>
<event>
 4    1  0.7940509E+003  0.3400122E+02  0.7546771E-02  0.1387724E+00
          2   -1    0    0  502    0  0.00000000000E+00  0.00000000000E+00  0.48565810521E+03  0.48565810521E+03  0.00000000000E+00 0.  1.
          2   -1    0    0  501    0 -0.00000000000E+00 -0.00000000000E+00 -0.41632938143E+01  0.41632938143E+01  0.00000000000E+00 0.  1.
          2    1    1    2  501    0  0.21342645165E+02  0.26468362702E+02  0.40101525408E+03  0.40245411754E+03  0.00000000000E+00 0.  1.
          2    1    1    2  502    0 -0.21342645165E+02 -0.26468362702E+02  0.80479557316E+02  0.87367281476E+02  0.00000000000E+00 0.  1.
</event>
<event>
 4    1  0.7940509E+003  0.2520209E+02  0.7546771E-02  0.1466555E+00
          2   -1    0    0  502    0  0.00000000000E+00  0.00000000000E+00  0.19433314613E+01  0.19433314613E+01  0.00000000000E+00 0.  1.
          2   -1    0    0  501    0 -0.00000000000E+00 -0.00000000000E+00 -0.19045708349E+04  0.19045708349E+04  0.00000000000E+00 0. -1.
          2    1    1    2  501    0 -0.16999278831E+02  0.18605638816E+02 -0.83695127024E+02  0.87407205447E+02  0.00000000000E+00 0.  1.
          2    1    1    2  502    0  0.16999278831E+02 -0.18605638816E+02 -0.18189323764E+04  0.18191069609E+04  0.00000000000E+00 0. -1.
</event>
<event>
 4    1  0.7940509E+003  0.4474765E+02  0.7546771E-02  0.1322706E+00
          2   -1    0    0  501    0  0.00000000000E+00  0.00000000000E+00  0.71023518836E+03  0.71023518836E+03  0.00000000000E+00 0. -1.
          2   -1    0    0  502    0 -0.00000000000E+00 -0.00000000000E+00 -0.24386330798E+02  0.24386330798E+02  0.00000000000E+00 0.  1.
          2    1    1    2  501    0 -0.61921993551E+01 -0.44317140647E+02 -0.25021844276E+01  0.44817554762E+02  0.00000000000E+00 0.  1.
          2    1    1    2  502    0  0.61921993551E+01  0.44317140647E+02  0.68835104199E+03  0.68980396439E+03  0.00000000000E+00 0. -1.
</event>
<event>
 4    1  0.7940509E+003  0.3757940E+02  0.7546771E-02  0.1363286E+00
          2   -1    0    0  501    0  0.00000000000E+00  0.00000000000E+00  0.20671473505E+03  0.20671473505E+03  0.00000000000E+00 0.  1.
          2   -1    0    0  502    0 -0.00000000000E+00 -0.00000000000E+00 -0.92224488131E+01  0.92224488131E+01  0.00000000000E+00 0. -1.
          2    1    1    2  501    0 -0.37360403936E+02 -0.40511009984E+01  0.15371821426E+03  0.15824506500E+03  0.00000000000E+00 0.  1.
          2    1    1    2  502    0  0.37360403936E+02  0.40511009984E+01  0.43774071978E+02  0.57692118864E+02  0.00000000000E+00 0. -1.
</event>
<event>
 4    1  0.7940509E+003  0.2368471E+02  0.7546771E-02  0.1484075E+00
          2   -1    0    0  502    0  0.00000000000E+00  0.00000000000E+00  0.48440779025E+03  0.48440779025E+03  0.00000000000E+00 0.  1.
          2   -1    0    0  501    0 -0.00000000000E+00 -0.00000000000E+00 -0.19976502466E+01  0.19976502466E+01  0.00000000000E+00 0.  1.
          2    1    1    2  501    0  0.93050300169E+01 -0.21780313815E+02  0.39887412655E+03  0.39957669412E+03  0.00000000000E+00 0.  1.
          2    1    1    2  502    0 -0.93050300169E+01  0.21780313815E+02  0.83536013453E+02  0.86828746376E+02  0.00000000000E+00 0.  1.
</event>
<event>
 4    1  0.7940509E+003  0.2072721E+02  0.7546771E-02  0.1523195E+00
          2   -1    0    0  501    0  0.00000000000E+00  0.00000000000E+00  0.41740196376E+01  0.41740196376E+01  0.00000000000E+00 0. -1.
          2   -1    0    0  502    0 -0.00000000000E+00 -0.00000000000E+00 -0.13294585059E+04  0.13294585059E+04  0.00000000000E+00 0. -1.
          2    1    1    2  501    0 -0.19402721079E+02 -0.72905121080E+01 -0.13031261704E+04  0.13032910010E+04  0.00000000000E+00 0. -1.
          2    1    1    2  502    0  0.19402721079E+02  0.72905121080E+01 -0.22158315807E+02  0.30341524541E+02  0.00000000000E+00 0. -1.
</event>
<event>
 4    1  0.7940509E+003  0.2843568E+02  0.7546771E-02  0.1433696E+00
          2   -1    0    0  502    0  0.00000000000E+00  0.00000000000E+00  0.33809015375E+03  0.33809015375E+03  0.00000000000E+00 0.  1.
          2   -1    0    0  501    0 -0.00000000000E+00 -0.00000000000E+00 -0.24444307084E+03  0.24444307084E+03  0.00000000000E+00 0. -1.
          2    1    1    2  501    0 -0.15725222868E+02  0.23691882823E+02  0.33666177322E+03  0.33786052965E+03  0.00000000000E+00 0.  1.
          2    1    1    2  502    0  0.15725222868E+02 -0.23691882823E+02 -0.24301469030E+03  0.24467269494E+03  0.00000000000E+00 0. -1.
</event>
<event>
 4    1  0.7940509E+003  0.2213820E+02  0.7546771E-02  0.1503613E+00
          2   -1    0    0  501    0  0.00000000000E+00  0.00000000000E+00  0.93597719722E+02  0.93597719722E+02  0.00000000000E+00 0.  1.
          2   -1    0    0  502    0 -0.00000000000E+00 -0.00000000000E+00 -0.63901075417E+01  0.63901075417E+01  0.00000000000E+00 0.  1.
          2    1    1    2  501    0 -0.19134218244E+02  0.11134706716E+02  0.22359562294E+02  0.31465060423E+02  0.00000000000E+00 0.  1.
          2    1    1    2  502    0  0.19134218244E+02 -0.11134706716E+02  0.64848049887E+02  0.68522766841E+02  0.00000000000E+00 0.  1.
</event>
<event>
 4    1  0.7940509E+003  0.4003779E+02  0.7546771E-02  0.1348265E+00
          2   -1    0    0  502    0  0.00000000000E+00  0.00000000000E+00  0.53091827773E+03  0.53091827773E+03  0.00000000000E+00 0.  1.
          2   -1    0    0  501    0 -0.00000000000E+00 -0.00000000000E+00 -0.55630206129E+01  0.55630206129E+01  0.00000000000E+00 0. -1.
          2    1    1    2  501    0 -0.43879604451E+01  0.39796610405E+02  0.44406217733E+03  0.44586347880E+03  0.00000000000E+00 0.  1.
          2    1    1    2  502    0  0.43879604451E+01 -0.39796610405E+02  0.81293079785E+02  0.90617819536E+02  0.00000000000E+00 0. -1.
</event>
<event>
 4    1  0.7940509E+003  0.2354476E+02  0.7546771E-02  0.1485769E+00
          2   -1    0    0  501    0  0.00000000000E+00  0.00000000000E+00  0.78895797127E+02  0.78895797127E+02  0.00000000000E+00 0.  1.
          2   -1    0    0  502    0 -0.00000000000E+00 -0.00000000000E+00 -0.16824653709E+02  0.16824653709E+02  0.00000000000E+00 0. -1.
          2    1    1    2  501    0 -0.11227098598E+02  0.20695605138E+02 -0.54881767176E+01  0.24175936355E+02  0.00000000000E+00 0. -1.
          2    1    1    2  502    0  0.11227098598E+02 -0.20695605138E+02  0.67559320136E+02  0.71544514480E+02  0.00000000000E+00 0.  1.
</event>
<event>
 4    1  0.7940509E+003  0.2004655E+02  0.7546771E-02  0.1533325E+00
          2   -1    0    0  502    0  0.00000000000E+00  0.00000000000E+00  0.60709650001E+03  0.60709650001E+03  0.00000000000E+00 0. -1.
          2   -1    0    0  501    0 -0.00000000000E+00 -0.00000000000E+00 -0.97026072881E+00  0.97026072881E+00  0.00000000000E+00 0.  1.
          2    1    1    2  501    0  0.18081650475E+02 -0.86555137382E+01  0.47444916236E+03  0.47487247937E+03  0.00000000000E+00 0. -1.
          2    1    1    2  502    0 -0.18081650475E+02  0.86555137382E+01  0.13167707692E+03  0.13319428136E+03  0.00000000000E+00 0.  1.
</event>
<event>
 4    1  0.7940509E+003  0.3107381E+02  0.7546771E-02  0.1410489E+00
          2   -1    0    0  502    0  0.00000000000E+00  0.00000000000E+00  0.14327728505E+03  0.14327728505E+03  0.00000000000E+00 0.  1.
          2   -1    0    0  501    0 -0.00000000000E+00 -0.00000000000E+00 -0.12622740440E+03  0.12622740440E+03  0.00000000000E+00 0.  1.
          2    1    1    2  501    0  0.43944148177E+01 -0.30761511966E+02  0.13963074809E+03  0.14304659140E+03  0.00000000000E+00 0.  1.
          2    1    1    2  502    0 -0.43944148177E+01  0.30761511966E+02 -0.12258086743E+03  0.12645809804E+03  0.00000000000E+00 0.  1.
</event>
<event>
 4    1  0.7940509E+003  0.2195357E+02  0.7546771E-02  0.1506074E+00
          2   -1    0    0  501    0  0.00000000000E+00  0.00000000000E+00  0.41254091448E+03  0.41254091448E+03  0.00000000000E+00 0.  1.
          2   -1    0    0  502    0 -0.00000000000E+00 -0.00000000000E+00 -0.95763283489E+02  0.95763283489E+02  0.00000000000E+00 0.  1.
          2    1    1    2  501    0  0.21513493529E+02  0.43736410861E+01 -0.94208254384E+02  0.96732385137E+02  0.00000000000E+00 0.  1.
          2    1    1    2  502    0 -0.21513493529E+02 -0.43736410861E+01  0.41098588537E+03  0.41157181283E+03  0.00000000000E+00 0.  1.
</event>
<event>
 4    1  0.7940509E+003  0.2509662E+02  0.7546771E-02  0.1467725E+00
          2   -1    0    0  501    0  0.00000000000E+00  0.00000000000E+00  0.40738894665E+00  0.40738894665E+00  0.00000000000E+00 0.  1.
          2   -1    0    0  502    0 -0.00000000000E+00 -0.00000000000E+00 -0.18039712491E+04  0.18039712491E+04  0.00000000000E+00 0. -1.
          2    1    1    2  501    0  0.25047086206E+02 -0.15759698412E+01 -0.12429226907E+04  0.12431760355E+04  0.00000000000E+00 0. -1.
          2    1    1    2  502    0 -0.25047086206E+02  0.15759698412E+01 -0.56064116943E+03  0.56120260252E+03  0.00000000000E+00 0.  1.
</event>
<event>
 4    1  0.7940509E+003  0.3172935E+02  0.7546771E-02  0.1405141E+00
          2   -1    0    0  501    0  0.00000000000E+00  0.00000000000E+00  0.57416205829E+02  0.57416205829E+02  0.00000000000E+00 0. -1.
          2   -1    0    0  502    0 -0.00000000000E+00 -0.00000000000E+00 -0.43043171401E+03  0.43043171401E+03  0.00000000000E+00 0.  1.
          2    1    1    2  501    0  0.31504035411E+02  0.37745465349E+01 -0.42541175674E+03  0.42659338276E+03  0.00000000000E+00 0.  1.
          2    1    1    2  502    0 -0.31504035411E+02 -0.37745465349E+01  0.52396248559E+02  0.61254537071E+02  0.00000000000E+00 0. -1.
</event>
<event>
 4    1  0.7940509E+003  0.3222180E+02  0.7546771E-02  0.1401223E+00
          2   -1    0    0  502    0  0.00000000000E+00  0.00000000000E+00  0.22322410142E+04  0.22322410142E+04  0.00000000000E+00 0.  1.
          2   -1    0    0  501    0 -0.00000000000E+00 -0.00000000000E+00 -0.58638032021E+01  0.58638032021E+01  0.00000000000E+00 0. -1.
          2    1    1    2  501    0 -0.30322851918E+02  0.10898126177E+02  0.21869429478E+04  0.21871803084E+04  0.00000000000E+00 0.  1.
          2    1    1    2  502    0  0.30322851918E+02 -0.10898126177E+02  0.39434263155E+02  0.50924508964E+02  0.00000000000E+00 0. -1.
</event>
<event>
 4    1  0.7940509E+003  0.6286628E+02  0.7546771E-02  0.1250393E+00
          2   -1    0    0  501    0  0.00000000000E+00  0.00000000000E+00  0.14448264401E+04  0.14448264401E+04  0.00000000000E+00 0.  1.
          2   -1    0    0  502    0 -0.00000000000E+00 -0.00000000000E+00 -0.21008750503E+02  0.21008750503E+02  0.00000000000E+00 0. -1.
          2    1    1    2  501    0 -0.62132938845E+02  0.95743175651E+01  0.28368427416E+02  0.68970554010E+02  0.00000000000E+00 0. -1.
          2    1    1    2  502    0  0.62132938845E+02 -0.95743175651E+01  0.13954492622E+04  0.13968646366E+04  0.00000000000E+00 0.  1.
</event>
<event>
 4    1  0.7940509E+003  0.2231798E+02  0.7546771E-02  0.1501245E+00
          2   -1    0    0  502    0  0.00000000000E+00  0.00000000000E+00  0.15567766488E+01  0.15567766488E+01  0.00000000000E+00 0.  1.
          2   -1    0    0  501    0 -0.00000000000E+00 -0.00000000000E+00 -0.72585740576E+03  0.72585740576E+03  0.00000000000E+00 0.  1.
          2    1    1    2  501    0 -0.21231350647E+02 -0.68791106091E+01 -0.90169038207E+02  0.92889977200E+02  0.00000000000E+00 0.  1.
          2    1    1    2  502    0  0.21231350647E+02  0.68791106091E+01 -0.63413159090E+03  0.63452420521E+03  0.00000000000E+00 0.  1.
</event>
<event>
 4    1  0.7940509E+003  0.2873636E+02  0.7546771E-02  0.1430905E+00
          2   -1    0    0  501    0  0.00000000000E+00  0.00000000000E+00  0.11250083296E+03  0.11250083296E+03  0.00000000000E+00 0. -1.
          2   -1    0    0  502    0 -0.00000000000E+00 -0.00000000000E+00 -0.84386227250E+02  0.84386227250E+02  0.00000000000E+00 0.  1.
          2    1    1    2  501    0  0.28700091604E+02  0.14432891845E+01 -0.80007364744E+02  0.85011509545E+02  0.00000000000E+00 0.  1.
          2    1    1    2  502    0 -0.28700091604E+02 -0.14432891845E+01  0.10812197045E+03  0.11187555066E+03  0.00000000000E+00 0. -1.
</event>
<event>
 4    1  0.7940509E+003  0.2241982E+02  0.7546771E-02  0.1499915E+00
          2   -1    0    0  502    0  0.00000000000E+00  0.00000000000E+00  0.84720672045E+02  0.84720672045E+02  0.00000000000E+00 0.  1.
          2   -1    0    0  501    0 -0.00000000000E+00 -0.00000000000E+00 -0.29768890857E+02  0.29768890857E+02  0.00000000000E+00 0. -1.
          2    1    1    2  501    0  0.98288737946E+01 -0.20150473854E+02  0.78699503077E+02  0.81830679706E+02  0.00000000000E+00 0.  1.
          2    1    1    2  502    0 -0.98288737946E+01  0.20150473854E+02 -0.23747721889E+02  0.32658883195E+02  0.00000000000E+00 0. -1.
</event>
<event>
 4    1  0.7940509E+003  0.2045073E+02  0.7546771E-02  0.1527253E+00
          2   -1    0    0  501    0  0.00000000000E+00  0.00000000000E+00  0.31135219350E+02  0.31135219350E+02  0.00000000000E+00 0.  1.
          2   -1    0    0  502    0 -0.00000000000E+00 -0.00000000000E+00 -0.20991656956E+02  0.20991656956E+02  0.00000000000E+00 0.  1.
          2    1    1    2  501    0 -0.19240380334E+02 -0.69310952800E+01 -0.10568235024E+02  0.23019989329E+02  0.00000000000E+00 0.  1.
          2    1    1    2  502    0  0.19240380334E+02  0.69310952800E+01  0.20711797418E+02  0.29106886977E+02  0.00000000000E+00 0.  1.
</event>
<event>
 4    1  0.7940509E+003  0.3012661E+02  0.7546771E-02  0.1418499E+00
          2   -1    0    0  501    0  0.00000000000E+00  0.00000000000E+00  0.20609493850E+03  0.20609493850E+03  0.00000000000E+00 0.  1.
          2   -1    0    0  502    0 -0.00000000000E+00 -0.00000000000E+00 -0.62430943042E+02  0.62430943042E+02  0.00000000000E+00 0. -1.
          2    1    1    2  501    0 -0.24420975224E+02 -0.17641666004E+02 -0.57608922835E+02  0.65010771419E+02  0.00000000000E+00 0. -1.
          2    1    1    2  502    0  0.24420975224E+02  0.17641666004E+02  0.20127291830E+03  0.20351511013E+03  0.00000000000E+00 0.  1.
</event>
<event>
 4    1  0.7940509E+003  0.6276442E+02  0.7546771E-02  0.1250719E+00
          2   -1    0    0  501    0  0.00000000000E+00  0.00000000000E+00  0.46501295933E+03  0.46501295933E+03  0.00000000000E+00 0. -1.
          2   -1    0    0  502    0 -0.00000000000E+00 -0.00000000000E+00 -0.10755786598E+03  0.10755786598E+03  0.00000000000E+00 0. -1.
          2    1    1    2  501    0 -0.62749919794E+02 -0.13489718891E+01 -0.96052385158E+02  0.11474072012E+03  0.00000000000E+00 0. -1.
          2    1    1    2  502    0  0.62749919794E+02  0.13489718891E+01  0.45350747851E+03  0.45783010519E+03  0.00000000000E+00 0. -1.
</event>
<event>
 4    1  0.7940509E+003  0.2473208E+02  0.7546771E-02  0.1471823E+00
          2   -1    0    0  502    0  0.00000000000E+00  0.00000000000E+00  0.10142186998E+02  0.10142186998E+02  0.00000000000E+00 0. -1.
          2   -1    0    0  501    0 -0.00000000000E+00 -0.00000000000E+00 -0.37272829874E+03  0.37272829874E+03  0.00000000000E+00 0.  1.
          2    1    1    2  501    0  0.12763122148E+02 -0.21184397555E+02 -0.60285816138E+01  0.25456232695E+02  0.00000000000E+00 0. -1.
          2    1    1    2  502    0 -0.12763122148E+02  0.21184397555E+02 -0.35655753013E+03  0.35741425304E+03  0.00000000000E+00 0.  1.
</event>
<event>
 4    1  0.7940509E+003  0.2726444E+02  0.7546771E-02  0.1444970E+00
          2   -1    0    0  502    0  0.00000000000E+00  0.00000000000E+00  0.51298281749E+03  0.51298281749E+03  0.00000000000E+00 0.  1.
          2   -1    0    0  501    0 -0.00000000000E+00 -0.00000000000E+00 -0.42757938235E+02  0.42757938235E+02  0.00000000000E+00 0.  1.
          2    1    1    2  501    0  0.21680124062E+02  0.16532456658E+02  0.50823369673E+03  0.50896447852E+03  0.00000000000E+00 0.  1.
          2    1    1    2  502    0 -0.21680124062E+02 -0.16532456658E+02 -0.38008817481E+02  0.46776277201E+02  0.00000000000E+00 0.  1.
</event>
<event>
 4    1  0.7940509E+003  0.2364759E+02  0.7546771E-02  0.1484523E+00
          2   -1    0    0  501    0  0.00000000000E+00  0.00000000000E+00  0.20396361086E+03  0.20396361086E+03  0.00000000000E+00 0.  1.
          2   -1    0    0  502    0 -0.00000000000E+00 -0.00000000000E+00 -0.10055145354E+02  0.10055145354E+02  0.00000000000E+00 0. -1.
          2    1    1    2  501    0  0.23492932532E+02 -0.27001448721E+01  0.56925574773E+01  0.24323113944E+02  0.00000000000E+00 0. -1.
          2    1    1    2  502    0 -0.23492932532E+02  0.27001448721E+01  0.18821590803E+03  0.18969564227E+03  0.00000000000E+00 0.  1.
</event>
<event>
 4    1  0.7940509E+003  0.2358484E+02  0.7546771E-02  0.1485282E+00
          2   -1    0    0  501    0  0.00000000000E+00  0.00000000000E+00  0.16337247979E+04  0.16337247979E+04  0.00000000000E+00 0. -1.
          2   -1    0    0  502    0 -0.00000000000E+00 -0.00000000000E+00 -0.14656005024E+01  0.14656005024E+01  0.00000000000E+00 0.  1.
          2    1    1    2  501    0  0.11845325045E+02  0.20394439527E+02  0.99770590774E+02  0.10252031834E+03  0.00000000000E+00 0.  1.
          2    1    1    2  502    0 -0.11845325045E+02 -0.20394439527E+02  0.15324886066E+04  0.15326700801E+04  0.00000000000E+00 0. -1.
</event>
<event>
 4    1  0.7940509E+003  0.3150278E+02  0.7546771E-02  0.1406972E+00
          2   -1    0    0  502    0  0.00000000000E+00  0.00000000000E+00  0.86227915702E+01  0.86227915702E+01  0.00000000000E+00 0. -1.
          2   -1    0    0  501    0 -0.00000000000E+00 -0.00000000000E+00 -0.44368471546E+03  0.44368471546E+03  0.00000000000E+00 0.  1.
          2    1    1    2  501    0  0.10860665445E+01 -0.31484057623E+02 -0.22907729470E+02  0.38951116729E+02  0.00000000000E+00 0. -1.
          2    1    1    2  502    0 -0.10860665445E+01  0.31484057623E+02 -0.41215419442E+03  0.41335639031E+03  0.00000000000E+00 0.  1.
</event>
<event>
 4    1  0.7940509E+003  0.2028809E+02  0.7546771E-02  0.1529676E+00
          2   -1    0    0  501    0  0.00000000000E+00  0.00000000000E+00  0.19331638806E+02  0.19331638806E+02  0.00000000000E+00 0.  1.
          2   -1    0    0  502    0 -0.00000000000E+00 -0.00000000000E+00 -0.10744555647E+03  0.10744555647E+03  0.00000000000E+00 0.  1.
          2    1    1    2  501    0  0.93991844544E+01 -0.17979487685E+02 -0.10081845823E+03  0.10283952628E+03  0.00000000000E+00 0.  1.
          2    1    1    2  502    0 -0.93991844544E+01  0.17979487685E+02  0.12704540568E+02  0.23937668994E+02  0.00000000000E+00 0.  1.
</event>
<event>
 4    1  0.7940509E+003  0.2220660E+02  0.7546771E-02  0.1502709E+00
          2   -1    0    0  501    0  0.00000000000E+00  0.00000000000E+00  0.12163057977E+02  0.12163057977E+02  0.00000000000E+00 0. -1.
          2   -1    0    0  502    0 -0.00000000000E+00 -0.00000000000E+00 -0.42805608287E+02  0.42805608287E+02  0.00000000000E+00 0. -1.
          2    1    1    2  501    0 -0.87786636831E+01 -0.20397743844E+02 -0.90030955644E+01  0.23962233195E+02  0.00000000000E+00 0. -1.
          2    1    1    2  502    0  0.87786636831E+01  0.20397743844E+02 -0.21639454746E+02  0.31006433069E+02  0.00000000000E+00 0. -1.
</event>
<event>
 4    1  0.7940509E+003  0.2047422E+02  0.7546771E-02  0.1526906E+00
          2   -1    0    0  502    0  0.00000000000E+00  0.00000000000E+00  0.31038081746E+01  0.31038081746E+01  0.00000000000E+00 0. -1.
          2   -1    0    0  501    0 -0.00000000000E+00 -0.00000000000E+00 -0.34692853624E+03  0.34692853624E+03  0.00000000000E+00 0. -1.
          2    1    1    2  501    0  0.20372267075E+02  0.20406462108E+01 -0.35141478930E+02  0.40670837760E+02  0.00000000000E+00 0. -1.
          2    1    1    2  502    0 -0.20372267075E+02 -0.20406462108E+01 -0.30868324913E+03  0.30936150665E+03  0.00000000000E+00 0. -1.
</event>
<event>
 4    1  0.9087938E+003  0.2865362E+02  0.7546771E-02  0.1431669E+00
          2   -1    0    0  502    0  0.00000000000E+00  0.00000000000E+00  0.46630881803E+03  0.46630881803E+03  0.00000000000E+00 0.  1.
          2   -1    0    0  501    0 -0.00000000000E+00 -0.00000000000E+00 -0.69335324226E+03  0.69335324226E+03  0.00000000000E+00 0. -1.
          2    1    1    2  501    0 -0.12271030862E+02  0.25893086105E+02  0.46557213895E+03  0.46645304874E+03  0.00000000000E+00 0.  1.
          2    1    1    2  502    0  0.12271030862E+02 -0.25893086105E+02 -0.69261656318E+03  0.69320901156E+03  0.00000000000E+00 0. -1.
</event>
<event>
 4    1  0.7940509E+003  0.3344918E+02  0.7546771E-02  0.1391806E+00
          2   -1    0    0  502    0  0.00000000000E+00  0.00000000000E+00  0.10270117951E+04  0.10270117951E+04  0.00000000000E+00 0. -1.
          2   -1    0    0  501    0 -0.00000000000E+00 -0.00000000000E+00 -0.22366168209E+01  0.22366168209E+01  0.00000000000E+00 0. -1.
          2    1    1    2  501    0  0.10189282486E+02  0.31859476243E+02  0.88095190870E+03  0.88158670200E+03  0.00000000000E+00 0. -1.
          2    1    1    2  502    0 -0.10189282486E+02 -0.31859476243E+02  0.14382326961E+03  0.14766170995E+03  0.00000000000E+00 0. -1.
</event>
<event>
 4    1  0.7940509E+003  0.2966310E+02  0.7546771E-02  0.1422547E+00
          2   -1    0    0  502    0  0.00000000000E+00  0.00000000000E+00  0.26479265691E+03  0.26479265691E+03  0.00000000000E+00 0. -1.
          2   -1    0    0  501    0 -0.00000000000E+00 -0.00000000000E+00 -0.20659197860E+03  0.20659197860E+03  0.00000000000E+00 0.  1.
          2    1    1    2  501    0  0.16188259599E+02  0.24856378876E+02  0.26288944991E+03  0.26455767271E+03  0.00000000000E+00 0. -1.
          2    1    1    2  502    0 -0.16188259599E+02 -0.24856378876E+02 -0.20468877160E+03  0.20682696280E+03  0.00000000000E+00 0.  1.
</event>
<event>
 4    1  0.7940509E+003  0.3096732E+02  0.7546771E-02  0.1411372E+00
          2   -1    0    0  502    0  0.00000000000E+00  0.00000000000E+00  0.16852044491E+03  0.16852044491E+03  0.00000000000E+00 0. -1.
          2   -1    0    0  501    0 -0.00000000000E+00 -0.00000000000E+00 -0.57503743868E+01  0.57503743868E+01  0.00000000000E+00 0.  1.
          2    1    1    2  501    0 -0.43928345936E+01 -0.30654167009E+02  0.90272249452E+02  0.95436125088E+02  0.00000000000E+00 0. -1.
          2    1    1    2  502    0  0.43928345936E+01  0.30654167009E+02  0.72497821068E+02  0.78834694205E+02  0.00000000000E+00 0.  1.
</event>
<event>
 4    1  0.7940509E+003  0.3416109E+02  0.7546771E-02  0.1386559E+00
          2   -1    0    0  502    0  0.00000000000E+00  0.00000000000E+00  0.12258570187E+02  0.12258570187E+02  0.00000000000E+00 0. -1.
          2   -1    0    0  501    0 -0.00000000000E+00 -0.00000000000E+00 -0.20608766683E+04  0.20608766683E+04  0.00000000000E+00 0. -1.
          2    1    1    2  501    0  0.16315978008E+02 -0.30012810102E+02 -0.11965307452E+02  0.36195973408E+02  0.00000000000E+00 0. -1.
          2    1    1    2  502    0 -0.16315978008E+02  0.30012810102E+02 -0.20366527906E+04  0.20369392650E+04  0.00000000000E+00 0. -1.
</event>
<event>
 4    1  0.7940509E+003  0.2007833E+02  0.7546771E-02  0.1532842E+00
          2   -1    0    0  501    0  0.00000000000E+00  0.00000000000E+00  0.15446363086E+03  0.15446363086E+03  0.00000000000E+00 0.  1.
          2   -1    0    0  502    0 -0.00000000000E+00 -0.00000000000E+00 -0.50130037711E+01  0.50130037711E+01  0.00000000000E+00 0.  1.
          2    1    1    2  501    0  0.94435169695E+01 -0.17718902057E+02  0.19517383641E+02  0.28001210099E+02  0.00000000000E+00 0.  1.
          2    1    1    2  502    0 -0.94435169695E+01  0.17718902057E+02  0.12993324345E+03  0.13147542453E+03  0.00000000000E+00 0.  1.
</event>
<event>
 4    1  0.7940509E+003  0.3130776E+02  0.7546771E-02  0.1408562E+00
          2   -1    0    0  501    0  0.00000000000E+00  0.00000000000E+00  0.94277889925E+03  0.94277889925E+03  0.00000000000E+00 0. -1.
          2   -1    0    0  502    0 -0.00000000000E+00 -0.00000000000E+00 -0.11971462899E+01  0.11971462899E+01  0.00000000000E+00 0. -1.
          2    1    1    2  501    0 -0.11321557370E+02 -0.29189003747E+02  0.29960424976E+03  0.30123559231E+03  0.00000000000E+00 0. -1.
          2    1    1    2  502    0  0.11321557370E+02  0.29189003747E+02  0.64197750320E+03  0.64274045323E+03  0.00000000000E+00 0. -1.
</event>
<event>
 4    1  0.7940509E+003  0.2356834E+02  0.7546771E-02  0.1485482E+00
          2   -1    0    0  502    0  0.00000000000E+00  0.00000000000E+00  0.69352086378E+00  0.69352086378E+00  0.00000000000E+00 0.  1.
          2   -1    0    0  501    0 -0.00000000000E+00 -0.00000000000E+00 -0.84409462842E+03  0.84409462842E+03  0.00000000000E+00 0.  1.
          2    1    1    2  501    0  0.11197856313E+02 -0.20738242610E+02 -0.32619034742E+03  0.32704068469E+03  0.00000000000E+00 0.  1.
          2    1    1    2  502    0 -0.11197856313E+02  0.20738242610E+02 -0.51721076014E+03  0.51774746460E+03  0.00000000000E+00 0.  1.
</event>
<event>
 4    1  0.7940509E+003  0.2811555E+02  0.7546771E-02  0.1436713E+00
          2   -1    0    0  502    0  0.00000000000E+00  0.00000000000E+00  0.17107010191E+01  0.17107010191E+01  0.00000000000E+00 0.  1.
          2   -1    0    0  501    0 -0.00000000000E+00 -0.00000000000E+00 -0.93597773702E+03  0.93597773702E+03  0.00000000000E+00 0.  1.
          2    1    1    2  501    0 -0.15304903149E+02  0.23584833423E+02 -0.13352499911E+03  0.13645295825E+03  0.00000000000E+00 0.  1.
          2    1    1    2  502    0  0.15304903149E+02 -0.23584833423E+02 -0.80074203689E+03  0.80123547979E+03  0.00000000000E+00 0.  1.
</event>
<event>
 4    1  0.7940509E+003  0.4379661E+02  0.7546771E-02  0.1327567E+00
          2   -1    0    0  501    0  0.00000000000E+00  0.00000000000E+00  0.16200954009E+04  0.16200954009E+04  0.00000000000E+00 0. -1.
          2   -1    0    0  502    0 -0.00000000000E+00 -0.00000000000E+00 -0.15204720524E+01  0.15204720524E+01  0.00000000000E+00 0. -1.
          2    1    1    2  501    0  0.39866248388E+02  0.18133537856E+02  0.11907247867E+04  0.11915299663E+04  0.00000000000E+00 0. -1.
          2    1    1    2  502    0 -0.39866248388E+02 -0.18133537856E+02  0.42785014216E+03  0.43008590666E+03  0.00000000000E+00 0. -1.
</event>
<event>
 4    1  0.7940509E+003  0.3112564E+02  0.7546771E-02  0.1410060E+00
          2   -1    0    0  502    0  0.00000000000E+00  0.00000000000E+00  0.19790984209E+02  0.19790984209E+02  0.00000000000E+00 0.  1.
          2   -1    0    0  501    0 -0.00000000000E+00 -0.00000000000E+00 -0.90527336561E+03  0.90527336561E+03  0.00000000000E+00 0. -1.
          2    1    1    2  501    0 -0.60224903048E+01  0.30537436538E+02  0.71116876475E+01  0.31927754712E+02  0.00000000000E+00 0.  1.
          2    1    1    2  502    0  0.60224903048E+01 -0.30537436538E+02 -0.89259406905E+03  0.89313659510E+03  0.00000000000E+00 0. -1.
</event>
<event>
 4    1  0.7940509E+003  0.4794546E+02  0.7546771E-02  0.1307335E+00
          2   -1    0    0  502    0  0.00000000000E+00  0.00000000000E+00  0.15501799925E+03  0.15501799925E+03  0.00000000000E+00 0. -1.
          2   -1    0    0  501    0 -0.00000000000E+00 -0.00000000000E+00 -0.14860943244E+04  0.14860943244E+04  0.00000000000E+00 0.  1.
          2    1    1    2  501    0 -0.16619884158E+02 -0.44972731882E+02  0.15091376370E+03  0.15834686999E+03  0.00000000000E+00 0. -1.
          2    1    1    2  502    0  0.16619884158E+02  0.44972731882E+02 -0.14819900888E+04  0.14827654536E+04  0.00000000000E+00 0.  1.
</event>
<event>
 4    1  0.7940509E+003  0.2036371E+02  0.7546771E-02  0.1528546E+00
          2   -1    0    0  502    0  0.00000000000E+00  0.00000000000E+00  0.45935645551E+03  0.45935645551E+03  0.00000000000E+00 0. -1.
          2   -1    0    0  501    0 -0.00000000000E+00 -0.00000000000E+00 -0.13143240095E+01  0.13143240095E+01  0.00000000000E+00 0.  1.
          2    1    1    2  501    0  0.18067544690E+02 -0.93938463975E+01  0.35791647860E+03  0.35849530844E+03  0.00000000000E+00 0. -1.
          2    1    1    2  502    0 -0.18067544690E+02  0.93938463975E+01  0.10012565290E+03  0.10217547108E+03  0.00000000000E+00 0.  1.
</event>
<event>
 4    1  0.7940509E+003  0.3085112E+02  0.7546771E-02  0.1412341E+00
          2   -1    0    0  502    0  0.00000000000E+00  0.00000000000E+00  0.17676247815E+03  0.17676247815E+03  0.00000000000E+00 0.  1.
          2   -1    0    0  501    0 -0.00000000000E+00 -0.00000000000E+00 -0.59240211139E+01  0.59240211139E+01  0.00000000000E+00 0.  1.
          2    1    1    2  501    0  0.11874550900E+02  0.28474318145E+02  0.11298309077E+03  0.11711947128E+03  0.00000000000E+00 0.  1.
          2    1    1    2  502    0 -0.11874550900E+02 -0.28474318145E+02  0.57855366266E+02  0.65567027984E+02  0.00000000000E+00 0.  1.
</event>
<event>
 4    1  0.7940509E+003  0.2314072E+02  0.7546771E-02  0.1490739E+00
          2   -1    0    0  501    0  0.00000000000E+00  0.00000000000E+00  0.78540809456E+00  0.78540809456E+00  0.00000000000E+00 0. -1.
          2   -1    0    0  502    0 -0.00000000000E+00 -0.00000000000E+00 -0.13318413155E+04  0.13318413155E+04  0.00000000000E+00 0. -1.
          2    1    1    2  501    0 -0.23121972126E+02  0.93131587736E+00 -0.11310304730E+04  0.11312671762E+04  0.00000000000E+00 0. -1.
          2    1    1    2  502    0  0.23121972126E+02 -0.93131587736E+00 -0.20002543438E+03  0.20135954743E+03  0.00000000000E+00 0. -1.
</event>
<event>
 4    1  0.7940509E+003  0.2005522E+02  0.7546771E-02  0.1533193E+00
          2   -1    0    0  502    0  0.00000000000E+00  0.00000000000E+00  0.54379883285E+03  0.54379883285E+03  0.00000000000E+00 0.  1.
          2   -1    0    0  501    0 -0.00000000000E+00 -0.00000000000E+00 -0.14800506405E+02  0.14800506405E+02  0.00000000000E+00 0. -1.
          2    1    1    2  501    0  0.12917069772E+02 -0.15341479481E+02  0.53673060296E+03  0.53710515901E+03  0.00000000000E+00 0.  1.
          2    1    1    2  502    0 -0.12917069772E+02  0.15341479481E+02 -0.77322765154E+01  0.21494180242E+02  0.00000000000E+00 0. -1.
</event>
<event>
 4    1  0.7940509E+003  0.5462733E+02  0.7546771E-02  0.1279267E+00
          2   -1    0    0  501    0  0.00000000000E+00  0.00000000000E+00  0.58813571738E+03  0.58813571738E+03  0.00000000000E+00 0.  1.
          2   -1    0    0  502    0 -0.00000000000E+00 -0.00000000000E+00 -0.10039975782E+02  0.10039975782E+02  0.00000000000E+00 0. -1.
          2    1    1    2  501    0 -0.47224830165E+02  0.27458344781E+02  0.78699648112E+02  0.95800730139E+02  0.00000000000E+00 0. -1.
          2    1    1    2  502    0  0.47224830165E+02 -0.27458344781E+02  0.49939609348E+03  0.50237496302E+03  0.00000000000E+00 0.  1.
</event>
<event>
 4    1  0.7940509E+003  0.1372479E+03  0.7546771E-02  0.1111457E+00
          2   -1    0    0  502    0  0.00000000000E+00  0.00000000000E+00  0.28624060794E+03  0.28624060794E+03  0.00000000000E+00 0. -1.
          2   -1    0    0  501    0 -0.00000000000E+00 -0.00000000000E+00 -0.14745232250E+03  0.14745232250E+03  0.00000000000E+00 0.  1.
          2    1    1    2  501    0  0.12271081142E+03 -0.61473842490E+02  0.23075159412E+03  0.26848328577E+03  0.00000000000E+00 0. -1.
          2    1    1    2  502    0 -0.12271081142E+03  0.61473842490E+02 -0.91963308683E+02  0.16520964467E+03  0.00000000000E+00 0.  1.
</event>
<event>
 4    1  0.1426257E+004  0.2964040E+02  0.7546771E-02  0.1422747E+00
          2   -1    0    0  501    0  0.00000000000E+00  0.00000000000E+00  0.21844428090E+04  0.21844428090E+04  0.00000000000E+00 0. -1.
          2   -1    0    0  502    0 -0.00000000000E+00 -0.00000000000E+00 -0.21696328525E+04  0.21696328525E+04  0.00000000000E+00 0.  1.
          2    1    1    2  501    0  0.34141684726E+01 -0.29443108199E+02 -0.21694310636E+04  0.21696335389E+04  0.00000000000E+00 0.  1.
          2    1    1    2  502    0 -0.34141684726E+01  0.29443108199E+02  0.21842410201E+04  0.21844421226E+04  0.00000000000E+00 0. -1.
</event>
<event>
 4    1  0.7940509E+003  0.2027570E+02  0.7546771E-02  0.1529862E+00
          2   -1    0    0  501    0  0.00000000000E+00  0.00000000000E+00  0.28192299036E+03  0.28192299036E+03  0.00000000000E+00 0. -1.
          2   -1    0    0  502    0 -0.00000000000E+00 -0.00000000000E+00 -0.22215817753E+01  0.22215817753E+01  0.00000000000E+00 0.  1.
          2    1    1    2  501    0  0.19973473485E+02  0.34877584561E+01  0.56569868133E+02  0.60093710841E+02  0.00000000000E+00 0.  1.
          2    1    1    2  502    0 -0.19973473485E+02 -0.34877584561E+01  0.22313154045E+03  0.22405086130E+03  0.00000000000E+00 0. -1.
</event>
<event>
 4    1  0.7940509E+003  0.2058449E+02  0.7546771E-02  0.1525281E+00
          2   -1    0    0  502    0  0.00000000000E+00  0.00000000000E+00  0.11380941838E+04  0.11380941838E+04  0.00000000000E+00 0.  1.
          2   -1    0    0  501    0 -0.00000000000E+00 -0.00000000000E+00 -0.37276816409E+00  0.37276816409E+00  0.00000000000E+00 0.  1.
          2    1    1    2  501    0  0.11946860682E+02 -0.16762863217E+02  0.54885116849E+03  0.54923704010E+03  0.00000000000E+00 0.  1.
          2    1    1    2  502    0 -0.11946860682E+02  0.16762863217E+02  0.58887024716E+03  0.58922991188E+03  0.00000000000E+00 0.  1.
</event>
<event>
 4    1  0.7940509E+003  0.4367282E+02  0.7546771E-02  0.1328211E+00
          2   -1    0    0  502    0  0.00000000000E+00  0.00000000000E+00  0.48097474735E+03  0.48097474735E+03  0.00000000000E+00 0. -1.
          2   -1    0    0  501    0 -0.00000000000E+00 -0.00000000000E+00 -0.39286809731E+02  0.39286809731E+02  0.00000000000E+00 0. -1.
          2    1    1    2  501    0  0.41934807360E+02 -0.12197836259E+02  0.46749709923E+03  0.46953259000E+03  0.00000000000E+00 0. -1.
          2    1    1    2  502    0 -0.41934807360E+02  0.12197836259E+02 -0.25809161617E+02  0.50728967081E+02  0.00000000000E+00 0. -1.
</event>
<event>
 4    1  0.7940509E+003  0.4277104E+02  0.7546771E-02  0.1332970E+00
          2   -1    0    0  502    0  0.00000000000E+00  0.00000000000E+00  0.42277700070E+03  0.42277700070E+03  0.00000000000E+00 0.  1.
          2   -1    0    0  501    0 -0.00000000000E+00 -0.00000000000E+00 -0.64781474729E+02  0.64781474729E+02  0.00000000000E+00 0. -1.
          2    1    1    2  501    0  0.25862567455E+01  0.42692778109E+02  0.41449481505E+03  0.41669570880E+03  0.00000000000E+00 0.  1.
          2    1    1    2  502    0 -0.25862567455E+01 -0.42692778109E+02 -0.56499289085E+02  0.70862766625E+02  0.00000000000E+00 0. -1.
</event>
<event>
 4    1  0.7940509E+003  0.2087077E+02  0.7546771E-02  0.1521118E+00
          2   -1    0    0  502    0  0.00000000000E+00  0.00000000000E+00  0.20981014220E+03  0.20981014220E+03  0.00000000000E+00 0. -1.
          2   -1    0    0  501    0 -0.00000000000E+00 -0.00000000000E+00 -0.12853934439E+03  0.12853934439E+03  0.00000000000E+00 0. -1.
          2    1    1    2  501    0 -0.20405491167E+02 -0.43823605961E+01  0.20843836247E+03  0.20948064375E+03  0.00000000000E+00 0. -1.
          2    1    1    2  502    0  0.20405491167E+02  0.43823605961E+01 -0.12716756466E+03  0.12886884284E+03  0.00000000000E+00 0. -1.
</event>
<event>
 4    1  0.7940509E+003  0.3683757E+02  0.7546771E-02  0.1368085E+00
          2   -1    0    0  501    0  0.00000000000E+00  0.00000000000E+00  0.26123925825E+02  0.26123925825E+02  0.00000000000E+00 0. -1.
          2   -1    0    0  502    0 -0.00000000000E+00 -0.00000000000E+00 -0.13756758798E+04  0.13756758798E+04  0.00000000000E+00 0.  1.
          2    1    1    2  501    0  0.29050180725E+02  0.22651569618E+02 -0.13623156971E+04  0.13628136575E+04  0.00000000000E+00 0.  1.
          2    1    1    2  502    0 -0.29050180725E+02 -0.22651569618E+02  0.12763743104E+02  0.38986148109E+02  0.00000000000E+00 0. -1.
</event>
<event>
 4    1  0.7940509E+003  0.4143193E+02  0.7546771E-02  0.1340293E+00
          2   -1    0    0  501    0  0.00000000000E+00  0.00000000000E+00  0.12527605860E+02  0.12527605860E+02  0.00000000000E+00 0.  1.
          2   -1    0    0  502    0 -0.00000000000E+00 -0.00000000000E+00 -0.23822232837E+03  0.23822232837E+03  0.00000000000E+00 0. -1.
          2    1    1    2  501    0 -0.10005164780E+02 -0.40205743929E+02 -0.19456247974E+03  0.19892502027E+03  0.00000000000E+00 0. -1.
          2    1    1    2  502    0  0.10005164780E+02  0.40205743929E+02 -0.31132242774E+02  0.51824913963E+02  0.00000000000E+00 0.  1.
</event>
<event>
 4    1  0.7940509E+003  0.3022589E+02  0.7546771E-02  0.1417643E+00
          2   -1    0    0  502    0  0.00000000000E+00  0.00000000000E+00  0.53709860472E+02  0.53709860472E+02  0.00000000000E+00 0. -1.
          2   -1    0    0  501    0 -0.00000000000E+00 -0.00000000000E+00 -0.31818456294E+03  0.31818456294E+03  0.00000000000E+00 0.  1.
          2    1    1    2  501    0 -0.29176398023E+02  0.78957018109E+01  0.48671271641E+02  0.57293079790E+02  0.00000000000E+00 0. -1.
          2    1    1    2  502    0  0.29176398023E+02 -0.78957018109E+01 -0.31314597411E+03  0.31460134362E+03  0.00000000000E+00 0.  1.
</event>
<event>
 4    1  0.7940509E+003  0.2045564E+02  0.7546771E-02  0.1527181E+00
          2   -1    0    0  501    0  0.00000000000E+00  0.00000000000E+00  0.16242050791E+03  0.16242050791E+03  0.00000000000E+00 0. -1.
          2   -1    0    0  502    0 -0.00000000000E+00 -0.00000000000E+00 -0.47286381649E+01  0.47286381649E+01  0.00000000000E+00 0. -1.
          2    1    1    2  501    0 -0.88854488664E+01 -0.18425033543E+02  0.22460342961E+02  0.30379270376E+02  0.00000000000E+00 0. -1.
          2    1    1    2  502    0  0.88854488664E+01  0.18425033543E+02  0.13523152679E+03  0.13676987570E+03  0.00000000000E+00 0. -1.
</event>
<event>
 4    1  0.7940509E+003  0.4389734E+02  0.7546771E-02  0.1327046E+00
          2   -1    0    0  502    0  0.00000000000E+00  0.00000000000E+00  0.30232298659E+03  0.30232298659E+03  0.00000000000E+00 0. -1.
          2   -1    0    0  501    0 -0.00000000000E+00 -0.00000000000E+00 -0.16515945706E+04  0.16515945706E+04  0.00000000000E+00 0.  1.
          2    1    1    2  501    0 -0.25927539772E+02  0.35422300885E+02  0.30043600478E+03  0.30362603591E+03  0.00000000000E+00 0. -1.
          2    1    1    2  502    0  0.25927539772E+02 -0.35422300885E+02 -0.16497075888E+04  0.16502915213E+04  0.00000000000E+00 0.  1.
</event>
<event>
 4    1  0.7940509E+003  0.2019417E+02  0.7546771E-02  0.1531088E+00
          2   -1    0    0  502    0  0.00000000000E+00  0.00000000000E+00  0.10791350118E+02  0.10791350118E+02  0.00000000000E+00 0.  1.
          2   -1    0    0  501    0 -0.00000000000E+00 -0.00000000000E+00 -0.60853186291E+03  0.60853186291E+03  0.00000000000E+00 0.  1.
          2    1    1    2  501    0 -0.11432300184E+02  0.16646526159E+02  0.10222359329E+01  0.20220021933E+02  0.00000000000E+00 0.  1.
          2    1    1    2  502    0  0.11432300184E+02 -0.16646526159E+02 -0.59876274873E+03  0.59910319110E+03  0.00000000000E+00 0.  1.
</event>
<event>
 4    1  0.7940509E+003  0.2100987E+02  0.7546771E-02  0.1519124E+00
          2   -1    0    0  501    0  0.00000000000E+00  0.00000000000E+00  0.23364089364E+01  0.23364089364E+01  0.00000000000E+00 0.  1.
          2   -1    0    0  502    0 -0.00000000000E+00 -0.00000000000E+00 -0.30364351596E+03  0.30364351596E+03  0.00000000000E+00 0.  1.
          2    1    1    2  501    0 -0.13405472868E+02 -0.16177383942E+02 -0.24468884829E+03  0.24558918325E+03  0.00000000000E+00 0.  1.
          2    1    1    2  502    0  0.13405472868E+02  0.16177383942E+02 -0.56618258731E+02  0.60390741640E+02  0.00000000000E+00 0.  1.
</event>
<event>
 4    1  0.7940509E+003  0.3008424E+02  0.7546771E-02  0.1418866E+00
          2   -1    0    0  502    0  0.00000000000E+00  0.00000000000E+00  0.13697009250E+04  0.13697009250E+04  0.00000000000E+00 0.  1.
          2   -1    0    0  501    0 -0.00000000000E+00 -0.00000000000E+00 -0.41524091175E+01  0.41524091175E+01  0.00000000000E+00 0. -1.
          2    1    1    2  501    0 -0.15584672393E+02 -0.25732851022E+02  0.13126788665E+04  0.13130235597E+04  0.00000000000E+00 0.  1.
          2    1    1    2  502    0  0.15584672393E+02  0.25732851022E+02  0.52869649328E+02  0.60829774415E+02  0.00000000000E+00 0. -1.
</event>
<event>
 4    1  0.7940509E+003  0.2381905E+02  0.7546771E-02  0.1482462E+00
          2   -1    0    0  502    0  0.00000000000E+00  0.00000000000E+00  0.80893871760E+03  0.80893871760E+03  0.00000000000E+00 0.  1.
          2   -1    0    0  501    0 -0.00000000000E+00 -0.00000000000E+00 -0.50107905839E+01  0.50107905839E+01  0.00000000000E+00 0. -1.
          2    1    1    2  501    0  0.12760522043E+02  0.20112585414E+02  0.77938397712E+03  0.77974786361E+03  0.00000000000E+00 0.  1.
          2    1    1    2  502    0 -0.12760522043E+02 -0.20112585414E+02  0.24543949889E+02  0.34201644566E+02  0.00000000000E+00 0. -1.
</event>
<event>
 4    1  0.7940509E+003  0.2253979E+02  0.7546771E-02  0.1498359E+00
          2   -1    0    0  502    0  0.00000000000E+00  0.00000000000E+00  0.73500849580E+01  0.73500849580E+01  0.00000000000E+00 0. -1.
          2   -1    0    0  501    0 -0.00000000000E+00 -0.00000000000E+00 -0.84967271339E+02  0.84967271339E+02  0.00000000000E+00 0. -1.
          2    1    1    2  501    0  0.18788237571E+02 -0.12451669258E+02 -0.18874467405E+02  0.29398766269E+02  0.00000000000E+00 0. -1.
          2    1    1    2  502    0 -0.18788237571E+02  0.12451669258E+02 -0.58742718976E+02  0.62918590028E+02  0.00000000000E+00 0. -1.
</event>
<event>
 4    1  0.7940509E+003  0.2017313E+02  0.7546771E-02  0.1531405E+00
          2   -1    0    0  502    0  0.00000000000E+00  0.00000000000E+00  0.31567155299E+03  0.31567155299E+03  0.00000000000E+00 0.  1.
          2   -1    0    0  501    0 -0.00000000000E+00 -0.00000000000E+00 -0.32878534449E+01  0.32878534449E+01  0.00000000000E+00 0.  1.
          2    1    1    2  501    0 -0.19619047907E+02 -0.46955324580E+01  0.28053473375E+03  0.28125911880E+03  0.00000000000E+00 0.  1.
          2    1    1    2  502    0  0.19619047907E+02  0.46955324580E+01  0.31848965795E+02  0.37700287638E+02  0.00000000000E+00 0.  1.
</event>
<event>
 4    1  0.7940509E+003  0.3564744E+02  0.7546771E-02  0.1376068E+00
          2   -1    0    0  501    0  0.00000000000E+00  0.00000000000E+00  0.21359531896E+03  0.21359531896E+03  0.00000000000E+00 0.  1.
          2   -1    0    0  502    0 -0.00000000000E+00 -0.00000000000E+00 -0.64772992062E+01  0.64772992062E+01  0.00000000000E+00 0. -1.
          2    1    1    2  501    0 -0.35292694685E+02  0.50165493144E+01  0.72142306592E+02  0.80468953426E+02  0.00000000000E+00 0. -1.
          2    1    1    2  502    0  0.35292694685E+02 -0.50165493144E+01  0.13497571316E+03  0.13960366474E+03  0.00000000000E+00 0.  1.
</event>
<event>
 4    1  0.7940509E+003  0.2772127E+02  0.7546771E-02  0.1440494E+00
          2   -1    0    0  501    0  0.00000000000E+00  0.00000000000E+00  0.19325235575E+04  0.19325235575E+04  0.00000000000E+00 0.  1.
          2   -1    0    0  502    0 -0.00000000000E+00 -0.00000000000E+00 -0.68038378548E+02  0.68038378548E+02  0.00000000000E+00 0.  1.
          2    1    1    2  501    0 -0.88652645916E+01 -0.26265487163E+02 -0.65111023406E+02  0.70766617138E+02  0.00000000000E+00 0.  1.
          2    1    1    2  502    0  0.88652645916E+01  0.26265487163E+02  0.19295962023E+04  0.19297953189E+04  0.00000000000E+00 0.  1.
</event>
<event>
 4    1  0.7940509E+003  0.2318375E+02  0.7546771E-02  0.1490204E+00
          2   -1    0    0  501    0  0.00000000000E+00  0.00000000000E+00  0.46886313953E+03  0.46886313953E+03  0.00000000000E+00 0.  1.
          2   -1    0    0  502    0 -0.00000000000E+00 -0.00000000000E+00 -0.32906598416E+01  0.32906598416E+01  0.00000000000E+00 0.  1.
          2    1    1    2  501    0 -0.22272962036E+02  0.64343961725E+01  0.42216175728E+02  0.48163178727E+02  0.00000000000E+00 0.  1.
          2    1    1    2  502    0  0.22272962036E+02 -0.64343961725E+01  0.42335630396E+03  0.42399062065E+03  0.00000000000E+00 0.  1.
</event>
<event>
 4    1  0.7940509E+003  0.2108177E+02  0.7546771E-02  0.1518100E+00
          2   -1    0    0  502    0  0.00000000000E+00  0.00000000000E+00  0.49416839598E+01  0.49416839598E+01  0.00000000000E+00 0.  1.
          2   -1    0    0  501    0 -0.00000000000E+00 -0.00000000000E+00 -0.94478904915E+03  0.94478904915E+03  0.00000000000E+00 0. -1.
          2    1    1    2  501    0 -0.20736375406E+02 -0.38005106753E+01 -0.18225334515E+02  0.27867614978E+02  0.00000000000E+00 0.  1.
          2    1    1    2  502    0  0.20736375406E+02  0.38005106753E+01 -0.92162203068E+03  0.92186311813E+03  0.00000000000E+00 0. -1.
</event>
<event>
 4    1  0.7940509E+003  0.2021459E+02  0.7546771E-02  0.1530780E+00
          2   -1    0    0  502    0  0.00000000000E+00  0.00000000000E+00  0.19411040024E+02  0.19411040024E+02  0.00000000000E+00 0. -1.
          2   -1    0    0  501    0 -0.00000000000E+00 -0.00000000000E+00 -0.17417295628E+03  0.17417295628E+03  0.00000000000E+00 0.  1.
          2    1    1    2  501    0  0.15019489678E+02 -0.13529391812E+02  0.13373353090E+02  0.24237905971E+02  0.00000000000E+00 0. -1.
          2    1    1    2  502    0 -0.15019489678E+02  0.13529391812E+02 -0.16813526934E+03  0.16934609033E+03  0.00000000000E+00 0.  1.
</event>
<event>
 4    1  0.7940509E+003  0.2540850E+02  0.7546771E-02  0.1464285E+00
          2   -1    0    0  501    0  0.00000000000E+00  0.00000000000E+00  0.98528695751E+01  0.98528695751E+01  0.00000000000E+00 0. -1.
          2   -1    0    0  502    0 -0.00000000000E+00 -0.00000000000E+00 -0.67833744387E+02  0.67833744387E+02  0.00000000000E+00 0. -1.
          2    1    1    2  501    0  0.19181412925E+02 -0.16663292744E+02 -0.36159243032E+02  0.44193696197E+02  0.00000000000E+00 0. -1.
          2    1    1    2  502    0 -0.19181412925E+02  0.16663292744E+02 -0.21821631780E+02  0.33492917765E+02  0.00000000000E+00 0. -1.
</event>
<event>
 4    1  0.7940509E+003  0.2021424E+02  0.7546771E-02  0.1530785E+00
          2   -1    0    0  501    0  0.00000000000E+00  0.00000000000E+00  0.19110438012E+03  0.19110438012E+03  0.00000000000E+00 0.  1.
          2   -1    0    0  502    0 -0.00000000000E+00 -0.00000000000E+00 -0.22548455678E+02  0.22548455678E+02  0.00000000000E+00 0.  1.
          2    1    1    2  501    0  0.18257324787E+02 -0.86767365164E+01 -0.17357366036E+02  0.26643832695E+02  0.00000000000E+00 0.  1.
          2    1    1    2  502    0 -0.18257324787E+02  0.86767365164E+01  0.18591329048E+03  0.18700900310E+03  0.00000000000E+00 0.  1.
</event>
<event>
 4    1  0.7940509E+003  0.2947433E+02  0.7546771E-02  0.1424220E+00
          2   -1    0    0  502    0  0.00000000000E+00  0.00000000000E+00  0.54730554541E+02  0.54730554541E+02  0.00000000000E+00 0. -1.
          2   -1    0    0  501    0 -0.00000000000E+00 -0.00000000000E+00 -0.62919205222E+02  0.62919205222E+02  0.00000000000E+00 0. -1.
          2    1    1    2  501    0 -0.24853059241E+02  0.15844927184E+02  0.46772178408E+02  0.55284472903E+02  0.00000000000E+00 0. -1.
          2    1    1    2  502    0  0.24853059241E+02 -0.15844927184E+02 -0.54960829089E+02  0.62365286861E+02  0.00000000000E+00 0. -1.
</event>
<event>
 4    1  0.7940509E+003  0.2350555E+02  0.7546771E-02  0.1486246E+00
          2   -1    0    0  501    0  0.00000000000E+00  0.00000000000E+00  0.83043965696E+03  0.83043965696E+03  0.00000000000E+00 0.  1.
          2   -1    0    0  502    0 -0.00000000000E+00 -0.00000000000E+00 -0.17561906047E+01  0.17561906047E+01  0.00000000000E+00 0. -1.
          2    1    1    2  501    0 -0.23248626201E+02 -0.34658399242E+01  0.86400722013E+02  0.89541026524E+02  0.00000000000E+00 0. -1.
          2    1    1    2  502    0  0.23248626201E+02  0.34658399242E+01  0.74228274434E+03  0.74265482104E+03  0.00000000000E+00 0.  1.
</event>
<event>
 4    1  0.7940509E+003  0.2555123E+02  0.7546771E-02  0.1462730E+00
          2   -1    0    0  501    0  0.00000000000E+00  0.00000000000E+00  0.11149390990E+04  0.11149390990E+04  0.00000000000E+00 0.  1.
          2   -1    0    0  502    0 -0.00000000000E+00 -0.00000000000E+00 -0.80634341767E+02  0.80634341767E+02  0.00000000000E+00 0.  1.
          2    1    1    2  501    0  0.18991333615E+02 -0.17093699164E+02 -0.78459842449E+02  0.82515526906E+02  0.00000000000E+00 0.  1.
          2    1    1    2  502    0 -0.18991333615E+02  0.17093699164E+02  0.11127645996E+04  0.11130579138E+04  0.00000000000E+00 0.  1.
</event>
<event>
 4    1  0.7940509E+003  0.2733887E+02  0.7546771E-02  0.1444233E+00
          2   -1    0    0  502    0  0.00000000000E+00  0.00000000000E+00  0.45168048912E+03  0.45168048912E+03  0.00000000000E+00 0. -1.
          2   -1    0    0  501    0 -0.00000000000E+00 -0.00000000000E+00 -0.36764386699E+03  0.36764386699E+03  0.00000000000E+00 0. -1.
          2    1    1    2  501    0 -0.27074852272E+02 -0.37903028115E+01  0.45075751831E+03  0.45158582167E+03  0.00000000000E+00 0. -1.
          2    1    1    2  502    0  0.27074852272E+02  0.37903028115E+01 -0.36672089618E+03  0.36773853444E+03  0.00000000000E+00 0. -1.
</event>
<event>
 4    1  0.7940509E+003  0.2113294E+02  0.7546771E-02  0.1517375E+00
          2   -1    0    0  502    0  0.00000000000E+00  0.00000000000E+00  0.36881106429E+01  0.36881106429E+01  0.00000000000E+00 0. -1.
          2   -1    0    0  501    0 -0.00000000000E+00 -0.00000000000E+00 -0.10439569068E+04  0.10439569068E+04  0.00000000000E+00 0.  1.
          2    1    1    2  501    0  0.14452643005E+02 -0.15418246255E+02 -0.27627969871E+02  0.34783702026E+02  0.00000000000E+00 0. -1.
          2    1    1    2  502    0 -0.14452643005E+02  0.15418246255E+02 -0.10126408263E+04  0.10128613154E+04  0.00000000000E+00 0.  1.
</event>
<event>
 4    1  0.7940509E+003  0.2590684E+02  0.7546771E-02  0.1458909E+00
          2   -1    0    0  501    0  0.00000000000E+00  0.00000000000E+00  0.45189972973E+01  0.45189972973E+01  0.00000000000E+00 0.  1.
          2   -1    0    0  502    0 -0.00000000000E+00 -0.00000000000E+00 -0.11905916142E+04  0.11905916142E+04  0.00000000000E+00 0. -1.
          2    1    1    2  501    0  0.25096358995E+02 -0.64293916084E+01 -0.11520794831E+04  0.11523707302E+04  0.00000000000E+00 0. -1.
          2    1    1    2  502    0 -0.25096358995E+02  0.64293916084E+01 -0.33993133738E+02  0.42739881289E+02  0.00000000000E+00 0.  1.
</event>
<event>
 4    1  0.7940509E+003  0.2182715E+02  0.7546771E-02  0.1507775E+00
          2   -1    0    0  501    0  0.00000000000E+00  0.00000000000E+00  0.23011920093E+03  0.23011920093E+03  0.00000000000E+00 0. -1.
          2   -1    0    0  502    0 -0.00000000000E+00 -0.00000000000E+00 -0.24192701271E+01  0.24192701271E+01  0.00000000000E+00 0. -1.
          2    1    1    2  501    0  0.18932802253E+02 -0.10861557638E+02  0.69693595799E+02  0.73031648830E+02  0.00000000000E+00 0. -1.
          2    1    1    2  502    0 -0.18932802253E+02  0.10861557638E+02  0.15800633500E+03  0.15950682222E+03  0.00000000000E+00 0. -1.
</event>
<event>
 4    1  0.7940509E+003  0.2459116E+02  0.7546771E-02  0.1473429E+00
          2   -1    0    0  502    0  0.00000000000E+00  0.00000000000E+00  0.92681109278E+02  0.92681109278E+02  0.00000000000E+00 0. -1.
          2   -1    0    0  501    0 -0.00000000000E+00 -0.00000000000E+00 -0.21534011216E+02  0.21534011216E+02  0.00000000000E+00 0.  1.
          2    1    1    2  501    0 -0.24246254338E+02 -0.41041516187E+01  0.83250689229E+02  0.86806694252E+02  0.00000000000E+00 0. -1.
          2    1    1    2  502    0  0.24246254338E+02  0.41041516187E+01 -0.12103591168E+02  0.27408426242E+02  0.00000000000E+00 0.  1.
</event>
<event>
 4    1  0.7940509E+003  0.2361569E+02  0.7546771E-02  0.1484908E+00
          2   -1    0    0  501    0  0.00000000000E+00  0.00000000000E+00  0.20931833484E+03  0.20931833484E+03  0.00000000000E+00 0.  1.
          2   -1    0    0  502    0 -0.00000000000E+00 -0.00000000000E+00 -0.28544952287E+01  0.28544952287E+01  0.00000000000E+00 0. -1.
          2    1    1    2  501    0  0.23166050115E+02  0.45863762272E+01  0.75852819516E+02  0.79444011438E+02  0.00000000000E+00 0.  1.
          2    1    1    2  502    0 -0.23166050115E+02 -0.45863762272E+01  0.13061102010E+03  0.13272881863E+03  0.00000000000E+00 0. -1.
</event>
<event>
 4    1  0.7940509E+003  0.2221253E+02  0.7546771E-02  0.1502630E+00
          2   -1    0    0  501    0  0.00000000000E+00  0.00000000000E+00  0.12055042067E+03  0.12055042067E+03  0.00000000000E+00 0. -1.
          2   -1    0    0  502    0 -0.00000000000E+00 -0.00000000000E+00 -0.14101501379E+03  0.14101501379E+03  0.00000000000E+00 0. -1.
          2    1    1    2  501    0  0.13815939195E+02 -0.17392991920E+02 -0.13910309985E+03  0.14086542774E+03  0.00000000000E+00 0. -1.
          2    1    1    2  502    0 -0.13815939195E+02  0.17392991920E+02  0.11863850673E+03  0.12070000672E+03  0.00000000000E+00 0. -1.
</event>
<event>
 4    1  0.7940509E+003  0.2830697E+02  0.7546771E-02  0.1434903E+00
          2   -1    0    0  501    0  0.00000000000E+00  0.00000000000E+00  0.20430981052E+03  0.20430981052E+03  0.00000000000E+00 0.  1.
          2   -1    0    0  502    0 -0.00000000000E+00 -0.00000000000E+00 -0.16888258331E+04  0.16888258331E+04  0.00000000000E+00 0.  1.
          2    1    1    2  501    0 -0.26375584399E+02 -0.10276821591E+02 -0.16877261014E+04  0.16879634705E+04  0.00000000000E+00 0.  1.
          2    1    1    2  502    0  0.26375584399E+02  0.10276821591E+02  0.20321007877E+03  0.20517217313E+03  0.00000000000E+00 0.  1.
</event>
<event>
 4    1  0.7940509E+003  0.2086306E+02  0.7546771E-02  0.1521229E+00
          2   -1    0    0  502    0  0.00000000000E+00  0.00000000000E+00  0.19524629469E+03  0.19524629469E+03  0.00000000000E+00 0. -1.
          2   -1    0    0  501    0 -0.00000000000E+00 -0.00000000000E+00 -0.23158191304E+01  0.23158191304E+01  0.00000000000E+00 0. -1.
          2    1    1    2  501    0  0.18454818171E+02 -0.97307159221E+01  0.11555579143E+03  0.11742405239E+03  0.00000000000E+00 0. -1.
          2    1    1    2  502    0 -0.18454818171E+02  0.97307159221E+01  0.77374684126E+02  0.80138061430E+02  0.00000000000E+00 0. -1.
</event>
<event>
 4    1  0.7940509E+003  0.2067842E+02  0.7546771E-02  0.1523906E+00
          2   -1    0    0  502    0  0.00000000000E+00  0.00000000000E+00  0.11166385270E+04  0.11166385270E+04  0.00000000000E+00 0.  1.
          2   -1    0    0  501    0 -0.00000000000E+00 -0.00000000000E+00 -0.67209444752E+01  0.67209444752E+01  0.00000000000E+00 0. -1.
          2    1    1    2  501    0 -0.51789692842E+00  0.20671932825E+02  0.11004027482E+04  0.11005970222E+04  0.00000000000E+00 0.  1.
          2    1    1    2  502    0  0.51789692842E+00 -0.20671932825E+02  0.95148342897E+01  0.22762449243E+02  0.00000000000E+00 0. -1.
</event>
<event>
 4    1  0.7940509E+003  0.2148486E+02  0.7546771E-02  0.1512454E+00
          2   -1    0    0  501    0  0.00000000000E+00  0.00000000000E+00  0.22446375060E+03  0.22446375060E+03  0.00000000000E+00 0. -1.
          2   -1    0    0  502    0 -0.00000000000E+00 -0.00000000000E+00 -0.12089518165E+02  0.12089518165E+02  0.00000000000E+00 0.  1.
          2    1    1    2  501    0  0.11090695695E+02  0.18400967432E+02 -0.15613955415E+01  0.21541520129E+02  0.00000000000E+00 0.  1.
          2    1    1    2  502    0 -0.11090695695E+02 -0.18400967432E+02  0.21393562798E+03  0.21501174864E+03  0.00000000000E+00 0. -1.
</event>
<event>
 4    1  0.7940509E+003  0.2284810E+02  0.7546771E-02  0.1494414E+00
          2   -1    0    0  502    0  0.00000000000E+00  0.00000000000E+00  0.80006665197E+03  0.80006665197E+03  0.00000000000E+00 0. -1.
          2   -1    0    0  501    0 -0.00000000000E+00 -0.00000000000E+00 -0.86657520828E+02  0.86657520828E+02  0.00000000000E+00 0.  1.
          2    1    1    2  501    0  0.22841858907E+02  0.53409633734E+00  0.79839434414E+03  0.79872120576E+03  0.00000000000E+00 0. -1.
          2    1    1    2  502    0 -0.22841858907E+02 -0.53409633734E+00 -0.84985213003E+02  0.88002967032E+02  0.00000000000E+00 0.  1.
</event>
<event>
 4    1  0.7940509E+003  0.2366257E+02  0.7546771E-02  0.1484342E+00
          2   -1    0    0  502    0  0.00000000000E+00  0.00000000000E+00  0.21373519960E+03  0.21373519960E+03  0.00000000000E+00 0.  1.
          2   -1    0    0  501    0 -0.00000000000E+00 -0.00000000000E+00 -0.49875906197E+01  0.49875906197E+01  0.00000000000E+00 0. -1.
          2    1    1    2  501    0  0.18334116772E+02  0.14959188137E+02  0.17972698479E+03  0.18127798049E+03  0.00000000000E+00 0.  1.
          2    1    1    2  502    0 -0.18334116772E+02 -0.14959188137E+02  0.29020624189E+02  0.37444809731E+02  0.00000000000E+00 0. -1.
</event>
<event>
 4    1  0.7940509E+003  0.3102510E+02  0.7546771E-02  0.1410892E+00
          2   -1    0    0  501    0  0.00000000000E+00  0.00000000000E+00  0.43798896994E+01  0.43798896994E+01  0.00000000000E+00 0.  1.
          2   -1    0    0  502    0 -0.00000000000E+00 -0.00000000000E+00 -0.11117389063E+04  0.11117389063E+04  0.00000000000E+00 0.  1.
          2    1    1    2  501    0 -0.15260000164E+02 -0.27012761712E+02 -0.10535465682E+04  0.10540032866E+04  0.00000000000E+00 0.  1.
          2    1    1    2  502    0  0.15260000164E+02  0.27012761712E+02 -0.53812448477E+02  0.62115509427E+02  0.00000000000E+00 0.  1.
</event>
<event>
 4    1  0.7940509E+003  0.2121032E+02  0.7546771E-02  0.1516283E+00
          2   -1    0    0  502    0  0.00000000000E+00  0.00000000000E+00  0.56506896656E+03  0.56506896656E+03  0.00000000000E+00 0. -1.
          2   -1    0    0  501    0 -0.00000000000E+00 -0.00000000000E+00 -0.10351655879E+03  0.10351655879E+03  0.00000000000E+00 0. -1.
          2    1    1    2  501    0 -0.13852420586E+02  0.16062008744E+02  0.56378096140E+03  0.56417980300E+03  0.00000000000E+00 0. -1.
          2    1    1    2  502    0  0.13852420586E+02 -0.16062008744E+02 -0.10222855363E+03  0.10440572235E+03  0.00000000000E+00 0. -1.
</event>
<event>
 4    1  0.7940509E+003  0.3895687E+02  0.7546771E-02  0.1354709E+00
          2   -1    0    0  502    0  0.00000000000E+00  0.00000000000E+00  0.11036455505E+03  0.11036455505E+03  0.00000000000E+00 0. -1.
          2   -1    0    0  501    0 -0.00000000000E+00 -0.00000000000E+00 -0.28925470581E+02  0.28925470581E+02  0.00000000000E+00 0. -1.
          2    1    1    2  501    0 -0.22062540952E+02 -0.32107349360E+02  0.91162981228E+02  0.99137917784E+02  0.00000000000E+00 0. -1.
          2    1    1    2  502    0  0.22062540952E+02  0.32107349360E+02 -0.97238967613E+01  0.40152107845E+02  0.00000000000E+00 0. -1.
</event>
<event>
 4    1  0.7940509E+003  0.2103576E+02  0.7546771E-02  0.1518755E+00
          2   -1    0    0  502    0  0.00000000000E+00  0.00000000000E+00  0.26714216092E+03  0.26714216092E+03  0.00000000000E+00 0.  1.
          2   -1    0    0  501    0 -0.00000000000E+00 -0.00000000000E+00 -0.16822366436E+01  0.16822366436E+01  0.00000000000E+00 0.  1.
          2    1    1    2  501    0 -0.15300107116E+02 -0.14436410154E+02  0.11608312520E+03  0.11797370543E+03  0.00000000000E+00 0.  1.
          2    1    1    2  502    0  0.15300107116E+02  0.14436410154E+02  0.14937679907E+03  0.15085069214E+03  0.00000000000E+00 0.  1.
</event>
<event>
 4    1  0.7940509E+003  0.2754698E+02  0.7546771E-02  0.1442190E+00
          2   -1    0    0  502    0  0.00000000000E+00  0.00000000000E+00  0.57340746754E+03  0.57340746754E+03  0.00000000000E+00 0. -1.
          2   -1    0    0  501    0 -0.00000000000E+00 -0.00000000000E+00 -0.42579612354E+01  0.42579612354E+01  0.00000000000E+00 0.  1.
          2    1    1    2  501    0 -0.11681271252E+02 -0.24947622051E+02  0.52435787051E+03  0.52508095786E+03  0.00000000000E+00 0. -1.
          2    1    1    2  502    0  0.11681271252E+02  0.24947622051E+02  0.44791635797E+02  0.52584470916E+02  0.00000000000E+00 0.  1.
</event>
<event>
 4    1  0.7940509E+003  0.2192468E+02  0.7546771E-02  0.1506461E+00
          2   -1    0    0  502    0  0.00000000000E+00  0.00000000000E+00  0.28204905066E+03  0.28204905066E+03  0.00000000000E+00 0. -1.
          2   -1    0    0  501    0 -0.00000000000E+00 -0.00000000000E+00 -0.14036332552E+02  0.14036332552E+02  0.00000000000E+00 0. -1.
          2    1    1    2  501    0  0.12488996270E+02 -0.18019889317E+02  0.27277066770E+03  0.27365037657E+03  0.00000000000E+00 0. -1.
          2    1    1    2  502    0 -0.12488996270E+02  0.18019889317E+02 -0.47579495899E+01  0.22435006644E+02  0.00000000000E+00 0. -1.
</event>
<event>
 4    1  0.7940509E+003  0.2280476E+02  0.7546771E-02  0.1494964E+00
          2   -1    0    0  502    0  0.00000000000E+00  0.00000000000E+00  0.22287377812E+03  0.22287377812E+03  0.00000000000E+00 0.  1.
          2   -1    0    0  501    0 -0.00000000000E+00 -0.00000000000E+00 -0.50765269726E+01  0.50765269726E+01  0.00000000000E+00 0. -1.
          2    1    1    2  501    0  0.19274228196E+02 -0.12188561359E+02  0.19268022410E+03  0.19402506452E+03  0.00000000000E+00 0.  1.
          2    1    1    2  502    0 -0.19274228196E+02  0.12188561359E+02  0.25117027043E+02  0.33925240574E+02  0.00000000000E+00 0. -1.
</event>
<event>
 4    1  0.7940509E+003  0.6545966E+02  0.7546771E-02  0.1242332E+00
          2   -1    0    0  501    0  0.00000000000E+00  0.00000000000E+00  0.21228010755E+02  0.21228010755E+02  0.00000000000E+00 0.  1.
          2   -1    0    0  502    0 -0.00000000000E+00 -0.00000000000E+00 -0.88735709156E+03  0.88735709156E+03  0.00000000000E+00 0. -1.
          2    1    1    2  501    0 -0.56676349929E+02  0.32752997140E+02 -0.83235688570E+03  0.83492691455E+03  0.00000000000E+00 0. -1.
          2    1    1    2  502    0  0.56676349929E+02 -0.32752997140E+02 -0.33772195102E+02  0.73658187766E+02  0.00000000000E+00 0.  1.
</event>
<event>
 4    1  0.7940509E+003  0.3495522E+02  0.7546771E-02  0.1380878E+00
          2   -1    0    0  502    0  0.00000000000E+00  0.00000000000E+00  0.32306477831E+02  0.32306477831E+02  0.00000000000E+00 0.  1.
          2   -1    0    0  501    0 -0.00000000000E+00 -0.00000000000E+00 -0.45378057753E+02  0.45378057753E+02  0.00000000000E+00 0.  1.
          2    1    1    2  501    0  0.30863745438E+02  0.16410267067E+02  0.93151174177E+01  0.36175116588E+02  0.00000000000E+00 0.  1.
          2    1    1    2  502    0 -0.30863745438E+02 -0.16410267067E+02 -0.22386697340E+02  0.41509418997E+02  0.00000000000E+00 0.  1.
</event>
<event>
 4    1  0.1367106E+004  0.2321942E+02  0.7546771E-02  0.1489761E+00
          2   -1    0    0  501    0  0.00000000000E+00  0.00000000000E+00  0.52480383804E+03  0.52480383804E+03  0.00000000000E+00 0.  1.
          2   -1    0    0  502    0 -0.00000000000E+00 -0.00000000000E+00 -0.16954448598E+04  0.16954448598E+04  0.00000000000E+00 0.  1.
          2    1    1    2  501    0 -0.85274411294E+00  0.23203752502E+02 -0.16951084804E+04  0.16952675015E+04  0.00000000000E+00 0.  1.
          2    1    1    2  502    0  0.85274411294E+00 -0.23203752502E+02  0.52446745866E+03  0.52498119633E+03  0.00000000000E+00 0.  1.
</event>
<event>
 4    1  0.7940509E+003  0.4279729E+02  0.7546771E-02  0.1332830E+00
          2   -1    0    0  502    0  0.00000000000E+00  0.00000000000E+00  0.52877316606E+03  0.52877316606E+03  0.00000000000E+00 0. -1.
          2   -1    0    0  501    0 -0.00000000000E+00 -0.00000000000E+00 -0.32488622146E+02  0.32488622146E+02  0.00000000000E+00 0.  1.
          2    1    1    2  501    0  0.41296201692E+02  0.11235285881E+02  0.51339142295E+03  0.51517216645E+03  0.00000000000E+00 0. -1.
          2    1    1    2  502    0 -0.41296201692E+02 -0.11235285881E+02 -0.17106879040E+02  0.46089621755E+02  0.00000000000E+00 0.  1.
</event>
<event>
 4    1  0.7940509E+003  0.3672036E+02  0.7546771E-02  0.1368856E+00
          2   -1    0    0  502    0  0.00000000000E+00  0.00000000000E+00  0.11657510405E+01  0.11657510405E+01  0.00000000000E+00 0. -1.
          2   -1    0    0  501    0 -0.00000000000E+00 -0.00000000000E+00 -0.26198338922E+04  0.26198338922E+04  0.00000000000E+00 0.  1.
          2    1    1    2  501    0  0.33634825937E+02 -0.14733751606E+02 -0.32996333332E+03  0.33200028056E+03  0.00000000000E+00 0. -1.
          2    1    1    2  502    0 -0.33634825937E+02  0.14733751606E+02 -0.22887048078E+04  0.22889993627E+04  0.00000000000E+00 0.  1.
</event>
<event>
 4    1  0.7940509E+003  0.2039323E+02  0.7546771E-02  0.1528107E+00
          2   -1    0    0  501    0  0.00000000000E+00  0.00000000000E+00  0.12710385016E+04  0.12710385016E+04  0.00000000000E+00 0. -1.
          2   -1    0    0  502    0 -0.00000000000E+00 -0.00000000000E+00 -0.52209555969E+02  0.52209555969E+02  0.00000000000E+00 0.  1.
          2    1    1    2  501    0 -0.16204743854E+02 -0.12381038639E+02 -0.50133081212E+02  0.54122173580E+02  0.00000000000E+00 0.  1.
          2    1    1    2  502    0  0.16204743854E+02  0.12381038639E+02  0.12689620269E+04  0.12691258840E+04  0.00000000000E+00 0. -1.
</event>
<event>
 4    1  0.7940509E+003  0.3996764E+02  0.7546771E-02  0.1348676E+00
          2   -1    0    0  502    0  0.00000000000E+00  0.00000000000E+00  0.48897349464E+02  0.48897349464E+02  0.00000000000E+00 0. -1.
          2   -1    0    0  501    0 -0.00000000000E+00 -0.00000000000E+00 -0.41720094798E+02  0.41720094798E+02  0.00000000000E+00 0. -1.
          2    1    1    2  501    0 -0.23814635329E+02  0.32097907001E+02  0.24692739990E+02  0.46980250083E+02  0.00000000000E+00 0. -1.
          2    1    1    2  502    0  0.23814635329E+02 -0.32097907001E+02 -0.17515485324E+02  0.43637194179E+02  0.00000000000E+00 0. -1.
</event>
<event>
 4    1  0.7940509E+003  0.2927906E+02  0.7546771E-02  0.1425967E+00
          2   -1    0    0  502    0  0.00000000000E+00  0.00000000000E+00  0.12885305790E+02  0.12885305790E+02  0.00000000000E+00 0. -1.
          2   -1    0    0  501    0 -0.00000000000E+00 -0.00000000000E+00 -0.34861436055E+03  0.34861436055E+03  0.00000000000E+00 0. -1.
          2    1    1    2  501    0 -0.19656552451E+02  0.21699839466E+02 -0.52742574138E+01  0.29750308879E+02  0.00000000000E+00 0. -1.
          2    1    1    2  502    0  0.19656552451E+02 -0.21699839466E+02 -0.33045479735E+03  0.33174935746E+03  0.00000000000E+00 0. -1.
</event>
<event>
 4    1  0.7940509E+003  0.2317749E+02  0.7546771E-02  0.1490281E+00
          2   -1    0    0  501    0  0.00000000000E+00  0.00000000000E+00  0.31272547423E+01  0.31272547423E+01  0.00000000000E+00 0. -1.
          2   -1    0    0  502    0 -0.00000000000E+00 -0.00000000000E+00 -0.32252422555E+03  0.32252422555E+03  0.00000000000E+00 0.  1.
          2    1    1    2  501    0 -0.11222734946E+02 -0.20279208682E+02 -0.27101611591E+03  0.27200538813E+03  0.00000000000E+00 0.  1.
          2    1    1    2  502    0  0.11222734946E+02  0.20279208682E+02 -0.48380854892E+02  0.53646092164E+02  0.00000000000E+00 0. -1.
</event>
<event>
 4    1  0.7940509E+003  0.2467686E+02  0.7546771E-02  0.1472451E+00
          2   -1    0    0  502    0  0.00000000000E+00  0.00000000000E+00  0.80941193331E+03  0.80941193331E+03  0.00000000000E+00 0. -1.
          2   -1    0    0  501    0 -0.00000000000E+00 -0.00000000000E+00 -0.37907892626E+03  0.37907892626E+03  0.00000000000E+00 0. -1.
          2    1    1    2  501    0  0.24664703775E+02 -0.77433306613E+00  0.80882196064E+03  0.80919831390E+03  0.00000000000E+00 0. -1.
          2    1    1    2  502    0 -0.24664703775E+02  0.77433306613E+00 -0.37848895359E+03  0.37929254566E+03  0.00000000000E+00 0. -1.
</event>
<event>
 4    1  0.8723106E+003  0.2450615E+02  0.7546771E-02  0.1474404E+00
          2   -1    0    0  502    0  0.00000000000E+00  0.00000000000E+00  0.10686496354E+04  0.10686496354E+04  0.00000000000E+00 0. -1.
          2   -1    0    0  501    0 -0.00000000000E+00 -0.00000000000E+00 -0.52681320099E+03  0.52681320099E+03  0.00000000000E+00 0.  1.
          2    1    1    2  501    0  0.24466267302E+02  0.13976309711E+01  0.10682240361E+04  0.10685050973E+04  0.00000000000E+00 0. -1.
          2    1    1    2  502    0 -0.24466267302E+02 -0.13976309711E+01 -0.52638760168E+03  0.52695773912E+03  0.00000000000E+00 0.  1.
</event>
<event>
 4    1  0.8994375E+003  0.4149965E+02  0.7546771E-02  0.1339915E+00
          2   -1    0    0  502    0  0.00000000000E+00  0.00000000000E+00  0.11151152406E+04  0.11151152406E+04  0.00000000000E+00 0.  1.
          2   -1    0    0  501    0 -0.00000000000E+00 -0.00000000000E+00 -0.73014590823E+03  0.73014590823E+03  0.00000000000E+00 0. -1.
          2    1    1    2  501    0 -0.17487187696E+02  0.37635343811E+02  0.11141389320E+04  0.11149115573E+04  0.00000000000E+00 0.  1.
          2    1    1    2  502    0  0.17487187696E+02 -0.37635343811E+02 -0.72916959962E+03  0.73034959153E+03  0.00000000000E+00 0. -1.
</event>
<event>
 4    1  0.7940509E+003  0.2220489E+02  0.7546771E-02  0.1502731E+00
          2   -1    0    0  501    0  0.00000000000E+00  0.00000000000E+00  0.17977692491E+02  0.17977692491E+02  0.00000000000E+00 0.  1.
          2   -1    0    0  502    0 -0.00000000000E+00 -0.00000000000E+00 -0.98434875386E+03  0.98434875386E+03  0.00000000000E+00 0.  1.
          2    1    1    2  501    0  0.21229964349E+02 -0.65073715585E+01 -0.97731769359E+03  0.97756991130E+03  0.00000000000E+00 0.  1.
          2    1    1    2  502    0 -0.21229964349E+02  0.65073715585E+01  0.10946632221E+02  0.24756535054E+02  0.00000000000E+00 0.  1.
</event>
<event>
 4    1  0.7940509E+003  0.2221620E+02  0.7546771E-02  0.1502582E+00
          2   -1    0    0  502    0  0.00000000000E+00  0.00000000000E+00  0.16698066192E+02  0.16698066192E+02  0.00000000000E+00 0.  1.
          2   -1    0    0  501    0 -0.00000000000E+00 -0.00000000000E+00 -0.69836128193E+03  0.69836128193E+03  0.00000000000E+00 0. -1.
          2    1    1    2  501    0 -0.20124929613E+02  0.94099350436E+01  0.90501086111E+01  0.23988833555E+02  0.00000000000E+00 0.  1.
          2    1    1    2  502    0  0.20124929613E+02 -0.94099350436E+01 -0.69071332435E+03  0.69107051457E+03  0.00000000000E+00 0. -1.
</event>
<event>
 4    1  0.7940509E+003  0.2299135E+02  0.7546771E-02  0.1492607E+00
          2   -1    0    0  501    0  0.00000000000E+00  0.00000000000E+00  0.34473789262E+03  0.34473789262E+03  0.00000000000E+00 0. -1.
          2   -1    0    0  502    0 -0.00000000000E+00 -0.00000000000E+00 -0.42483391057E+02  0.42483391057E+02  0.00000000000E+00 0.  1.
          2    1    1    2  501    0  0.17080430271E+02  0.15390294248E+02 -0.38957305061E+02  0.45235758786E+02  0.00000000000E+00 0.  1.
          2    1    1    2  502    0 -0.17080430271E+02 -0.15390294248E+02  0.34121180662E+03  0.34198552489E+03  0.00000000000E+00 0. -1.
</event>
<event>
 4    1  0.7940509E+003  0.2579076E+02  0.7546771E-02  0.1460148E+00
          2   -1    0    0  501    0  0.00000000000E+00  0.00000000000E+00  0.11968870929E+04  0.11968870929E+04  0.00000000000E+00 0. -1.
          2   -1    0    0  502    0 -0.00000000000E+00 -0.00000000000E+00 -0.38911643706E+01  0.38911643706E+01  0.00000000000E+00 0.  1.
          2    1    1    2  501    0  0.24022021838E+02 -0.93864768688E+01  0.40634302614E+02  0.48128058657E+02  0.00000000000E+00 0.  1.
          2    1    1    2  502    0 -0.24022021838E+02  0.93864768688E+01  0.11523616259E+04  0.11526501986E+04  0.00000000000E+00 0. -1.
</event>
<event>
 4    1  0.7940509E+003  0.4613065E+02  0.7546771E-02  0.1315881E+00
          2   -1    0    0  502    0  0.00000000000E+00  0.00000000000E+00  0.65118199752E+03  0.65118199752E+03  0.00000000000E+00 0.  1.
          2   -1    0    0  501    0 -0.00000000000E+00 -0.00000000000E+00 -0.76079093658E+02  0.76079093658E+02  0.00000000000E+00 0.  1.
          2    1    1    2  501    0  0.44121546757E+02  0.13465718834E+02  0.64328644664E+03  0.64493836054E+03  0.00000000000E+00 0.  1.
          2    1    1    2  502    0 -0.44121546757E+02 -0.13465718834E+02 -0.68183542782E+02  0.82322730629E+02  0.00000000000E+00 0.  1.
</event>
<event>
 4    1  0.7940509E+003  0.4136031E+02  0.7546771E-02  0.1340694E+00
          2   -1    0    0  501    0  0.00000000000E+00  0.00000000000E+00  0.55719273031E+02  0.55719273031E+02  0.00000000000E+00 0.  1.
          2   -1    0    0  502    0 -0.00000000000E+00 -0.00000000000E+00 -0.29876236144E+03  0.29876236144E+03  0.00000000000E+00 0.  1.
          2    1    1    2  501    0  0.10864123203E+02 -0.39907969163E+02 -0.28940865774E+03  0.29234918565E+03  0.00000000000E+00 0.  1.
          2    1    1    2  502    0 -0.10864123203E+02  0.39907969163E+02  0.46365569337E+02  0.62132448814E+02  0.00000000000E+00 0.  1.
</event>
<event>
 4    1  0.7940509E+003  0.2610552E+02  0.7546771E-02  0.1456806E+00
          2   -1    0    0  501    0  0.00000000000E+00  0.00000000000E+00  0.21734984289E+03  0.21734984289E+03  0.00000000000E+00 0. -1.
          2   -1    0    0  502    0 -0.00000000000E+00 -0.00000000000E+00 -0.28839010992E+02  0.28839010992E+02  0.00000000000E+00 0. -1.
          2    1    1    2  501    0  0.12866980028E+02  0.22714291462E+02 -0.21954856928E+02  0.34110320350E+02  0.00000000000E+00 0. -1.
          2    1    1    2  502    0 -0.12866980028E+02 -0.22714291462E+02  0.21046568882E+03  0.21207853353E+03  0.00000000000E+00 0. -1.
</event>
<event>
 4    1  0.7940509E+003  0.2382835E+02  0.7546771E-02  0.1482350E+00
          2   -1    0    0  502    0  0.00000000000E+00  0.00000000000E+00  0.89787673602E+03  0.89787673602E+03  0.00000000000E+00 0. -1.
          2   -1    0    0  501    0 -0.00000000000E+00 -0.00000000000E+00 -0.14880920212E+01  0.14880920212E+01  0.00000000000E+00 0.  1.
          2    1    1    2  501    0  0.12567063491E+02 -0.20244980720E+02  0.78919666171E+03  0.78955630653E+03  0.00000000000E+00 0. -1.
          2    1    1    2  502    0 -0.12567063491E+02  0.20244980720E+02  0.10719198229E+03  0.10980852151E+03  0.00000000000E+00 0.  1.
</event>
<event>
 4    1  0.7940509E+003  0.2505768E+02  0.7546771E-02  0.1468159E+00
          2   -1    0    0  501    0  0.00000000000E+00  0.00000000000E+00  0.57785615976E+03  0.57785615976E+03  0.00000000000E+00 0.  1.
          2   -1    0    0  502    0 -0.00000000000E+00 -0.00000000000E+00 -0.31679061517E+02  0.31679061517E+02  0.00000000000E+00 0.  1.
          2    1    1    2  501    0 -0.22325740097E+02 -0.11377539535E+02 -0.26406748653E+02  0.36403343956E+02  0.00000000000E+00 0.  1.
          2    1    1    2  502    0  0.22325740097E+02  0.11377539535E+02  0.57258384689E+03  0.57313187732E+03  0.00000000000E+00 0.  1.
</event>
<event>
 4    1  0.7940509E+003  0.4180254E+02  0.7546771E-02  0.1338235E+00
          2   -1    0    0  502    0  0.00000000000E+00  0.00000000000E+00  0.19340974153E+03  0.19340974153E+03  0.00000000000E+00 0. -1.
          2   -1    0    0  501    0 -0.00000000000E+00 -0.00000000000E+00 -0.52072660934E+02  0.52072660934E+02  0.00000000000E+00 0. -1.
          2    1    1    2  501    0 -0.40643227388E+02  0.97765093507E+01  0.18225460015E+03  0.18698714219E+03  0.00000000000E+00 0. -1.
          2    1    1    2  502    0  0.40643227388E+02 -0.97765093507E+01 -0.40917519558E+02  0.58495260272E+02  0.00000000000E+00 0. -1.
</event>
<event>
 4    1  0.7940509E+003  0.2633819E+02  0.7546771E-02  0.1454372E+00
          2   -1    0    0  501    0  0.00000000000E+00  0.00000000000E+00  0.27410326387E+03  0.27410326387E+03  0.00000000000E+00 0.  1.
          2   -1    0    0  502    0 -0.00000000000E+00 -0.00000000000E+00 -0.15168994092E+03  0.15168994092E+03  0.00000000000E+00 0. -1.
          2    1    1    2  501    0 -0.20964171683E+02  0.15943771500E+02 -0.14990648434E+03  0.15220267537E+03  0.00000000000E+00 0. -1.
          2    1    1    2  502    0  0.20964171683E+02 -0.15943771500E+02  0.27231980729E+03  0.27359052942E+03  0.00000000000E+00 0.  1.
</event>
<event>
 4    1  0.7940509E+003  0.4328131E+02  0.7546771E-02  0.1330261E+00
          2   -1    0    0  501    0  0.00000000000E+00  0.00000000000E+00  0.16355507909E+02  0.16355507909E+02  0.00000000000E+00 0. -1.
          2   -1    0    0  502    0 -0.00000000000E+00 -0.00000000000E+00 -0.30771157826E+04  0.30771157826E+04  0.00000000000E+00 0. -1.
          2    1    1    2  501    0 -0.33633382916E+02 -0.27240911640E+02 -0.30480569697E+04  0.30483642437E+04  0.00000000000E+00 0. -1.
          2    1    1    2  502    0  0.33633382916E+02  0.27240911640E+02 -0.12703304974E+02  0.45107046795E+02  0.00000000000E+00 0. -1.
</event>
<event>
 4    1  0.7940509E+003  0.2658133E+02  0.7546771E-02  0.1451860E+00
          2   -1    0    0  501    0  0.00000000000E+00  0.00000000000E+00  0.13232993821E+02  0.13232993821E+02  0.00000000000E+00 0.  1.
          2   -1    0    0  502    0 -0.00000000000E+00 -0.00000000000E+00 -0.19007554563E+03  0.19007554563E+03  0.00000000000E+00 0.  1.
          2    1    1    2  501    0  0.23113348738E+02  0.13127844215E+02 -0.17462318354E+03  0.17663471747E+03  0.00000000000E+00 0.  1.
          2    1    1    2  502    0 -0.23113348738E+02 -0.13127844215E+02 -0.22193682620E+01  0.26673821981E+02  0.00000000000E+00 0.  1.
</event>
<event>
 4    1  0.7940509E+003  0.4671654E+02  0.7546771E-02  0.1313072E+00
          2   -1    0    0  501    0  0.00000000000E+00  0.00000000000E+00  0.11834856304E+04  0.11834856304E+04  0.00000000000E+00 0. -1.
          2   -1    0    0  502    0 -0.00000000000E+00 -0.00000000000E+00 -0.64405225608E+03  0.64405225608E+03  0.00000000000E+00 0. -1.
          2    1    1    2  501    0  0.28174481199E+02  0.37264378200E+02 -0.64274314988E+03  0.64443866426E+03  0.00000000000E+00 0. -1.
          2    1    1    2  502    0 -0.28174481199E+02 -0.37264378200E+02  0.11821765242E+04  0.11830992222E+04  0.00000000000E+00 0. -1.
</event>
<event>
 4    1  0.7940509E+003  0.2031174E+02  0.7546771E-02  0.1529322E+00
          2   -1    0    0  501    0  0.00000000000E+00  0.00000000000E+00  0.11455047030E+04  0.11455047030E+04  0.00000000000E+00 0. -1.
          2   -1    0    0  502    0 -0.00000000000E+00 -0.00000000000E+00 -0.14535366521E+01  0.14535366521E+01  0.00000000000E+00 0.  1.
          2    1    1    2  501    0  0.16268997179E+02  0.12160857152E+02  0.74644559079E+02  0.77358754618E+02  0.00000000000E+00 0.  1.
          2    1    1    2  502    0 -0.16268997179E+02 -0.12160857152E+02  0.10694066072E+04  0.10695994850E+04  0.00000000000E+00 0. -1.
</event>
<event>
 4    1  0.7940509E+003  0.2599169E+02  0.7546771E-02  0.1458008E+00
          2   -1    0    0  501    0  0.00000000000E+00  0.00000000000E+00  0.14317423634E+02  0.14317423634E+02  0.00000000000E+00 0. -1.
          2   -1    0    0  502    0 -0.00000000000E+00 -0.00000000000E+00 -0.97850784627E+03  0.97850784627E+03  0.00000000000E+00 0. -1.
          2    1    1    2  501    0 -0.25969768114E+02  0.10672929188E+01 -0.96639111263E+03  0.96674058078E+03  0.00000000000E+00 0. -1.
          2    1    1    2  502    0  0.25969768114E+02 -0.10672929188E+01  0.22006899907E+01  0.26084689121E+02  0.00000000000E+00 0. -1.
</event>
<event>
 4    1  0.7940509E+003  0.7359424E+02  0.7546771E-02  0.1219554E+00
          2   -1    0    0  501    0  0.00000000000E+00  0.00000000000E+00  0.96382202236E+01  0.96382202236E+01  0.00000000000E+00 0.  1.
          2   -1    0    0  502    0 -0.00000000000E+00 -0.00000000000E+00 -0.62274290630E+03  0.62274290630E+03  0.00000000000E+00 0.  1.
          2    1    1    2  501    0  0.61831581974E+02  0.39912003412E+02 -0.40535134915E+03  0.41197794699E+03  0.00000000000E+00 0.  1.
          2    1    1    2  502    0 -0.61831581974E+02 -0.39912003412E+02 -0.20775333692E+03  0.22040317953E+03  0.00000000000E+00 0.  1.
</event>
<event>
 4    1  0.7940509E+003  0.3757472E+02  0.7546771E-02  0.1363315E+00
          2   -1    0    0  501    0  0.00000000000E+00  0.00000000000E+00  0.45122714575E+02  0.45122714575E+02  0.00000000000E+00 0.  1.
          2   -1    0    0  502    0 -0.00000000000E+00 -0.00000000000E+00 -0.26833027976E+03  0.26833027976E+03  0.00000000000E+00 0. -1.
          2    1    1    2  501    0 -0.26470754406E+02  0.26667565157E+02 -0.25890938599E+03  0.26162173080E+03  0.00000000000E+00 0. -1.
          2    1    1    2  502    0  0.26470754406E+02 -0.26667565157E+02  0.35701820812E+02  0.51831263534E+02  0.00000000000E+00 0.  1.
</event>
<event>
 4    1  0.7940509E+003  0.3446500E+02  0.7546771E-02  0.1384364E+00
          2   -1    0    0  501    0  0.00000000000E+00  0.00000000000E+00  0.19771245081E+03  0.19771245081E+03  0.00000000000E+00 0.  1.
          2   -1    0    0  502    0 -0.00000000000E+00 -0.00000000000E+00 -0.10449213973E+02  0.10449213973E+02  0.00000000000E+00 0.  1.
          2    1    1    2  501    0 -0.33443268258E+02 -0.83296890408E+01  0.25776148538E+02  0.43037724670E+02  0.00000000000E+00 0.  1.
          2    1    1    2  502    0  0.33443268258E+02  0.83296890408E+01  0.16148708830E+03  0.16512394011E+03  0.00000000000E+00 0.  1.
</event>
<event>
 4    1  0.7940509E+003  0.2646969E+02  0.7546771E-02  0.1453009E+00
          2   -1    0    0  502    0  0.00000000000E+00  0.00000000000E+00  0.10539720738E+04  0.10539720738E+04  0.00000000000E+00 0. -1.
          2   -1    0    0  501    0 -0.00000000000E+00 -0.00000000000E+00 -0.20627923712E+03  0.20627923712E+03  0.00000000000E+00 0.  1.
          2    1    1    2  501    0  0.26054989582E+02  0.46671271034E+01  0.10529559173E+04  0.10532885684E+04  0.00000000000E+00 0. -1.
          2    1    1    2  502    0 -0.26054989582E+02 -0.46671271034E+01 -0.20526308058E+03  0.20696274255E+03  0.00000000000E+00 0.  1.
</event>
<event>
 4    1  0.7940509E+003  0.2130951E+02  0.7546771E-02  0.1514891E+00
          2   -1    0    0  501    0  0.00000000000E+00  0.00000000000E+00  0.21211605464E+03  0.21211605464E+03  0.00000000000E+00 0. -1.
          2   -1    0    0  502    0 -0.00000000000E+00 -0.00000000000E+00 -0.16897678415E+03  0.16897678415E+03  0.00000000000E+00 0. -1.
          2    1    1    2  501    0  0.15734512498E+02  0.14370815694E+02 -0.16776590928E+03  0.16911385379E+03  0.00000000000E+00 0. -1.
          2    1    1    2  502    0 -0.15734512498E+02 -0.14370815694E+02  0.21090517977E+03  0.21197898500E+03  0.00000000000E+00 0. -1.
</event>
<event>
 4    1  0.7940509E+003  0.3644601E+02  0.7546771E-02  0.1370673E+00
          2   -1    0    0  501    0  0.00000000000E+00  0.00000000000E+00  0.15026660991E+02  0.15026660991E+02  0.00000000000E+00 0.  1.
          2   -1    0    0  502    0 -0.00000000000E+00 -0.00000000000E+00 -0.15649513315E+04  0.15649513315E+04  0.00000000000E+00 0. -1.
          2    1    1    2  501    0  0.35517364154E+02  0.81748700460E+01 -0.15423155926E+04  0.15427461550E+04  0.00000000000E+00 0. -1.
          2    1    1    2  502    0 -0.35517364154E+02 -0.81748700460E+01 -0.76090779437E+01  0.37231837503E+02  0.00000000000E+00 0.  1.
</event>
<event>
 4    1  0.7940509E+003  0.2024015E+02  0.7546771E-02  0.1530396E+00
          2   -1    0    0  501    0  0.00000000000E+00  0.00000000000E+00  0.89319502269E+01  0.89319502269E+01  0.00000000000E+00 0. -1.
          2   -1    0    0  502    0 -0.00000000000E+00 -0.00000000000E+00 -0.38729839415E+03  0.38729839415E+03  0.00000000000E+00 0. -1.
          2    1    1    2  501    0  0.43183525021E+01 -0.19774114547E+02 -0.37519819111E+03  0.37574372434E+03  0.00000000000E+00 0. -1.
          2    1    1    2  502    0 -0.43183525021E+01  0.19774114547E+02 -0.31682528162E+01  0.20486620032E+02  0.00000000000E+00 0. -1.
</event>
<event>
 4    1  0.1235101E+004  0.3303842E+02  0.7546771E-02  0.1394904E+00
          2   -1    0    0  502    0  0.00000000000E+00  0.00000000000E+00  0.66878132431E+03  0.66878132431E+03  0.00000000000E+00 0.  1.
          2   -1    0    0  501    0 -0.00000000000E+00 -0.00000000000E+00 -0.15211848519E+04  0.15211848519E+04  0.00000000000E+00 0.  1.
          2    1    1    2  501    0 -0.27230114712E+02  0.18709836959E+02  0.66819374520E+03  0.66901002853E+03  0.00000000000E+00 0.  1.
          2    1    1    2  502    0  0.27230114712E+02 -0.18709836959E+02 -0.15205972728E+04  0.15209561477E+04  0.00000000000E+00 0.  1.
</event>
<event>
 4    1  0.7940509E+003  0.2411500E+02  0.7546771E-02  0.1478952E+00
          2   -1    0    0  501    0  0.00000000000E+00  0.00000000000E+00  0.13295482804E+04  0.13295482804E+04  0.00000000000E+00 0.  1.
          2   -1    0    0  502    0 -0.00000000000E+00 -0.00000000000E+00 -0.12591666929E+01  0.12591666929E+01  0.00000000000E+00 0.  1.
          2    1    1    2  501    0  0.21776661891E+01  0.24016470198E+02  0.12659298544E+03  0.12886937973E+03  0.00000000000E+00 0.  1.
          2    1    1    2  502    0 -0.21776661891E+01 -0.24016470198E+02  0.12016961283E+04  0.12019380674E+04  0.00000000000E+00 0.  1.
</event>
<event>
 4    1  0.7940509E+003  0.2028002E+02  0.7546771E-02  0.1529797E+00
          2   -1    0    0  501    0  0.00000000000E+00  0.00000000000E+00  0.20763443742E+02  0.20763443742E+02  0.00000000000E+00 0. -1.
          2   -1    0    0  502    0 -0.00000000000E+00 -0.00000000000E+00 -0.69787360795E+03  0.69787360795E+03  0.00000000000E+00 0. -1.
          2    1    1    2  501    0 -0.22621064393E+01 -0.20153459297E+02 -0.69273760783E+03  0.69303439478E+03  0.00000000000E+00 0. -1.
          2    1    1    2  502    0  0.22621064393E+01  0.20153459297E+02  0.15627443617E+02  0.25602656917E+02  0.00000000000E+00 0. -1.
</event>
<event>
 4    1  0.7940509E+003  0.2203190E+02  0.7546771E-02  0.1505026E+00
          2   -1    0    0  501    0  0.00000000000E+00  0.00000000000E+00  0.79639390837E+03  0.79639390837E+03  0.00000000000E+00 0. -1.
          2   -1    0    0  502    0 -0.00000000000E+00 -0.00000000000E+00 -0.19878243370E+01  0.19878243370E+01  0.00000000000E+00 0.  1.
          2    1    1    2  501    0 -0.95074132395E+01  0.19874951558E+02  0.64798608077E+02  0.68441684774E+02  0.00000000000E+00 0.  1.
          2    1    1    2  502    0  0.95074132395E+01 -0.19874951558E+02  0.72960747596E+03  0.72994004793E+03  0.00000000000E+00 0. -1.
</event>
<event>
 4    1  0.7940509E+003  0.2553278E+02  0.7546771E-02  0.1462931E+00
          2   -1    0    0  501    0  0.00000000000E+00  0.00000000000E+00  0.82044759023E+03  0.82044759023E+03  0.00000000000E+00 0.  1.
          2   -1    0    0  502    0 -0.00000000000E+00 -0.00000000000E+00 -0.14915161337E+01  0.14915161337E+01  0.00000000000E+00 0.  1.
          2    1    1    2  501    0  0.10029303643E+02 -0.23480543249E+02  0.12855473966E+03  0.13106580000E+03  0.00000000000E+00 0.  1.
          2    1    1    2  502    0 -0.10029303643E+02  0.23480543249E+02  0.69040133444E+03  0.69087330636E+03  0.00000000000E+00 0.  1.
</event>
<event>
 4    1  0.7940509E+003  0.1412890E+03  0.7546771E-02  0.1106896E+00
          2   -1    0    0  501    0  0.00000000000E+00  0.00000000000E+00  0.58084721219E+02  0.58084721219E+02  0.00000000000E+00 0.  1.
          2   -1    0    0  502    0 -0.00000000000E+00 -0.00000000000E+00 -0.47605247618E+03  0.47605247618E+03  0.00000000000E+00 0.  1.
          2    1    1    2  501    0 -0.38082922103E+02  0.13605985711E+03 -0.34981324339E+03  0.37726900075E+03  0.00000000000E+00 0.  1.
          2    1    1    2  502    0  0.38082922103E+02 -0.13605985711E+03 -0.68154511572E+02  0.15686819665E+03  0.00000000000E+00 0.  1.
</event>
<event>
 4    1  0.8539044E+003  0.2023007E+02  0.7546771E-02  0.1530547E+00
          2   -1    0    0  501    0  0.00000000000E+00  0.00000000000E+00  0.10786960089E+04  0.10786960089E+04  0.00000000000E+00 0. -1.
          2   -1    0    0  502    0 -0.00000000000E+00 -0.00000000000E+00 -0.10355209006E+03  0.10355209006E+03  0.00000000000E+00 0. -1.
          2    1    1    2  501    0 -0.10654726727E+02 -0.17196873574E+02 -0.10246820374E+03  0.10444610304E+03  0.00000000000E+00 0. -1.
          2    1    1    2  502    0  0.10654726727E+02  0.17196873574E+02  0.10776121226E+04  0.10778019959E+04  0.00000000000E+00 0. -1.
</event>
<event>
 4    1  0.7940509E+003  0.2677995E+02  0.7546771E-02  0.1449831E+00
          2   -1    0    0  501    0  0.00000000000E+00  0.00000000000E+00  0.13760769596E+04  0.13760769596E+04  0.00000000000E+00 0. -1.
          2   -1    0    0  502    0 -0.00000000000E+00 -0.00000000000E+00 -0.86502789076E+00  0.86502789076E+00  0.00000000000E+00 0. -1.
          2    1    1    2  501    0 -0.24073758065E+02 -0.11731161006E+02  0.25353378400E+03  0.25494420094E+03  0.00000000000E+00 0. -1.
          2    1    1    2  502    0  0.24073758065E+02  0.11731161006E+02  0.11216781477E+04  0.11219977865E+04  0.00000000000E+00 0. -1.
</event>
<event>
 4    1  0.7940509E+003  0.2724927E+02  0.7546771E-02  0.1445120E+00
          2   -1    0    0  502    0  0.00000000000E+00  0.00000000000E+00  0.89303032883E+03  0.89303032883E+03  0.00000000000E+00 0.  1.
          2   -1    0    0  501    0 -0.00000000000E+00 -0.00000000000E+00 -0.42943447217E+01  0.42943447217E+01  0.00000000000E+00 0.  1.
          2    1    1    2  501    0  0.93229568292E+01  0.25604792550E+02  0.84726116041E+03  0.84769923726E+03  0.00000000000E+00 0.  1.
          2    1    1    2  502    0 -0.93229568292E+01 -0.25604792550E+02  0.41474823701E+02  0.49625436286E+02  0.00000000000E+00 0.  1.
</event>
<event>
 4    1  0.7940509E+003  0.2342755E+02  0.7546771E-02  0.1487198E+00
          2   -1    0    0  501    0  0.00000000000E+00  0.00000000000E+00  0.51355638338E+01  0.51355638338E+01  0.00000000000E+00 0. -1.
          2   -1    0    0  502    0 -0.00000000000E+00 -0.00000000000E+00 -0.16366094655E+03  0.16366094655E+03  0.00000000000E+00 0.  1.
          2    1    1    2  501    0  0.16876499749E+02 -0.16249124750E+02 -0.29547270845E+02  0.37707976786E+02  0.00000000000E+00 0. -1.
          2    1    1    2  502    0 -0.16876499749E+02  0.16249124750E+02 -0.12897811187E+03  0.13108853360E+03  0.00000000000E+00 0.  1.
</event>
<event>
 4    1  0.7940509E+003  0.2167343E+02  0.7546771E-02  0.1509863E+00
          2   -1    0    0  502    0  0.00000000000E+00  0.00000000000E+00  0.99883563144E+03  0.99883563144E+03  0.00000000000E+00 0.  1.
          2   -1    0    0  501    0 -0.00000000000E+00 -0.00000000000E+00 -0.11554517906E+01  0.11554517906E+01  0.00000000000E+00 0.  1.
          2    1    1    2  501    0 -0.21673428564E+02 -0.62529544370E-02  0.88386455662E+03  0.88413024606E+03  0.00000000000E+00 0.  1.
          2    1    1    2  502    0  0.21673428564E+02  0.62529544370E-02  0.11381562303E+03  0.11586083717E+03  0.00000000000E+00 0.  1.
</event>
<event>
 4    1  0.7940509E+003  0.2518888E+02  0.7546771E-02  0.1466701E+00
          2   -1    0    0  501    0  0.00000000000E+00  0.00000000000E+00  0.11547142910E+01  0.11547142910E+01  0.00000000000E+00 0. -1.
          2   -1    0    0  502    0 -0.00000000000E+00 -0.00000000000E+00 -0.59601290474E+03  0.59601290474E+03  0.00000000000E+00 0. -1.
          2    1    1    2  501    0  0.11476616676E+02  0.22422469955E+02 -0.38086809583E+03  0.38170012616E+03  0.00000000000E+00 0. -1.
          2    1    1    2  502    0 -0.11476616676E+02 -0.22422469955E+02 -0.21399009462E+03  0.21546749287E+03  0.00000000000E+00 0. -1.
</event>
<event>
 4    1  0.7940509E+003  0.2458954E+02  0.7546771E-02  0.1473448E+00
          2   -1    0    0  502    0  0.00000000000E+00  0.00000000000E+00  0.76406584870E+00  0.76406584870E+00  0.00000000000E+00 0. -1.
          2   -1    0    0  501    0 -0.00000000000E+00 -0.00000000000E+00 -0.99762590342E+03  0.99762590342E+03  0.00000000000E+00 0. -1.
          2    1    1    2  501    0 -0.25788786087E+01  0.24453929650E+02 -0.27144017383E+03  0.27255167081E+03  0.00000000000E+00 0. -1.
          2    1    1    2  502    0  0.25788786087E+01 -0.24453929650E+02 -0.72542166374E+03  0.72583829846E+03  0.00000000000E+00 0. -1.
</event>
<event>
 4    1  0.7940509E+003  0.2862835E+02  0.7546771E-02  0.1431903E+00
          2   -1    0    0  501    0  0.00000000000E+00  0.00000000000E+00  0.16143917762E+02  0.16143917762E+02  0.00000000000E+00 0.  1.
          2   -1    0    0  502    0 -0.00000000000E+00 -0.00000000000E+00 -0.25272338246E+03  0.25272338246E+03  0.00000000000E+00 0.  1.
          2    1    1    2  501    0  0.28392879130E+02 -0.36642617211E+01 -0.23846463928E+03  0.24017694849E+03  0.00000000000E+00 0.  1.
          2    1    1    2  502    0 -0.28392879130E+02  0.36642617211E+01  0.18851745817E+01  0.28690351731E+02  0.00000000000E+00 0.  1.
</event>
<event>
 4    1  0.7940509E+003  0.3516567E+02  0.7546771E-02  0.1379402E+00
          2   -1    0    0  502    0  0.00000000000E+00  0.00000000000E+00  0.16899488724E+03  0.16899488724E+03  0.00000000000E+00 0. -1.
          2   -1    0    0  501    0 -0.00000000000E+00 -0.00000000000E+00 -0.73177903234E+01  0.73177903234E+01  0.00000000000E+00 0. -1.
          2    1    1    2  501    0  0.34601176548E+02 -0.62755628844E+01  0.81370581064E+02  0.88644207767E+02  0.00000000000E+00 0. -1.
          2    1    1    2  502    0 -0.34601176548E+02  0.62755628844E+01  0.80306515858E+02  0.87668469801E+02  0.00000000000E+00 0. -1.
</event>
<event>
 4    1  0.7940509E+003  0.3797675E+02  0.7546771E-02  0.1360768E+00
          2   -1    0    0  502    0  0.00000000000E+00  0.00000000000E+00  0.33034374259E+03  0.33034374259E+03  0.00000000000E+00 0.  1.
          2   -1    0    0  501    0 -0.00000000000E+00 -0.00000000000E+00 -0.23098424628E+02  0.23098424628E+02  0.00000000000E+00 0.  1.
          2    1    1    2  501    0 -0.37029458946E+02  0.84292772529E+01  0.31276870016E+03  0.31506585557E+03  0.00000000000E+00 0.  1.
          2    1    1    2  502    0  0.37029458946E+02 -0.84292772529E+01 -0.55233821998E+01  0.38376311649E+02  0.00000000000E+00 0.  1.
</event>
<event>
 4    1  0.7940509E+003  0.2240006E+02  0.7546771E-02  0.1500172E+00
          2   -1    0    0  501    0  0.00000000000E+00  0.00000000000E+00  0.16948059948E+02  0.16948059948E+02  0.00000000000E+00 0. -1.
          2   -1    0    0  502    0 -0.00000000000E+00 -0.00000000000E+00 -0.11259708809E+03  0.11259708809E+03  0.00000000000E+00 0.  1.
          2    1    1    2  501    0 -0.17948428419E+02 -0.13402119210E+02 -0.10343331349E+03  0.10583105981E+03  0.00000000000E+00 0.  1.
          2    1    1    2  502    0  0.17948428419E+02  0.13402119210E+02  0.77842853456E+01  0.23714088225E+02  0.00000000000E+00 0. -1.
</event>
<event>
 4    1  0.7940509E+003  0.3211020E+02  0.7546771E-02  0.1402103E+00
          2   -1    0    0  502    0  0.00000000000E+00  0.00000000000E+00  0.28296730716E+01  0.28296730716E+01  0.00000000000E+00 0.  1.
          2   -1    0    0  501    0 -0.00000000000E+00 -0.00000000000E+00 -0.21565608324E+04  0.21565608324E+04  0.00000000000E+00 0.  1.
          2    1    1    2  501    0  0.40515488402E+01  0.31853567089E+02 -0.92601261375E+02  0.98010501440E+02  0.00000000000E+00 0.  1.
          2    1    1    2  502    0 -0.40515488402E+01 -0.31853567089E+02 -0.20611298979E+04  0.20613800040E+04  0.00000000000E+00 0.  1.
</event>
<event>
 4    1  0.7940509E+003  0.5100474E+02  0.7546771E-02  0.1293874E+00
          2   -1    0    0  501    0  0.00000000000E+00  0.00000000000E+00  0.18604806834E+01  0.18604806834E+01  0.00000000000E+00 0. -1.
          2   -1    0    0  502    0 -0.00000000000E+00 -0.00000000000E+00 -0.24352388740E+04  0.24352388740E+04  0.00000000000E+00 0. -1.
          2    1    1    2  501    0  0.47597239936E+02 -0.18329922158E+02 -0.20118446735E+04  0.20124911115E+04  0.00000000000E+00 0. -1.
          2    1    1    2  502    0 -0.47597239936E+02  0.18329922158E+02 -0.42153371979E+03  0.42460824323E+03  0.00000000000E+00 0. -1.
</event>
<event>
 4    1  0.7940509E+003  0.2041130E+02  0.7546771E-02  0.1527838E+00
          2   -1    0    0  501    0  0.00000000000E+00  0.00000000000E+00  0.64465331972E+02  0.64465331972E+02  0.00000000000E+00 0.  1.
          2   -1    0    0  502    0 -0.00000000000E+00 -0.00000000000E+00 -0.10103693612E+02  0.10103693612E+02  0.00000000000E+00 0.  1.
          2    1    1    2  501    0  0.19786309528E+02 -0.50123066451E+01  0.47989026312E+01  0.20967849893E+02  0.00000000000E+00 0.  1.
          2    1    1    2  502    0 -0.19786309528E+02  0.50123066451E+01  0.49562735729E+02  0.53601175692E+02  0.00000000000E+00 0.  1.
</event>
<event>
 4    1  0.7940509E+003  0.3281425E+02  0.7546771E-02  0.1396617E+00
          2   -1    0    0  502    0  0.00000000000E+00  0.00000000000E+00  0.87435363951E+01  0.87435363951E+01  0.00000000000E+00 0. -1.
          2   -1    0    0  501    0 -0.00000000000E+00 -0.00000000000E+00 -0.87603467835E+03  0.87603467835E+03  0.00000000000E+00 0. -1.
          2    1    1    2  501    0 -0.11397131410E+02 -0.30771426617E+02 -0.23528624262E+02  0.40377858537E+02  0.00000000000E+00 0. -1.
          2    1    1    2  502    0  0.11397131410E+02  0.30771426617E+02 -0.84376251770E+03  0.84440035621E+03  0.00000000000E+00 0. -1.
</event>
<event>
 4    1  0.7940509E+003  0.2305390E+02  0.7546771E-02  0.1491822E+00
          2   -1    0    0  502    0  0.00000000000E+00  0.00000000000E+00  0.43826462407E+03  0.43826462407E+03  0.00000000000E+00 0. -1.
          2   -1    0    0  501    0 -0.00000000000E+00 -0.00000000000E+00 -0.22431319831E+01  0.22431319831E+01  0.00000000000E+00 0.  1.
          2    1    1    2  501    0 -0.18543591367E+02 -0.13697357512E+02  0.36729237191E+03  0.36801517475E+03  0.00000000000E+00 0. -1.
          2    1    1    2  502    0  0.18543591367E+02  0.13697357512E+02  0.68729120179E+02  0.72492581304E+02  0.00000000000E+00 0.  1.
</event>
<event>
 4    1  0.7940509E+003  0.2331501E+02  0.7546771E-02  0.1488580E+00
          2   -1    0    0  502    0  0.00000000000E+00  0.00000000000E+00  0.37723088347E+03  0.37723088347E+03  0.00000000000E+00 0.  1.
          2   -1    0    0  501    0 -0.00000000000E+00 -0.00000000000E+00 -0.11534976113E+03  0.11534976113E+03  0.00000000000E+00 0.  1.
          2    1    1    2  501    0  0.19128874059E+02 -0.13329502587E+02  0.37568766580E+03  0.37641042984E+03  0.00000000000E+00 0.  1.
          2    1    1    2  502    0 -0.19128874059E+02  0.13329502587E+02 -0.11380654346E+03  0.11617021475E+03  0.00000000000E+00 0.  1.
</event>
<event>
 4    1  0.7940509E+003  0.2121165E+02  0.7546771E-02  0.1516264E+00
          2   -1    0    0  502    0  0.00000000000E+00  0.00000000000E+00  0.34319554423E+00  0.34319554423E+00  0.00000000000E+00 0. -1.
          2   -1    0    0  501    0 -0.00000000000E+00 -0.00000000000E+00 -0.15317377286E+04  0.15317377286E+04  0.00000000000E+00 0. -1.
          2    1    1    2  501    0  0.27615749516E+01  0.21031114616E+02 -0.47490405736E+03  0.47537753184E+03  0.00000000000E+00 0. -1.
          2    1    1    2  502    0 -0.27615749516E+01 -0.21031114616E+02 -0.10564904757E+04  0.10567033923E+04  0.00000000000E+00 0. -1.
</event>
<event>
 4    1  0.7940509E+003  0.2262314E+02  0.7546771E-02  0.1497285E+00
          2   -1    0    0  502    0  0.00000000000E+00  0.00000000000E+00  0.42721576743E+01  0.42721576743E+01  0.00000000000E+00 0.  1.
          2   -1    0    0  501    0 -0.00000000000E+00 -0.00000000000E+00 -0.55657439869E+03  0.55657439869E+03  0.00000000000E+00 0. -1.
          2    1    1    2  501    0  0.85226119488E+01 -0.20956423488E+02 -0.27734419104E+02  0.35791124638E+02  0.00000000000E+00 0.  1.
          2    1    1    2  502    0 -0.85226119488E+01  0.20956423488E+02 -0.52456782191E+03  0.52505543173E+03  0.00000000000E+00 0. -1.
</event>
<event>
 4    1  0.7940509E+003  0.2169866E+02  0.7546771E-02  0.1509519E+00
          2   -1    0    0  502    0  0.00000000000E+00  0.00000000000E+00  0.37182006966E+00  0.37182006966E+00  0.00000000000E+00 0.  1.
          2   -1    0    0  501    0 -0.00000000000E+00 -0.00000000000E+00 -0.18448310080E+04  0.18448310080E+04  0.00000000000E+00 0.  1.
          2    1    1    2  501    0  0.20065553525E+02 -0.82586545484E+01 -0.40557163979E+03  0.40615167957E+03  0.00000000000E+00 0.  1.
          2    1    1    2  502    0 -0.20065553525E+02  0.82586545484E+01 -0.14388875481E+04  0.14390511485E+04  0.00000000000E+00 0.  1.
</event>
<event>
 4    1  0.7940509E+003  0.3644059E+02  0.7546771E-02  0.1370709E+00
          2   -1    0    0  502    0  0.00000000000E+00  0.00000000000E+00  0.11508947332E+01  0.11508947332E+01  0.00000000000E+00 0. -1.
          2   -1    0    0  501    0 -0.00000000000E+00 -0.00000000000E+00 -0.25247963772E+04  0.25247963772E+04  0.00000000000E+00 0.  1.
          2    1    1    2  501    0 -0.15905155926E+02 -0.32786319166E+02 -0.33114938210E+03  0.33314836031E+03  0.00000000000E+00 0. -1.
          2    1    1    2  502    0  0.15905155926E+02  0.32786319166E+02 -0.21924961003E+04  0.21927989116E+04  0.00000000000E+00 0.  1.
</event>
<event>
 4    1  0.7940509E+003  0.2548418E+02  0.7546771E-02  0.1463459E+00
          2   -1    0    0  502    0  0.00000000000E+00  0.00000000000E+00  0.67040022692E+02  0.67040022692E+02  0.00000000000E+00 0.  1.
          2   -1    0    0  501    0 -0.00000000000E+00 -0.00000000000E+00 -0.21523638317E+03  0.21523638317E+03  0.00000000000E+00 0.  1.
          2    1    1    2  501    0  0.21648045260E+02  0.13446405140E+02  0.63827268139E+02  0.68726733029E+02  0.00000000000E+00 0.  1.
          2    1    1    2  502    0 -0.21648045260E+02 -0.13446405140E+02 -0.21202362862E+03  0.21354967283E+03  0.00000000000E+00 0.  1.
</event>
<event>
 4    1  0.7940509E+003  0.3285512E+02  0.7546771E-02  0.1396304E+00
          2   -1    0    0  502    0  0.00000000000E+00  0.00000000000E+00  0.45527643614E+03  0.45527643614E+03  0.00000000000E+00 0. -1.
          2   -1    0    0  501    0 -0.00000000000E+00 -0.00000000000E+00 -0.51241411551E+02  0.51241411551E+02  0.00000000000E+00 0. -1.
          2    1    1    2  501    0 -0.21273755466E+02  0.25037702487E+02  0.44934775562E+03  0.45054729463E+03  0.00000000000E+00 0. -1.
          2    1    1    2  502    0  0.21273755466E+02 -0.25037702487E+02 -0.45312731026E+02  0.55970553066E+02  0.00000000000E+00 0. -1.
</event>
<event>
 4    1  0.7940509E+003  0.2731825E+02  0.7546771E-02  0.1444437E+00
          2   -1    0    0  501    0  0.00000000000E+00  0.00000000000E+00  0.20431545669E+03  0.20431545669E+03  0.00000000000E+00 0.  1.
          2   -1    0    0  502    0 -0.00000000000E+00 -0.00000000000E+00 -0.22504220558E+02  0.22504220558E+02  0.00000000000E+00 0. -1.
          2    1    1    2  501    0  0.72782205180E+01  0.26330865649E+02 -0.12893304304E+02  0.30208016744E+02  0.00000000000E+00 0. -1.
          2    1    1    2  502    0 -0.72782205180E+01 -0.26330865649E+02  0.19470454044E+03  0.19661166051E+03  0.00000000000E+00 0.  1.
</event>
<event>
 4    1  0.7940509E+003  0.3935536E+02  0.7546771E-02  0.1352305E+00
          2   -1    0    0  502    0  0.00000000000E+00  0.00000000000E+00  0.31965261307E+02  0.31965261307E+02  0.00000000000E+00 0.  1.
          2   -1    0    0  501    0 -0.00000000000E+00 -0.00000000000E+00 -0.15845452806E+04  0.15845452806E+04  0.00000000000E+00 0.  1.
          2    1    1    2  501    0  0.34781866903E+02 -0.18413740024E+02  0.19511453624E+02  0.43926539921E+02  0.00000000000E+00 0.  1.
          2    1    1    2  502    0 -0.34781866903E+02  0.18413740024E+02 -0.15720914729E+04  0.15725840020E+04  0.00000000000E+00 0.  1.
</event>
<event>
 4    1  0.7940509E+003  0.2060686E+02  0.7546771E-02  0.1524953E+00
          2   -1    0    0  502    0  0.00000000000E+00  0.00000000000E+00  0.23181726229E+00  0.23181726229E+00  0.00000000000E+00 0. -1.
          2   -1    0    0  501    0 -0.00000000000E+00 -0.00000000000E+00 -0.19921926189E+04  0.19921926189E+04  0.00000000000E+00 0. -1.
          2    1    1    2  501    0  0.18112133713E+02 -0.98281804298E+01 -0.71330996259E+03  0.71360755689E+03  0.00000000000E+00 0. -1.
          2    1    1    2  502    0 -0.18112133713E+02  0.98281804298E+01 -0.12786508390E+04  0.12788168792E+04  0.00000000000E+00 0. -1.
</event>
<event>
 4    1  0.7940509E+003  0.3790640E+02  0.7546771E-02  0.1361211E+00
          2   -1    0    0  502    0  0.00000000000E+00  0.00000000000E+00  0.10061831506E+03  0.10061831506E+03  0.00000000000E+00 0. -1.
          2   -1    0    0  501    0 -0.00000000000E+00 -0.00000000000E+00 -0.66492003389E+02  0.66492003389E+02  0.00000000000E+00 0. -1.
          2    1    1    2  501    0 -0.26356180723E+02 -0.27244202291E+02  0.91103945571E+02  0.98675345043E+02  0.00000000000E+00 0. -1.
          2    1    1    2  502    0  0.26356180723E+02  0.27244202291E+02 -0.56977633897E+02  0.68434973408E+02  0.00000000000E+00 0. -1.
</event>
<event>
 4    1  0.7940509E+003  0.2455188E+02  0.7546771E-02  0.1473879E+00
          2   -1    0    0  501    0  0.00000000000E+00  0.00000000000E+00  0.82253311186E+03  0.82253311186E+03  0.00000000000E+00 0. -1.
          2   -1    0    0  502    0 -0.00000000000E+00 -0.00000000000E+00 -0.26059872730E+02  0.26059872730E+02  0.00000000000E+00 0. -1.
          2    1    1    2  501    0  0.18187928703E+02 -0.16492248426E+02 -0.20051326372E+02  0.31699380088E+02  0.00000000000E+00 0. -1.
          2    1    1    2  502    0 -0.18187928703E+02  0.16492248426E+02  0.81652456550E+03  0.81689360450E+03  0.00000000000E+00 0. -1.
</event>
<event>
 4    1  0.7940509E+003  0.2526357E+02  0.7546771E-02  0.1465876E+00
          2   -1    0    0  502    0  0.00000000000E+00  0.00000000000E+00  0.10315093310E+03  0.10315093310E+03  0.00000000000E+00 0.  1.
          2   -1    0    0  501    0 -0.00000000000E+00 -0.00000000000E+00 -0.65866566384E+01  0.65866566384E+01  0.00000000000E+00 0.  1.
          2    1    1    2  501    0  0.24095950710E+02  0.75916456456E+01  0.61789064873E+02  0.66754299203E+02  0.00000000000E+00 0.  1.
          2    1    1    2  502    0 -0.24095950710E+02 -0.75916456456E+01  0.34775211589E+02  0.42983290536E+02  0.00000000000E+00 0.  1.
</event>
<event>
 4    1  0.7940509E+003  0.2190815E+02  0.7546771E-02  0.1506683E+00
          2   -1    0    0  502    0  0.00000000000E+00  0.00000000000E+00  0.12853651963E+01  0.12853651963E+01  0.00000000000E+00 0. -1.
          2   -1    0    0  501    0 -0.00000000000E+00 -0.00000000000E+00 -0.51443745268E+03  0.51443745268E+03  0.00000000000E+00 0.  1.
          2    1    1    2  501    0  0.50275151553E+01 -0.21323490759E+02 -0.12156380095E+03  0.12352216347E+03  0.00000000000E+00 0. -1.
          2    1    1    2  502    0 -0.50275151553E+01  0.21323490759E+02 -0.39158828653E+03  0.39220065440E+03  0.00000000000E+00 0.  1.
</event>
<event>
 4    1  0.7940509E+003  0.2276658E+02  0.7546771E-02  0.1495450E+00
          2   -1    0    0  501    0  0.00000000000E+00  0.00000000000E+00  0.20762404071E+03  0.20762404071E+03  0.00000000000E+00 0.  1.
          2   -1    0    0  502    0 -0.00000000000E+00 -0.00000000000E+00 -0.38718335659E+01  0.38718335659E+01  0.00000000000E+00 0. -1.
          2    1    1    2  501    0  0.46051351145E+01  0.22295962788E+02  0.38848630201E+02  0.45028138920E+02  0.00000000000E+00 0. -1.
          2    1    1    2  502    0 -0.46051351145E+01 -0.22295962788E+02  0.16490357694E+03  0.16646773536E+03  0.00000000000E+00 0.  1.
</event>
<event>
 4    1  0.7940509E+003  0.2374382E+02  0.7546771E-02  0.1483363E+00
          2   -1    0    0  502    0  0.00000000000E+00  0.00000000000E+00  0.23078549235E+02  0.23078549235E+02  0.00000000000E+00 0.  1.
          2   -1    0    0  501    0 -0.00000000000E+00 -0.00000000000E+00 -0.38274424449E+03  0.38274424449E+03  0.00000000000E+00 0. -1.
          2    1    1    2  501    0  0.23107048201E+02  0.54620091179E+01  0.16496483271E+02  0.28911990254E+02  0.00000000000E+00 0.  1.
          2    1    1    2  502    0 -0.23107048201E+02 -0.54620091179E+01 -0.37616217853E+03  0.37691080347E+03  0.00000000000E+00 0. -1.
</event>
<event>
 4    1  0.7940509E+003  0.4293815E+02  0.7546771E-02  0.1332078E+00
          2   -1    0    0  501    0  0.00000000000E+00  0.00000000000E+00  0.90356548255E+01  0.90356548255E+01  0.00000000000E+00 0.  1.
          2   -1    0    0  502    0 -0.00000000000E+00 -0.00000000000E+00 -0.10544822320E+04  0.10544822320E+04  0.00000000000E+00 0.  1.
          2    1    1    2  501    0  0.27557184729E+02 -0.32928499255E+02 -0.10002703540E+04  0.10011915230E+04  0.00000000000E+00 0.  1.
          2    1    1    2  502    0 -0.27557184729E+02  0.32928499255E+02 -0.45176223091E+02  0.62326363813E+02  0.00000000000E+00 0.  1.
</event>
<event>
 4    1  0.7940509E+003  0.3659886E+02  0.7546771E-02  0.1369658E+00
          2   -1    0    0  502    0  0.00000000000E+00  0.00000000000E+00  0.74721870630E+03  0.74721870630E+03  0.00000000000E+00 0. -1.
          2   -1    0    0  501    0 -0.00000000000E+00 -0.00000000000E+00 -0.36573432850E+01  0.36573432850E+01  0.00000000000E+00 0. -1.
          2    1    1    2  501    0  0.34272329399E+02 -0.12840703292E+02  0.63985984139E+03  0.64090568171E+03  0.00000000000E+00 0. -1.
          2    1    1    2  502    0 -0.34272329399E+02  0.12840703292E+02  0.10370152163E+03  0.10997036788E+03  0.00000000000E+00 0. -1.
</event>
<event>
 4    1  0.7940509E+003  0.2791807E+02  0.7546771E-02  0.1438598E+00
          2   -1    0    0  502    0  0.00000000000E+00  0.00000000000E+00  0.12105167423E+04  0.12105167423E+04  0.00000000000E+00 0.  1.
          2   -1    0    0  501    0 -0.00000000000E+00 -0.00000000000E+00 -0.79169111479E+00  0.79169111479E+00  0.00000000000E+00 0.  1.
          2    1    1    2  501    0  0.13696944545E+02 -0.24327195018E+02  0.86656697166E+03  0.86701657140E+03  0.00000000000E+00 0.  1.
          2    1    1    2  502    0 -0.13696944545E+02  0.24327195018E+02  0.34315807952E+03  0.34429186201E+03  0.00000000000E+00 0.  1.
</event>
<event>
 4    1  0.7940509E+003  0.6283839E+02  0.7546771E-02  0.1250482E+00
          2   -1    0    0  501    0  0.00000000000E+00  0.00000000000E+00  0.19524522406E+03  0.19524522406E+03  0.00000000000E+00 0. -1.
          2   -1    0    0  502    0 -0.00000000000E+00 -0.00000000000E+00 -0.63812957787E+03  0.63812957787E+03  0.00000000000E+00 0.  1.
          2    1    1    2  501    0  0.16020507561E+01 -0.62817959906E+02 -0.63147341799E+03  0.63459226301E+03  0.00000000000E+00 0.  1.
          2    1    1    2  502    0 -0.16020507561E+01  0.62817959906E+02  0.18858906417E+03  0.19878253891E+03  0.00000000000E+00 0. -1.
</event>
<event>
 4    1  0.7940509E+003  0.2221432E+02  0.7546771E-02  0.1502607E+00
          2   -1    0    0  502    0  0.00000000000E+00  0.00000000000E+00  0.32650902619E+03  0.32650902619E+03  0.00000000000E+00 0.  1.
          2   -1    0    0  501    0 -0.00000000000E+00 -0.00000000000E+00 -0.29142629124E+01  0.29142629124E+01  0.00000000000E+00 0. -1.
          2    1    1    2  501    0  0.24172510445E+01 -0.22082413118E+02  0.27607788381E+03  0.27697016807E+03  0.00000000000E+00 0.  1.
          2    1    1    2  502    0 -0.24172510445E+01  0.22082413118E+02  0.47516879469E+02  0.52453121033E+02  0.00000000000E+00 0. -1.
</event>
<event>
 4    1  0.7940509E+003  0.2148381E+02  0.7546771E-02  0.1512468E+00
          2   -1    0    0  501    0  0.00000000000E+00  0.00000000000E+00  0.16520222733E+02  0.16520222733E+02  0.00000000000E+00 0. -1.
          2   -1    0    0  502    0 -0.00000000000E+00 -0.00000000000E+00 -0.82872302737E+02  0.82872302737E+02  0.00000000000E+00 0.  1.
          2    1    1    2  501    0 -0.73074499370E+01 -0.20202855149E+02 -0.73637161504E+02  0.76707142660E+02  0.00000000000E+00 0.  1.
          2    1    1    2  502    0  0.73074499370E+01  0.20202855149E+02  0.72850814994E+01  0.22685382810E+02  0.00000000000E+00 0. -1.
</event>
<event>
 4    1  0.7940509E+003  0.4333186E+02  0.7546771E-02  0.1329995E+00
          2   -1    0    0  501    0  0.00000000000E+00  0.00000000000E+00  0.66544560680E+03  0.66544560680E+03  0.00000000000E+00 0. -1.
          2   -1    0    0  502    0 -0.00000000000E+00 -0.00000000000E+00 -0.44037274099E+01  0.44037274099E+01  0.00000000000E+00 0.  1.
          2    1    1    2  501    0 -0.35169194610E+02 -0.25313591830E+02  0.53126915623E+03  0.53303336344E+03  0.00000000000E+00 0. -1.
          2    1    1    2  502    0  0.35169194610E+02  0.25313591830E+02  0.12977272316E+03  0.13681597077E+03  0.00000000000E+00 0.  1.
</event>
<event>
 4    1  0.7940509E+003  0.5124964E+02  0.7546771E-02  0.1292844E+00
          2   -1    0    0  502    0  0.00000000000E+00  0.00000000000E+00  0.21657476637E+02  0.21657476637E+02  0.00000000000E+00 0.  1.
          2   -1    0    0  501    0 -0.00000000000E+00 -0.00000000000E+00 -0.85641149405E+03  0.85641149405E+03  0.00000000000E+00 0. -1.
          2    1    1    2  501    0 -0.36095777530E+02 -0.36381590702E+02 -0.10614253670E+02  0.52337249435E+02  0.00000000000E+00 0.  1.
          2    1    1    2  502    0  0.36095777530E+02  0.36381590702E+02 -0.82413976375E+03  0.82573172126E+03  0.00000000000E+00 0. -1.
</event>
<event>
 4    1  0.7940509E+003  0.2418652E+02  0.7546771E-02  0.1478113E+00
          2   -1    0    0  502    0  0.00000000000E+00  0.00000000000E+00  0.51344005893E+01  0.51344005893E+01  0.00000000000E+00 0. -1.
          2   -1    0    0  501    0 -0.00000000000E+00 -0.00000000000E+00 -0.28599666337E+03  0.28599666337E+03  0.00000000000E+00 0. -1.
          2    1    1    2  501    0  0.24079003920E+02  0.22780323178E+01 -0.27524319531E+02  0.36641179384E+02  0.00000000000E+00 0. -1.
          2    1    1    2  502    0 -0.24079003920E+02 -0.22780323178E+01 -0.25333794325E+03  0.25448988458E+03  0.00000000000E+00 0. -1.
</event>
<event>
 4    1  0.7940509E+003  0.2217945E+02  0.7546771E-02  0.1503067E+00
          2   -1    0    0  502    0  0.00000000000E+00  0.00000000000E+00  0.16255626424E+04  0.16255626424E+04  0.00000000000E+00 0. -1.
          2   -1    0    0  501    0 -0.00000000000E+00 -0.00000000000E+00 -0.25152527545E+03  0.25152527545E+03  0.00000000000E+00 0.  1.
          2    1    1    2  501    0 -0.11971901221E+02  0.18670879107E+02  0.16249978724E+04  0.16251492281E+04  0.00000000000E+00 0. -1.
          2    1    1    2  502    0  0.11971901221E+02 -0.18670879107E+02 -0.25096050543E+03  0.25193868982E+03  0.00000000000E+00 0.  1.
</event>
<event>
 4    1  0.7940509E+003  0.2166961E+02  0.7546771E-02  0.1509915E+00
          2   -1    0    0  501    0  0.00000000000E+00  0.00000000000E+00  0.43410028788E+01  0.43410028788E+01  0.00000000000E+00 0. -1.
          2   -1    0    0  502    0 -0.00000000000E+00 -0.00000000000E+00 -0.34078917757E+03  0.34078917757E+03  0.00000000000E+00 0.  1.
          2    1    1    2  501    0  0.15393461458E+02 -0.15251671002E+02 -0.31079520271E+03  0.31154972340E+03  0.00000000000E+00 0.  1.
          2    1    1    2  502    0 -0.15393461458E+02  0.15251671002E+02 -0.25652971979E+02  0.33580457045E+02  0.00000000000E+00 0. -1.
</event>
<event>
 4    1  0.7940509E+003  0.7965983E+02  0.7546771E-02  0.1204640E+00
          2   -1    0    0  501    0  0.00000000000E+00  0.00000000000E+00  0.29032206995E+03  0.29032206995E+03  0.00000000000E+00 0. -1.
          2   -1    0    0  502    0 -0.00000000000E+00 -0.00000000000E+00 -0.28234108526E+02  0.28234108526E+02  0.00000000000E+00 0. -1.
          2    1    1    2  501    0  0.76537246290E+02 -0.22084796245E+02  0.55349020398E+02  0.97001043055E+02  0.00000000000E+00 0. -1.
          2    1    1    2  502    0 -0.76537246290E+02  0.22084796245E+02  0.20673894103E+03  0.22155513543E+03  0.00000000000E+00 0. -1.
</event>
<event>
 4    1  0.7940509E+003  0.3166042E+02  0.7546771E-02  0.1405696E+00
          2   -1    0    0  501    0  0.00000000000E+00  0.00000000000E+00  0.31587284725E+02  0.31587284725E+02  0.00000000000E+00 0. -1.
          2   -1    0    0  502    0 -0.00000000000E+00 -0.00000000000E+00 -0.33420868401E+02  0.33420868401E+02  0.00000000000E+00 0. -1.
          2    1    1    2  501    0 -0.23876961851E+02 -0.20791178148E+02 -0.82198405185E+01  0.32710062277E+02  0.00000000000E+00 0. -1.
          2    1    1    2  502    0  0.23876961851E+02  0.20791178148E+02  0.63862568425E+01  0.32298090848E+02  0.00000000000E+00 0. -1.
</event>
<event>
 4    1  0.7940509E+003  0.2660297E+02  0.7546771E-02  0.1451638E+00
          2   -1    0    0  502    0  0.00000000000E+00  0.00000000000E+00  0.25643048717E+02  0.25643048717E+02  0.00000000000E+00 0. -1.
          2   -1    0    0  501    0 -0.00000000000E+00 -0.00000000000E+00 -0.60566711491E+03  0.60566711491E+03  0.00000000000E+00 0.  1.
          2    1    1    2  501    0  0.25618610341E+02  0.71697212556E+01  0.18367367988E+02  0.32327670895E+02  0.00000000000E+00 0. -1.
          2    1    1    2  502    0 -0.25618610341E+02 -0.71697212556E+01 -0.59839143418E+03  0.59898249273E+03  0.00000000000E+00 0.  1.
</event>
<event>
 4    1  0.7940509E+003  0.2266768E+02  0.7546771E-02  0.1496714E+00
          2   -1    0    0  501    0  0.00000000000E+00  0.00000000000E+00  0.40207011698E+03  0.40207011698E+03  0.00000000000E+00 0. -1.
          2   -1    0    0  502    0 -0.00000000000E+00 -0.00000000000E+00 -0.11880062270E+02  0.11880062270E+02  0.00000000000E+00 0. -1.
          2    1    1    2  501    0  0.19973455260E+01  0.22579507547E+02 -0.43119961104E+00  0.22671777242E+02  0.00000000000E+00 0. -1.
          2    1    1    2  502    0 -0.19973455260E+01 -0.22579507547E+02  0.39062125432E+03  0.39127840200E+03  0.00000000000E+00 0. -1.
</event>
<event>
 4    1  0.7940509E+003  0.2621526E+02  0.7546771E-02  0.1455654E+00
          2   -1    0    0  501    0  0.00000000000E+00  0.00000000000E+00  0.48648668699E+03  0.48648668699E+03  0.00000000000E+00 0.  1.
          2   -1    0    0  502    0 -0.00000000000E+00 -0.00000000000E+00 -0.29229802179E+01  0.29229802179E+01  0.00000000000E+00 0.  1.
          2    1    1    2  501    0  0.21561280634E+02 -0.14911437725E+02  0.65882488460E+02  0.70906572921E+02  0.00000000000E+00 0.  1.
          2    1    1    2  502    0 -0.21561280634E+02  0.14911437725E+02  0.41768121831E+03  0.41850309429E+03  0.00000000000E+00 0.  1.
</event>
<event>
 4    1  0.7940509E+003  0.2234816E+02  0.7546771E-02  0.1500850E+00
          2   -1    0    0  502    0  0.00000000000E+00  0.00000000000E+00  0.13334795357E+04  0.13334795357E+04  0.00000000000E+00 0. -1.
          2   -1    0    0  501    0 -0.00000000000E+00 -0.00000000000E+00 -0.18107866865E+02  0.18107866865E+02  0.00000000000E+00 0. -1.
          2    1    1    2  501    0  0.15312806111E+02  0.16277539548E+02  0.13264540325E+04  0.13266422806E+04  0.00000000000E+00 0. -1.
          2    1    1    2  502    0 -0.15312806111E+02 -0.16277539548E+02 -0.11082363679E+02  0.24945121957E+02  0.00000000000E+00 0. -1.
</event>
<event>
 4    1  0.7940509E+003  0.2390647E+02  0.7546771E-02  0.1481419E+00
          2   -1    0    0  502    0  0.00000000000E+00  0.00000000000E+00  0.15989919108E+04  0.15989919108E+04  0.00000000000E+00 0.  1.
          2   -1    0    0  501    0 -0.00000000000E+00 -0.00000000000E+00 -0.37722240724E+02  0.37722240724E+02  0.00000000000E+00 0.  1.
          2    1    1    2  501    0  0.18511396254E+02  0.15127713768E+02  0.15951056442E+04  0.15952847820E+04  0.00000000000E+00 0.  1.
          2    1    1    2  502    0 -0.18511396254E+02 -0.15127713768E+02 -0.33835974119E+02  0.41429369531E+02  0.00000000000E+00 0.  1.
</event>
<event>
 4    1  0.7940509E+003  0.2582059E+02  0.7546771E-02  0.1459829E+00
          2   -1    0    0  502    0  0.00000000000E+00  0.00000000000E+00  0.72327497151E+03  0.72327497151E+03  0.00000000000E+00 0.  1.
          2   -1    0    0  501    0 -0.00000000000E+00 -0.00000000000E+00 -0.11042164801E+01  0.11042164801E+01  0.00000000000E+00 0.  1.
          2    1    1    2  501    0 -0.13409339415E+02 -0.22065639685E+02  0.50830330221E+03  0.50895869172E+03  0.00000000000E+00 0.  1.
          2    1    1    2  502    0  0.13409339415E+02  0.22065639685E+02  0.21386745283E+03  0.21542049628E+03  0.00000000000E+00 0.  1.
</event>
<event>
 4    1  0.7940509E+003  0.4254522E+02  0.7546771E-02  0.1334183E+00
          2   -1    0    0  501    0  0.00000000000E+00  0.00000000000E+00  0.13047969106E+01  0.13047969106E+01  0.00000000000E+00 0. -1.
          2   -1    0    0  502    0 -0.00000000000E+00 -0.00000000000E+00 -0.31202840078E+04  0.31202840078E+04  0.00000000000E+00 0. -1.
          2    1    1    2  501    0 -0.22115022727E+02 -0.36345854675E+02 -0.27226795923E+04  0.27230119826E+04  0.00000000000E+00 0. -1.
          2    1    1    2  502    0  0.22115022727E+02  0.36345854675E+02 -0.39629961866E+03  0.39857682212E+03  0.00000000000E+00 0. -1.
</event>
<event>
 4    1  0.7940509E+003  0.2700388E+02  0.7546771E-02  0.1447569E+00
          2   -1    0    0  502    0  0.00000000000E+00  0.00000000000E+00  0.48578420771E+02  0.48578420771E+02  0.00000000000E+00 0. -1.
          2   -1    0    0  501    0 -0.00000000000E+00 -0.00000000000E+00 -0.37115745940E+02  0.37115745940E+02  0.00000000000E+00 0.  1.
          2    1    1    2  501    0 -0.23374772744E+02 -0.13521446854E+02  0.38797604082E+02  0.47270113268E+02  0.00000000000E+00 0. -1.
          2    1    1    2  502    0  0.23374772744E+02  0.13521446854E+02 -0.27334929251E+02  0.38424053444E+02  0.00000000000E+00 0.  1.
</event>
<event>
 4    1  0.7940509E+003  0.2971702E+02  0.7546771E-02  0.1422072E+00
          2   -1    0    0  501    0  0.00000000000E+00  0.00000000000E+00  0.10067913265E+04  0.10067913265E+04  0.00000000000E+00 0. -1.
          2   -1    0    0  502    0 -0.00000000000E+00 -0.00000000000E+00 -0.11573168673E+02  0.11573168673E+02  0.00000000000E+00 0.  1.
          2    1    1    2  501    0 -0.13355786957E+02 -0.26546647588E+02  0.81027639587E+01  0.30801888370E+02  0.00000000000E+00 0.  1.
          2    1    1    2  502    0  0.13355786957E+02  0.26546647588E+02  0.98711539385E+03  0.98756260678E+03  0.00000000000E+00 0. -1.
</event>
<event>
 4    1  0.7940509E+003  0.2058828E+02  0.7546771E-02  0.1525225E+00
          2   -1    0    0  502    0  0.00000000000E+00  0.00000000000E+00  0.12898743130E+04  0.12898743130E+04  0.00000000000E+00 0.  1.
          2   -1    0    0  501    0 -0.00000000000E+00 -0.00000000000E+00 -0.34013351023E+00  0.34013351023E+00  0.00000000000E+00 0. -1.
          2    1    1    2  501    0  0.20393670093E+01 -0.20487026675E+02  0.52607306325E+03  0.52647577832E+03  0.00000000000E+00 0. -1.
          2    1    1    2  502    0 -0.20393670093E+01  0.20487026675E+02  0.76346111622E+03  0.76373866817E+03  0.00000000000E+00 0.  1.
</event>
<event>
 4    1  0.7940509E+003  0.2097607E+02  0.7546771E-02  0.1519607E+00
          2   -1    0    0  501    0  0.00000000000E+00  0.00000000000E+00  0.14718553234E+02  0.14718553234E+02  0.00000000000E+00 0. -1.
          2   -1    0    0  502    0 -0.00000000000E+00 -0.00000000000E+00 -0.29373262676E+03  0.29373262676E+03  0.00000000000E+00 0. -1.
          2    1    1    2  501    0 -0.20236097298E+02 -0.55223124703E+01 -0.28567412074E+03  0.28644318604E+03  0.00000000000E+00 0. -1.
          2    1    1    2  502    0  0.20236097298E+02  0.55223124703E+01  0.66600472154E+01  0.22007993951E+02  0.00000000000E+00 0. -1.
</event>
<event>
 4    1  0.7940509E+003  0.2442358E+02  0.7546771E-02  0.1475356E+00
          2   -1    0    0  502    0  0.00000000000E+00  0.00000000000E+00  0.34124445463E+01  0.34124445463E+01  0.00000000000E+00 0.  1.
          2   -1    0    0  501    0 -0.00000000000E+00 -0.00000000000E+00 -0.18174921447E+03  0.18174921447E+03  0.00000000000E+00 0.  1.
          2    1    1    2  501    0 -0.73219286465E+00  0.24412601475E+02 -0.71071371361E+02  0.75150855247E+02  0.00000000000E+00 0.  1.
          2    1    1    2  502    0  0.73219286465E+00 -0.24412601475E+02 -0.10726539856E+03  0.11001080377E+03  0.00000000000E+00 0.  1.
</event>
<event>
 4    1  0.7940509E+003  0.3430778E+02  0.7546771E-02  0.1385496E+00
          2   -1    0    0  501    0  0.00000000000E+00  0.00000000000E+00  0.28580228932E+03  0.28580228932E+03  0.00000000000E+00 0. -1.
          2   -1    0    0  502    0 -0.00000000000E+00 -0.00000000000E+00 -0.41634366560E+02  0.41634366560E+02  0.00000000000E+00 0. -1.
          2    1    1    2  501    0 -0.19872197375E+02  0.27966396071E+02 -0.33326370621E+02  0.47829598749E+02  0.00000000000E+00 0. -1.
          2    1    1    2  502    0  0.19872197375E+02 -0.27966396071E+02  0.27749429338E+03  0.27960705713E+03  0.00000000000E+00 0. -1.
</event>
<event>
 4    1  0.7940509E+003  0.2168431E+02  0.7546771E-02  0.1509715E+00
          2   -1    0    0  502    0  0.00000000000E+00  0.00000000000E+00  0.11530263094E+04  0.11530263094E+04  0.00000000000E+00 0. -1.
          2   -1    0    0  501    0 -0.00000000000E+00 -0.00000000000E+00 -0.40875964574E+00  0.40875964574E+00  0.00000000000E+00 0. -1.
          2    1    1    2  501    0  0.49956300542E+01  0.21101015395E+02  0.60418878993E+03  0.60457778908E+03  0.00000000000E+00 0. -1.
          2    1    1    2  502    0 -0.49956300542E+01 -0.21101015395E+02  0.54842875984E+03  0.54885727998E+03  0.00000000000E+00 0. -1.
</event>
<event>
 4    1  0.7940509E+003  0.2581379E+02  0.7546771E-02  0.1459902E+00
          2   -1    0    0  502    0  0.00000000000E+00  0.00000000000E+00  0.43990060848E+01  0.43990060848E+01  0.00000000000E+00 0.  1.
          2   -1    0    0  501    0 -0.00000000000E+00 -0.00000000000E+00 -0.18931856447E+04  0.18931856447E+04  0.00000000000E+00 0.  1.
          2    1    1    2  501    0  0.24317857541E+02 -0.86598816607E+01 -0.34349684856E+02  0.42968041559E+02  0.00000000000E+00 0.  1.
          2    1    1    2  502    0 -0.24317857541E+02  0.86598816607E+01 -0.18544369537E+04  0.18546166092E+04  0.00000000000E+00 0.  1.
</event>
<event>
 4    1  0.7940509E+003  0.2224712E+02  0.7546771E-02  0.1502175E+00
          2   -1    0    0  501    0  0.00000000000E+00  0.00000000000E+00  0.30283408593E+02  0.30283408593E+02  0.00000000000E+00 0. -1.
          2   -1    0    0  502    0 -0.00000000000E+00 -0.00000000000E+00 -0.13368959398E+03  0.13368959398E+03  0.00000000000E+00 0.  1.
          2    1    1    2  501    0  0.18608748925E+02  0.12192156306E+02 -0.12851490890E+03  0.13042628577E+03  0.00000000000E+00 0.  1.
          2    1    1    2  502    0 -0.18608748925E+02 -0.12192156306E+02  0.25108723508E+02  0.33546716801E+02  0.00000000000E+00 0. -1.
</event>
<event>
 4    1  0.7940509E+003  0.2051364E+02  0.7546771E-02  0.1526323E+00
          2   -1    0    0  501    0  0.00000000000E+00  0.00000000000E+00  0.26594691692E+00  0.26594691692E+00  0.00000000000E+00 0. -1.
          2   -1    0    0  502    0 -0.00000000000E+00 -0.00000000000E+00 -0.20124397796E+04  0.20124397796E+04  0.00000000000E+00 0. -1.
          2    1    1    2  501    0 -0.14553389184E+02  0.14457123209E+02 -0.14713411546E+04  0.14714841497E+04  0.00000000000E+00 0. -1.
          2    1    1    2  502    0  0.14553389184E+02 -0.14457123209E+02 -0.54083267805E+03  0.54122157680E+03  0.00000000000E+00 0. -1.
</event>
<event>
 4    1  0.7940509E+003  0.2170150E+02  0.7546771E-02  0.1509481E+00
          2   -1    0    0  502    0  0.00000000000E+00  0.00000000000E+00  0.44445689065E+03  0.44445689065E+03  0.00000000000E+00 0.  1.
          2   -1    0    0  501    0 -0.00000000000E+00 -0.00000000000E+00 -0.79002127014E+01  0.79002127014E+01  0.00000000000E+00 0. -1.
          2    1    1    2  501    0 -0.86701386159E+01 -0.19894312552E+02  0.42874287394E+03  0.42929175036E+03  0.00000000000E+00 0.  1.
          2    1    1    2  502    0  0.86701386159E+01  0.19894312552E+02  0.78138040138E+01  0.23065352993E+02  0.00000000000E+00 0. -1.
</event>
<event>
 4    1  0.7940509E+003  0.2978439E+02  0.7546771E-02  0.1421480E+00
          2   -1    0    0  502    0  0.00000000000E+00  0.00000000000E+00  0.82691772469E+02  0.82691772469E+02  0.00000000000E+00 0. -1.
          2   -1    0    0  501    0 -0.00000000000E+00 -0.00000000000E+00 -0.12477588570E+03  0.12477588570E+03  0.00000000000E+00 0.  1.
          2    1    1    2  501    0 -0.15620108290E+02 -0.25359857931E+02  0.78132179150E+02  0.83616670563E+02  0.00000000000E+00 0. -1.
          2    1    1    2  502    0  0.15620108290E+02  0.25359857931E+02 -0.12021629238E+03  0.12385098761E+03  0.00000000000E+00 0.  1.
</event>
<event>
 4    1  0.7940509E+003  0.4161931E+02  0.7546771E-02  0.1339249E+00
          2   -1    0    0  502    0  0.00000000000E+00  0.00000000000E+00  0.25683504549E+04  0.25683504549E+04  0.00000000000E+00 0. -1.
          2   -1    0    0  501    0 -0.00000000000E+00 -0.00000000000E+00 -0.30126405447E+01  0.30126405447E+01  0.00000000000E+00 0.  1.
          2    1    1    2  501    0 -0.30727880220E+02 -0.28070706175E+02  0.24153346257E+04  0.24156931761E+04  0.00000000000E+00 0. -1.
          2    1    1    2  502    0  0.30727880220E+02  0.28070706175E+02  0.15000318865E+03  0.15566991929E+03  0.00000000000E+00 0.  1.
</event>
<event>
 4    1  0.7940509E+003  0.2733925E+02  0.7546771E-02  0.1444230E+00
          2   -1    0    0  501    0  0.00000000000E+00  0.00000000000E+00  0.63573872484E+03  0.63573872484E+03  0.00000000000E+00 0. -1.
          2   -1    0    0  502    0 -0.00000000000E+00 -0.00000000000E+00 -0.14721098573E+02  0.14721098573E+02  0.00000000000E+00 0. -1.
          2    1    1    2  501    0 -0.76280474750E+01 -0.26253524972E+02 -0.14637128461E+01  0.27378406401E+02  0.00000000000E+00 0. -1.
          2    1    1    2  502    0  0.76280474750E+01  0.26253524972E+02  0.62248133912E+03  0.62308141702E+03  0.00000000000E+00 0. -1.
</event>
<event>
 4    1  0.7940509E+003  0.3336032E+02  0.7546771E-02  0.1392472E+00
          2   -1    0    0  502    0  0.00000000000E+00  0.00000000000E+00  0.70223007256E+02  0.70223007256E+02  0.00000000000E+00 0. -1.
          2   -1    0    0  501    0 -0.00000000000E+00 -0.00000000000E+00 -0.18608615714E+04  0.18608615714E+04  0.00000000000E+00 0. -1.
          2    1    1    2  501    0 -0.25961487462E+02  0.20950229129E+02  0.66102640561E+02  0.74043703452E+02  0.00000000000E+00 0. -1.
          2    1    1    2  502    0  0.25961487462E+02 -0.20950229129E+02 -0.18567412047E+04  0.18570408752E+04  0.00000000000E+00 0. -1.
</event>
<event>
 4    1  0.7940509E+003  0.6390816E+02  0.7546771E-02  0.1247102E+00
          2   -1    0    0  502    0  0.00000000000E+00  0.00000000000E+00  0.39934943833E+01  0.39934943833E+01  0.00000000000E+00 0. -1.
          2   -1    0    0  501    0 -0.00000000000E+00 -0.00000000000E+00 -0.19907976502E+04  0.19907976502E+04  0.00000000000E+00 0.  1.
          2    1    1    2  501    0  0.63662455431E+02 -0.55986691901E+01 -0.29788552495E+03  0.30466381358E+03  0.00000000000E+00 0. -1.
          2    1    1    2  502    0 -0.63662455431E+02  0.55986691901E+01 -0.16889186309E+04  0.16901273310E+04  0.00000000000E+00 0.  1.
</event>
<event>
 4    1  0.7940509E+003  0.2734435E+02  0.7546771E-02  0.1444179E+00
          2   -1    0    0  501    0  0.00000000000E+00  0.00000000000E+00  0.38927500957E+01  0.38927500957E+01  0.00000000000E+00 0.  1.
          2   -1    0    0  502    0 -0.00000000000E+00 -0.00000000000E+00 -0.15192218883E+04  0.15192218883E+04  0.00000000000E+00 0.  1.
          2    1    1    2  501    0 -0.16859871149E+02  0.21528079318E+02 -0.14694529951E+04  0.14697073921E+04  0.00000000000E+00 0.  1.
          2    1    1    2  502    0  0.16859871149E+02 -0.21528079318E+02 -0.45876143022E+02  0.53407246258E+02  0.00000000000E+00 0.  1.
</event>
<event>
 4    1  0.7940509E+003  0.2211427E+02  0.7546771E-02  0.1503930E+00
          2   -1    0    0  502    0  0.00000000000E+00  0.00000000000E+00  0.12081684887E+03  0.12081684887E+03  0.00000000000E+00 0. -1.
          2   -1    0    0  501    0 -0.00000000000E+00 -0.00000000000E+00 -0.11216629114E+04  0.11216629114E+04  0.00000000000E+00 0.  1.
          2    1    1    2  501    0 -0.78841868733E+01  0.20661088910E+02  0.11969488963E+03  0.12172061288E+03  0.00000000000E+00 0. -1.
          2    1    1    2  502    0  0.78841868733E+01 -0.20661088910E+02 -0.11205409522E+04  0.11207591474E+04  0.00000000000E+00 0.  1.
</event>
<event>
 4    1  0.7940509E+003  0.3108577E+02  0.7546771E-02  0.1410390E+00
          2   -1    0    0  501    0  0.00000000000E+00  0.00000000000E+00  0.16801375089E+04  0.16801375089E+04  0.00000000000E+00 0. -1.
          2   -1    0    0  502    0 -0.00000000000E+00 -0.00000000000E+00 -0.19741813887E+02  0.19741813887E+02  0.00000000000E+00 0.  1.
          2    1    1    2  501    0 -0.31031458150E+02  0.18367445941E+01 -0.72694810092E+01  0.31924447994E+02  0.00000000000E+00 0.  1.
          2    1    1    2  502    0  0.31031458150E+02 -0.18367445941E+01  0.16676651760E+04  0.16679548747E+04  0.00000000000E+00 0. -1.
</event>
<event>
 4    1  0.7940509E+003  0.2097110E+02  0.7546771E-02  0.1519678E+00
          2   -1    0    0  501    0  0.00000000000E+00  0.00000000000E+00  0.65699172439E+02  0.65699172439E+02  0.00000000000E+00 0. -1.
          2   -1    0    0  502    0 -0.00000000000E+00 -0.00000000000E+00 -0.71814976571E+01  0.71814976571E+01  0.00000000000E+00 0.  1.
          2    1    1    2  501    0  0.52682474328E+01  0.20298582673E+02  0.19764077896E+02  0.28816760134E+02  0.00000000000E+00 0.  1.
          2    1    1    2  502    0 -0.52682474328E+01 -0.20298582673E+02  0.38753596886E+02  0.44063909962E+02  0.00000000000E+00 0. -1.
</event>
<event>
 4    1  0.7940509E+003  0.2697094E+02  0.7546771E-02  0.1447900E+00
          2   -1    0    0  501    0  0.00000000000E+00  0.00000000000E+00  0.39057396612E+03  0.39057396612E+03  0.00000000000E+00 0.  1.
          2   -1    0    0  502    0 -0.00000000000E+00 -0.00000000000E+00 -0.21035363819E+02  0.21035363819E+02  0.00000000000E+00 0. -1.
          2    1    1    2  501    0 -0.26970732242E+02 -0.10576896494E+00 -0.11713280087E+02  0.29404634246E+02  0.00000000000E+00 0. -1.
          2    1    1    2  502    0  0.26970732242E+02  0.10576896494E+00  0.38125188239E+03  0.38220469570E+03  0.00000000000E+00 0.  1.
</event>
<event>
 4    1  0.7940509E+003  0.2715403E+02  0.7546771E-02  0.1446067E+00
          2   -1    0    0  501    0  0.00000000000E+00  0.00000000000E+00  0.19584474419E+02  0.19584474419E+02  0.00000000000E+00 0.  1.
          2   -1    0    0  502    0 -0.00000000000E+00 -0.00000000000E+00 -0.76761366965E+02  0.76761366965E+02  0.00000000000E+00 0. -1.
          2    1    1    2  501    0 -0.22856788918E+02 -0.14659759333E+02 -0.62974879309E+02  0.68579711048E+02  0.00000000000E+00 0. -1.
          2    1    1    2  502    0  0.22856788918E+02  0.14659759333E+02  0.57979867625E+01  0.27766130337E+02  0.00000000000E+00 0.  1.
</event>
<event>
 4    1  0.7940509E+003  0.2472098E+02  0.7546771E-02  0.1471949E+00
          2   -1    0    0  502    0  0.00000000000E+00  0.00000000000E+00  0.66075306823E+03  0.66075306823E+03  0.00000000000E+00 0.  1.
          2   -1    0    0  501    0 -0.00000000000E+00 -0.00000000000E+00 -0.13054700945E+01  0.13054700945E+01  0.00000000000E+00 0. -1.
          2    1    1    2  501    0  0.24468831073E+02  0.35218068073E+01  0.50845626683E+03  0.50905687510E+03  0.00000000000E+00 0.  1.
          2    1    1    2  502    0 -0.24468831073E+02 -0.35218068073E+01  0.15099133131E+03  0.15300166322E+03  0.00000000000E+00 0. -1.
</event>
<event>
 4    1  0.7940509E+003  0.3915620E+02  0.7546771E-02  0.1353503E+00
          2   -1    0    0  501    0  0.00000000000E+00  0.00000000000E+00  0.86245966086E+03  0.86245966086E+03  0.00000000000E+00 0.  1.
          2   -1    0    0  502    0 -0.00000000000E+00 -0.00000000000E+00 -0.97527676012E+01  0.97527676012E+01  0.00000000000E+00 0.  1.
          2    1    1    2  501    0  0.37846460972E+02 -0.10042581801E+02  0.31991413339E+02  0.50563411522E+02  0.00000000000E+00 0.  1.
          2    1    1    2  502    0 -0.37846460972E+02  0.10042581801E+02  0.82071547992E+03  0.82164901694E+03  0.00000000000E+00 0.  1.
</event>
<event>
 4    1  0.7940509E+003  0.2461005E+02  0.7546771E-02  0.1473213E+00
          2   -1    0    0  502    0  0.00000000000E+00  0.00000000000E+00  0.29279057681E+03  0.29279057681E+03  0.00000000000E+00 0.  1.
          2   -1    0    0  501    0 -0.00000000000E+00 -0.00000000000E+00 -0.21071595924E+02  0.21071595924E+02  0.00000000000E+00 0.  1.
          2    1    1    2  501    0 -0.17935724162E+02 -0.16851249139E+02  0.28488882563E+03  0.28594981687E+03  0.00000000000E+00 0.  1.
          2    1    1    2  502    0  0.17935724162E+02  0.16851249139E+02 -0.13169844751E+02  0.27912355858E+02  0.00000000000E+00 0.  1.
</event>
<event>
 4    1  0.7940509E+003  0.3535559E+02  0.7546771E-02  0.1378080E+00
          2   -1    0    0  501    0  0.00000000000E+00  0.00000000000E+00  0.92903228472E+02  0.92903228472E+02  0.00000000000E+00 0. -1.
          2   -1    0    0  502    0 -0.00000000000E+00 -0.00000000000E+00 -0.15922539892E+03  0.15922539892E+03  0.00000000000E+00 0. -1.
          2    1    1    2  501    0  0.17357216732E+02  0.30801695665E+02 -0.15378143685E+03  0.15779337041E+03  0.00000000000E+00 0. -1.
          2    1    1    2  502    0 -0.17357216732E+02 -0.30801695665E+02  0.87459266402E+02  0.94335256973E+02  0.00000000000E+00 0. -1.
</event>
<event>
 4    1  0.7940509E+003  0.2629492E+02  0.7546771E-02  0.1454822E+00
          2   -1    0    0  502    0  0.00000000000E+00  0.00000000000E+00  0.40118925200E+03  0.40118925200E+03  0.00000000000E+00 0.  1.
          2   -1    0    0  501    0 -0.00000000000E+00 -0.00000000000E+00 -0.22799589845E+03  0.22799589845E+03  0.00000000000E+00 0. -1.
          2    1    1    2  501    0 -0.13039459219E+02 -0.22834082888E+02  0.39999798553E+03  0.40086133670E+03  0.00000000000E+00 0.  1.
          2    1    1    2  502    0  0.13039459219E+02  0.22834082888E+02 -0.22680463197E+03  0.22832381374E+03  0.00000000000E+00 0. -1.
</event>
<event>
 4    1  0.8516944E+003  0.2011100E+02  0.7546771E-02  0.1532346E+00
          2   -1    0    0  502    0  0.00000000000E+00  0.00000000000E+00  0.11319384974E+03  0.11319384974E+03  0.00000000000E+00 0. -1.
          2   -1    0    0  501    0 -0.00000000000E+00 -0.00000000000E+00 -0.92982049211E+03  0.92982049211E+03  0.00000000000E+00 0. -1.
          2    1    1    2  501    0  0.42254830123E+01 -0.19662090121E+02  0.11219086647E+03  0.11397913412E+03  0.00000000000E+00 0. -1.
          2    1    1    2  502    0 -0.42254830123E+01  0.19662090121E+02 -0.92881750884E+03  0.92903520774E+03  0.00000000000E+00 0. -1.
</event>
<event>
 4    1  0.7940509E+003  0.3030085E+02  0.7546771E-02  0.1417000E+00
          2   -1    0    0  502    0  0.00000000000E+00  0.00000000000E+00  0.13595170877E+03  0.13595170877E+03  0.00000000000E+00 0.  1.
          2   -1    0    0  501    0 -0.00000000000E+00 -0.00000000000E+00 -0.19560962412E+02  0.19560962412E+02  0.00000000000E+00 0. -1.
          2    1    1    2  501    0 -0.28796421447E+02  0.94290871932E+01  0.12111313358E+03  0.12484603598E+03  0.00000000000E+00 0.  1.
          2    1    1    2  502    0  0.28796421447E+02 -0.94290871932E+01 -0.47223872257E+01  0.30666635201E+02  0.00000000000E+00 0. -1.
</event>
<event>
 4    1  0.7940509E+003  0.2225902E+02  0.7546771E-02  0.1502018E+00
          2   -1    0    0  502    0  0.00000000000E+00  0.00000000000E+00  0.10784644022E+01  0.10784644022E+01  0.00000000000E+00 0.  1.
          2   -1    0    0  501    0 -0.00000000000E+00 -0.00000000000E+00 -0.88225337466E+03  0.88225337466E+03  0.00000000000E+00 0.  1.
          2    1    1    2  501    0  0.59879172763E+01  0.21438486431E+02 -0.13482519223E+03  0.13665027009E+03  0.00000000000E+00 0.  1.
          2    1    1    2  502    0 -0.59879172763E+01 -0.21438486431E+02 -0.74634971803E+03  0.74668156898E+03  0.00000000000E+00 0.  1.
</event>
<event>
 4    1  0.7940509E+003  0.4800958E+02  0.7546771E-02  0.1307041E+00
          2   -1    0    0  501    0  0.00000000000E+00  0.00000000000E+00  0.28899582749E+03  0.28899582749E+03  0.00000000000E+00 0.  1.
          2   -1    0    0  502    0 -0.00000000000E+00 -0.00000000000E+00 -0.13137995562E+03  0.13137995562E+03  0.00000000000E+00 0. -1.
          2    1    1    2  501    0 -0.30578551696E+02 -0.37011785751E+02 -0.12490018946E+03  0.13380948186E+03  0.00000000000E+00 0. -1.
          2    1    1    2  502    0  0.30578551696E+02  0.37011785751E+02  0.28251606133E+03  0.28656630126E+03  0.00000000000E+00 0.  1.
</event>
<event>
 4    1  0.7940509E+003  0.2211029E+02  0.7546771E-02  0.1503983E+00
          2   -1    0    0  502    0  0.00000000000E+00  0.00000000000E+00  0.15249699276E+03  0.15249699276E+03  0.00000000000E+00 0. -1.
          2   -1    0    0  501    0 -0.00000000000E+00 -0.00000000000E+00 -0.44234275027E+02  0.44234275027E+02  0.00000000000E+00 0. -1.
          2    1    1    2  501    0 -0.95405035938E+01 -0.19946018938E+02  0.14886559813E+03  0.15049860858E+03  0.00000000000E+00 0. -1.
          2    1    1    2  502    0  0.95405035938E+01  0.19946018938E+02 -0.40602880396E+02  0.46232659201E+02  0.00000000000E+00 0. -1.
</event>
<event>
 4    1  0.7940509E+003  0.2142058E+02  0.7546771E-02  0.1513344E+00
          2   -1    0    0  501    0  0.00000000000E+00  0.00000000000E+00  0.87925682075E+02  0.87925682075E+02  0.00000000000E+00 0.  1.
          2   -1    0    0  502    0 -0.00000000000E+00 -0.00000000000E+00 -0.42013196479E+03  0.42013196479E+03  0.00000000000E+00 0. -1.
          2    1    1    2  501    0 -0.21366449363E+02  0.15218712355E+01 -0.41854937297E+03  0.41909714728E+03  0.00000000000E+00 0. -1.
          2    1    1    2  502    0  0.21366449363E+02 -0.15218712355E+01  0.86343090255E+02  0.88960499578E+02  0.00000000000E+00 0.  1.
</event>
<event>
 4    1  0.7940509E+003  0.4412868E+02  0.7546771E-02  0.1325854E+00
          2   -1    0    0  502    0  0.00000000000E+00  0.00000000000E+00  0.12777708546E+02  0.12777708546E+02  0.00000000000E+00 0.  1.
          2   -1    0    0  501    0 -0.00000000000E+00 -0.00000000000E+00 -0.44913090782E+03  0.44913090782E+03  0.00000000000E+00 0. -1.
          2    1    1    2  501    0  0.99129725978E+01  0.43000851651E+02 -0.30452518328E+02  0.53616192899E+02  0.00000000000E+00 0.  1.
          2    1    1    2  502    0 -0.99129725978E+01 -0.43000851651E+02 -0.40590068095E+03  0.40829242347E+03  0.00000000000E+00 0. -1.
</event>
<event>
 4    1  0.7940509E+003  0.2419589E+02  0.7546771E-02  0.1478004E+00
          2   -1    0    0  501    0  0.00000000000E+00  0.00000000000E+00  0.69129846625E+02  0.69129846625E+02  0.00000000000E+00 0.  1.
          2   -1    0    0  502    0 -0.00000000000E+00 -0.00000000000E+00 -0.98492301415E+03  0.98492301415E+03  0.00000000000E+00 0.  1.
          2    1    1    2  501    0  0.19053016693E+02 -0.14913872899E+02 -0.98265234285E+03  0.98295018590E+03  0.00000000000E+00 0.  1.
          2    1    1    2  502    0 -0.19053016693E+02  0.14913872899E+02  0.66859175323E+02  0.71102674878E+02  0.00000000000E+00 0.  1.
</event>
<event>
 4    1  0.7940509E+003  0.2303934E+02  0.7546771E-02  0.1492005E+00
          2   -1    0    0  501    0  0.00000000000E+00  0.00000000000E+00  0.14865358002E+04  0.14865358002E+04  0.00000000000E+00 0.  1.
          2   -1    0    0  502    0 -0.00000000000E+00 -0.00000000000E+00 -0.53510151983E+02  0.53510151983E+02  0.00000000000E+00 0.  1.
          2    1    1    2  501    0 -0.58265361253E+00 -0.23031966785E+02 -0.50936627100E+02  0.55904838427E+02  0.00000000000E+00 0.  1.
          2    1    1    2  502    0  0.58265361253E+00  0.23031966785E+02  0.14839622753E+04  0.14841411138E+04  0.00000000000E+00 0.  1.
</event>
<event>
 4    1  0.7940509E+003  0.2536393E+02  0.7546771E-02  0.1464773E+00
          2   -1    0    0  502    0  0.00000000000E+00  0.00000000000E+00  0.19660592830E+03  0.19660592830E+03  0.00000000000E+00 0.  1.
          2   -1    0    0  501    0 -0.00000000000E+00 -0.00000000000E+00 -0.17851769823E+02  0.17851769823E+02  0.00000000000E+00 0. -1.
          2    1    1    2  501    0 -0.17439314396E+02 -0.18417367271E+02  0.18628153016E+03  0.18800036591E+03  0.00000000000E+00 0.  1.
          2    1    1    2  502    0  0.17439314396E+02  0.18417367271E+02 -0.75273716768E+01  0.26457332219E+02  0.00000000000E+00 0. -1.
</event>
<event>
 4    1  0.7940509E+003  0.4011243E+02  0.7546771E-02  0.1347828E+00
          2   -1    0    0  502    0  0.00000000000E+00  0.00000000000E+00  0.70140576862E+03  0.70140576862E+03  0.00000000000E+00 0.  1.
          2   -1    0    0  501    0 -0.00000000000E+00 -0.00000000000E+00 -0.49471367617E+02  0.49471367617E+02  0.00000000000E+00 0. -1.
          2    1    1    2  501    0  0.11593848034E+02  0.38400382606E+02  0.69259795957E+03  0.69375856052E+03  0.00000000000E+00 0.  1.
          2    1    1    2  502    0 -0.11593848034E+02 -0.38400382606E+02 -0.40663558567E+02  0.57118575716E+02  0.00000000000E+00 0. -1.
</event>
<event>
 4    1  0.7940509E+003  0.2125723E+02  0.7546771E-02  0.1515624E+00
          2   -1    0    0  501    0  0.00000000000E+00  0.00000000000E+00  0.51395722331E+03  0.51395722331E+03  0.00000000000E+00 0. -1.
          2   -1    0    0  502    0 -0.00000000000E+00 -0.00000000000E+00 -0.25591181882E+03  0.25591181882E+03  0.00000000000E+00 0.  1.
          2    1    1    2  501    0 -0.27022916439E+01  0.21084771517E+02 -0.25525001919E+03  0.25613364142E+03  0.00000000000E+00 0.  1.
          2    1    1    2  502    0  0.27022916439E+01 -0.21084771517E+02  0.51329542368E+03  0.51373540071E+03  0.00000000000E+00 0. -1.
</event>
<event>
 4    1  0.7940509E+003  0.2671149E+02  0.7546771E-02  0.1450528E+00
          2   -1    0    0  502    0  0.00000000000E+00  0.00000000000E+00  0.64306018030E+03  0.64306018030E+03  0.00000000000E+00 0. -1.
          2   -1    0    0  501    0 -0.00000000000E+00 -0.00000000000E+00 -0.62388134648E+01  0.62388134648E+01  0.00000000000E+00 0. -1.
          2    1    1    2  501    0  0.26654565307E+02 -0.17429635439E+01  0.61277928019E+03  0.61336119050E+03  0.00000000000E+00 0. -1.
          2    1    1    2  502    0 -0.26654565307E+02  0.17429635439E+01  0.24042086643E+02  0.35937803269E+02  0.00000000000E+00 0. -1.
</event>
<event>
 4    1  0.7940509E+003  0.2654662E+02  0.7546771E-02  0.1452216E+00
          2   -1    0    0  501    0  0.00000000000E+00  0.00000000000E+00  0.13722321462E+03  0.13722321462E+03  0.00000000000E+00 0. -1.
          2   -1    0    0  502    0 -0.00000000000E+00 -0.00000000000E+00 -0.17414706607E+04  0.17414706607E+04  0.00000000000E+00 0. -1.
          2    1    1    2  501    0 -0.19025519547E+02  0.18513575625E+02 -0.17400845715E+04  0.17402870565E+04  0.00000000000E+00 0. -1.
          2    1    1    2  502    0  0.19025519547E+02 -0.18513575625E+02  0.13583712540E+03  0.13840681889E+03  0.00000000000E+00 0. -1.
</event>
<event>
 4    1  0.7940509E+003  0.2103820E+02  0.7546771E-02  0.1518720E+00
          2   -1    0    0  501    0  0.00000000000E+00  0.00000000000E+00  0.31108087055E+00  0.31108087055E+00  0.00000000000E+00 0. -1.
          2   -1    0    0  502    0 -0.00000000000E+00 -0.00000000000E+00 -0.14443954462E+04  0.14443954462E+04  0.00000000000E+00 0.  1.
          2    1    1    2  501    0 -0.12040945050E+02 -0.17251715375E+02 -0.63371753655E+03  0.63406665436E+03  0.00000000000E+00 0.  1.
          2    1    1    2  502    0  0.12040945050E+02  0.17251715375E+02 -0.81036682880E+03  0.81063987273E+03  0.00000000000E+00 0. -1.
</event>
<event>
 4    1  0.7940509E+003  0.2148215E+02  0.7546771E-02  0.1512491E+00
          2   -1    0    0  501    0  0.00000000000E+00  0.00000000000E+00  0.12328345500E+03  0.12328345500E+03  0.00000000000E+00 0. -1.
          2   -1    0    0  502    0 -0.00000000000E+00 -0.00000000000E+00 -0.10445329652E+04  0.10445329652E+04  0.00000000000E+00 0. -1.
          2    1    1    2  501    0 -0.15364885203E+02  0.15013429339E+02 -0.10434857577E+04  0.10437068599E+04  0.00000000000E+00 0. -1.
          2    1    1    2  502    0  0.15364885203E+02 -0.15013429339E+02  0.12223624752E+03  0.12410956033E+03  0.00000000000E+00 0. -1.
</event>
<event>
 4    1  0.7940509E+003  0.3119076E+02  0.7546771E-02  0.1409523E+00
          2   -1    0    0  501    0  0.00000000000E+00  0.00000000000E+00  0.55506228809E+03  0.55506228809E+03  0.00000000000E+00 0.  1.
          2   -1    0    0  502    0 -0.00000000000E+00 -0.00000000000E+00 -0.17575262388E+01  0.17575262388E+01  0.00000000000E+00 0.  1.
          2    1    1    2  501    0 -0.25034882841E+02 -0.18604249265E+02  0.26207869608E+03  0.26392822204E+03  0.00000000000E+00 0.  1.
          2    1    1    2  502    0  0.25034882841E+02  0.18604249265E+02  0.29122606577E+03  0.29289159229E+03  0.00000000000E+00 0.  1.
</event>
<event>
 4    1  0.7940509E+003  0.2957577E+02  0.7546771E-02  0.1423319E+00
          2   -1    0    0  501    0  0.00000000000E+00  0.00000000000E+00  0.51007690159E+03  0.51007690159E+03  0.00000000000E+00 0. -1.
          2   -1    0    0  502    0 -0.00000000000E+00 -0.00000000000E+00 -0.67297851718E+02  0.67297851718E+02  0.00000000000E+00 0. -1.
          2    1    1    2  501    0  0.89527867970E+01  0.28188182283E+02 -0.63595936368E+02  0.70136788738E+02  0.00000000000E+00 0. -1.
          2    1    1    2  502    0 -0.89527867970E+01 -0.28188182283E+02  0.50637498624E+03  0.50723796457E+03  0.00000000000E+00 0. -1.
</event>
<event>
 4    1  0.7940509E+003  0.3006672E+02  0.7546771E-02  0.1419018E+00
          2   -1    0    0  502    0  0.00000000000E+00  0.00000000000E+00  0.18957459740E+03  0.18957459740E+03  0.00000000000E+00 0.  1.
          2   -1    0    0  501    0 -0.00000000000E+00 -0.00000000000E+00 -0.19943677781E+02  0.19943677781E+02  0.00000000000E+00 0.  1.
          2    1    1    2  501    0 -0.60822421977E+01 -0.29445104103E+02  0.17619617900E+03  0.17874311544E+03  0.00000000000E+00 0.  1.
          2    1    1    2  502    0  0.60822421977E+01  0.29445104103E+02 -0.65652593825E+01  0.30775159732E+02  0.00000000000E+00 0.  1.
</event>
<event>
 4    1  0.7940509E+003  0.3908121E+02  0.7546771E-02  0.1353956E+00
          2   -1    0    0  501    0  0.00000000000E+00  0.00000000000E+00  0.35525967933E+04  0.35525967933E+04  0.00000000000E+00 0.  1.
          2   -1    0    0  502    0 -0.00000000000E+00 -0.00000000000E+00 -0.44116186141E+00  0.44116186141E+00  0.00000000000E+00 0.  1.
          2    1    1    2  501    0  0.38619447560E+02  0.59899475109E+01  0.14925196229E+04  0.14930312006E+04  0.00000000000E+00 0.  1.
          2    1    1    2  502    0 -0.38619447560E+02 -0.59899475109E+01  0.20596360086E+04  0.20600067546E+04  0.00000000000E+00 0.  1.
</event>
<event>
 4    1  0.7940509E+003  0.2226469E+02  0.7546771E-02  0.1501944E+00
          2   -1    0    0  501    0  0.00000000000E+00  0.00000000000E+00  0.41213424031E+02  0.41213424031E+02  0.00000000000E+00 0.  1.
          2   -1    0    0  502    0 -0.00000000000E+00 -0.00000000000E+00 -0.21527381595E+03  0.21527381595E+03  0.00000000000E+00 0. -1.
          2    1    1    2  501    0  0.15965532186E+02 -0.15518315331E+02 -0.21163963419E+03  0.21280754472E+03  0.00000000000E+00 0. -1.
          2    1    1    2  502    0 -0.15965532186E+02  0.15518315331E+02  0.37579242271E+02  0.43679695264E+02  0.00000000000E+00 0.  1.
</event>
<event>
 4    1  0.7940509E+003  0.2820063E+02  0.7546771E-02  0.1435906E+00
          2   -1    0    0  502    0  0.00000000000E+00  0.00000000000E+00  0.10160716991E+02  0.10160716991E+02  0.00000000000E+00 0. -1.
          2   -1    0    0  501    0 -0.00000000000E+00 -0.00000000000E+00 -0.25041142980E+03  0.25041142980E+03  0.00000000000E+00 0.  1.
          2    1    1    2  501    0  0.20938389259E+02  0.18890728818E+02 -0.12102896303E+02  0.30688041302E+02  0.00000000000E+00 0. -1.
          2    1    1    2  502    0 -0.20938389259E+02 -0.18890728818E+02 -0.22814781650E+03  0.22988410549E+03  0.00000000000E+00 0.  1.
</event>
<event>
 4    1  0.7940509E+003  0.2323758E+02  0.7546771E-02  0.1489536E+00
          2   -1    0    0  501    0  0.00000000000E+00  0.00000000000E+00  0.90613447372E+03  0.90613447372E+03  0.00000000000E+00 0.  1.
          2   -1    0    0  502    0 -0.00000000000E+00 -0.00000000000E+00 -0.82000422078E+00  0.82000422078E+00  0.00000000000E+00 0. -1.
          2    1    1    2  501    0 -0.22141026005E+02  0.70540736000E+01  0.21560084603E+03  0.21684950956E+03  0.00000000000E+00 0. -1.
          2    1    1    2  502    0  0.22141026005E+02 -0.70540736000E+01  0.68971362347E+03  0.69010496838E+03  0.00000000000E+00 0.  1.
</event>
<event>
 4    1  0.7940509E+003  0.6228733E+02  0.7546771E-02  0.1252253E+00
          2   -1    0    0  502    0  0.00000000000E+00  0.00000000000E+00  0.50937790606E+03  0.50937790606E+03  0.00000000000E+00 0.  1.
          2   -1    0    0  501    0 -0.00000000000E+00 -0.00000000000E+00 -0.41923027499E+02  0.41923027499E+02  0.00000000000E+00 0. -1.
          2    1    1    2  501    0 -0.24416153560E+02  0.57302382503E+02  0.48308374877E+03  0.48708276496E+03  0.00000000000E+00 0.  1.
          2    1    1    2  502    0  0.24416153560E+02 -0.57302382503E+02 -0.15628870203E+02  0.64218168605E+02  0.00000000000E+00 0. -1.
</event>
<event>
 4    1  0.7940509E+003  0.2161496E+02  0.7546771E-02  0.1510663E+00
          2   -1    0    0  501    0  0.00000000000E+00  0.00000000000E+00  0.31740779259E+01  0.31740779259E+01  0.00000000000E+00 0. -1.
          2   -1    0    0  502    0 -0.00000000000E+00 -0.00000000000E+00 -0.69582559496E+03  0.69582559496E+03  0.00000000000E+00 0.  1.
          2    1    1    2  501    0  0.19534987170E+02 -0.92515248986E+01 -0.65666524224E+03  0.65702088765E+03  0.00000000000E+00 0.  1.
          2    1    1    2  502    0 -0.19534987170E+02  0.92515248986E+01 -0.35986274793E+02  0.41978785239E+02  0.00000000000E+00 0. -1.
</event>
<event>
 4    1  0.7940509E+003  0.4954355E+02  0.7546771E-02  0.1300164E+00
          2   -1    0    0  501    0  0.00000000000E+00  0.00000000000E+00  0.20205720156E+03  0.20205720156E+03  0.00000000000E+00 0.  1.
          2   -1    0    0  502    0 -0.00000000000E+00 -0.00000000000E+00 -0.57996972224E+02  0.57996972224E+02  0.00000000000E+00 0.  1.
          2    1    1    2  501    0 -0.48680720995E+02  0.92059947903E+01 -0.43580212311E+02  0.65983314874E+02  0.00000000000E+00 0.  1.
          2    1    1    2  502    0  0.48680720995E+02 -0.92059947903E+01  0.18764044165E+03  0.19407085891E+03  0.00000000000E+00 0.  1.
</event>
<event>
 4    1  0.7940509E+003  0.2057538E+02  0.7546771E-02  0.1525414E+00
          2   -1    0    0  502    0  0.00000000000E+00  0.00000000000E+00  0.15376140026E+03  0.15376140026E+03  0.00000000000E+00 0.  1.
          2   -1    0    0  501    0 -0.00000000000E+00 -0.00000000000E+00 -0.20141363695E+02  0.20141363695E+02  0.00000000000E+00 0. -1.
          2    1    1    2  501    0  0.14426307912E+02  0.14670649172E+02  0.14760010361E+03  0.14902730251E+03  0.00000000000E+00 0.  1.
          2    1    1    2  502    0 -0.14426307912E+02 -0.14670649172E+02 -0.13980067052E+02  0.24875461441E+02  0.00000000000E+00 0. -1.
</event>
<event>
 4    1  0.7940509E+003  0.2243315E+02  0.7546771E-02  0.1499741E+00
          2   -1    0    0  502    0  0.00000000000E+00  0.00000000000E+00  0.32209904379E+02  0.32209904379E+02  0.00000000000E+00 0. -1.
          2   -1    0    0  501    0 -0.00000000000E+00 -0.00000000000E+00 -0.37359686283E+03  0.37359686283E+03  0.00000000000E+00 0. -1.
          2    1    1    2  501    0  0.11367115467E+02 -0.19339984204E+02  0.27921845599E+02  0.35817255125E+02  0.00000000000E+00 0. -1.
          2    1    1    2  502    0 -0.11367115467E+02  0.19339984204E+02 -0.36930880405E+03  0.36998951208E+03  0.00000000000E+00 0. -1.
</event>
<event>
 4    1  0.7940509E+003  0.2011129E+02  0.7546771E-02  0.1532341E+00
          2   -1    0    0  502    0  0.00000000000E+00  0.00000000000E+00  0.50032161290E+00  0.50032161290E+00  0.00000000000E+00 0. -1.
          2   -1    0    0  501    0 -0.00000000000E+00 -0.00000000000E+00 -0.13332724144E+04  0.13332724144E+04  0.00000000000E+00 0. -1.
          2    1    1    2  501    0  0.18132017681E+02  0.87002342875E+01 -0.24796277012E+03  0.24877700760E+03  0.00000000000E+00 0. -1.
          2    1    1    2  502    0 -0.18132017681E+02 -0.87002342875E+01 -0.10848093226E+04  0.10849957284E+04  0.00000000000E+00 0. -1.
</event>
<event>
 4    1  0.7940509E+003  0.2416211E+02  0.7546771E-02  0.1478399E+00
          2   -1    0    0  502    0  0.00000000000E+00  0.00000000000E+00  0.53286351496E+02  0.53286351496E+02  0.00000000000E+00 0.  1.
          2   -1    0    0  501    0 -0.00000000000E+00 -0.00000000000E+00 -0.28966074425E+03  0.28966074425E+03  0.00000000000E+00 0. -1.
          2    1    1    2  501    0 -0.21662929714E+02 -0.10701633443E+02  0.50012210882E+02  0.55543034842E+02  0.00000000000E+00 0.  1.
          2    1    1    2  502    0  0.21662929714E+02  0.10701633443E+02 -0.28638660364E+03  0.28740406091E+03  0.00000000000E+00 0. -1.
</event>
<event>
 4    1  0.7940509E+003  0.4272998E+02  0.7546771E-02  0.1333190E+00
          2   -1    0    0  501    0  0.00000000000E+00  0.00000000000E+00  0.48862098161E+03  0.48862098161E+03  0.00000000000E+00 0.  1.
          2   -1    0    0  502    0 -0.00000000000E+00 -0.00000000000E+00 -0.55355979196E+01  0.55355979196E+01  0.00000000000E+00 0.  1.
          2    1    1    2  501    0  0.27641476065E+02 -0.32585268241E+02  0.10069477814E+03  0.10938596460E+03  0.00000000000E+00 0.  1.
          2    1    1    2  502    0 -0.27641476065E+02  0.32585268241E+02  0.38239060555E+03  0.38477061494E+03  0.00000000000E+00 0.  1.
</event>
<event>
 4    1  0.7940509E+003  0.2194557E+02  0.7546771E-02  0.1506181E+00
          2   -1    0    0  502    0  0.00000000000E+00  0.00000000000E+00  0.25652766907E+02  0.25652766907E+02  0.00000000000E+00 0. -1.
          2   -1    0    0  501    0 -0.00000000000E+00 -0.00000000000E+00 -0.27210361893E+03  0.27210361893E+03  0.00000000000E+00 0. -1.
          2    1    1    2  501    0 -0.16327061893E+02  0.14664074735E+02  0.20424965742E+02  0.29979780911E+02  0.00000000000E+00 0. -1.
          2    1    1    2  502    0  0.16327061893E+02 -0.14664074735E+02 -0.26687581777E+03  0.26777660493E+03  0.00000000000E+00 0. -1.
</event>
<event>
 4    1  0.7940509E+003  0.2658478E+02  0.7546771E-02  0.1451824E+00
          2   -1    0    0  502    0  0.00000000000E+00  0.00000000000E+00  0.53974052004E+01  0.53974052004E+01  0.00000000000E+00 0.  1.
          2   -1    0    0  501    0 -0.00000000000E+00 -0.00000000000E+00 -0.20706479794E+03  0.20706479794E+03  0.00000000000E+00 0.  1.
          2    1    1    2  501    0 -0.14882131769E+02 -0.22028902311E+02 -0.36423570386E+02  0.45093534600E+02  0.00000000000E+00 0.  1.
          2    1    1    2  502    0  0.14882131769E+02  0.22028902311E+02 -0.16524382236E+03  0.16736866854E+03  0.00000000000E+00 0.  1.
</event>
<event>
 4    1  0.7940509E+003  0.2340474E+02  0.7546771E-02  0.1487477E+00
          2   -1    0    0  501    0  0.00000000000E+00  0.00000000000E+00  0.30326247884E+02  0.30326247884E+02  0.00000000000E+00 0.  1.
          2   -1    0    0  502    0 -0.00000000000E+00 -0.00000000000E+00 -0.54580113284E+03  0.54580113284E+03  0.00000000000E+00 0.  1.
          2    1    1    2  501    0 -0.42311761449E+01 -0.23019100869E+02 -0.54099438141E+03  0.54150041788E+03  0.00000000000E+00 0.  1.
          2    1    1    2  502    0  0.42311761449E+01  0.23019100869E+02  0.25519496450E+02  0.34626962839E+02  0.00000000000E+00 0.  1.
</event>
<event>
 4    1  0.7940509E+003  0.3052486E+02  0.7546771E-02  0.1415089E+00
          2   -1    0    0  502    0  0.00000000000E+00  0.00000000000E+00  0.81813337090E+01  0.81813337090E+01  0.00000000000E+00 0.  1.
          2   -1    0    0  501    0 -0.00000000000E+00 -0.00000000000E+00 -0.18901535541E+04  0.18901535541E+04  0.00000000000E+00 0.  1.
          2    1    1    2  501    0  0.81267082682E+01 -0.29423180482E+02 -0.20858485487E+02  0.36970844645E+02  0.00000000000E+00 0.  1.
          2    1    1    2  502    0 -0.81267082682E+01  0.29423180482E+02 -0.18611137349E+04  0.18613640432E+04  0.00000000000E+00 0.  1.
</event>
<event>
 4    1  0.7940509E+003  0.2063548E+02  0.7546771E-02  0.1524533E+00
          2   -1    0    0  502    0  0.00000000000E+00  0.00000000000E+00  0.46761670700E+03  0.46761670700E+03  0.00000000000E+00 0. -1.
          2   -1    0    0  501    0 -0.00000000000E+00 -0.00000000000E+00 -0.16109223788E+01  0.16109223788E+01  0.00000000000E+00 0.  1.
          2    1    1    2  501    0 -0.23646857822E+01 -0.20499547119E+02  0.38769128190E+03  0.38824007165E+03  0.00000000000E+00 0. -1.
          2    1    1    2  502    0  0.23646857822E+01  0.20499547119E+02  0.78314502719E+02  0.80987557730E+02  0.00000000000E+00 0.  1.
</event>
<event>
 4    1  0.7940509E+003  0.2111668E+02  0.7546771E-02  0.1517605E+00
          2   -1    0    0  501    0  0.00000000000E+00  0.00000000000E+00  0.63960055178E+03  0.63960055178E+03  0.00000000000E+00 0. -1.
          2   -1    0    0  502    0 -0.00000000000E+00 -0.00000000000E+00 -0.27558899009E+01  0.27558899009E+01  0.00000000000E+00 0.  1.
          2    1    1    2  501    0 -0.19625926885E+02  0.77934037007E+01  0.40826361558E+02  0.45964181113E+02  0.00000000000E+00 0.  1.
          2    1    1    2  502    0  0.19625926885E+02 -0.77934037007E+01  0.59601830032E+03  0.59639226057E+03  0.00000000000E+00 0. -1.
</event>
<event>
 4    1  0.7940509E+003  0.4856258E+02  0.7546771E-02  0.1304528E+00
          2   -1    0    0  501    0  0.00000000000E+00  0.00000000000E+00  0.68669994669E+01  0.68669994669E+01  0.00000000000E+00 0.  1.
          2   -1    0    0  502    0 -0.00000000000E+00 -0.00000000000E+00 -0.25057756305E+04  0.25057756305E+04  0.00000000000E+00 0. -1.
          2    1    1    2  501    0 -0.15551869105E+02 -0.46005041937E+02 -0.24165120127E+04  0.24169999238E+04  0.00000000000E+00 0. -1.
          2    1    1    2  502    0  0.15551869105E+02  0.46005041937E+02 -0.82396618392E+02  0.95642706145E+02  0.00000000000E+00 0.  1.
</event>
<event>
 4    1  0.7940509E+003  0.3470047E+02  0.7546771E-02  0.1382681E+00
          2   -1    0    0  501    0  0.00000000000E+00  0.00000000000E+00  0.29128429579E+02  0.29128429579E+02  0.00000000000E+00 0. -1.
          2   -1    0    0  502    0 -0.00000000000E+00 -0.00000000000E+00 -0.20642223672E+03  0.20642223672E+03  0.00000000000E+00 0. -1.
          2    1    1    2  501    0 -0.33164424666E+02  0.10209957520E+02 -0.19397115848E+03  0.19705058391E+03  0.00000000000E+00 0. -1.
          2    1    1    2  502    0  0.33164424666E+02 -0.10209957520E+02  0.16677351343E+02  0.38500082387E+02  0.00000000000E+00 0. -1.
</event>
<event>
 4    1  0.7940509E+003  0.3755628E+02  0.7546771E-02  0.1363433E+00
          2   -1    0    0  501    0  0.00000000000E+00  0.00000000000E+00  0.45611166337E+03  0.45611166337E+03  0.00000000000E+00 0. -1.
          2   -1    0    0  502    0 -0.00000000000E+00 -0.00000000000E+00 -0.38086528752E+02  0.38086528752E+02  0.00000000000E+00 0. -1.
          2    1    1    2  501    0  0.92264117956E+00  0.37544947022E+02 -0.27842743252E+02  0.46751392122E+02  0.00000000000E+00 0. -1.
          2    1    1    2  502    0 -0.92264117956E+00 -0.37544947022E+02  0.44586787787E+03  0.44744680000E+03  0.00000000000E+00 0. -1.
</event>
<event>
 4    1  0.7940509E+003  0.5154528E+02  0.7546771E-02  0.1291608E+00
          2   -1    0    0  501    0  0.00000000000E+00  0.00000000000E+00  0.70618886128E+03  0.70618886128E+03  0.00000000000E+00 0.  1.
          2   -1    0    0  502    0 -0.00000000000E+00 -0.00000000000E+00 -0.81525743885E+01  0.81525743885E+01  0.00000000000E+00 0.  1.
          2    1    1    2  501    0  0.23305609906E+02 -0.45975695365E+02  0.86914670086E+02  0.10104986835E+03  0.00000000000E+00 0.  1.
          2    1    1    2  502    0 -0.23305609906E+02  0.45975695365E+02  0.61112161681E+03  0.61329156732E+03  0.00000000000E+00 0.  1.
</event>
<event>
 4    1  0.7940509E+003  0.2350550E+02  0.7546771E-02  0.1486246E+00
          2   -1    0    0  502    0  0.00000000000E+00  0.00000000000E+00  0.81228801156E+01  0.81228801156E+01  0.00000000000E+00 0.  1.
          2   -1    0    0  501    0 -0.00000000000E+00 -0.00000000000E+00 -0.42543749677E+03  0.42543749677E+03  0.00000000000E+00 0. -1.
          2    1    1    2  501    0 -0.14900660190E+02 -0.18179073065E+02 -0.99607454639E+01  0.25528901696E+02  0.00000000000E+00 0.  1.
          2    1    1    2  502    0  0.14900660190E+02  0.18179073065E+02 -0.40735387119E+03  0.40803147519E+03  0.00000000000E+00 0. -1.
</event>
<event>
 4    1  0.7940509E+003  0.2576304E+02  0.7546771E-02  0.1460445E+00
          2   -1    0    0  502    0  0.00000000000E+00  0.00000000000E+00  0.12434307567E+03  0.12434307567E+03  0.00000000000E+00 0. -1.
          2   -1    0    0  501    0 -0.00000000000E+00 -0.00000000000E+00 -0.10647552218E+03  0.10647552218E+03  0.00000000000E+00 0. -1.
          2    1    1    2  501    0 -0.18066310028E+02 -0.18366895620E+02  0.12141297766E+03  0.12411625823E+03  0.00000000000E+00 0. -1.
          2    1    1    2  502    0  0.18066310028E+02  0.18366895620E+02 -0.10354542418E+03  0.10670233962E+03  0.00000000000E+00 0. -1.
</event>
<event>
 4    1  0.7940509E+003  0.2069326E+02  0.7546771E-02  0.1523690E+00
          2   -1    0    0  502    0  0.00000000000E+00  0.00000000000E+00  0.34537058447E+03  0.34537058447E+03  0.00000000000E+00 0.  1.
          2   -1    0    0  501    0 -0.00000000000E+00 -0.00000000000E+00 -0.31795986096E+01  0.31795986096E+01  0.00000000000E+00 0. -1.
          2    1    1    2  501    0 -0.52817517849E+01  0.20007847742E+02  0.30721515825E+03  0.30791129296E+03  0.00000000000E+00 0.  1.
          2    1    1    2  502    0  0.52817517849E+01 -0.20007847742E+02  0.34975827610E+02  0.40638890120E+02  0.00000000000E+00 0. -1.
</event>
<event>
 4    1  0.7940509E+003  0.6025040E+02  0.7546771E-02  0.1258984E+00
          2   -1    0    0  502    0  0.00000000000E+00  0.00000000000E+00  0.13881544490E+04  0.13881544490E+04  0.00000000000E+00 0.  1.
          2   -1    0    0  501    0 -0.00000000000E+00 -0.00000000000E+00 -0.60713507423E+03  0.60713507423E+03  0.00000000000E+00 0. -1.
          2    1    1    2  501    0 -0.48245312149E+02 -0.36090172243E+02  0.13860035942E+04  0.13873125365E+04  0.00000000000E+00 0.  1.
          2    1    1    2  502    0  0.48245312149E+02  0.36090172243E+02 -0.60498421943E+03  0.60797698677E+03  0.00000000000E+00 0. -1.
</event>
<event>
 4    1  0.7940509E+003  0.2363824E+02  0.7546771E-02  0.1484636E+00
          2   -1    0    0  501    0  0.00000000000E+00  0.00000000000E+00  0.74982674974E+03  0.74982674974E+03  0.00000000000E+00 0.  1.
          2   -1    0    0  502    0 -0.00000000000E+00 -0.00000000000E+00 -0.26988655679E+03  0.26988655679E+03  0.00000000000E+00 0. -1.
          2    1    1    2  501    0 -0.19483266564E+02 -0.13385389373E+02 -0.26918217806E+03  0.27021808102E+03  0.00000000000E+00 0. -1.
          2    1    1    2  502    0  0.19483266564E+02  0.13385389373E+02  0.74912237101E+03  0.74949522551E+03  0.00000000000E+00 0.  1.
</event>
<event>
 4    1  0.7940509E+003  0.3341721E+02  0.7546771E-02  0.1392046E+00
          2   -1    0    0  502    0  0.00000000000E+00  0.00000000000E+00  0.62308840410E+01  0.62308840410E+01  0.00000000000E+00 0. -1.
          2   -1    0    0  501    0 -0.00000000000E+00 -0.00000000000E+00 -0.24905562163E+03  0.24905562163E+03  0.00000000000E+00 0. -1.
          2    1    1    2  501    0  0.32666144020E+02 -0.70450604316E+01 -0.53822313955E+02  0.63352595219E+02  0.00000000000E+00 0. -1.
          2    1    1    2  502    0 -0.32666144020E+02  0.70450604316E+01 -0.18900242364E+03  0.19193391046E+03  0.00000000000E+00 0. -1.
</event>
<event>
 4    1  0.7940509E+003  0.3296627E+02  0.7546771E-02  0.1395454E+00
          2   -1    0    0  501    0  0.00000000000E+00  0.00000000000E+00  0.43517842037E+02  0.43517842037E+02  0.00000000000E+00 0.  1.
          2   -1    0    0  502    0 -0.00000000000E+00 -0.00000000000E+00 -0.10450108103E+03  0.10450108103E+03  0.00000000000E+00 0. -1.
          2    1    1    2  501    0 -0.23400648418E+02 -0.23220344056E+02 -0.95055091194E+02  0.10060936878E+03  0.00000000000E+00 0. -1.
          2    1    1    2  502    0  0.23400648418E+02  0.23220344056E+02  0.34071852206E+02  0.47409554282E+02  0.00000000000E+00 0.  1.
</event>
<event>
 4    1  0.7940509E+003  0.6911154E+02  0.7546771E-02  0.1231667E+00
          2   -1    0    0  502    0  0.00000000000E+00  0.00000000000E+00  0.45760842865E+04  0.45760842865E+04  0.00000000000E+00 0.  1.
          2   -1    0    0  501    0 -0.00000000000E+00 -0.00000000000E+00 -0.14857764962E+02  0.14857764962E+02  0.00000000000E+00 0.  1.
          2    1    1    2  501    0  0.56612067859E+02 -0.39641885802E+02  0.44939863799E+04  0.44945177704E+04  0.00000000000E+00 0.  1.
          2    1    1    2  502    0 -0.56612067859E+02  0.39641885802E+02  0.67240141605E+02  0.96424281071E+02  0.00000000000E+00 0.  1.
</event>
<event>
 4    1  0.7940509E+003  0.2036074E+02  0.7546771E-02  0.1528591E+00
          2   -1    0    0  501    0  0.00000000000E+00  0.00000000000E+00  0.85396604248E+00  0.85396604248E+00  0.00000000000E+00 0. -1.
          2   -1    0    0  502    0 -0.00000000000E+00 -0.00000000000E+00 -0.60337907441E+03  0.60337907441E+03  0.00000000000E+00 0. -1.
          2    1    1    2  501    0 -0.11876912861E+02 -0.16537789813E+02 -0.43482551998E+03  0.43530195540E+03  0.00000000000E+00 0. -1.
          2    1    1    2  502    0  0.11876912861E+02  0.16537789813E+02 -0.16769958839E+03  0.16893108506E+03  0.00000000000E+00 0. -1.
</event>
<event>
 4    1  0.7940509E+003  0.2008003E+02  0.7546771E-02  0.1532816E+00
          2   -1    0    0  502    0  0.00000000000E+00  0.00000000000E+00  0.14118060877E+04  0.14118060877E+04  0.00000000000E+00 0.  1.
          2   -1    0    0  501    0 -0.00000000000E+00 -0.00000000000E+00 -0.23194294665E+02  0.23194294665E+02  0.00000000000E+00 0.  1.
          2    1    1    2  501    0  0.19365381635E+02 -0.53093962316E+01  0.14073750268E+04  0.14075182676E+04  0.00000000000E+00 0.  1.
          2    1    1    2  502    0 -0.19365381635E+02  0.53093962316E+01 -0.18763233700E+02  0.27482114786E+02  0.00000000000E+00 0.  1.
</event>
<event>
 4    1  0.7940509E+003  0.4156648E+02  0.7546771E-02  0.1339543E+00
          2   -1    0    0  501    0  0.00000000000E+00  0.00000000000E+00  0.34155826375E+02  0.34155826375E+02  0.00000000000E+00 0.  1.
          2   -1    0    0  502    0 -0.00000000000E+00 -0.00000000000E+00 -0.53515538392E+03  0.53515538392E+03  0.00000000000E+00 0.  1.
          2    1    1    2  501    0 -0.19930705076E+02 -0.36476560127E+02 -0.52136810524E+03  0.52302244082E+03  0.00000000000E+00 0.  1.
          2    1    1    2  502    0  0.19930705076E+02  0.36476560127E+02  0.20368547698E+02  0.46288769468E+02  0.00000000000E+00 0.  1.
</event>
<event>
 4    1  0.7940509E+003  0.2207030E+02  0.7546771E-02  0.1504514E+00
          2   -1    0    0  501    0  0.00000000000E+00  0.00000000000E+00  0.52770613598E+03  0.52770613598E+03  0.00000000000E+00 0. -1.
          2   -1    0    0  502    0 -0.00000000000E+00 -0.00000000000E+00 -0.27367086535E+02  0.27367086535E+02  0.00000000000E+00 0.  1.
          2    1    1    2  501    0  0.21840051794E+02  0.31796747079E+01 -0.22646507042E+02  0.31622183270E+02  0.00000000000E+00 0.  1.
          2    1    1    2  502    0 -0.21840051794E+02 -0.31796747079E+01  0.52298555649E+03  0.52345103925E+03  0.00000000000E+00 0. -1.
</event>
<event>
 4    1  0.7940509E+003  0.2264540E+02  0.7546771E-02  0.1497000E+00
          2   -1    0    0  501    0  0.00000000000E+00  0.00000000000E+00  0.83362955103E+01  0.83362955103E+01  0.00000000000E+00 0.  1.
          2   -1    0    0  502    0 -0.00000000000E+00 -0.00000000000E+00 -0.95273665888E+03  0.95273665888E+03  0.00000000000E+00 0. -1.
          2    1    1    2  501    0 -0.21641729801E+02 -0.66670591925E+01 -0.93696429413E+03  0.93723791143E+03  0.00000000000E+00 0. -1.
          2    1    1    2  502    0  0.21641729801E+02  0.66670591925E+01 -0.74360692362E+01  0.23835042957E+02  0.00000000000E+00 0.  1.
</event>
<event>
 4    1  0.7940509E+003  0.2286500E+02  0.7546771E-02  0.1494200E+00
          2   -1    0    0  501    0  0.00000000000E+00  0.00000000000E+00  0.15286472559E+02  0.15286472559E+02  0.00000000000E+00 0.  1.
          2   -1    0    0  502    0 -0.00000000000E+00 -0.00000000000E+00 -0.20684197507E+03  0.20684197507E+03  0.00000000000E+00 0.  1.
          2    1    1    2  501    0  0.22000510103E+02  0.62278062665E+01 -0.19724530007E+03  0.19856615123E+03  0.00000000000E+00 0.  1.
          2    1    1    2  502    0 -0.22000510103E+02 -0.62278062665E+01  0.56897975502E+01  0.23562296405E+02  0.00000000000E+00 0.  1.
</event>
<event>
 4    1  0.7940509E+003  0.2122245E+02  0.7546771E-02  0.1516112E+00
          2   -1    0    0  501    0  0.00000000000E+00  0.00000000000E+00  0.14690046973E+04  0.14690046973E+04  0.00000000000E+00 0.  1.
          2   -1    0    0  502    0 -0.00000000000E+00 -0.00000000000E+00 -0.87917795460E+02  0.87917795460E+02  0.00000000000E+00 0.  1.
          2    1    1    2  501    0 -0.41488659787E+00 -0.21218397639E+02 -0.86559240125E+02  0.89122918378E+02  0.00000000000E+00 0.  1.
          2    1    1    2  502    0  0.41488659787E+00  0.21218397639E+02  0.14676461420E+04  0.14677995744E+04  0.00000000000E+00 0.  1.
</event>
<event>
 4    1  0.7940509E+003  0.2333282E+02  0.7546771E-02  0.1488361E+00
          2   -1    0    0  502    0  0.00000000000E+00  0.00000000000E+00  0.67449085115E+03  0.67449085115E+03  0.00000000000E+00 0.  1.
          2   -1    0    0  501    0 -0.00000000000E+00 -0.00000000000E+00 -0.39510047899E+01  0.39510047899E+01  0.00000000000E+00 0. -1.
          2    1    1    2  501    0  0.20647502116E+02 -0.10867431600E+02  0.63786340901E+03  0.63829001948E+03  0.00000000000E+00 0.  1.
          2    1    1    2  502    0 -0.20647502116E+02  0.10867431600E+02  0.32676437345E+02  0.40151836456E+02  0.00000000000E+00 0. -1.
</event>
<event>
 4    1  0.7940509E+003  0.2218829E+02  0.7546771E-02  0.1502950E+00
          2   -1    0    0  502    0  0.00000000000E+00  0.00000000000E+00  0.16011061473E+01  0.16011061473E+01  0.00000000000E+00 0. -1.
          2   -1    0    0  501    0 -0.00000000000E+00 -0.00000000000E+00 -0.94438377383E+03  0.94438377383E+03  0.00000000000E+00 0. -1.
          2    1    1    2  501    0  0.12474079134E+02 -0.18349864681E+02 -0.82959976175E+02  0.85875944426E+02  0.00000000000E+00 0. -1.
          2    1    1    2  502    0 -0.12474079134E+02  0.18349864681E+02 -0.85982269151E+03  0.86010893555E+03  0.00000000000E+00 0. -1.
</event>
<event>
 4    1  0.7940509E+003  0.2735445E+02  0.7546771E-02  0.1444080E+00
          2   -1    0    0  501    0  0.00000000000E+00  0.00000000000E+00  0.71668360985E+02  0.71668360985E+02  0.00000000000E+00 0.  1.
          2   -1    0    0  502    0 -0.00000000000E+00 -0.00000000000E+00 -0.21606457566E+02  0.21606457566E+02  0.00000000000E+00 0.  1.
          2    1    1    2  501    0 -0.14677923522E+02  0.23082997270E+02 -0.84954680924E+01  0.28643309515E+02  0.00000000000E+00 0.  1.
          2    1    1    2  502    0  0.14677923522E+02 -0.23082997270E+02  0.58557371512E+02  0.64631509036E+02  0.00000000000E+00 0.  1.
</event>
<event>
 4    1  0.7940509E+003  0.2502005E+02  0.7546771E-02  0.1468579E+00
          2   -1    0    0  502    0  0.00000000000E+00  0.00000000000E+00  0.33239454783E+03  0.33239454783E+03  0.00000000000E+00 0.  1.
          2   -1    0    0  501    0 -0.00000000000E+00 -0.00000000000E+00 -0.51236605525E+02  0.51236605525E+02  0.00000000000E+00 0. -1.
          2    1    1    2  501    0  0.24745265301E+02  0.36979626876E+01  0.32883624318E+03  0.32978671579E+03  0.00000000000E+00 0.  1.
          2    1    1    2  502    0 -0.24745265301E+02 -0.36979626876E+01 -0.47678300873E+02  0.53844437568E+02  0.00000000000E+00 0. -1.
</event>
<event>
 4    1  0.7940509E+003  0.3108676E+02  0.7546771E-02  0.1410382E+00
          2   -1    0    0  502    0  0.00000000000E+00  0.00000000000E+00  0.70620123817E+03  0.70620123817E+03  0.00000000000E+00 0.  1.
          2   -1    0    0  501    0 -0.00000000000E+00 -0.00000000000E+00 -0.58405329526E+01  0.58405329526E+01  0.00000000000E+00 0.  1.
          2    1    1    2  501    0 -0.31071147645E+02  0.98510735055E+00  0.66171413964E+03  0.66244395178E+03  0.00000000000E+00 0.  1.
          2    1    1    2  502    0  0.31071147645E+02 -0.98510735055E+00  0.38646565578E+02  0.49597819341E+02  0.00000000000E+00 0.  1.
</event>
<event>
 4    1  0.7940509E+003  0.2244227E+02  0.7546771E-02  0.1499623E+00
          2   -1    0    0  502    0  0.00000000000E+00  0.00000000000E+00  0.14385817823E+03  0.14385817823E+03  0.00000000000E+00 0. -1.
          2   -1    0    0  501    0 -0.00000000000E+00 -0.00000000000E+00 -0.86897657285E+02  0.86897657285E+02  0.00000000000E+00 0. -1.
          2    1    1    2  501    0 -0.20061642888E+02 -0.10059117449E+02  0.14151002998E+03  0.14327855368E+03  0.00000000000E+00 0. -1.
          2    1    1    2  502    0  0.20061642888E+02  0.10059117449E+02 -0.84549509035E+02  0.87477281836E+02  0.00000000000E+00 0. -1.
</event>
<event>
 4    1  0.7940509E+003  0.3364535E+02  0.7546771E-02  0.1390345E+00
          2   -1    0    0  501    0  0.00000000000E+00  0.00000000000E+00  0.76681769174E+03  0.76681769174E+03  0.00000000000E+00 0.  1.
          2   -1    0    0  502    0 -0.00000000000E+00 -0.00000000000E+00 -0.41877807869E+01  0.41877807869E+01  0.00000000000E+00 0.  1.
          2    1    1    2  501    0 -0.32198752301E+02  0.97596232329E+01  0.71113909427E+02  0.78671456129E+02  0.00000000000E+00 0.  1.
          2    1    1    2  502    0  0.32198752301E+02 -0.97596232329E+01  0.69151600153E+03  0.69233401640E+03  0.00000000000E+00 0.  1.
</event>
<event>
 4    1  0.7940509E+003  0.2648779E+02  0.7546771E-02  0.1452822E+00
          2   -1    0    0  502    0  0.00000000000E+00  0.00000000000E+00  0.50484262704E+03  0.50484262704E+03  0.00000000000E+00 0.  1.
          2   -1    0    0  501    0 -0.00000000000E+00 -0.00000000000E+00 -0.13469508396E+03  0.13469508396E+03  0.00000000000E+00 0. -1.
          2    1    1    2  501    0  0.22220396829E+02 -0.14417243929E+02  0.50318870740E+03  0.50388538202E+03  0.00000000000E+00 0.  1.
          2    1    1    2  502    0 -0.22220396829E+02  0.14417243929E+02 -0.13304116432E+03  0.13565232899E+03  0.00000000000E+00 0. -1.
</event>
<event>
 4    1  0.7940509E+003  0.3784364E+02  0.7546771E-02  0.1361607E+00
          2   -1    0    0  501    0  0.00000000000E+00  0.00000000000E+00  0.83452155214E+02  0.83452155214E+02  0.00000000000E+00 0.  1.
          2   -1    0    0  502    0 -0.00000000000E+00 -0.00000000000E+00 -0.20662198949E+04  0.20662198949E+04  0.00000000000E+00 0. -1.
          2    1    1    2  501    0  0.37833581749E+02 -0.87260547057E+00 -0.20617470009E+04  0.20620942843E+04  0.00000000000E+00 0. -1.
          2    1    1    2  502    0 -0.37833581749E+02  0.87260547057E+00  0.78979261294E+02  0.87577765801E+02  0.00000000000E+00 0.  1.
</event>
<event>
 4    1  0.7940509E+003  0.2031083E+02  0.7546771E-02  0.1529336E+00
          2   -1    0    0  501    0  0.00000000000E+00  0.00000000000E+00  0.55205351949E+02  0.55205351949E+02  0.00000000000E+00 0. -1.
          2   -1    0    0  502    0 -0.00000000000E+00 -0.00000000000E+00 -0.19792690271E+02  0.19792690271E+02  0.00000000000E+00 0. -1.
          2    1    1    2  501    0 -0.17409740852E+02 -0.10460911203E+02 -0.11878817464E+02  0.23529471819E+02  0.00000000000E+00 0. -1.
          2    1    1    2  502    0  0.17409740852E+02  0.10460911203E+02  0.47291479142E+02  0.51468570402E+02  0.00000000000E+00 0. -1.
</event>
<event>
 4    1  0.7940509E+003  0.2057074E+02  0.7546771E-02  0.1525483E+00
          2   -1    0    0  501    0  0.00000000000E+00  0.00000000000E+00  0.32414058641E+03  0.32414058641E+03  0.00000000000E+00 0. -1.
          2   -1    0    0  502    0 -0.00000000000E+00 -0.00000000000E+00 -0.17282900234E+02  0.17282900234E+02  0.00000000000E+00 0. -1.
          2    1    1    2  501    0 -0.26840244763E+01 -0.20394883132E+02 -0.10708944240E+02  0.23191307253E+02  0.00000000000E+00 0. -1.
          2    1    1    2  502    0  0.26840244763E+01  0.20394883132E+02  0.31756663041E+03  0.31823217939E+03  0.00000000000E+00 0. -1.
</event>
<event>
 4    1  0.7940509E+003  0.2801136E+02  0.7546771E-02  0.1437705E+00
          2   -1    0    0  501    0  0.00000000000E+00  0.00000000000E+00  0.26398478485E+03  0.26398478485E+03  0.00000000000E+00 0. -1.
          2   -1    0    0  502    0 -0.00000000000E+00 -0.00000000000E+00 -0.60709545553E+02  0.60709545553E+02  0.00000000000E+00 0. -1.
          2    1    1    2  501    0 -0.16354604238E+02  0.22741219396E+02 -0.56685497725E+02  0.63228805079E+02  0.00000000000E+00 0. -1.
          2    1    1    2  502    0  0.16354604238E+02 -0.22741219396E+02  0.25996073702E+03  0.26146552532E+03  0.00000000000E+00 0. -1.
</event>
<event>
 4    1  0.7940509E+003  0.2013511E+02  0.7546771E-02  0.1531980E+00
          2   -1    0    0  502    0  0.00000000000E+00  0.00000000000E+00  0.17821585013E+02  0.17821585013E+02  0.00000000000E+00 0.  1.
          2   -1    0    0  501    0 -0.00000000000E+00 -0.00000000000E+00 -0.13550410107E+04  0.13550410107E+04  0.00000000000E+00 0. -1.
          2    1    1    2  501    0 -0.19961424207E+02  0.26390114102E+01  0.12035152585E+02  0.23457786241E+02  0.00000000000E+00 0.  1.
          2    1    1    2  502    0  0.19961424207E+02 -0.26390114102E+01 -0.13492545783E+04  0.13494048095E+04  0.00000000000E+00 0. -1.
</event>
<event>
 4    1  0.7940509E+003  0.2164826E+02  0.7546771E-02  0.1510207E+00
          2   -1    0    0  502    0  0.00000000000E+00  0.00000000000E+00  0.63775402666E+02  0.63775402666E+02  0.00000000000E+00 0.  1.
          2   -1    0    0  501    0 -0.00000000000E+00 -0.00000000000E+00 -0.78444075642E+02  0.78444075642E+02  0.00000000000E+00 0. -1.
          2    1    1    2  501    0  0.10968204351E+02  0.18664020880E+02  0.60362847389E+02  0.64127377360E+02  0.00000000000E+00 0.  1.
          2    1    1    2  502    0 -0.10968204351E+02 -0.18664020880E+02 -0.75031520366E+02  0.78092100948E+02  0.00000000000E+00 0. -1.
</event>
<event>
 4    1  0.7940509E+003  0.2525477E+02  0.7546771E-02  0.1465973E+00
          2   -1    0    0  502    0  0.00000000000E+00  0.00000000000E+00  0.86858591715E+03  0.86858591715E+03  0.00000000000E+00 0. -1.
          2   -1    0    0  501    0 -0.00000000000E+00 -0.00000000000E+00 -0.19667719310E+01  0.19667719310E+01  0.00000000000E+00 0.  1.
          2    1    1    2  501    0  0.21243232305E+02  0.13657547976E+02  0.77787873063E+03  0.77828858600E+03  0.00000000000E+00 0. -1.
          2    1    1    2  502    0 -0.21243232305E+02 -0.13657547976E+02  0.88740414593E+02  0.92264103082E+02  0.00000000000E+00 0.  1.
</event>
<event>
 4    1  0.7940509E+003  0.2686321E+02  0.7546771E-02  0.1448987E+00
          2   -1    0    0  501    0  0.00000000000E+00  0.00000000000E+00  0.15122162425E+03  0.15122162425E+03  0.00000000000E+00 0. -1.
          2   -1    0    0  502    0 -0.00000000000E+00 -0.00000000000E+00 -0.50240559046E+02  0.50240559046E+02  0.00000000000E+00 0. -1.
          2    1    1    2  501    0 -0.26859311731E+02 -0.45767541885E+00 -0.45337335270E+02  0.52698254837E+02  0.00000000000E+00 0. -1.
          2    1    1    2  502    0  0.26859311731E+02  0.45767541885E+00  0.14631840047E+03  0.14876392846E+03  0.00000000000E+00 0. -1.
</event>
<event>
 4    1  0.7940509E+003  0.3924070E+02  0.7546771E-02  0.1352994E+00
          2   -1    0    0  502    0  0.00000000000E+00  0.00000000000E+00  0.10664211673E+02  0.10664211673E+02  0.00000000000E+00 0.  1.
          2   -1    0    0  501    0 -0.00000000000E+00 -0.00000000000E+00 -0.39117476103E+03  0.39117476103E+03  0.00000000000E+00 0. -1.
          2    1    1    2  501    0  0.37835455246E+02  0.10407240336E+02 -0.30669710208E+02  0.49804251317E+02  0.00000000000E+00 0.  1.
          2    1    1    2  502    0 -0.37835455246E+02 -0.10407240336E+02 -0.34984083914E+03  0.35203472138E+03  0.00000000000E+00 0. -1.
</event>
<event>
 4    1  0.7940509E+003  0.2395976E+02  0.7546771E-02  0.1480786E+00
          2   -1    0    0  501    0  0.00000000000E+00  0.00000000000E+00  0.32476391822E+02  0.32476391822E+02  0.00000000000E+00 0. -1.
          2   -1    0    0  502    0 -0.00000000000E+00 -0.00000000000E+00 -0.42924870903E+02  0.42924870903E+02  0.00000000000E+00 0. -1.
          2    1    1    2  501    0  0.13830781576E+02  0.19564750186E+02 -0.34138396397E+02  0.41707314436E+02  0.00000000000E+00 0. -1.
          2    1    1    2  502    0 -0.13830781576E+02 -0.19564750186E+02  0.23689917317E+02  0.33693948289E+02  0.00000000000E+00 0. -1.
</event>
<event>
 4    1  0.7940509E+003  0.2069238E+02  0.7546771E-02  0.1523702E+00
          2   -1    0    0  501    0  0.00000000000E+00  0.00000000000E+00  0.13754167189E+03  0.13754167189E+03  0.00000000000E+00 0.  1.
          2   -1    0    0  502    0 -0.00000000000E+00 -0.00000000000E+00 -0.76789028948E+03  0.76789028948E+03  0.00000000000E+00 0.  1.
          2    1    1    2  501    0 -0.15813321919E+02  0.13345918685E+02 -0.76697169425E+03  0.76725077678E+03  0.00000000000E+00 0.  1.
          2    1    1    2  502    0  0.15813321919E+02 -0.13345918685E+02  0.13662307666E+03  0.13818118458E+03  0.00000000000E+00 0.  1.
</event>
<event>
 4    1  0.7940509E+003  0.2637525E+02  0.7546771E-02  0.1453987E+00
          2   -1    0    0  501    0  0.00000000000E+00  0.00000000000E+00  0.90220636594E+03  0.90220636594E+03  0.00000000000E+00 0. -1.
          2   -1    0    0  502    0 -0.00000000000E+00 -0.00000000000E+00 -0.42051003337E+02  0.42051003337E+02  0.00000000000E+00 0. -1.
          2    1    1    2  501    0 -0.24081965213E+02 -0.10756992341E+02 -0.37702437476E+02  0.46012256241E+02  0.00000000000E+00 0. -1.
          2    1    1    2  502    0  0.24081965213E+02  0.10756992341E+02  0.89785780008E+03  0.89824511304E+03  0.00000000000E+00 0. -1.
</event>
<event>
 4    1  0.7940509E+003  0.2265123E+02  0.7546771E-02  0.1496925E+00
          2   -1    0    0  502    0  0.00000000000E+00  0.00000000000E+00  0.56959216125E+01  0.56959216125E+01  0.00000000000E+00 0.  1.
          2   -1    0    0  501    0 -0.00000000000E+00 -0.00000000000E+00 -0.21810701539E+03  0.21810701539E+03  0.00000000000E+00 0.  1.
          2    1    1    2  501    0  0.22557691542E+02 -0.20564018264E+01 -0.20471194683E+02  0.30531099684E+02  0.00000000000E+00 0.  1.
          2    1    1    2  502    0 -0.22557691542E+02  0.20564018264E+01 -0.19193989910E+03  0.19327183732E+03  0.00000000000E+00 0.  1.
</event>
<event>
 4    1  0.7940509E+003  0.3266878E+02  0.7546771E-02  0.1397737E+00
          2   -1    0    0  502    0  0.00000000000E+00  0.00000000000E+00  0.18793310595E+03  0.18793310595E+03  0.00000000000E+00 0.  1.
          2   -1    0    0  501    0 -0.00000000000E+00 -0.00000000000E+00 -0.51326243865E+03  0.51326243865E+03  0.00000000000E+00 0.  1.
          2    1    1    2  501    0  0.11511677420E+02 -0.30573359809E+02  0.18598815586E+03  0.18883549234E+03  0.00000000000E+00 0.  1.
          2    1    1    2  502    0 -0.11511677420E+02  0.30573359809E+02 -0.51131748856E+03  0.51236005227E+03  0.00000000000E+00 0.  1.
</event>
<event>
 4    1  0.7940509E+003  0.3818671E+02  0.7546771E-02  0.1359452E+00
          2   -1    0    0  502    0  0.00000000000E+00  0.00000000000E+00  0.77039051127E+03  0.77039051127E+03  0.00000000000E+00 0. -1.
          2   -1    0    0  501    0 -0.00000000000E+00 -0.00000000000E+00 -0.66056028033E+02  0.66056028033E+02  0.00000000000E+00 0.  1.
          2    1    1    2  501    0  0.37905739191E+02 -0.46238632464E+01  0.76435485408E+03  0.76530815240E+03  0.00000000000E+00 0. -1.
          2    1    1    2  502    0 -0.37905739191E+02  0.46238632464E+01 -0.60020370843E+02  0.71138386903E+02  0.00000000000E+00 0.  1.
</event>
<event>
 4    1  0.7940509E+003  0.2442957E+02  0.7546771E-02  0.1475287E+00
          2   -1    0    0  501    0  0.00000000000E+00  0.00000000000E+00  0.25696025916E+03  0.25696025916E+03  0.00000000000E+00 0. -1.
          2   -1    0    0  502    0 -0.00000000000E+00 -0.00000000000E+00 -0.60903169029E+01  0.60903169029E+01  0.00000000000E+00 0. -1.
          2    1    1    2  501    0  0.19506411763E+02 -0.14707265209E+02  0.21984809780E+02  0.32865416639E+02  0.00000000000E+00 0. -1.
          2    1    1    2  502    0 -0.19506411763E+02  0.14707265209E+02  0.22888513248E+03  0.23018515942E+03  0.00000000000E+00 0. -1.
</event>
<event>
 4    1  0.7940509E+003  0.2406681E+02  0.7546771E-02  0.1479520E+00
          2   -1    0    0  502    0  0.00000000000E+00  0.00000000000E+00  0.16228195795E+03  0.16228195795E+03  0.00000000000E+00 0. -1.
          2   -1    0    0  501    0 -0.00000000000E+00 -0.00000000000E+00 -0.60463680210E+02  0.60463680210E+02  0.00000000000E+00 0. -1.
          2    1    1    2  501    0 -0.45279863901E+01  0.23637021206E+02  0.15894479561E+03  0.16075652237E+03  0.00000000000E+00 0. -1.
          2    1    1    2  502    0  0.45279863901E+01 -0.23637021206E+02 -0.57126517872E+02  0.61989115790E+02  0.00000000000E+00 0. -1.
</event>
<event>
 4    1  0.7940509E+003  0.4416388E+02  0.7546771E-02  0.1325674E+00
          2   -1    0    0  501    0  0.00000000000E+00  0.00000000000E+00  0.36903942852E+02  0.36903942852E+02  0.00000000000E+00 0. -1.
          2   -1    0    0  502    0 -0.00000000000E+00 -0.00000000000E+00 -0.10216419017E+04  0.10216419017E+04  0.00000000000E+00 0.  1.
          2    1    1    2  501    0 -0.21007243773E+01 -0.44113894016E+02 -0.10077698171E+04  0.10087370584E+04  0.00000000000E+00 0.  1.
          2    1    1    2  502    0  0.21007243773E+01  0.44113894016E+02  0.23031858234E+02  0.49808786192E+02  0.00000000000E+00 0. -1.
</event>
<event>
 4    1  0.7940509E+003  0.2213575E+02  0.7546771E-02  0.1503645E+00
          2   -1    0    0  501    0  0.00000000000E+00  0.00000000000E+00  0.46232085373E+03  0.46232085373E+03  0.00000000000E+00 0. -1.
          2   -1    0    0  502    0 -0.00000000000E+00 -0.00000000000E+00 -0.30001278389E+01  0.30001278389E+01  0.00000000000E+00 0. -1.
          2    1    1    2  501    0 -0.21297759858E+02  0.60329976359E+01  0.42555744170E+02  0.47968562593E+02  0.00000000000E+00 0. -1.
          2    1    1    2  502    0  0.21297759858E+02 -0.60329976359E+01  0.41676498172E+03  0.41735241898E+03  0.00000000000E+00 0. -1.
</event>
<event>
 4    1  0.7940509E+003  0.2105343E+02  0.7546771E-02  0.1518503E+00
          2   -1    0    0  501    0  0.00000000000E+00  0.00000000000E+00  0.80269469047E+02  0.80269469047E+02  0.00000000000E+00 0. -1.
          2   -1    0    0  502    0 -0.00000000000E+00 -0.00000000000E+00 -0.10831508217E+02  0.10831508217E+02  0.00000000000E+00 0. -1.
          2    1    1    2  501    0 -0.81400173942E+01 -0.19416149538E+02  0.28273762529E+01  0.21242429299E+02  0.00000000000E+00 0. -1.
          2    1    1    2  502    0  0.81400173942E+01  0.19416149538E+02  0.66610584577E+02  0.69858547965E+02  0.00000000000E+00 0. -1.
</event>
<event>
 4    1  0.7940509E+003  0.4164139E+02  0.7546771E-02  0.1339127E+00
          2   -1    0    0  501    0  0.00000000000E+00  0.00000000000E+00  0.23412287993E+04  0.23412287993E+04  0.00000000000E+00 0. -1.
          2   -1    0    0  502    0 -0.00000000000E+00 -0.00000000000E+00 -0.26231504458E+03  0.26231504458E+03  0.00000000000E+00 0. -1.
          2    1    1    2  501    0 -0.17546762400E+02 -0.37763955610E+02 -0.26047598785E+03  0.26378352007E+03  0.00000000000E+00 0. -1.
          2    1    1    2  502    0  0.17546762400E+02  0.37763955610E+02  0.23393897426E+04  0.23397603238E+04  0.00000000000E+00 0. -1.
</event>
<event>
 4    1  0.7940509E+003  0.2602699E+02  0.7546771E-02  0.1457635E+00
          2   -1    0    0  501    0  0.00000000000E+00  0.00000000000E+00  0.18583947036E+02  0.18583947036E+02  0.00000000000E+00 0.  1.
          2   -1    0    0  502    0 -0.00000000000E+00 -0.00000000000E+00 -0.14887143671E+04  0.14887143671E+04  0.00000000000E+00 0. -1.
          2    1    1    2  501    0 -0.24599321220E+02  0.85016322151E+01 -0.14794306686E+04  0.14796595918E+04  0.00000000000E+00 0. -1.
          2    1    1    2  502    0  0.24599321220E+02 -0.85016322151E+01  0.93002484785E+01  0.27638722412E+02  0.00000000000E+00 0.  1.
</event>
<event>
 4    1  0.7940509E+003  0.2667980E+02  0.7546771E-02  0.1450851E+00
          2   -1    0    0  502    0  0.00000000000E+00  0.00000000000E+00  0.64622596343E+03  0.64622596343E+03  0.00000000000E+00 0.  1.
          2   -1    0    0  501    0 -0.00000000000E+00 -0.00000000000E+00 -0.17827479432E+01  0.17827479432E+01  0.00000000000E+00 0. -1.
          2    1    1    2  501    0  0.26669898563E+02 -0.72667134985E+00  0.52251269067E+03  0.52319339010E+03  0.00000000000E+00 0.  1.
          2    1    1    2  502    0 -0.26669898563E+02  0.72667134985E+00  0.12193052482E+03  0.12481532127E+03  0.00000000000E+00 0. -1.
</event>
<event>
 4    1  0.7940509E+003  0.2487021E+02  0.7546771E-02  0.1470261E+00
          2   -1    0    0  501    0  0.00000000000E+00  0.00000000000E+00  0.17445265068E+02  0.17445265068E+02  0.00000000000E+00 0.  1.
          2   -1    0    0  502    0 -0.00000000000E+00 -0.00000000000E+00 -0.61734961538E+02  0.61734961538E+02  0.00000000000E+00 0.  1.
          2    1    1    2  501    0 -0.21842741324E+02  0.11892090353E+02 -0.47975241093E+02  0.54038420771E+02  0.00000000000E+00 0.  1.
          2    1    1    2  502    0  0.21842741324E+02 -0.11892090353E+02  0.36855446235E+01  0.25141805835E+02  0.00000000000E+00 0.  1.
</event>
<event>
 4    1  0.7940509E+003  0.2402864E+02  0.7546771E-02  0.1479970E+00
          2   -1    0    0  501    0  0.00000000000E+00  0.00000000000E+00  0.19708494113E+01  0.19708494113E+01  0.00000000000E+00 0.  1.
          2   -1    0    0  502    0 -0.00000000000E+00 -0.00000000000E+00 -0.29507204917E+03  0.29507204917E+03  0.00000000000E+00 0. -1.
          2    1    1    2  501    0 -0.22093588648E+02 -0.94471576889E+01 -0.13397824096E+03  0.13611592301E+03  0.00000000000E+00 0.  1.
          2    1    1    2  502    0  0.22093588648E+02  0.94471576889E+01 -0.15912295880E+03  0.16092697557E+03  0.00000000000E+00 0. -1.
</event>
<event>
 4    1  0.7940509E+003  0.2740324E+02  0.7546771E-02  0.1443599E+00
          2   -1    0    0  502    0  0.00000000000E+00  0.00000000000E+00  0.62838313982E+03  0.62838313982E+03  0.00000000000E+00 0. -1.
          2   -1    0    0  501    0 -0.00000000000E+00 -0.00000000000E+00 -0.66768311691E+01  0.66768311691E+01  0.00000000000E+00 0.  1.
          2    1    1    2  501    0 -0.18846622839E+02  0.19893275897E+02  0.59856724253E+03  0.59919419344E+03  0.00000000000E+00 0. -1.
          2    1    1    2  502    0  0.18846622839E+02 -0.19893275897E+02  0.23139066115E+02  0.35865777547E+02  0.00000000000E+00 0.  1.
</event>
<event>
 4    1  0.7940509E+003  0.4635283E+02  0.7546771E-02  0.1314810E+00
          2   -1    0    0  501    0  0.00000000000E+00  0.00000000000E+00  0.73795553694E+03  0.73795553694E+03  0.00000000000E+00 0.  1.
          2   -1    0    0  502    0 -0.00000000000E+00 -0.00000000000E+00 -0.78774648047E+01  0.78774648047E+01  0.00000000000E+00 0.  1.
          2    1    1    2  501    0  0.45186205758E+02 -0.10333996139E+02  0.68952556474E+02  0.83084533527E+02  0.00000000000E+00 0.  1.
          2    1    1    2  502    0 -0.45186205758E+02  0.10333996139E+02  0.66112551567E+03  0.66274846822E+03  0.00000000000E+00 0.  1.
</event>
<event>
 4    1  0.7940509E+003  0.2161235E+02  0.7546771E-02  0.1510699E+00
          2   -1    0    0  502    0  0.00000000000E+00  0.00000000000E+00  0.12033445883E+01  0.12033445883E+01  0.00000000000E+00 0. -1.
          2   -1    0    0  501    0 -0.00000000000E+00 -0.00000000000E+00 -0.10796953058E+04  0.10796953058E+04  0.00000000000E+00 0. -1.
          2    1    1    2  501    0 -0.18251381615E+02  0.11575007094E+02 -0.10672155127E+03  0.10888793885E+03  0.00000000000E+00 0. -1.
          2    1    1    2  502    0  0.18251381615E+02 -0.11575007094E+02 -0.97177040996E+03  0.97201071157E+03  0.00000000000E+00 0. -1.
</event>
<event>
 4    1  0.7940509E+003  0.3691819E+02  0.7546771E-02  0.1367557E+00
          2   -1    0    0  501    0  0.00000000000E+00  0.00000000000E+00  0.13924309992E+03  0.13924309992E+03  0.00000000000E+00 0.  1.
          2   -1    0    0  502    0 -0.00000000000E+00 -0.00000000000E+00 -0.13699265438E+04  0.13699265438E+04  0.00000000000E+00 0.  1.
          2    1    1    2  501    0  0.20362510382E+02  0.30794822931E+02 -0.13672259092E+04  0.13677242557E+04  0.00000000000E+00 0.  1.
          2    1    1    2  502    0 -0.20362510382E+02 -0.30794822931E+02  0.13654246531E+03  0.14144538798E+03  0.00000000000E+00 0.  1.
</event>
<event>
 4    1  0.7940509E+003  0.2224512E+02  0.7546771E-02  0.1502201E+00
          2   -1    0    0  502    0  0.00000000000E+00  0.00000000000E+00  0.12201124266E+01  0.12201124266E+01  0.00000000000E+00 0.  1.
          2   -1    0    0  501    0 -0.00000000000E+00 -0.00000000000E+00 -0.99722090020E+03  0.99722090020E+03  0.00000000000E+00 0. -1.
          2    1    1    2  501    0 -0.21126556379E+02 -0.69652059750E+01 -0.11347223637E+03  0.11563214910E+03  0.00000000000E+00 0.  1.
          2    1    1    2  502    0  0.21126556379E+02  0.69652059750E+01 -0.88252855141E+03  0.88280886353E+03  0.00000000000E+00 0. -1.
</event>
<event>
 4    1  0.7940509E+003  0.7313117E+02  0.7546771E-02  0.1220760E+00
          2   -1    0    0  501    0  0.00000000000E+00  0.00000000000E+00  0.13089261313E+04  0.13089261313E+04  0.00000000000E+00 0.  1.
          2   -1    0    0  502    0 -0.00000000000E+00 -0.00000000000E+00 -0.23124225315E+02  0.23124225315E+02  0.00000000000E+00 0.  1.
          2    1    1    2  501    0 -0.34141886550E+02  0.64672249066E+02  0.38575079661E+02  0.82681346066E+02  0.00000000000E+00 0.  1.
          2    1    1    2  502    0  0.34141886550E+02 -0.64672249066E+02  0.12472268263E+04  0.12493690106E+04  0.00000000000E+00 0.  1.
</event>
<event>
 4    1  0.9063553E+003  0.3413225E+02  0.7546771E-02  0.1386768E+00
          2   -1    0    0  502    0  0.00000000000E+00  0.00000000000E+00  0.10782364206E+04  0.10782364206E+04  0.00000000000E+00 0.  1.
          2   -1    0    0  501    0 -0.00000000000E+00 -0.00000000000E+00 -0.56299924633E+03  0.56299924633E+03  0.00000000000E+00 0. -1.
          2    1    1    2  501    0  0.28070829968E+02  0.19417491459E+02  0.10774485997E+04  0.10779890980E+04  0.00000000000E+00 0.  1.
          2    1    1    2  502    0 -0.28070829968E+02 -0.19417491459E+02 -0.56221142544E+03  0.56324656889E+03  0.00000000000E+00 0. -1.
</event>
<event>
 4    1  0.7940509E+003  0.2756029E+02  0.7546771E-02  0.1442060E+00
          2   -1    0    0  501    0  0.00000000000E+00  0.00000000000E+00  0.93566961465E+03  0.93566961465E+03  0.00000000000E+00 0. -1.
          2   -1    0    0  502    0 -0.00000000000E+00 -0.00000000000E+00 -0.20927423132E+01  0.20927423132E+01  0.00000000000E+00 0. -1.
          2    1    1    2  501    0 -0.25537749574E+02  0.10363056531E+02  0.99953258011E+02  0.10368328400E+03  0.00000000000E+00 0. -1.
          2    1    1    2  502    0  0.25537749574E+02 -0.10363056531E+02  0.83362361433E+03  0.83407907296E+03  0.00000000000E+00 0. -1.
</event>
<event>
 4    1  0.7940509E+003  0.2409374E+02  0.7546771E-02  0.1479202E+00
          2   -1    0    0  502    0  0.00000000000E+00  0.00000000000E+00  0.48960080008E+01  0.48960080008E+01  0.00000000000E+00 0. -1.
          2   -1    0    0  501    0 -0.00000000000E+00 -0.00000000000E+00 -0.15350044724E+04  0.15350044724E+04  0.00000000000E+00 0. -1.
          2    1    1    2  501    0  0.16455701859E+02  0.17598815192E+02 -0.25438002730E+02  0.35037128917E+02  0.00000000000E+00 0. -1.
          2    1    1    2  502    0 -0.16455701859E+02 -0.17598815192E+02 -0.15046704616E+04  0.15048633514E+04  0.00000000000E+00 0. -1.
</event>
<event>
 4    1  0.7940509E+003  0.5776283E+02  0.7546771E-02  0.1267629E+00
          2   -1    0    0  501    0  0.00000000000E+00  0.00000000000E+00  0.33987447846E+03  0.33987447846E+03  0.00000000000E+00 0. -1.
          2   -1    0    0  502    0 -0.00000000000E+00 -0.00000000000E+00 -0.16552889622E+04  0.16552889622E+04  0.00000000000E+00 0.  1.
          2    1    1    2  501    0 -0.49589560573E+02  0.29621267398E+02 -0.16523263942E+04  0.16533357363E+04  0.00000000000E+00 0.  1.
          2    1    1    2  502    0  0.49589560573E+02 -0.29621267398E+02  0.33691191050E+03  0.34182770431E+03  0.00000000000E+00 0. -1.
</event>
<event>
 4    1  0.7940509E+003  0.3027882E+02  0.7546771E-02  0.1417189E+00
          2   -1    0    0  501    0  0.00000000000E+00  0.00000000000E+00  0.74262956251E+03  0.74262956251E+03  0.00000000000E+00 0. -1.
          2   -1    0    0  502    0 -0.00000000000E+00 -0.00000000000E+00 -0.13927072324E+01  0.13927072324E+01  0.00000000000E+00 0.  1.
          2    1    1    2  501    0 -0.21330460381E+02 -0.21489964429E+02  0.24525177145E+03  0.24711381692E+03  0.00000000000E+00 0.  1.
          2    1    1    2  502    0  0.21330460381E+02  0.21489964429E+02  0.49598508383E+03  0.49690845283E+03  0.00000000000E+00 0. -1.
</event>
<event>
 4    1  0.7940509E+003  0.4098416E+02  0.7546771E-02  0.1342813E+00
          2   -1    0    0  502    0  0.00000000000E+00  0.00000000000E+00  0.10660185548E+02  0.10660185548E+02  0.00000000000E+00 0. -1.
          2   -1    0    0  501    0 -0.00000000000E+00 -0.00000000000E+00 -0.86590039818E+03  0.86590039818E+03  0.00000000000E+00 0.  1.
          2    1    1    2  501    0 -0.40645183023E+02 -0.52602505884E+01 -0.31217399590E+02  0.51519192311E+02  0.00000000000E+00 0. -1.
          2    1    1    2  502    0  0.40645183023E+02  0.52602505884E+01 -0.82402281304E+03  0.82504139142E+03  0.00000000000E+00 0.  1.
</event>
<event>
 4    1  0.7940509E+003  0.3201922E+02  0.7546771E-02  0.1402825E+00
          2   -1    0    0  502    0  0.00000000000E+00  0.00000000000E+00  0.30473340356E+03  0.30473340356E+03  0.00000000000E+00 0.  1.
          2   -1    0    0  501    0 -0.00000000000E+00 -0.00000000000E+00 -0.26379742127E+02  0.26379742127E+02  0.00000000000E+00 0.  1.
          2    1    1    2  501    0  0.29417690840E+02 -0.12642375145E+02  0.29381629373E+03  0.29555582323E+03  0.00000000000E+00 0.  1.
          2    1    1    2  502    0 -0.29417690840E+02  0.12642375145E+02 -0.15462632288E+02  0.35557322466E+02  0.00000000000E+00 0.  1.
</event>
<event>
 4    1  0.7940509E+003  0.2573954E+02  0.7546771E-02  0.1460698E+00
          2   -1    0    0  502    0  0.00000000000E+00  0.00000000000E+00  0.40703126169E+01  0.40703126169E+01  0.00000000000E+00 0.  1.
          2   -1    0    0  501    0 -0.00000000000E+00 -0.00000000000E+00 -0.17569356669E+03  0.17569356669E+03  0.00000000000E+00 0.  1.
          2    1    1    2  501    0 -0.92255823342E+01  0.24029408926E+02 -0.61434107902E+02  0.66608358908E+02  0.00000000000E+00 0.  1.
          2    1    1    2  502    0  0.92255823342E+01 -0.24029408926E+02 -0.11018914617E+03  0.11315552040E+03  0.00000000000E+00 0.  1.
</event>
<event>
 4    1  0.7940509E+003  0.2945514E+02  0.7546771E-02  0.1424391E+00
          2   -1    0    0  501    0  0.00000000000E+00  0.00000000000E+00  0.65501614710E+02  0.65501614710E+02  0.00000000000E+00 0. -1.
          2   -1    0    0  502    0 -0.00000000000E+00 -0.00000000000E+00 -0.41892314109E+02  0.41892314109E+02  0.00000000000E+00 0.  1.
          2    1    1    2  501    0  0.22080466543E+02  0.19495076460E+02 -0.32599169764E+02  0.43935303325E+02  0.00000000000E+00 0.  1.
          2    1    1    2  502    0 -0.22080466543E+02 -0.19495076460E+02  0.56208470365E+02  0.63458625495E+02  0.00000000000E+00 0. -1.
</event>
<event>
 4    1  0.7940509E+003  0.2214595E+02  0.7546771E-02  0.1503510E+00
          2   -1    0    0  502    0  0.00000000000E+00  0.00000000000E+00  0.86123353671E+03  0.86123353671E+03  0.00000000000E+00 0. -1.
          2   -1    0    0  501    0 -0.00000000000E+00 -0.00000000000E+00 -0.12025671648E+02  0.12025671648E+02  0.00000000000E+00 0. -1.
          2    1    1    2  501    0  0.13649495133E+02  0.17439455246E+02  0.85077003799E+03  0.85105822412E+03  0.00000000000E+00 0. -1.
          2    1    1    2  502    0 -0.13649495133E+02 -0.17439455246E+02 -0.15621729236E+01  0.22200984233E+02  0.00000000000E+00 0. -1.
</event>
<event>
 4    1  0.7940509E+003  0.2306763E+02  0.7546771E-02  0.1491651E+00
          2   -1    0    0  502    0  0.00000000000E+00  0.00000000000E+00  0.14869613753E+04  0.14869613753E+04  0.00000000000E+00 0.  1.
          2   -1    0    0  501    0 -0.00000000000E+00 -0.00000000000E+00 -0.70167619412E+01  0.70167619412E+01  0.00000000000E+00 0. -1.
          2    1    1    2  501    0  0.12510973707E+02  0.19380168594E+02  0.14676639265E+04  0.14678451950E+04  0.00000000000E+00 0.  1.
          2    1    1    2  502    0 -0.12510973707E+02 -0.19380168594E+02  0.12280686803E+02  0.26132942164E+02  0.00000000000E+00 0. -1.
</event>
<event>
 4    1  0.7940509E+003  0.2583417E+02  0.7546771E-02  0.1459684E+00
          2   -1    0    0  502    0  0.00000000000E+00  0.00000000000E+00  0.20025401091E+04  0.20025401091E+04  0.00000000000E+00 0. -1.
          2   -1    0    0  501    0 -0.00000000000E+00 -0.00000000000E+00 -0.33775129360E+00  0.33775129360E+00  0.00000000000E+00 0. -1.
          2    1    1    2  501    0  0.23059154991E+02  0.11648155539E+02  0.88586177030E+03  0.88623838793E+03  0.00000000000E+00 0. -1.
          2    1    1    2  502    0 -0.23059154991E+02 -0.11648155539E+02  0.11163405875E+04  0.11166394725E+04  0.00000000000E+00 0. -1.
</event>
<event>
 4    1  0.7940509E+003  0.9466212E+02  0.7546771E-02  0.1173393E+00
          2   -1    0    0  501    0  0.00000000000E+00  0.00000000000E+00  0.23289950023E+02  0.23289950023E+02  0.00000000000E+00 0. -1.
          2   -1    0    0  502    0 -0.00000000000E+00 -0.00000000000E+00 -0.17817710435E+04  0.17817710435E+04  0.00000000000E+00 0.  1.
          2    1    1    2  501    0 -0.94260589660E+02 -0.87097086392E+01 -0.16784059610E+04  0.16810733142E+04  0.00000000000E+00 0.  1.
          2    1    1    2  502    0  0.94260589660E+02  0.87097086392E+01 -0.80075132527E+02  0.12398767938E+03  0.00000000000E+00 0. -1.
</event>
<event>
 4    1  0.7940509E+003  0.2299611E+02  0.7546771E-02  0.1492547E+00
          2   -1    0    0  501    0  0.00000000000E+00  0.00000000000E+00  0.72429536628E+02  0.72429536628E+02  0.00000000000E+00 0. -1.
          2   -1    0    0  502    0 -0.00000000000E+00 -0.00000000000E+00 -0.83501306024E+03  0.83501306024E+03  0.00000000000E+00 0. -1.
          2    1    1    2  501    0  0.37916982364E+01  0.22681357446E+02 -0.83302508339E+03  0.83334243293E+03  0.00000000000E+00 0. -1.
          2    1    1    2  502    0 -0.37916982364E+01 -0.22681357446E+02  0.70441559784E+02  0.74100163940E+02  0.00000000000E+00 0. -1.
</event>
<event>
 4    1  0.7940509E+003  0.3498514E+02  0.7546771E-02  0.1380668E+00
          2   -1    0    0  502    0  0.00000000000E+00  0.00000000000E+00  0.44437618023E+03  0.44437618023E+03  0.00000000000E+00 0. -1.
          2   -1    0    0  501    0 -0.00000000000E+00 -0.00000000000E+00 -0.33162394293E+01  0.33162394293E+01  0.00000000000E+00 0. -1.
          2    1    1    2  501    0  0.30890500872E+02  0.16423669752E+02  0.31267222004E+03  0.31462338940E+03  0.00000000000E+00 0. -1.
          2    1    1    2  502    0 -0.30890500872E+02 -0.16423669752E+02  0.12838772076E+03  0.13306903026E+03  0.00000000000E+00 0. -1.
</event>
<event>
 4    1  0.7940509E+003  0.3021056E+02  0.7546771E-02  0.1417775E+00
          2   -1    0    0  502    0  0.00000000000E+00  0.00000000000E+00  0.35959121636E+02  0.35959121636E+02  0.00000000000E+00 0. -1.
          2   -1    0    0  501    0 -0.00000000000E+00 -0.00000000000E+00 -0.19544307531E+03  0.19544307531E+03  0.00000000000E+00 0.  1.
          2    1    1    2  501    0  0.26571318209E+02 -0.14375083671E+02  0.28185268570E+02  0.41316913561E+02  0.00000000000E+00 0. -1.
          2    1    1    2  502    0 -0.26571318209E+02  0.14375083671E+02 -0.18766922224E+03  0.19008528338E+03  0.00000000000E+00 0.  1.
</event>
<event>
 4    1  0.7940509E+003  0.2563055E+02  0.7546771E-02  0.1461872E+00
          2   -1    0    0  501    0  0.00000000000E+00  0.00000000000E+00  0.13104833283E+02  0.13104833283E+02  0.00000000000E+00 0.  1.
          2   -1    0    0  502    0 -0.00000000000E+00 -0.00000000000E+00 -0.25712803673E+03  0.25712803673E+03  0.00000000000E+00 0. -1.
          2    1    1    2  501    0  0.19566483673E+02 -0.16555294593E+02 -0.24324385960E+03  0.24459047467E+03  0.00000000000E+00 0. -1.
          2    1    1    2  502    0 -0.19566483673E+02  0.16555294593E+02 -0.77934384545E+00  0.25642395349E+02  0.00000000000E+00 0.  1.
</event>
<event>
 4    1  0.7940509E+003  0.4964817E+02  0.7546771E-02  0.1299705E+00
          2   -1    0    0  501    0  0.00000000000E+00  0.00000000000E+00  0.88255893552E+02  0.88255893552E+02  0.00000000000E+00 0.  1.
          2   -1    0    0  502    0 -0.00000000000E+00 -0.00000000000E+00 -0.51755248212E+02  0.51755248212E+02  0.00000000000E+00 0.  1.
          2    1    1    2  501    0 -0.19202569579E+02 -0.45784298689E+02 -0.29248070113E+02  0.57622827856E+02  0.00000000000E+00 0.  1.
          2    1    1    2  502    0  0.19202569579E+02  0.45784298689E+02  0.65748715453E+02  0.82388313908E+02  0.00000000000E+00 0.  1.
</event>
<event>
 4    1  0.7940509E+003  0.2705784E+02  0.7546771E-02  0.1447028E+00
          2   -1    0    0  502    0  0.00000000000E+00  0.00000000000E+00  0.11964383438E+03  0.11964383438E+03  0.00000000000E+00 0. -1.
          2   -1    0    0  501    0 -0.00000000000E+00 -0.00000000000E+00 -0.64983432365E+01  0.64983432365E+01  0.00000000000E+00 0.  1.
          2    1    1    2  501    0  0.21036636263E+02 -0.17017244973E+02  0.71806972319E+02  0.76735702026E+02  0.00000000000E+00 0. -1.
          2    1    1    2  502    0 -0.21036636263E+02  0.17017244973E+02  0.41338518827E+02  0.49406475593E+02  0.00000000000E+00 0.  1.
</event>
<event>
 4    1  0.7940509E+003  0.2582423E+02  0.7546771E-02  0.1459790E+00
          2   -1    0    0  501    0  0.00000000000E+00  0.00000000000E+00  0.51105436681E+01  0.51105436681E+01  0.00000000000E+00 0. -1.
          2   -1    0    0  502    0 -0.00000000000E+00 -0.00000000000E+00 -0.53221839819E+03  0.53221839819E+03  0.00000000000E+00 0.  1.
          2    1    1    2  501    0 -0.10716821643E+00 -0.25824007505E+02 -0.49696952268E+03  0.49764002786E+03  0.00000000000E+00 0.  1.
          2    1    1    2  502    0  0.10716821643E+00  0.25824007505E+02 -0.30138331840E+02  0.39688914003E+02  0.00000000000E+00 0. -1.
</event>
<event>
 4    1  0.7940509E+003  0.2806437E+02  0.7546771E-02  0.1437200E+00
          2   -1    0    0  502    0  0.00000000000E+00  0.00000000000E+00  0.12571008869E+04  0.12571008869E+04  0.00000000000E+00 0.  1.
          2   -1    0    0  501    0 -0.00000000000E+00 -0.00000000000E+00 -0.16661945249E+01  0.16661945249E+01  0.00000000000E+00 0.  1.
          2    1    1    2  501    0 -0.27799129808E+02  0.38492977846E+01  0.11248812532E+04  0.11252312840E+04  0.00000000000E+00 0.  1.
          2    1    1    2  502    0  0.27799129808E+02 -0.38492977846E+01  0.13055343925E+03  0.13353579749E+03  0.00000000000E+00 0.  1.
</event>
<event>
 4    1  0.7940509E+003  0.4547308E+02  0.7546771E-02  0.1319091E+00
          2   -1    0    0  501    0  0.00000000000E+00  0.00000000000E+00  0.60398579865E+01  0.60398579865E+01  0.00000000000E+00 0.  1.
          2   -1    0    0  502    0 -0.00000000000E+00 -0.00000000000E+00 -0.90664142813E+03  0.90664142813E+03  0.00000000000E+00 0. -1.
          2    1    1    2  501    0  0.35942116039E+02 -0.27856160426E+02 -0.81031490053E+03  0.81158982214E+03  0.00000000000E+00 0. -1.
          2    1    1    2  502    0 -0.35942116039E+02  0.27856160426E+02 -0.90286669610E+02  0.10109146397E+03  0.00000000000E+00 0.  1.
</event>
<event>
 4    1  0.7940509E+003  0.4326010E+02  0.7546771E-02  0.1330372E+00
          2   -1    0    0  502    0  0.00000000000E+00  0.00000000000E+00  0.27613126707E+03  0.27613126707E+03  0.00000000000E+00 0. -1.
          2   -1    0    0  501    0 -0.00000000000E+00 -0.00000000000E+00 -0.14357913608E+04  0.14357913608E+04  0.00000000000E+00 0.  1.
          2    1    1    2  501    0  0.15690203342E+02 -0.40314440196E+02  0.27410868692E+03  0.27750136723E+03  0.00000000000E+00 0. -1.
          2    1    1    2  502    0 -0.15690203342E+02  0.40314440196E+02 -0.14337687807E+04  0.14344212607E+04  0.00000000000E+00 0.  1.
</event>
<event>
 4    1  0.7940509E+003  0.2587877E+02  0.7546771E-02  0.1459208E+00
          2   -1    0    0  502    0  0.00000000000E+00  0.00000000000E+00  0.86829714876E+01  0.86829714876E+01  0.00000000000E+00 0. -1.
          2   -1    0    0  501    0 -0.00000000000E+00 -0.00000000000E+00 -0.42577351900E+03  0.42577351900E+03  0.00000000000E+00 0. -1.
          2    1    1    2  501    0  0.17285417245E+02 -0.19259422265E+02 -0.11974819247E+02  0.28515036232E+02  0.00000000000E+00 0. -1.
          2    1    1    2  502    0 -0.17285417245E+02  0.19259422265E+02 -0.40511572827E+03  0.40594145426E+03  0.00000000000E+00 0. -1.
</event>
<event>
 4    1  0.7940509E+003  0.3568040E+02  0.7546771E-02  0.1375842E+00
          2   -1    0    0  502    0  0.00000000000E+00  0.00000000000E+00  0.63603189204E+01  0.63603189204E+01  0.00000000000E+00 0.  1.
          2   -1    0    0  501    0 -0.00000000000E+00 -0.00000000000E+00 -0.76597794344E+03  0.76597794344E+03  0.00000000000E+00 0. -1.
          2    1    1    2  501    0  0.32848546222E+02 -0.13930687311E+02 -0.47908851181E+02  0.59735659863E+02  0.00000000000E+00 0.  1.
          2    1    1    2  502    0 -0.32848546222E+02  0.13930687311E+02 -0.71170877334E+03  0.71260260250E+03  0.00000000000E+00 0. -1.
</event>
<event>
 4    1  0.7940509E+003  0.2473400E+02  0.7546771E-02  0.1471801E+00
          2   -1    0    0  502    0  0.00000000000E+00  0.00000000000E+00  0.15594261162E+01  0.15594261162E+01  0.00000000000E+00 0. -1.
          2   -1    0    0  501    0 -0.00000000000E+00 -0.00000000000E+00 -0.84043122291E+03  0.84043122291E+03  0.00000000000E+00 0. -1.
          2    1    1    2  501    0  0.24341098554E+02  0.43911073704E+01 -0.11202002547E+03  0.11471816338E+03  0.00000000000E+00 0. -1.
          2    1    1    2  502    0 -0.24341098554E+02 -0.43911073704E+01 -0.72685177132E+03  0.72727248565E+03  0.00000000000E+00 0. -1.
</event>
<event>
 4    1  0.1391182E+004  0.2364903E+02  0.7546771E-02  0.1484505E+00
          2   -1    0    0  502    0  0.00000000000E+00  0.00000000000E+00  0.13304111993E+04  0.13304111993E+04  0.00000000000E+00 0. -1.
          2   -1    0    0  501    0 -0.00000000000E+00 -0.00000000000E+00 -0.70591680726E+03  0.70591680726E+03  0.00000000000E+00 0. -1.
          2    1    1    2  501    0 -0.21993776908E+02  0.86919642983E+01  0.13301079920E+04  0.13303182127E+04  0.00000000000E+00 0. -1.
          2    1    1    2  502    0  0.21993776908E+02 -0.86919642983E+01 -0.70561360004E+03  0.70600979386E+03  0.00000000000E+00 0. -1.
</event>
<event>
 4    1  0.7940509E+003  0.3552890E+02  0.7546771E-02  0.1376883E+00
          2   -1    0    0  502    0  0.00000000000E+00  0.00000000000E+00  0.18580262120E+04  0.18580262120E+04  0.00000000000E+00 0.  1.
          2   -1    0    0  501    0 -0.00000000000E+00 -0.00000000000E+00 -0.38154892818E+01  0.38154892818E+01  0.00000000000E+00 0.  1.
          2    1    1    2  501    0  0.33693261571E+02  0.11272381231E+02  0.17710877011E+04  0.17714440288E+04  0.00000000000E+00 0.  1.
          2    1    1    2  502    0 -0.33693261571E+02 -0.11272381231E+02  0.83123021652E+02  0.90397672439E+02  0.00000000000E+00 0.  1.
</event>
<event>
 4    1  0.7940509E+003  0.3523175E+02  0.7546771E-02  0.1378941E+00
          2   -1    0    0  502    0  0.00000000000E+00  0.00000000000E+00  0.80993520211E+02  0.80993520211E+02  0.00000000000E+00 0.  1.
          2   -1    0    0  501    0 -0.00000000000E+00 -0.00000000000E+00 -0.12493439343E+04  0.12493439343E+04  0.00000000000E+00 0.  1.
          2    1    1    2  501    0  0.32427979160E+02  0.13773243096E+02  0.76901140220E+02  0.84587596165E+02  0.00000000000E+00 0.  1.
          2    1    1    2  502    0 -0.32427979160E+02 -0.13773243096E+02 -0.12452515543E+04  0.12457498583E+04  0.00000000000E+00 0.  1.
</event>
<event>
 4    1  0.7940509E+003  0.3161273E+02  0.7546771E-02  0.1406081E+00
          2   -1    0    0  502    0  0.00000000000E+00  0.00000000000E+00  0.19537693797E+03  0.19537693797E+03  0.00000000000E+00 0.  1.
          2   -1    0    0  501    0 -0.00000000000E+00 -0.00000000000E+00 -0.21677909304E+03  0.21677909304E+03  0.00000000000E+00 0.  1.
          2    1    1    2  501    0 -0.17400833243E+02  0.26392714967E+02  0.19293114500E+03  0.19550394143E+03  0.00000000000E+00 0.  1.
          2    1    1    2  502    0  0.17400833243E+02 -0.26392714967E+02 -0.21433330008E+03  0.21665208959E+03  0.00000000000E+00 0.  1.
</event>
<event>
 4    1  0.7940509E+003  0.3230678E+02  0.7546771E-02  0.1400555E+00
          2   -1    0    0  501    0  0.00000000000E+00  0.00000000000E+00  0.14406417058E+04  0.14406417058E+04  0.00000000000E+00 0.  1.
          2   -1    0    0  502    0 -0.00000000000E+00 -0.00000000000E+00 -0.27849163969E+02  0.27849163969E+02  0.00000000000E+00 0.  1.
          2    1    1    2  501    0 -0.18725382591E+01  0.32252466789E+02 -0.18235633075E+02  0.37098063658E+02  0.00000000000E+00 0.  1.
          2    1    1    2  502    0  0.18725382591E+01 -0.32252466789E+02  0.14310281749E+04  0.14313928061E+04  0.00000000000E+00 0.  1.
</event>
<event>
 4    1  0.7940509E+003  0.3200949E+02  0.7546771E-02  0.1402902E+00
          2   -1    0    0  501    0  0.00000000000E+00  0.00000000000E+00  0.25091531494E+03  0.25091531494E+03  0.00000000000E+00 0. -1.
          2   -1    0    0  502    0 -0.00000000000E+00 -0.00000000000E+00 -0.92894539079E+03  0.92894539079E+03  0.00000000000E+00 0.  1.
          2    1    1    2  501    0  0.31882253803E+02  0.28511977037E+01 -0.92764734816E+03  0.92819944515E+03  0.00000000000E+00 0.  1.
          2    1    1    2  502    0 -0.31882253803E+02 -0.28511977037E+01  0.24961727231E+03  0.25166126057E+03  0.00000000000E+00 0. -1.
</event>
<event>
 4    1  0.7940509E+003  0.2848653E+02  0.7546771E-02  0.1433221E+00
          2   -1    0    0  502    0  0.00000000000E+00  0.00000000000E+00  0.30895587054E+02  0.30895587054E+02  0.00000000000E+00 0.  1.
          2   -1    0    0  501    0 -0.00000000000E+00 -0.00000000000E+00 -0.10097265181E+03  0.10097265181E+03  0.00000000000E+00 0.  1.
          2    1    1    2  501    0  0.16574289084E+02  0.23168407130E+02  0.21675427755E+02  0.35795339305E+02  0.00000000000E+00 0.  1.
          2    1    1    2  502    0 -0.16574289084E+02 -0.23168407130E+02 -0.91752492507E+02  0.96072899555E+02  0.00000000000E+00 0.  1.
</event>
<event>
 4    1  0.7940509E+003  0.2861850E+02  0.7546771E-02  0.1431994E+00
          2   -1    0    0  501    0  0.00000000000E+00  0.00000000000E+00  0.92763357332E+02  0.92763357332E+02  0.00000000000E+00 0.  1.
          2   -1    0    0  502    0 -0.00000000000E+00 -0.00000000000E+00 -0.26629530645E+02  0.26629530645E+02  0.00000000000E+00 0. -1.
          2    1    1    2  501    0 -0.28334304086E+02 -0.40231475601E+01 -0.15740046563E+02  0.32661407963E+02  0.00000000000E+00 0. -1.
          2    1    1    2  502    0  0.28334304086E+02  0.40231475601E+01  0.81873873250E+02  0.86731480014E+02  0.00000000000E+00 0.  1.
</event>
<event>
 4    1  0.7940509E+003  0.7047127E+02  0.7546771E-02  0.1227884E+00
          2   -1    0    0  502    0  0.00000000000E+00  0.00000000000E+00  0.22067653461E+03  0.22067653461E+03  0.00000000000E+00 0. -1.
          2   -1    0    0  501    0 -0.00000000000E+00 -0.00000000000E+00 -0.14268148255E+04  0.14268148255E+04  0.00000000000E+00 0. -1.
          2    1    1    2  501    0  0.67225277601E+02 -0.21141472585E+02  0.21415445238E+03  0.22545139007E+03  0.00000000000E+00 0. -1.
          2    1    1    2  502    0 -0.67225277601E+02  0.21141472585E+02 -0.14202927433E+04  0.14220399701E+04  0.00000000000E+00 0. -1.
</event>
<event>
 4    1  0.7940509E+003  0.2388332E+02  0.7546771E-02  0.1481694E+00
          2   -1    0    0  501    0  0.00000000000E+00  0.00000000000E+00  0.13137718704E+03  0.13137718704E+03  0.00000000000E+00 0. -1.
          2   -1    0    0  502    0 -0.00000000000E+00 -0.00000000000E+00 -0.17501235935E+04  0.17501235935E+04  0.00000000000E+00 0.  1.
          2    1    1    2  501    0 -0.19846405792E+02  0.13286577172E+02 -0.17489559380E+04  0.17491190028E+04  0.00000000000E+00 0.  1.
          2    1    1    2  502    0  0.19846405792E+02 -0.13286577172E+02  0.13020953157E+03  0.13238177770E+03  0.00000000000E+00 0. -1.
</event>
<event>
 4    1  0.7940509E+003  0.2093729E+02  0.7546771E-02  0.1520162E+00
          2   -1    0    0  502    0  0.00000000000E+00  0.00000000000E+00  0.44186885776E+01  0.44186885776E+01  0.00000000000E+00 0.  1.
          2   -1    0    0  501    0 -0.00000000000E+00 -0.00000000000E+00 -0.23700595303E+03  0.23700595303E+03  0.00000000000E+00 0. -1.
          2    1    1    2  501    0  0.16631835384E+02  0.12718184608E+02 -0.24250152176E+02  0.32038103073E+02  0.00000000000E+00 0.  1.
          2    1    1    2  502    0 -0.16631835384E+02 -0.12718184608E+02 -0.20833711227E+03  0.20938653853E+03  0.00000000000E+00 0. -1.
</event>
<event>
 4    1  0.7940509E+003  0.3088338E+02  0.7546771E-02  0.1412072E+00
          2   -1    0    0  502    0  0.00000000000E+00  0.00000000000E+00  0.22839433767E+01  0.22839433767E+01  0.00000000000E+00 0. -1.
          2   -1    0    0  501    0 -0.00000000000E+00 -0.00000000000E+00 -0.11612481347E+04  0.11612481347E+04  0.00000000000E+00 0.  1.
          2    1    1    2  501    0  0.23528886910E+02 -0.20004361103E+02 -0.11392972207E+03  0.11804136798E+03  0.00000000000E+00 0. -1.
          2    1    1    2  502    0 -0.23528886910E+02  0.20004361103E+02 -0.10450344693E+04  0.10454907101E+04  0.00000000000E+00 0.  1.
</event>
<event>
 4    1  0.7940509E+003  0.3922918E+02  0.7546771E-02  0.1353063E+00
          2   -1    0    0  502    0  0.00000000000E+00  0.00000000000E+00  0.19520772978E+01  0.19520772978E+01  0.00000000000E+00 0.  1.
          2   -1    0    0  501    0 -0.00000000000E+00 -0.00000000000E+00 -0.28803801284E+04  0.28803801284E+04  0.00000000000E+00 0. -1.
          2    1    1    2  501    0  0.39101951831E+02 -0.31569009449E+01 -0.21100396681E+03  0.21461966982E+03  0.00000000000E+00 0.  1.
          2    1    1    2  502    0 -0.39101951831E+02  0.31569009449E+01 -0.26674240843E+04  0.26677125359E+04  0.00000000000E+00 0. -1.
</event>
<event>
 4    1  0.7940509E+003  0.2073573E+02  0.7546771E-02  0.1523072E+00
          2   -1    0    0  501    0  0.00000000000E+00  0.00000000000E+00  0.29747597273E+01  0.29747597273E+01  0.00000000000E+00 0. -1.
          2   -1    0    0  502    0 -0.00000000000E+00 -0.00000000000E+00 -0.10685123026E+04  0.10685123026E+04  0.00000000000E+00 0.  1.
          2    1    1    2  501    0 -0.14701876857E+02  0.14622763880E+02 -0.10309607798E+04  0.10311692877E+04  0.00000000000E+00 0.  1.
          2    1    1    2  502    0  0.14701876857E+02 -0.14622763880E+02 -0.34576763088E+02  0.40317774644E+02  0.00000000000E+00 0. -1.
</event>
<event>
 4    1  0.7940509E+003  0.2624953E+02  0.7546771E-02  0.1455296E+00
          2   -1    0    0  501    0  0.00000000000E+00  0.00000000000E+00  0.13140340728E+01  0.13140340728E+01  0.00000000000E+00 0. -1.
          2   -1    0    0  502    0 -0.00000000000E+00 -0.00000000000E+00 -0.62692672906E+03  0.62692672906E+03  0.00000000000E+00 0. -1.
          2    1    1    2  501    0  0.21234312236E+02 -0.15431848496E+02 -0.43985590575E+03  0.44063846381E+03  0.00000000000E+00 0. -1.
          2    1    1    2  502    0 -0.21234312236E+02  0.15431848496E+02 -0.18575678923E+03  0.18760229932E+03  0.00000000000E+00 0. -1.
</event>
<event>
 4    1  0.7940509E+003  0.2091228E+02  0.7546771E-02  0.1520521E+00
          2   -1    0    0  501    0  0.00000000000E+00  0.00000000000E+00  0.10352264723E+01  0.10352264723E+01  0.00000000000E+00 0.  1.
          2   -1    0    0  502    0 -0.00000000000E+00 -0.00000000000E+00 -0.79439753663E+03  0.79439753663E+03  0.00000000000E+00 0. -1.
          2    1    1    2  501    0  0.20527241309E+02 -0.39944788216E+01 -0.66882583481E+03  0.66915268871E+03  0.00000000000E+00 0. -1.
          2    1    1    2  502    0 -0.20527241309E+02  0.39944788216E+01 -0.12453647534E+03  0.12628007439E+03  0.00000000000E+00 0.  1.
</event>
<event>
 4    1  0.7940509E+003  0.2228984E+02  0.7546771E-02  0.1501613E+00
          2   -1    0    0  502    0  0.00000000000E+00  0.00000000000E+00  0.11309473525E+04  0.11309473525E+04  0.00000000000E+00 0.  1.
          2   -1    0    0  501    0 -0.00000000000E+00 -0.00000000000E+00 -0.30646700747E+02  0.30646700747E+02  0.00000000000E+00 0.  1.
          2    1    1    2  501    0 -0.69382716690E+01 -0.21182479733E+02  0.11267695581E+04  0.11269900062E+04  0.00000000000E+00 0.  1.
          2    1    1    2  502    0  0.69382716690E+01  0.21182479733E+02 -0.26468906396E+02  0.34604046977E+02  0.00000000000E+00 0.  1.
</event>
<event>
 4    1  0.7940509E+003  0.2485319E+02  0.7546771E-02  0.1470452E+00
          2   -1    0    0  502    0  0.00000000000E+00  0.00000000000E+00  0.27100755201E+02  0.27100755201E+02  0.00000000000E+00 0.  1.
          2   -1    0    0  501    0 -0.00000000000E+00 -0.00000000000E+00 -0.12765882233E+03  0.12765882233E+03  0.00000000000E+00 0. -1.
          2    1    1    2  501    0 -0.21679314668E+02 -0.12152712125E+02  0.19853757831E+02  0.31809633705E+02  0.00000000000E+00 0.  1.
          2    1    1    2  502    0  0.21679314668E+02  0.12152712125E+02 -0.12041182496E+03  0.12294994383E+03  0.00000000000E+00 0. -1.
</event>
<event>
 4    1  0.7940509E+003  0.4867382E+02  0.7546771E-02  0.1304027E+00
          2   -1    0    0  502    0  0.00000000000E+00  0.00000000000E+00  0.10025914954E+04  0.10025914954E+04  0.00000000000E+00 0.  1.
          2   -1    0    0  501    0 -0.00000000000E+00 -0.00000000000E+00 -0.44613811799E+01  0.44613811799E+01  0.00000000000E+00 0. -1.
          2    1    1    2  501    0  0.16567029663E+02 -0.45767612174E+02  0.84439007281E+03  0.84579178043E+03  0.00000000000E+00 0.  1.
          2    1    1    2  502    0 -0.16567029663E+02  0.45767612174E+02  0.15374004139E+03  0.16126109612E+03  0.00000000000E+00 0. -1.
</event>
<event>
 4    1  0.7940509E+003  0.2531542E+02  0.7546771E-02  0.1465305E+00
          2   -1    0    0  501    0  0.00000000000E+00  0.00000000000E+00  0.42971186025E+03  0.42971186025E+03  0.00000000000E+00 0.  1.
          2   -1    0    0  502    0 -0.00000000000E+00 -0.00000000000E+00 -0.26494398277E+02  0.26494398277E+02  0.00000000000E+00 0. -1.
          2    1    1    2  501    0  0.22999244496E+02  0.10578538064E+02 -0.19981336543E+02  0.32250961614E+02  0.00000000000E+00 0. -1.
          2    1    1    2  502    0 -0.22999244496E+02 -0.10578538064E+02  0.42319879852E+03  0.42395529691E+03  0.00000000000E+00 0.  1.
</event>
<event>
 4    1  0.7940509E+003  0.2130216E+02  0.7546771E-02  0.1514994E+00
          2   -1    0    0  502    0  0.00000000000E+00  0.00000000000E+00  0.71112540704E+03  0.71112540704E+03  0.00000000000E+00 0.  1.
          2   -1    0    0  501    0 -0.00000000000E+00 -0.00000000000E+00 -0.60377126916E+01  0.60377126916E+01  0.00000000000E+00 0.  1.
          2    1    1    2  501    0 -0.17568376188E+02 -0.12047163577E+02  0.69164737468E+03  0.69197534125E+03  0.00000000000E+00 0.  1.
          2    1    1    2  502    0  0.17568376188E+02  0.12047163577E+02  0.13440319665E+02  0.25187778481E+02  0.00000000000E+00 0.  1.
</event>
<event>
 4    1  0.7940509E+003  0.4332244E+02  0.7546771E-02  0.1330044E+00
          2   -1    0    0  502    0  0.00000000000E+00  0.00000000000E+00  0.10044470923E+02  0.10044470923E+02  0.00000000000E+00 0. -1.
          2   -1    0    0  501    0 -0.00000000000E+00 -0.00000000000E+00 -0.20928085877E+03  0.20928085877E+03  0.00000000000E+00 0.  1.
          2    1    1    2  501    0 -0.34074229930E+02 -0.26754075189E+02 -0.13551812190E+03  0.14227436539E+03  0.00000000000E+00 0.  1.
          2    1    1    2  502    0  0.34074229930E+02  0.26754075189E+02 -0.63718265951E+02  0.77050964305E+02  0.00000000000E+00 0. -1.
</event>
<event>
 4    1  0.7940509E+003  0.3539854E+02  0.7546771E-02  0.1377783E+00
          2   -1    0    0  501    0  0.00000000000E+00  0.00000000000E+00  0.10374858590E+02  0.10374858590E+02  0.00000000000E+00 0.  1.
          2   -1    0    0  502    0 -0.00000000000E+00 -0.00000000000E+00 -0.88997803305E+03  0.88997803305E+03  0.00000000000E+00 0. -1.
          2    1    1    2  501    0 -0.72340510976E+01 -0.34651479469E+02 -0.85831821866E+03  0.85904785722E+03  0.00000000000E+00 0. -1.
          2    1    1    2  502    0  0.72340510976E+01  0.34651479469E+02 -0.21284955809E+02  0.41305034421E+02  0.00000000000E+00 0.  1.
</event>
<event>
 4    1  0.7940509E+003  0.2302670E+02  0.7546771E-02  0.1492163E+00
          2   -1    0    0  501    0  0.00000000000E+00  0.00000000000E+00  0.68871022958E+02  0.68871022958E+02  0.00000000000E+00 0.  1.
          2   -1    0    0  502    0 -0.00000000000E+00 -0.00000000000E+00 -0.27570941430E+02  0.27570941430E+02  0.00000000000E+00 0. -1.
          2    1    1    2  501    0  0.22840711995E+02  0.29207373347E+01 -0.20288452947E+02  0.30689577286E+02  0.00000000000E+00 0. -1.
          2    1    1    2  502    0 -0.22840711995E+02 -0.29207373347E+01  0.61588534474E+02  0.65752387102E+02  0.00000000000E+00 0.  1.
</event>
<event>
 4    1  0.7940509E+003  0.3155437E+02  0.7546771E-02  0.1406553E+00
          2   -1    0    0  502    0  0.00000000000E+00  0.00000000000E+00  0.12322327334E+04  0.12322327334E+04  0.00000000000E+00 0. -1.
          2   -1    0    0  501    0 -0.00000000000E+00 -0.00000000000E+00 -0.13941392945E+02  0.13941392945E+02  0.00000000000E+00 0. -1.
          2    1    1    2  501    0  0.78785502484E+01  0.30554976943E+02  0.12139065102E+04  0.12143165542E+04  0.00000000000E+00 0. -1.
          2    1    1    2  502    0 -0.78785502484E+01 -0.30554976943E+02  0.43848302548E+01  0.31857572198E+02  0.00000000000E+00 0. -1.
</event>
<event>
 4    1  0.7940509E+003  0.2842784E+02  0.7546771E-02  0.1433769E+00
          2   -1    0    0  501    0  0.00000000000E+00  0.00000000000E+00  0.10540609217E+03  0.10540609217E+03  0.00000000000E+00 0. -1.
          2   -1    0    0  502    0 -0.00000000000E+00 -0.00000000000E+00 -0.85317235707E+01  0.85317235707E+01  0.00000000000E+00 0. -1.
          2    1    1    2  501    0  0.83768308505E+00 -0.28415498775E+02  0.30299869768E+02  0.41547856642E+02  0.00000000000E+00 0. -1.
          2    1    1    2  502    0 -0.83768308505E+00  0.28415498775E+02  0.66574498829E+02  0.72389959096E+02  0.00000000000E+00 0. -1.
</event>
<event>
 4    1  0.7940509E+003  0.3284821E+02  0.7546771E-02  0.1396357E+00
          2   -1    0    0  502    0  0.00000000000E+00  0.00000000000E+00  0.16299702390E+04  0.16299702390E+04  0.00000000000E+00 0.  1.
          2   -1    0    0  501    0 -0.00000000000E+00 -0.00000000000E+00 -0.29633483130E+02  0.29633483130E+02  0.00000000000E+00 0.  1.
          2    1    1    2  501    0  0.23150596707E+02 -0.23303531679E+02  0.16206494783E+04  0.16209823368E+04  0.00000000000E+00 0.  1.
          2    1    1    2  502    0 -0.23150596707E+02  0.23303531679E+02 -0.20312722390E+02  0.38621385365E+02  0.00000000000E+00 0.  1.
</event>
<event>
 4    1  0.7940509E+003  0.3683273E+02  0.7546771E-02  0.1368117E+00
          2   -1    0    0  501    0  0.00000000000E+00  0.00000000000E+00  0.10600410585E+03  0.10600410585E+03  0.00000000000E+00 0. -1.
          2   -1    0    0  502    0 -0.00000000000E+00 -0.00000000000E+00 -0.40942372490E+02  0.40942372490E+02  0.00000000000E+00 0.  1.
          2    1    1    2  501    0 -0.16255340265E+02  0.33051683011E+02 -0.28386033120E+02  0.46501792581E+02  0.00000000000E+00 0.  1.
          2    1    1    2  502    0  0.16255340265E+02 -0.33051683011E+02  0.93447766477E+02  0.10044468576E+03  0.00000000000E+00 0. -1.
</event>
<event>
 4    1  0.7940509E+003  0.8347610E+02  0.7546771E-02  0.1196000E+00
          2   -1    0    0  501    0  0.00000000000E+00  0.00000000000E+00  0.53578447810E+03  0.53578447810E+03  0.00000000000E+00 0.  1.
          2   -1    0    0  502    0 -0.00000000000E+00 -0.00000000000E+00 -0.12008933826E+03  0.12008933826E+03  0.00000000000E+00 0. -1.
          2    1    1    2  501    0  0.79405105854E+02  0.25750501741E+02 -0.10182276558E+03  0.13166675650E+03  0.00000000000E+00 0. -1.
          2    1    1    2  502    0 -0.79405105854E+02 -0.25750501741E+02  0.51751790543E+03  0.52420705987E+03  0.00000000000E+00 0.  1.
</event>
<event>
 4    1  0.7940509E+003  0.5118726E+02  0.7546771E-02  0.1293105E+00
          2   -1    0    0  501    0  0.00000000000E+00  0.00000000000E+00  0.19385382184E+04  0.19385382184E+04  0.00000000000E+00 0.  1.
          2   -1    0    0  502    0 -0.00000000000E+00 -0.00000000000E+00 -0.43907814098E+03  0.43907814098E+03  0.00000000000E+00 0.  1.
          2    1    1    2  501    0 -0.48521309306E+02 -0.16303923224E+02 -0.43724699090E+03  0.44023296835E+03  0.00000000000E+00 0.  1.
          2    1    1    2  502    0  0.48521309306E+02  0.16303923224E+02  0.19367070684E+04  0.19373833911E+04  0.00000000000E+00 0.  1.
</event>
<event>
 4    1  0.7940509E+003  0.5212369E+02  0.7546771E-02  0.1289218E+00
          2   -1    0    0  502    0  0.00000000000E+00  0.00000000000E+00  0.12607420041E+02  0.12607420041E+02  0.00000000000E+00 0. -1.
          2   -1    0    0  501    0 -0.00000000000E+00 -0.00000000000E+00 -0.27262248109E+03  0.27262248109E+03  0.00000000000E+00 0. -1.
          2    1    1    2  501    0  0.90346883847E+01 -0.51334722318E+02 -0.64725493608E+02  0.83103964000E+02  0.00000000000E+00 0. -1.
          2    1    1    2  502    0 -0.90346883847E+01  0.51334722318E+02 -0.19528956744E+03  0.20212593713E+03  0.00000000000E+00 0. -1.
</event>
<event>
 4    1  0.7940509E+003  0.2618708E+02  0.7546771E-02  0.1455949E+00
          2   -1    0    0  501    0  0.00000000000E+00  0.00000000000E+00  0.24896372320E+03  0.24896372320E+03  0.00000000000E+00 0. -1.
          2   -1    0    0  502    0 -0.00000000000E+00 -0.00000000000E+00 -0.86498997303E+03  0.86498997303E+03  0.00000000000E+00 0. -1.
          2    1    1    2  501    0  0.25314209868E+02 -0.67047555948E+01 -0.86410244886E+03  0.86449916431E+03  0.00000000000E+00 0. -1.
          2    1    1    2  502    0 -0.25314209868E+02  0.67047555948E+01  0.24807619903E+03  0.24945453192E+03  0.00000000000E+00 0. -1.
</event>
<event>
 4    1  0.7940509E+003  0.3598874E+02  0.7546771E-02  0.1373742E+00
          2   -1    0    0  502    0  0.00000000000E+00  0.00000000000E+00  0.14246832863E+02  0.14246832863E+02  0.00000000000E+00 0.  1.
          2   -1    0    0  501    0 -0.00000000000E+00 -0.00000000000E+00 -0.29915165171E+03  0.29915165171E+03  0.00000000000E+00 0.  1.
          2    1    1    2  501    0  0.98958822772E+01 -0.34601461866E+02 -0.11713681047E+02  0.37847060295E+02  0.00000000000E+00 0.  1.
          2    1    1    2  502    0 -0.98958822772E+01  0.34601461866E+02 -0.27319113780E+03  0.27555142427E+03  0.00000000000E+00 0.  1.
</event>
<event>
 4    1  0.7940509E+003  0.2021930E+02  0.7546771E-02  0.1530709E+00
          2   -1    0    0  502    0  0.00000000000E+00  0.00000000000E+00  0.47939925096E+02  0.47939925096E+02  0.00000000000E+00 0.  1.
          2   -1    0    0  501    0 -0.00000000000E+00 -0.00000000000E+00 -0.44864451700E+03  0.44864451700E+03  0.00000000000E+00 0.  1.
          2    1    1    2  501    0 -0.19832925104E+02  0.39338430590E+01  0.45568856088E+02  0.49853191317E+02  0.00000000000E+00 0.  1.
          2    1    1    2  502    0  0.19832925104E+02 -0.39338430590E+01 -0.44627344799E+03  0.44673125078E+03  0.00000000000E+00 0.  1.
</event>
<event>
 4    1  0.7940509E+003  0.1029883E+03  0.7546771E-02  0.1158728E+00
          2   -1    0    0  502    0  0.00000000000E+00  0.00000000000E+00  0.12651628866E+02  0.12651628866E+02  0.00000000000E+00 0.  1.
          2   -1    0    0  501    0 -0.00000000000E+00 -0.00000000000E+00 -0.14401408226E+04  0.14401408226E+04  0.00000000000E+00 0.  1.
          2    1    1    2  501    0  0.10093830943E+03  0.20445962473E+02 -0.24418425759E+03  0.26501420970E+03  0.00000000000E+00 0.  1.
          2    1    1    2  502    0 -0.10093830943E+03 -0.20445962473E+02 -0.11833049362E+04  0.11877782418E+04  0.00000000000E+00 0.  1.
</event>
<event>
 4    1  0.7940509E+003  0.2836556E+02  0.7546771E-02  0.1434353E+00
          2   -1    0    0  501    0  0.00000000000E+00  0.00000000000E+00  0.31635887796E+03  0.31635887796E+03  0.00000000000E+00 0. -1.
          2   -1    0    0  502    0 -0.00000000000E+00 -0.00000000000E+00 -0.20377111330E+03  0.20377111330E+03  0.00000000000E+00 0.  1.
          2    1    1    2  501    0  0.26090520897E+02 -0.11130579817E+02 -0.20214304147E+03  0.20412352707E+03  0.00000000000E+00 0.  1.
          2    1    1    2  502    0 -0.26090520897E+02  0.11130579817E+02  0.31473080613E+03  0.31600646420E+03  0.00000000000E+00 0. -1.
</event>
<event>
 4    1  0.7940509E+003  0.2102211E+02  0.7546771E-02  0.1518949E+00
          2   -1    0    0  502    0  0.00000000000E+00  0.00000000000E+00  0.12921621781E+01  0.12921621781E+01  0.00000000000E+00 0.  1.
          2   -1    0    0  501    0 -0.00000000000E+00 -0.00000000000E+00 -0.13331294505E+04  0.13331294505E+04  0.00000000000E+00 0. -1.
          2    1    1    2  501    0 -0.20134243159E+02 -0.60449458796E+01 -0.90623823589E+02  0.93030137698E+02  0.00000000000E+00 0.  1.
          2    1    1    2  502    0  0.20134243159E+02  0.60449458796E+01 -0.12412134648E+04  0.12413914750E+04  0.00000000000E+00 0. -1.
</event>
<event>
 4    1  0.7940509E+003  0.2652828E+02  0.7546771E-02  0.1452405E+00
          2   -1    0    0  502    0  0.00000000000E+00  0.00000000000E+00  0.23258201939E+02  0.23258201939E+02  0.00000000000E+00 0. -1.
          2   -1    0    0  501    0 -0.00000000000E+00 -0.00000000000E+00 -0.30260938967E+02  0.30260938967E+02  0.00000000000E+00 0. -1.
          2    1    1    2  501    0  0.30984507234E+00 -0.26526466172E+02 -0.32429874140E+01  0.26725762457E+02  0.00000000000E+00 0. -1.
          2    1    1    2  502    0 -0.30984507234E+00  0.26526466172E+02 -0.37597496147E+01  0.26793378449E+02  0.00000000000E+00 0. -1.
</event>
<event>
 4    1  0.7940509E+003  0.2170530E+02  0.7546771E-02  0.1509429E+00
          2   -1    0    0  502    0  0.00000000000E+00  0.00000000000E+00  0.10979406578E+02  0.10979406578E+02  0.00000000000E+00 0.  1.
          2   -1    0    0  501    0 -0.00000000000E+00 -0.00000000000E+00 -0.27769575986E+03  0.27769575986E+03  0.00000000000E+00 0.  1.
          2    1    1    2  501    0  0.13144068987E+02  0.17272916772E+02 -0.63975813927E+00  0.21714729881E+02  0.00000000000E+00 0.  1.
          2    1    1    2  502    0 -0.13144068987E+02 -0.17272916772E+02 -0.26607659514E+03  0.26696043656E+03  0.00000000000E+00 0.  1.
</event>
<event>
 4    1  0.7940509E+003  0.2666853E+02  0.7546771E-02  0.1450967E+00
          2   -1    0    0  502    0  0.00000000000E+00  0.00000000000E+00  0.12474741853E+02  0.12474741853E+02  0.00000000000E+00 0. -1.
          2   -1    0    0  501    0 -0.00000000000E+00 -0.00000000000E+00 -0.18676361174E+03  0.18676361174E+03  0.00000000000E+00 0. -1.
          2    1    1    2  501    0 -0.26649751061E+02  0.10005675473E+01 -0.41109729659E+01  0.26983522116E+02  0.00000000000E+00 0. -1.
          2    1    1    2  502    0  0.26649751061E+02 -0.10005675473E+01 -0.17017789692E+03  0.17225483148E+03  0.00000000000E+00 0. -1.
</event>
<event>
 4    1  0.7940509E+003  0.4653423E+02  0.7546771E-02  0.1313941E+00
          2   -1    0    0  501    0  0.00000000000E+00  0.00000000000E+00  0.85706938803E+03  0.85706938803E+03  0.00000000000E+00 0. -1.
          2   -1    0    0  502    0 -0.00000000000E+00 -0.00000000000E+00 -0.28954160628E+04  0.28954160628E+04  0.00000000000E+00 0.  1.
          2    1    1    2  501    0 -0.33855750754E+01 -0.46410911796E+02 -0.28945972739E+04  0.28949712974E+04  0.00000000000E+00 0.  1.
          2    1    1    2  502    0  0.33855750754E+01  0.46410911796E+02  0.85625059911E+03  0.85751415342E+03  0.00000000000E+00 0. -1.
</event>
<event>
 4    1  0.7940509E+003  0.4279129E+02  0.7546771E-02  0.1332862E+00
          2   -1    0    0  501    0  0.00000000000E+00  0.00000000000E+00  0.47215236584E+02  0.47215236584E+02  0.00000000000E+00 0.  1.
          2   -1    0    0  502    0 -0.00000000000E+00 -0.00000000000E+00 -0.16678604922E+03  0.16678604922E+03  0.00000000000E+00 0.  1.
          2    1    1    2  501    0  0.31776494919E+02  0.28659181973E+02 -0.15352404252E+03  0.15937605207E+03  0.00000000000E+00 0.  1.
          2    1    1    2  502    0 -0.31776494919E+02 -0.28659181973E+02  0.33953229887E+02  0.54625233734E+02  0.00000000000E+00 0.  1.
</event>
<event>
 4    1  0.7940509E+003  0.2683232E+02  0.7546771E-02  0.1449300E+00
          2   -1    0    0  501    0  0.00000000000E+00  0.00000000000E+00  0.13331891806E+01  0.13331891806E+01  0.00000000000E+00 0.  1.
          2   -1    0    0  502    0 -0.00000000000E+00 -0.00000000000E+00 -0.64888886118E+03  0.64888886118E+03  0.00000000000E+00 0. -1.
          2    1    1    2  501    0  0.23969710335E+02 -0.12059288724E+02 -0.45693407377E+03  0.45772122654E+03  0.00000000000E+00 0. -1.
          2    1    1    2  502    0 -0.23969710335E+02  0.12059288724E+02 -0.19062159824E+03  0.19250082382E+03  0.00000000000E+00 0.  1.
</event>
<event>
 4    1  0.7940509E+003  0.2213202E+02  0.7546771E-02  0.1503695E+00
          2   -1    0    0  502    0  0.00000000000E+00  0.00000000000E+00  0.89560026585E+02  0.89560026585E+02  0.00000000000E+00 0.  1.
          2   -1    0    0  501    0 -0.00000000000E+00 -0.00000000000E+00 -0.10625275373E+02  0.10625275373E+02  0.00000000000E+00 0.  1.
          2    1    1    2  501    0 -0.18045283334E+02 -0.12813815414E+02  0.74362236346E+02  0.77585877004E+02  0.00000000000E+00 0.  1.
          2    1    1    2  502    0  0.18045283334E+02  0.12813815414E+02  0.45725148656E+01  0.22599424954E+02  0.00000000000E+00 0.  1.
</event>
<event>
 4    1  0.7940509E+003  0.2203207E+02  0.7546771E-02  0.1505024E+00
          2   -1    0    0  502    0  0.00000000000E+00  0.00000000000E+00  0.12706279868E+04  0.12706279868E+04  0.00000000000E+00 0. -1.
          2   -1    0    0  501    0 -0.00000000000E+00 -0.00000000000E+00 -0.42037641815E+02  0.42037641815E+02  0.00000000000E+00 0.  1.
          2    1    1    2  501    0 -0.20128352775E+02 -0.89588685343E+01  0.12676389047E+04  0.12678303532E+04  0.00000000000E+00 0. -1.
          2    1    1    2  502    0  0.20128352775E+02  0.89588685343E+01 -0.39048559658E+02  0.44835275423E+02  0.00000000000E+00 0.  1.
</event>
<event>
 4    1  0.7940509E+003  0.2086330E+02  0.7546771E-02  0.1521226E+00
          2   -1    0    0  502    0  0.00000000000E+00  0.00000000000E+00  0.21260730555E+02  0.21260730555E+02  0.00000000000E+00 0. -1.
          2   -1    0    0  501    0 -0.00000000000E+00 -0.00000000000E+00 -0.58207124162E+02  0.58207124162E+02  0.00000000000E+00 0. -1.
          2    1    1    2  501    0  0.13067344429E+02 -0.16264122525E+02  0.13518617591E+02  0.24860213062E+02  0.00000000000E+00 0. -1.
          2    1    1    2  502    0 -0.13067344429E+02  0.16264122525E+02 -0.50465011198E+02  0.54607641655E+02  0.00000000000E+00 0. -1.
</event>
<event>
 4    1  0.7940509E+003  0.2744485E+02  0.7546771E-02  0.1443190E+00
          2   -1    0    0  501    0  0.00000000000E+00  0.00000000000E+00  0.62403928548E+02  0.62403928548E+02  0.00000000000E+00 0. -1.
          2   -1    0    0  502    0 -0.00000000000E+00 -0.00000000000E+00 -0.61974754498E+03  0.61974754498E+03  0.00000000000E+00 0.  1.
          2    1    1    2  501    0  0.45872146905E+01 -0.27058771313E+02 -0.61640985580E+03  0.61702052638E+03  0.00000000000E+00 0.  1.
          2    1    1    2  502    0 -0.45872146905E+01  0.27058771313E+02  0.59066239369E+02  0.65130947151E+02  0.00000000000E+00 0. -1.
</event>
<event>
 4    1  0.7940509E+003  0.2868612E+02  0.7546771E-02  0.1431368E+00
          2   -1    0    0  501    0  0.00000000000E+00  0.00000000000E+00  0.10041024695E+02  0.10041024695E+02  0.00000000000E+00 0.  1.
          2   -1    0    0  502    0 -0.00000000000E+00 -0.00000000000E+00 -0.89318428181E+02  0.89318428181E+02  0.00000000000E+00 0. -1.
          2    1    1    2  501    0 -0.67663446139E+01  0.27876691645E+02 -0.53904758938E+02  0.61062397534E+02  0.00000000000E+00 0. -1.
          2    1    1    2  502    0  0.67663446139E+01 -0.27876691645E+02 -0.25372644548E+02  0.38297055342E+02  0.00000000000E+00 0.  1.
</event>
<event>
 4    1  0.7940509E+003  0.2089843E+02  0.7546771E-02  0.1520720E+00
          2   -1    0    0  501    0  0.00000000000E+00  0.00000000000E+00  0.46551713108E+02  0.46551713108E+02  0.00000000000E+00 0.  1.
          2   -1    0    0  502    0 -0.00000000000E+00 -0.00000000000E+00 -0.11860542447E+03  0.11860542447E+03  0.00000000000E+00 0. -1.
          2    1    1    2  501    0  0.20809416273E+02 -0.19267891936E+01 -0.11527208644E+03  0.11715117684E+03  0.00000000000E+00 0. -1.
          2    1    1    2  502    0 -0.20809416273E+02  0.19267891936E+01  0.43218375078E+02  0.48005960740E+02  0.00000000000E+00 0.  1.
</event>
<event>
 4    1  0.7940509E+003  0.5268113E+02  0.7546771E-02  0.1286948E+00
          2   -1    0    0  502    0  0.00000000000E+00  0.00000000000E+00  0.92297245851E+03  0.92297245851E+03  0.00000000000E+00 0.  1.
          2   -1    0    0  501    0 -0.00000000000E+00 -0.00000000000E+00 -0.46120241241E+01  0.46120241241E+01  0.00000000000E+00 0. -1.
          2    1    1    2  501    0 -0.31286826370E+02 -0.42384387649E+02  0.73278877019E+03  0.73467998716E+03  0.00000000000E+00 0.  1.
          2    1    1    2  502    0  0.31286826370E+02  0.42384387649E+02  0.18557166420E+03  0.19290449548E+03  0.00000000000E+00 0. -1.
</event>
<event>
 4    1  0.7940509E+003  0.4559994E+02  0.7546771E-02  0.1318466E+00
          2   -1    0    0  502    0  0.00000000000E+00  0.00000000000E+00  0.60658649937E+02  0.60658649937E+02  0.00000000000E+00 0. -1.
          2   -1    0    0  501    0 -0.00000000000E+00 -0.00000000000E+00 -0.16778026226E+04  0.16778026226E+04  0.00000000000E+00 0.  1.
          2    1    1    2  501    0  0.21982855626E+02 -0.39951324971E+02  0.51733091399E+02  0.68961344637E+02  0.00000000000E+00 0. -1.
          2    1    1    2  502    0 -0.21982855626E+02  0.39951324971E+02 -0.16688770641E+04  0.16694999279E+04  0.00000000000E+00 0.  1.
</event>
<event>
 4    1  0.7940509E+003  0.4958323E+02  0.7546771E-02  0.1299990E+00
          2   -1    0    0  502    0  0.00000000000E+00  0.00000000000E+00  0.28832723922E+03  0.28832723922E+03  0.00000000000E+00 0.  1.
          2   -1    0    0  501    0 -0.00000000000E+00 -0.00000000000E+00 -0.99835601041E+01  0.99835601041E+01  0.00000000000E+00 0.  1.
          2    1    1    2  501    0 -0.44414240180E+02 -0.22042511441E+02  0.19614841076E+03  0.20231830388E+03  0.00000000000E+00 0.  1.
          2    1    1    2  502    0  0.44414240180E+02  0.22042511441E+02  0.82195268352E+02  0.95992495440E+02  0.00000000000E+00 0.  1.
</event>
<event>
 4    1  0.7940509E+003  0.2228694E+02  0.7546771E-02  0.1501652E+00
          2   -1    0    0  502    0  0.00000000000E+00  0.00000000000E+00  0.53389996002E+01  0.53389996002E+01  0.00000000000E+00 0.  1.
          2   -1    0    0  501    0 -0.00000000000E+00 -0.00000000000E+00 -0.65776388841E+03  0.65776388841E+03  0.00000000000E+00 0. -1.
          2    1    1    2  501    0 -0.19118254518E+02  0.11454256602E+02 -0.19001730564E+02  0.29287769027E+02  0.00000000000E+00 0.  1.
          2    1    1    2  502    0  0.19118254518E+02 -0.11454256602E+02 -0.63342315824E+03  0.63381511898E+03  0.00000000000E+00 0. -1.
</event>
<event>
 4    1  0.7940509E+003  0.2429002E+02  0.7546771E-02  0.1476905E+00
          2   -1    0    0  501    0  0.00000000000E+00  0.00000000000E+00  0.83549768564E+03  0.83549768564E+03  0.00000000000E+00 0.  1.
          2   -1    0    0  502    0 -0.00000000000E+00 -0.00000000000E+00 -0.73607757381E+01  0.73607757381E+01  0.00000000000E+00 0. -1.
          2    1    1    2  501    0 -0.12080929571E+02 -0.21072644657E+02  0.13364197711E+02  0.27723762238E+02  0.00000000000E+00 0. -1.
          2    1    1    2  502    0  0.12080929571E+02  0.21072644657E+02  0.81477271219E+03  0.81513469914E+03  0.00000000000E+00 0.  1.
</event>
<event>
 4    1  0.7940509E+003  0.2369381E+02  0.7546771E-02  0.1483965E+00
          2   -1    0    0  502    0  0.00000000000E+00  0.00000000000E+00  0.30662952360E+00  0.30662952360E+00  0.00000000000E+00 0.  1.
          2   -1    0    0  501    0 -0.00000000000E+00 -0.00000000000E+00 -0.19263275658E+04  0.19263275658E+04  0.00000000000E+00 0.  1.
          2    1    1    2  501    0  0.20844878527E+01  0.23601941705E+02 -0.11774597590E+04  0.11776981280E+04  0.00000000000E+00 0.  1.
          2    1    1    2  502    0 -0.20844878527E+01 -0.23601941705E+02 -0.74856117730E+03  0.74893606730E+03  0.00000000000E+00 0.  1.
</event>
<event>
 4    1  0.1561616E+004  0.2764341E+02  0.7546771E-02  0.1441250E+00
          2   -1    0    0  501    0  0.00000000000E+00  0.00000000000E+00  0.60793286550E+03  0.60793286550E+03  0.00000000000E+00 0. -1.
          2   -1    0    0  502    0 -0.00000000000E+00 -0.00000000000E+00 -0.16248095318E+04  0.16248095318E+04  0.00000000000E+00 0. -1.
          2    1    1    2  501    0 -0.27506788372E+02  0.27449925882E+01 -0.16243776271E+04  0.16246128258E+04  0.00000000000E+00 0. -1.
          2    1    1    2  502    0  0.27506788372E+02 -0.27449925882E+01  0.60750096078E+03  0.60812957151E+03  0.00000000000E+00 0. -1.
</event>
<event>
 4    1  0.7940509E+003  0.2271107E+02  0.7546771E-02  0.1496159E+00
          2   -1    0    0  502    0  0.00000000000E+00  0.00000000000E+00  0.44754588080E+03  0.44754588080E+03  0.00000000000E+00 0.  1.
          2   -1    0    0  501    0 -0.00000000000E+00 -0.00000000000E+00 -0.36714885765E+02  0.36714885765E+02  0.00000000000E+00 0. -1.
          2    1    1    2  501    0  0.15580546875E+02 -0.16523895961E+02  0.44371530882E+03  0.44429614882E+03  0.00000000000E+00 0.  1.
          2    1    1    2  502    0 -0.15580546875E+02  0.16523895961E+02 -0.32884313781E+02  0.39964617745E+02  0.00000000000E+00 0. -1.
</event>
<event>
 4    1  0.7940509E+003  0.3488997E+02  0.7546771E-02  0.1381338E+00
          2   -1    0    0  501    0  0.00000000000E+00  0.00000000000E+00  0.53499575552E+02  0.53499575552E+02  0.00000000000E+00 0.  1.
          2   -1    0    0  502    0 -0.00000000000E+00 -0.00000000000E+00 -0.13981958485E+03  0.13981958485E+03  0.00000000000E+00 0.  1.
          2    1    1    2  501    0  0.27196430495E+02 -0.21855522851E+02 -0.13160559818E+03  0.13615191215E+03  0.00000000000E+00 0.  1.
          2    1    1    2  502    0 -0.27196430495E+02  0.21855522851E+02  0.45285588888E+02  0.57167248243E+02  0.00000000000E+00 0.  1.
</event>
<event>
 4    1  0.7940509E+003  0.2104344E+02  0.7546771E-02  0.1518645E+00
          2   -1    0    0  501    0  0.00000000000E+00  0.00000000000E+00  0.91511361405E+03  0.91511361405E+03  0.00000000000E+00 0.  1.
          2   -1    0    0  502    0 -0.00000000000E+00 -0.00000000000E+00 -0.12907821420E+01  0.12907821420E+01  0.00000000000E+00 0.  1.
          2    1    1    2  501    0 -0.20696201567E+02 -0.38070350929E+01  0.94639287063E+02  0.96950610784E+02  0.00000000000E+00 0.  1.
          2    1    1    2  502    0  0.20696201567E+02  0.38070350929E+01  0.81918354484E+03  0.81945378541E+03  0.00000000000E+00 0.  1.
</event>
<event>
 4    1  0.7940509E+003  0.5505070E+02  0.7546771E-02  0.1277644E+00
          2   -1    0    0  501    0  0.00000000000E+00  0.00000000000E+00  0.89426035937E+02  0.89426035937E+02  0.00000000000E+00 0.  1.
          2   -1    0    0  502    0 -0.00000000000E+00 -0.00000000000E+00 -0.57802685389E+02  0.57802685389E+02  0.00000000000E+00 0. -1.
          2    1    1    2  501    0  0.54476513308E+02  0.79302373934E+01 -0.31537207703E+02  0.63444264020E+02  0.00000000000E+00 0. -1.
          2    1    1    2  502    0 -0.54476513308E+02 -0.79302373934E+01  0.63160558251E+02  0.83784457305E+02  0.00000000000E+00 0.  1.
</event>
<event>
 4    1  0.7940509E+003  0.2774300E+02  0.7546771E-02  0.1440284E+00
          2   -1    0    0  502    0  0.00000000000E+00  0.00000000000E+00  0.13559026501E+02  0.13559026501E+02  0.00000000000E+00 0. -1.
          2   -1    0    0  501    0 -0.00000000000E+00 -0.00000000000E+00 -0.58288367351E+03  0.58288367351E+03  0.00000000000E+00 0. -1.
          2    1    1    2  501    0  0.23404325829E+02 -0.14896703477E+02 -0.13341491268E+01  0.27775064282E+02  0.00000000000E+00 0. -1.
          2    1    1    2  502    0 -0.23404325829E+02  0.14896703477E+02 -0.56799049789E+03  0.56866763573E+03  0.00000000000E+00 0. -1.
</event>
<event>
 4    1  0.2194602E+004  0.2268851E+02  0.7546771E-02  0.1496447E+00
          2   -1    0    0  501    0  0.00000000000E+00  0.00000000000E+00  0.10143463140E+04  0.10143463140E+04  0.00000000000E+00 0.  1.
          2   -1    0    0  502    0 -0.00000000000E+00 -0.00000000000E+00 -0.16092518157E+04  0.16092518157E+04  0.00000000000E+00 0. -1.
          2    1    1    2  501    0 -0.19674059487E+02 -0.11300432422E+02 -0.16090449573E+04  0.16092049102E+04  0.00000000000E+00 0. -1.
          2    1    1    2  502    0  0.19674059487E+02  0.11300432422E+02  0.10141394556E+04  0.10143932195E+04  0.00000000000E+00 0.  1.
</event>
<event>
 4    1  0.7940509E+003  0.2508773E+02  0.7546771E-02  0.1467824E+00
          2   -1    0    0  501    0  0.00000000000E+00  0.00000000000E+00  0.40904726686E+03  0.40904726686E+03  0.00000000000E+00 0. -1.
          2   -1    0    0  502    0 -0.00000000000E+00 -0.00000000000E+00 -0.20389951902E+03  0.20389951902E+03  0.00000000000E+00 0.  1.
          2    1    1    2  501    0  0.69446831554E+01  0.24107380879E+02 -0.20274096139E+03  0.20428727778E+03  0.00000000000E+00 0.  1.
          2    1    1    2  502    0 -0.69446831554E+01 -0.24107380879E+02  0.40788870923E+03  0.40865950809E+03  0.00000000000E+00 0. -1.
</event>
<event>
 4    1  0.7940509E+003  0.2257009E+02  0.7546771E-02  0.1497968E+00
          2   -1    0    0  502    0  0.00000000000E+00  0.00000000000E+00  0.22835578854E+02  0.22835578854E+02  0.00000000000E+00 0.  1.
          2   -1    0    0  501    0 -0.00000000000E+00 -0.00000000000E+00 -0.86170928505E+03  0.86170928505E+03  0.00000000000E+00 0. -1.
          2    1    1    2  501    0  0.15072319881E+02  0.16799831658E+02  0.17073326883E+02  0.28300312034E+02  0.00000000000E+00 0.  1.
          2    1    1    2  502    0 -0.15072319881E+02 -0.16799831658E+02 -0.85594703308E+03  0.85624455187E+03  0.00000000000E+00 0. -1.
</event>
<event>
 4    1  0.7940509E+003  0.2806320E+02  0.7546771E-02  0.1437211E+00
          2   -1    0    0  502    0  0.00000000000E+00  0.00000000000E+00  0.86475502596E+02  0.86475502596E+02  0.00000000000E+00 0. -1.
          2   -1    0    0  501    0 -0.00000000000E+00 -0.00000000000E+00 -0.49636504451E+02  0.49636504451E+02  0.00000000000E+00 0.  1.
          2    1    1    2  501    0 -0.39758270167E+01  0.27780141227E+02  0.79916057256E+02  0.84700175055E+02  0.00000000000E+00 0. -1.
          2    1    1    2  502    0  0.39758270167E+01 -0.27780141227E+02 -0.43077059112E+02  0.51411831992E+02  0.00000000000E+00 0.  1.
</event>
<event>
 4    1  0.7940509E+003  0.1094982E+03  0.7546771E-02  0.1148294E+00
          2   -1    0    0  502    0  0.00000000000E+00  0.00000000000E+00  0.12017818084E+03  0.12017818084E+03  0.00000000000E+00 0. -1.
          2   -1    0    0  501    0 -0.00000000000E+00 -0.00000000000E+00 -0.27724100956E+03  0.27724100956E+03  0.00000000000E+00 0.  1.
          2    1    1    2  501    0  0.10735149303E+03  0.21575913202E+02  0.80453899944E+02  0.13587749299E+03  0.00000000000E+00 0. -1.
          2    1    1    2  502    0 -0.10735149303E+03 -0.21575913202E+02 -0.23751672867E+03  0.26154169741E+03  0.00000000000E+00 0.  1.
</event>
<event>
 4    1  0.7940509E+003  0.4192485E+02  0.7546771E-02  0.1337561E+00
          2   -1    0    0  502    0  0.00000000000E+00  0.00000000000E+00  0.26266796526E+04  0.26266796526E+04  0.00000000000E+00 0.  1.
          2   -1    0    0  501    0 -0.00000000000E+00 -0.00000000000E+00 -0.78411155971E+00  0.78411155971E+00  0.00000000000E+00 0.  1.
          2    1    1    2  501    0 -0.26624401869E+02  0.32385713252E+02  0.80995955376E+03  0.81104387792E+03  0.00000000000E+00 0.  1.
          2    1    1    2  502    0  0.26624401869E+02 -0.32385713252E+02  0.18159359873E+04  0.18164198862E+04  0.00000000000E+00 0.  1.
</event>
<event>
 4    1  0.7940509E+003  0.2044196E+02  0.7546771E-02  0.1527383E+00
          2   -1    0    0  502    0  0.00000000000E+00  0.00000000000E+00  0.12690413268E+01  0.12690413268E+01  0.00000000000E+00 0.  1.
          2   -1    0    0  501    0 -0.00000000000E+00 -0.00000000000E+00 -0.14988918486E+04  0.14988918486E+04  0.00000000000E+00 0.  1.
          2    1    1    2  501    0 -0.16382694293E+01 -0.20376203197E+02 -0.86224207603E+02  0.88614262736E+02  0.00000000000E+00 0.  1.
          2    1    1    2  502    0  0.16382694293E+01  0.20376203197E+02 -0.14113985997E+04  0.14115466272E+04  0.00000000000E+00 0.  1.
</event>
<event>
 4    1  0.7940509E+003  0.2669262E+02  0.7546771E-02  0.1450720E+00
          2   -1    0    0  502    0  0.00000000000E+00  0.00000000000E+00  0.29776156370E+01  0.29776156370E+01  0.00000000000E+00 0. -1.
          2   -1    0    0  501    0 -0.00000000000E+00 -0.00000000000E+00 -0.51600190556E+03  0.51600190556E+03  0.00000000000E+00 0.  1.
          2    1    1    2  501    0  0.22365532471E+02  0.14569799035E+02 -0.66486102887E+02  0.71644245852E+02  0.00000000000E+00 0. -1.
          2    1    1    2  502    0 -0.22365532471E+02 -0.14569799035E+02 -0.44653818704E+03  0.44733527535E+03  0.00000000000E+00 0.  1.
</event>
<event>
 4    1  0.7940509E+003  0.3863534E+02  0.7546771E-02  0.1356674E+00
          2   -1    0    0  502    0  0.00000000000E+00  0.00000000000E+00  0.77414697041E+03  0.77414697041E+03  0.00000000000E+00 0.  1.
          2   -1    0    0  501    0 -0.00000000000E+00 -0.00000000000E+00 -0.52342901434E+01  0.52342901434E+01  0.00000000000E+00 0.  1.
          2    1    1    2  501    0  0.51191735269E+01 -0.38294691056E+02  0.69416274373E+03  0.69523708480E+03  0.00000000000E+00 0.  1.
          2    1    1    2  502    0 -0.51191735269E+01  0.38294691056E+02  0.74749936535E+02  0.84144175751E+02  0.00000000000E+00 0.  1.
</event>
<event>
 4    1  0.7940509E+003  0.2522759E+02  0.7546771E-02  0.1466273E+00
          2   -1    0    0  501    0  0.00000000000E+00  0.00000000000E+00  0.15800043995E+02  0.15800043995E+02  0.00000000000E+00 0. -1.
          2   -1    0    0  502    0 -0.00000000000E+00 -0.00000000000E+00 -0.11918073755E+04  0.11918073755E+04  0.00000000000E+00 0.  1.
          2    1    1    2  501    0 -0.15600969937E+00 -0.25227109092E+02 -0.11815160826E+04  0.11817853802E+04  0.00000000000E+00 0.  1.
          2    1    1    2  502    0  0.15600969937E+00  0.25227109092E+02  0.55087511502E+01  0.25822039257E+02  0.00000000000E+00 0. -1.
</event>
<event>
 4    1  0.7940509E+003  0.2726396E+02  0.7546771E-02  0.1444974E+00
          2   -1    0    0  501    0  0.00000000000E+00  0.00000000000E+00  0.13429882052E+03  0.13429882052E+03  0.00000000000E+00 0. -1.
          2   -1    0    0  502    0 -0.00000000000E+00 -0.00000000000E+00 -0.10093829591E+04  0.10093829591E+04  0.00000000000E+00 0.  1.
          2    1    1    2  501    0  0.25706619349E+02 -0.90825751930E+01 -0.10078129887E+04  0.10081817017E+04  0.00000000000E+00 0.  1.
          2    1    1    2  502    0 -0.25706619349E+02  0.90825751930E+01  0.13272885014E+03  0.13550007789E+03  0.00000000000E+00 0. -1.
</event>
<event>
 4    1  0.7940509E+003  0.2080325E+02  0.7546771E-02  0.1522093E+00
          2   -1    0    0  501    0  0.00000000000E+00  0.00000000000E+00  0.72524843442E+03  0.72524843442E+03  0.00000000000E+00 0.  1.
          2   -1    0    0  502    0 -0.00000000000E+00 -0.00000000000E+00 -0.59737132787E+00  0.59737132787E+00  0.00000000000E+00 0.  1.
          2    1    1    2  501    0  0.55179379987E+01  0.20058103147E+02  0.37424699844E+03  0.37482474702E+03  0.00000000000E+00 0.  1.
          2    1    1    2  502    0 -0.55179379987E+01 -0.20058103147E+02  0.35040406466E+03  0.35102105873E+03  0.00000000000E+00 0.  1.
</event>
<event>
 4    1  0.7940509E+003  0.2126759E+02  0.7546771E-02  0.1515478E+00
          2   -1    0    0  501    0  0.00000000000E+00  0.00000000000E+00  0.52383376595E+02  0.52383376595E+02  0.00000000000E+00 0. -1.
          2   -1    0    0  502    0 -0.00000000000E+00 -0.00000000000E+00 -0.72472819447E+03  0.72472819447E+03  0.00000000000E+00 0.  1.
          2    1    1    2  501    0  0.54023034269E+01  0.20570017247E+02 -0.72240657629E+03  0.72271956661E+03  0.00000000000E+00 0.  1.
          2    1    1    2  502    0 -0.54023034269E+01 -0.20570017247E+02  0.50061758422E+02  0.54392004450E+02  0.00000000000E+00 0. -1.
</event>
<event>
 4    1  0.7940509E+003  0.2657946E+02  0.7546771E-02  0.1451879E+00
          2   -1    0    0  501    0  0.00000000000E+00  0.00000000000E+00  0.62251574526E+02  0.62251574526E+02  0.00000000000E+00 0. -1.
          2   -1    0    0  502    0 -0.00000000000E+00 -0.00000000000E+00 -0.12324589252E+04  0.12324589252E+04  0.00000000000E+00 0. -1.
          2    1    1    2  501    0 -0.92229540412E+01  0.24927997734E+02 -0.12294715789E+04  0.12297588509E+04  0.00000000000E+00 0. -1.
          2    1    1    2  502    0  0.92229540412E+01 -0.24927997734E+02  0.59264228188E+02  0.64951648901E+02  0.00000000000E+00 0. -1.
</event>
<event>
 4    1  0.7940509E+003  0.2284769E+02  0.7546771E-02  0.1494420E+00
          2   -1    0    0  501    0  0.00000000000E+00  0.00000000000E+00  0.11129412840E+03  0.11129412840E+03  0.00000000000E+00 0.  1.
          2   -1    0    0  502    0 -0.00000000000E+00 -0.00000000000E+00 -0.23773699201E+02  0.23773699201E+02  0.00000000000E+00 0.  1.
          2    1    1    2  501    0  0.13508714937E+02 -0.18426385401E+02 -0.16745995693E+02  0.28327467765E+02  0.00000000000E+00 0.  1.
          2    1    1    2  502    0 -0.13508714937E+02  0.18426385401E+02  0.10426642489E+03  0.10674035983E+03  0.00000000000E+00 0.  1.
</event>
<event>
 4    1  0.7940509E+003  0.2208571E+02  0.7546771E-02  0.1504309E+00
          2   -1    0    0  501    0  0.00000000000E+00  0.00000000000E+00  0.39081255688E+03  0.39081255688E+03  0.00000000000E+00 0. -1.
          2   -1    0    0  502    0 -0.00000000000E+00 -0.00000000000E+00 -0.10033268285E+03  0.10033268285E+03  0.00000000000E+00 0. -1.
          2    1    1    2  501    0  0.16682559809E+01 -0.22022616170E+02 -0.98800470993E+02  0.10123888467E+03  0.00000000000E+00 0. -1.
          2    1    1    2  502    0 -0.16682559809E+01  0.22022616170E+02  0.38928034502E+03  0.38990635506E+03  0.00000000000E+00 0. -1.
</event>
<event>
 4    1  0.7940509E+003  0.2489062E+02  0.7546771E-02  0.1470031E+00
          2   -1    0    0  502    0  0.00000000000E+00  0.00000000000E+00  0.15669797946E+02  0.15669797946E+02  0.00000000000E+00 0.  1.
          2   -1    0    0  501    0 -0.00000000000E+00 -0.00000000000E+00 -0.21495271945E+03  0.21495271945E+03  0.00000000000E+00 0.  1.
          2    1    1    2  501    0 -0.79175766092E+01  0.23597775286E+02  0.45264620949E+01  0.25298851296E+02  0.00000000000E+00 0.  1.
          2    1    1    2  502    0  0.79175766092E+01 -0.23597775286E+02 -0.20380938360E+03  0.20532366610E+03  0.00000000000E+00 0.  1.
</event>
<event>
 4    1  0.7940509E+003  0.2081834E+02  0.7546771E-02  0.1521874E+00
          2   -1    0    0  501    0  0.00000000000E+00  0.00000000000E+00  0.23593878968E+03  0.23593878968E+03  0.00000000000E+00 0. -1.
          2   -1    0    0  502    0 -0.00000000000E+00 -0.00000000000E+00 -0.69999844476E+01  0.69999844476E+01  0.00000000000E+00 0. -1.
          2    1    1    2  501    0  0.19692533439E+02  0.67533215875E+01  0.10148431306E+02  0.23160178836E+02  0.00000000000E+00 0. -1.
          2    1    1    2  502    0 -0.19692533439E+02 -0.67533215875E+01  0.21879037393E+03  0.21977859529E+03  0.00000000000E+00 0. -1.
</event>
<event>
 4    1  0.7940509E+003  0.2211921E+02  0.7546771E-02  0.1503865E+00
          2   -1    0    0  502    0  0.00000000000E+00  0.00000000000E+00  0.61409477847E+03  0.61409477847E+03  0.00000000000E+00 0.  1.
          2   -1    0    0  501    0 -0.00000000000E+00 -0.00000000000E+00 -0.19413689901E+02  0.19413689901E+02  0.00000000000E+00 0. -1.
          2    1    1    2  501    0 -0.21743139913E+02  0.40614661986E+01  0.60752706412E+03  0.60792959566E+03  0.00000000000E+00 0.  1.
          2    1    1    2  502    0  0.21743139913E+02 -0.40614661986E+01 -0.12845975556E+02  0.25578872707E+02  0.00000000000E+00 0. -1.
</event>
<event>
 4    1  0.7940509E+003  0.4064253E+02  0.7546771E-02  0.1344761E+00
          2   -1    0    0  502    0  0.00000000000E+00  0.00000000000E+00  0.42836005385E+03  0.42836005385E+03  0.00000000000E+00 0. -1.
          2   -1    0    0  501    0 -0.00000000000E+00 -0.00000000000E+00 -0.15483549006E+02  0.15483549006E+02  0.00000000000E+00 0.  1.
          2    1    1    2  501    0 -0.35713793760E+02 -0.19399480722E+02  0.39875019257E+03  0.40081608125E+03  0.00000000000E+00 0. -1.
          2    1    1    2  502    0  0.35713793760E+02  0.19399480722E+02  0.14126312280E+02  0.43027521607E+02  0.00000000000E+00 0.  1.
</event>
<event>
 4    1  0.7940509E+003  0.2653844E+02  0.7546771E-02  0.1452301E+00
          2   -1    0    0  501    0  0.00000000000E+00  0.00000000000E+00  0.13854798542E+04  0.13854798542E+04  0.00000000000E+00 0. -1.
          2   -1    0    0  502    0 -0.00000000000E+00 -0.00000000000E+00 -0.55075811373E+00  0.55075811373E+00  0.00000000000E+00 0.  1.
          2    1    1    2  501    0 -0.21698644415E+02  0.15279313423E+02  0.50012831354E+03  0.50083192649E+03  0.00000000000E+00 0.  1.
          2    1    1    2  502    0  0.21698644415E+02 -0.15279313423E+02  0.88480078254E+03  0.88519868582E+03  0.00000000000E+00 0. -1.
</event>
<event>
 4    1  0.7940509E+003  0.3169907E+02  0.7546771E-02  0.1405384E+00
          2   -1    0    0  501    0  0.00000000000E+00  0.00000000000E+00  0.78443217016E+03  0.78443217016E+03  0.00000000000E+00 0. -1.
          2   -1    0    0  502    0 -0.00000000000E+00 -0.00000000000E+00 -0.54505882582E+01  0.54505882582E+01  0.00000000000E+00 0.  1.
          2    1    1    2  501    0  0.10850277413E+02  0.29784270092E+02  0.44061401569E+02  0.54279262827E+02  0.00000000000E+00 0.  1.
          2    1    1    2  502    0 -0.10850277413E+02 -0.29784270092E+02  0.73492018033E+03  0.73560349559E+03  0.00000000000E+00 0. -1.
</event>
<event>
 4    1  0.7940509E+003  0.2293645E+02  0.7546771E-02  0.1493298E+00
          2   -1    0    0  501    0  0.00000000000E+00  0.00000000000E+00  0.20290492816E+03  0.20290492816E+03  0.00000000000E+00 0.  1.
          2   -1    0    0  502    0 -0.00000000000E+00 -0.00000000000E+00 -0.32445678435E+02  0.32445678435E+02  0.00000000000E+00 0. -1.
          2    1    1    2  501    0  0.18728205271E+02 -0.13241408527E+02 -0.27646062696E+02  0.35921934178E+02  0.00000000000E+00 0. -1.
          2    1    1    2  502    0 -0.18728205271E+02  0.13241408527E+02  0.19810531243E+03  0.19942867242E+03  0.00000000000E+00 0.  1.
</event>
<event>
 4    1  0.7940509E+003  0.2333766E+02  0.7546771E-02  0.1488301E+00
          2   -1    0    0  502    0  0.00000000000E+00  0.00000000000E+00  0.37092970686E+00  0.37092970686E+00  0.00000000000E+00 0. -1.
          2   -1    0    0  501    0 -0.00000000000E+00 -0.00000000000E+00 -0.14730116273E+04  0.14730116273E+04  0.00000000000E+00 0. -1.
          2    1    1    2  501    0  0.10627326979E+02  0.20777544344E+02 -0.69477910754E+03  0.69517095358E+03  0.00000000000E+00 0. -1.
          2    1    1    2  502    0 -0.10627326979E+02 -0.20777544344E+02 -0.77786159003E+03  0.77821160340E+03  0.00000000000E+00 0. -1.
</event>
<event>
 4    1  0.7940509E+003  0.2345792E+02  0.7546771E-02  0.1486827E+00
          2   -1    0    0  501    0  0.00000000000E+00  0.00000000000E+00  0.77724150892E+00  0.77724150892E+00  0.00000000000E+00 0.  1.
          2   -1    0    0  502    0 -0.00000000000E+00 -0.00000000000E+00 -0.15221584337E+04  0.15221584337E+04  0.00000000000E+00 0. -1.
          2    1    1    2  501    0 -0.23076951882E+02 -0.42104851692E+01 -0.13175949227E+04  0.13178037237E+04  0.00000000000E+00 0. -1.
          2    1    1    2  502    0  0.23076951882E+02  0.42104851692E+01 -0.20378626949E+03  0.20513195150E+03  0.00000000000E+00 0.  1.
</event>
<event>
 4    1  0.7940509E+003  0.2737487E+02  0.7546771E-02  0.1443878E+00
          2   -1    0    0  502    0  0.00000000000E+00  0.00000000000E+00  0.97304476605E+03  0.97304476605E+03  0.00000000000E+00 0. -1.
          2   -1    0    0  501    0 -0.00000000000E+00 -0.00000000000E+00 -0.23942955747E+03  0.23942955747E+03  0.00000000000E+00 0. -1.
          2    1    1    2  501    0 -0.26944753976E+02 -0.48335803662E+01  0.97206897771E+03  0.97245435918E+03  0.00000000000E+00 0. -1.
          2    1    1    2  502    0  0.26944753976E+02  0.48335803662E+01 -0.23845376914E+03  0.24001996434E+03  0.00000000000E+00 0. -1.
</event>
<event>
 4    1  0.7940509E+003  0.3458090E+02  0.7546771E-02  0.1383534E+00
          2   -1    0    0  502    0  0.00000000000E+00  0.00000000000E+00  0.90600715392E+02  0.90600715392E+02  0.00000000000E+00 0.  1.
          2   -1    0    0  501    0 -0.00000000000E+00 -0.00000000000E+00 -0.26519440699E+03  0.26519440699E+03  0.00000000000E+00 0. -1.
          2    1    1    2  501    0  0.61160083811E+01 -0.34035756959E+02  0.86117144575E+02  0.92800866915E+02  0.00000000000E+00 0.  1.
          2    1    1    2  502    0 -0.61160083811E+01  0.34035756959E+02 -0.26071083617E+03  0.26299425546E+03  0.00000000000E+00 0. -1.
</event>
<event>
 4    1  0.9719503E+003  0.2711346E+02  0.7546771E-02  0.1446472E+00
          2   -1    0    0  501    0  0.00000000000E+00  0.00000000000E+00  0.79680032560E+03  0.79680032560E+03  0.00000000000E+00 0.  1.
          2   -1    0    0  502    0 -0.00000000000E+00 -0.00000000000E+00 -0.48417065021E+03  0.48417065021E+03  0.00000000000E+00 0.  1.
          2    1    1    2  501    0 -0.22862428183E+02  0.14575627904E+02 -0.48356011858E+03  0.48431965460E+03  0.00000000000E+00 0.  1.
          2    1    1    2  502    0  0.22862428183E+02 -0.14575627904E+02  0.79618979398E+03  0.79665132121E+03  0.00000000000E+00 0.  1.
</event>
<event>
 4    1  0.7940509E+003  0.2602150E+02  0.7546771E-02  0.1457693E+00
          2   -1    0    0  502    0  0.00000000000E+00  0.00000000000E+00  0.29108141850E+03  0.29108141850E+03  0.00000000000E+00 0. -1.
          2   -1    0    0  501    0 -0.00000000000E+00 -0.00000000000E+00 -0.26831318959E+01  0.26831318959E+01  0.00000000000E+00 0. -1.
          2    1    1    2  501    0 -0.25111952173E+02 -0.68196986604E+01  0.19777029113E+03  0.19947482669E+03  0.00000000000E+00 0. -1.
          2    1    1    2  502    0  0.25111952173E+02  0.68196986604E+01  0.90627995474E+02  0.94289723700E+02  0.00000000000E+00 0. -1.
</event>
<event>
 4    1  0.7940509E+003  0.3502629E+02  0.7546771E-02  0.1380378E+00
          2   -1    0    0  501    0  0.00000000000E+00  0.00000000000E+00  0.10257167716E+03  0.10257167716E+03  0.00000000000E+00 0. -1.
          2   -1    0    0  502    0 -0.00000000000E+00 -0.00000000000E+00 -0.14014167010E+02  0.14014167010E+02  0.00000000000E+00 0.  1.
          2    1    1    2  501    0 -0.31025912406E+02 -0.16255273785E+02  0.21965467427E+02  0.41343958757E+02  0.00000000000E+00 0.  1.
          2    1    1    2  502    0  0.31025912406E+02  0.16255273785E+02  0.66592042727E+02  0.75241885417E+02  0.00000000000E+00 0. -1.
</event>
<event>
 4    1  0.7940509E+003  0.2073229E+02  0.7546771E-02  0.1523122E+00
          2   -1    0    0  502    0  0.00000000000E+00  0.00000000000E+00  0.20536012055E+03  0.20536012055E+03  0.00000000000E+00 0.  1.
          2   -1    0    0  501    0 -0.00000000000E+00 -0.00000000000E+00 -0.94114804206E+01  0.94114804206E+01  0.00000000000E+00 0.  1.
          2    1    1    2  501    0 -0.13275791004E+02 -0.15924229567E+02  0.19266931981E+03  0.19378156390E+03  0.00000000000E+00 0.  1.
          2    1    1    2  502    0  0.13275791004E+02  0.15924229567E+02  0.32793203168E+01  0.20990037061E+02  0.00000000000E+00 0.  1.
</event>
<event>
 4    1  0.8941298E+003  0.4026825E+02  0.7546771E-02  0.1346921E+00
          2   -1    0    0  501    0  0.00000000000E+00  0.00000000000E+00  0.69961020698E+03  0.69961020698E+03  0.00000000000E+00 0. -1.
          2   -1    0    0  502    0 -0.00000000000E+00 -0.00000000000E+00 -0.85432812936E+03  0.85432812936E+03  0.00000000000E+00 0. -1.
          2    1    1    2  501    0 -0.24618216769E+02  0.31866521386E+02 -0.85327346743E+03  0.85422312191E+03  0.00000000000E+00 0. -1.
          2    1    1    2  502    0  0.24618216769E+02 -0.31866521386E+02  0.69855554506E+03  0.69971521443E+03  0.00000000000E+00 0. -1.
</event>
<event>
 4    1  0.7940509E+003  0.2302990E+02  0.7546771E-02  0.1492123E+00
          2   -1    0    0  501    0  0.00000000000E+00  0.00000000000E+00  0.12554122643E+01  0.12554122643E+01  0.00000000000E+00 0.  1.
          2   -1    0    0  502    0 -0.00000000000E+00 -0.00000000000E+00 -0.83412903891E+03  0.83412903891E+03  0.00000000000E+00 0.  1.
          2    1    1    2  501    0 -0.45507807605E+01 -0.22575803474E+02 -0.70986886737E+03  0.71024234270E+03  0.00000000000E+00 0.  1.
          2    1    1    2  502    0  0.45507807605E+01  0.22575803474E+02 -0.12300475928E+03  0.12514210847E+03  0.00000000000E+00 0.  1.
</event>
<event>
 4    1  0.7940509E+003  0.2195110E+02  0.7546771E-02  0.1506107E+00
          2   -1    0    0  501    0  0.00000000000E+00  0.00000000000E+00  0.70147011817E+03  0.70147011817E+03  0.00000000000E+00 0.  1.
          2   -1    0    0  502    0 -0.00000000000E+00 -0.00000000000E+00 -0.99408040350E+00  0.99408040350E+00  0.00000000000E+00 0. -1.
          2    1    1    2  501    0 -0.22471353139E+01  0.21835781323E+02  0.15499794159E+03  0.15654460343E+03  0.00000000000E+00 0. -1.
          2    1    1    2  502    0  0.22471353139E+01 -0.21835781323E+02  0.54547809617E+03  0.54591959515E+03  0.00000000000E+00 0.  1.
</event>
<event>
 4    1  0.7940509E+003  0.2618924E+02  0.7546771E-02  0.1455927E+00
          2   -1    0    0  502    0  0.00000000000E+00  0.00000000000E+00  0.13543444763E+01  0.13543444763E+01  0.00000000000E+00 0.  1.
          2   -1    0    0  501    0 -0.00000000000E+00 -0.00000000000E+00 -0.85929465337E+03  0.85929465337E+03  0.00000000000E+00 0. -1.
          2    1    1    2  501    0 -0.24901315906E+02 -0.81117526021E+01 -0.15321020570E+03  0.15543243932E+03  0.00000000000E+00 0.  1.
          2    1    1    2  502    0  0.24901315906E+02  0.81117526021E+01 -0.70473010320E+03  0.70521655853E+03  0.00000000000E+00 0. -1.
</event>
<event>
 4    1  0.7940509E+003  0.2217102E+02  0.7546771E-02  0.1503179E+00
          2   -1    0    0  502    0  0.00000000000E+00  0.00000000000E+00  0.12353890733E+04  0.12353890733E+04  0.00000000000E+00 0.  1.
          2   -1    0    0  501    0 -0.00000000000E+00 -0.00000000000E+00 -0.42809644154E+00  0.42809644154E+00  0.00000000000E+00 0.  1.
          2    1    1    2  501    0 -0.20498418040E+02 -0.84480058627E+01  0.45335569860E+03  0.45389750319E+03  0.00000000000E+00 0.  1.
          2    1    1    2  502    0  0.20498418040E+02  0.84480058627E+01  0.78160527823E+03  0.78191966653E+03  0.00000000000E+00 0.  1.
</event>
<event>
 4    1  0.7940509E+003  0.2449049E+02  0.7546771E-02  0.1474585E+00
          2   -1    0    0  502    0  0.00000000000E+00  0.00000000000E+00  0.10436416234E+03  0.10436416234E+03  0.00000000000E+00 0. -1.
          2   -1    0    0  501    0 -0.00000000000E+00 -0.00000000000E+00 -0.56461035446E+02  0.56461035446E+02  0.00000000000E+00 0. -1.
          2    1    1    2  501    0 -0.21711578756E+02  0.11330997400E+02  0.10016185591E+03  0.10311247031E+03  0.00000000000E+00 0. -1.
          2    1    1    2  502    0  0.21711578756E+02 -0.11330997400E+02 -0.52258729017E+02  0.57712727475E+02  0.00000000000E+00 0. -1.
</event>
<event>
 4    1  0.7940509E+003  0.2026530E+02  0.7546771E-02  0.1530018E+00
          2   -1    0    0  502    0  0.00000000000E+00  0.00000000000E+00  0.81738144485E+03  0.81738144485E+03  0.00000000000E+00 0.  1.
          2   -1    0    0  501    0 -0.00000000000E+00 -0.00000000000E+00 -0.38671147545E+01  0.38671147545E+01  0.00000000000E+00 0. -1.
          2    1    1    2  501    0 -0.20249584308E+02  0.79798685373E+00  0.78977839997E+03  0.79003835572E+03  0.00000000000E+00 0.  1.
          2    1    1    2  502    0  0.20249584308E+02 -0.79798685373E+00  0.23735930126E+02  0.31210203886E+02  0.00000000000E+00 0. -1.
</event>
<event>
 4    1  0.7940509E+003  0.4883970E+02  0.7546771E-02  0.1303283E+00
          2   -1    0    0  502    0  0.00000000000E+00  0.00000000000E+00  0.12998406086E+03  0.12998406086E+03  0.00000000000E+00 0. -1.
          2   -1    0    0  501    0 -0.00000000000E+00 -0.00000000000E+00 -0.65791635929E+02  0.65791635929E+02  0.00000000000E+00 0. -1.
          2    1    1    2  501    0 -0.56258281340E+01  0.48514601078E+02  0.11521887234E+03  0.12514273851E+03  0.00000000000E+00 0. -1.
          2    1    1    2  502    0  0.56258281340E+01 -0.48514601078E+02 -0.51026447407E+02  0.70632958276E+02  0.00000000000E+00 0. -1.
</event>
<event>
 4    1  0.7940509E+003  0.2811802E+02  0.7546771E-02  0.1436689E+00
          2   -1    0    0  501    0  0.00000000000E+00  0.00000000000E+00  0.21364540837E+03  0.21364540837E+03  0.00000000000E+00 0.  1.
          2   -1    0    0  502    0 -0.00000000000E+00 -0.00000000000E+00 -0.43332292597E+01  0.43332292597E+01  0.00000000000E+00 0.  1.
          2    1    1    2  501    0  0.16956995654E+02 -0.22429524094E+02  0.63013147187E+02  0.69002028746E+02  0.00000000000E+00 0.  1.
          2    1    1    2  502    0 -0.16956995654E+02  0.22429524094E+02  0.14629903192E+03  0.14897660888E+03  0.00000000000E+00 0.  1.
</event>
<event>
 4    1  0.7940509E+003  0.6534686E+02  0.7546771E-02  0.1242673E+00
          2   -1    0    0  502    0  0.00000000000E+00  0.00000000000E+00  0.23117980004E+03  0.23117980004E+03  0.00000000000E+00 0.  1.
          2   -1    0    0  501    0 -0.00000000000E+00 -0.00000000000E+00 -0.17868530172E+04  0.17868530172E+04  0.00000000000E+00 0. -1.
          2    1    1    2  501    0  0.64710957977E+02 -0.90941666013E+01  0.22595095593E+03  0.23521064269E+03  0.00000000000E+00 0.  1.
          2    1    1    2  502    0 -0.64710957977E+02  0.90941666013E+01 -0.17816241731E+04  0.17828221746E+04  0.00000000000E+00 0. -1.
</event>
<event>
 4    1  0.7940509E+003  0.3711193E+02  0.7546771E-02  0.1366295E+00
          2   -1    0    0  501    0  0.00000000000E+00  0.00000000000E+00  0.11304230642E+03  0.11304230642E+03  0.00000000000E+00 0. -1.
          2   -1    0    0  502    0 -0.00000000000E+00 -0.00000000000E+00 -0.91060912597E+03  0.91060912597E+03  0.00000000000E+00 0. -1.
          2    1    1    2  501    0 -0.30260695720E+02  0.21484548053E+02 -0.90717349679E+03  0.90793229307E+03  0.00000000000E+00 0. -1.
          2    1    1    2  502    0  0.30260695720E+02 -0.21484548053E+02  0.10960667724E+03  0.11571913933E+03  0.00000000000E+00 0. -1.
</event>
<event>
 4    1  0.7940509E+003  0.2038818E+02  0.7546771E-02  0.1528182E+00
          2   -1    0    0  502    0  0.00000000000E+00  0.00000000000E+00  0.44080818462E+03  0.44080818462E+03  0.00000000000E+00 0.  1.
          2   -1    0    0  501    0 -0.00000000000E+00 -0.00000000000E+00 -0.18593346163E+01  0.18593346163E+01  0.00000000000E+00 0. -1.
          2    1    1    2  501    0  0.12929773117E+02  0.15763842011E+02  0.37485555649E+03  0.37540959761E+03  0.00000000000E+00 0.  1.
          2    1    1    2  502    0 -0.12929773117E+02 -0.15763842011E+02  0.64093293516E+02  0.67257921627E+02  0.00000000000E+00 0. -1.
</event>
<event>
 4    1  0.7940509E+003  0.4852172E+02  0.7546771E-02  0.1304712E+00
          2   -1    0    0  502    0  0.00000000000E+00  0.00000000000E+00  0.12726874842E+04  0.12726874842E+04  0.00000000000E+00 0.  1.
          2   -1    0    0  501    0 -0.00000000000E+00 -0.00000000000E+00 -0.61888424323E+01  0.61888424323E+01  0.00000000000E+00 0.  1.
          2    1    1    2  501    0 -0.25126579387E+02 -0.41509185576E+02  0.11686578390E+04  0.11696646964E+04  0.00000000000E+00 0.  1.
          2    1    1    2  502    0  0.25126579387E+02  0.41509185576E+02  0.97840802736E+02  0.10921163014E+03  0.00000000000E+00 0.  1.
</event>
<event>
 4    1  0.7940509E+003  0.2085166E+02  0.7546771E-02  0.1521393E+00
          2   -1    0    0  502    0  0.00000000000E+00  0.00000000000E+00  0.20397557297E+03  0.20397557297E+03  0.00000000000E+00 0. -1.
          2   -1    0    0  501    0 -0.00000000000E+00 -0.00000000000E+00 -0.56031325510E+01  0.56031325510E+01  0.00000000000E+00 0.  1.
          2    1    1    2  501    0 -0.39903057695E+01  0.20466296869E+02  0.18166896265E+03  0.18286170686E+03  0.00000000000E+00 0. -1.
          2    1    1    2  502    0  0.39903057695E+01 -0.20466296869E+02  0.16703477775E+02  0.26716998661E+02  0.00000000000E+00 0.  1.
</event>
<event>
 4    1  0.7940509E+003  0.2133132E+02  0.7546771E-02  0.1514587E+00
          2   -1    0    0  502    0  0.00000000000E+00  0.00000000000E+00  0.19059990126E+02  0.19059990126E+02  0.00000000000E+00 0.  1.
          2   -1    0    0  501    0 -0.00000000000E+00 -0.00000000000E+00 -0.94524448228E+02  0.94524448228E+02  0.00000000000E+00 0.  1.
          2    1    1    2  501    0  0.14888512032E+02  0.15276044033E+02  0.11367184343E+02  0.24171019666E+02  0.00000000000E+00 0.  1.
          2    1    1    2  502    0 -0.14888512032E+02 -0.15276044033E+02 -0.86831642445E+02  0.89413418688E+02  0.00000000000E+00 0.  1.
</event>
<event>
 4    1  0.7940509E+003  0.3098507E+02  0.7546771E-02  0.1411225E+00
          2   -1    0    0  501    0  0.00000000000E+00  0.00000000000E+00  0.33452309412E+03  0.33452309412E+03  0.00000000000E+00 0.  1.
          2   -1    0    0  502    0 -0.00000000000E+00 -0.00000000000E+00 -0.10275967043E+02  0.10275967043E+02  0.00000000000E+00 0.  1.
          2    1    1    2  501    0 -0.30782016101E+02 -0.35414664828E+01  0.15765650067E+02  0.34765359514E+02  0.00000000000E+00 0.  1.
          2    1    1    2  502    0  0.30782016101E+02  0.35414664828E+01  0.30848147701E+03  0.31003370165E+03  0.00000000000E+00 0.  1.
</event>
<event>
 4    1  0.7940509E+003  0.2032674E+02  0.7546771E-02  0.1529098E+00
          2   -1    0    0  501    0  0.00000000000E+00  0.00000000000E+00  0.80004806933E+01  0.80004806933E+01  0.00000000000E+00 0.  1.
          2   -1    0    0  502    0 -0.00000000000E+00 -0.00000000000E+00 -0.62289360906E+03  0.62289360906E+03  0.00000000000E+00 0.  1.
          2    1    1    2  501    0  0.63592466602E+01 -0.19306379961E+02 -0.60953389193E+03  0.60987272585E+03  0.00000000000E+00 0.  1.
          2    1    1    2  502    0 -0.63592466602E+01  0.19306379961E+02 -0.53592364420E+01  0.21021363908E+02  0.00000000000E+00 0.  1.
</event>
<event>
 4    1  0.7940509E+003  0.2014174E+02  0.7546771E-02  0.1531880E+00
          2   -1    0    0  502    0  0.00000000000E+00  0.00000000000E+00  0.89020849080E+01  0.89020849080E+01  0.00000000000E+00 0. -1.
          2   -1    0    0  501    0 -0.00000000000E+00 -0.00000000000E+00 -0.28499632087E+03  0.28499632087E+03  0.00000000000E+00 0. -1.
          2    1    1    2  501    0 -0.18959831473E+02 -0.67981280925E+01 -0.33583630256E+01  0.20419803066E+02  0.00000000000E+00 0. -1.
          2    1    1    2  502    0  0.18959831473E+02  0.67981280925E+01 -0.27273587294E+03  0.27347860271E+03  0.00000000000E+00 0. -1.
</event>
<event>
 4    1  0.7940509E+003  0.2686012E+02  0.7546771E-02  0.1449018E+00
          2   -1    0    0  502    0  0.00000000000E+00  0.00000000000E+00  0.41414947859E+03  0.41414947859E+03  0.00000000000E+00 0.  1.
          2   -1    0    0  501    0 -0.00000000000E+00 -0.00000000000E+00 -0.42989755654E+03  0.42989755654E+03  0.00000000000E+00 0.  1.
          2    1    1    2  501    0 -0.30069133059E+01 -0.26691286719E+02  0.41329354266E+03  0.41416544848E+03  0.00000000000E+00 0.  1.
          2    1    1    2  502    0  0.30069133059E+01  0.26691286719E+02 -0.42904162062E+03  0.42988158664E+03  0.00000000000E+00 0.  1.
</event>
<event>
 4    1  0.7940509E+003  0.2747907E+02  0.7546771E-02  0.1442854E+00
          2   -1    0    0  501    0  0.00000000000E+00  0.00000000000E+00  0.11900525670E+03  0.11900525670E+03  0.00000000000E+00 0.  1.
          2   -1    0    0  502    0 -0.00000000000E+00 -0.00000000000E+00 -0.53383676315E+02  0.53383676315E+02  0.00000000000E+00 0. -1.
          2    1    1    2  501    0 -0.36533224593E+01  0.27235132635E+02 -0.48099222894E+02  0.55395256635E+02  0.00000000000E+00 0. -1.
          2    1    1    2  502    0  0.36533224593E+01 -0.27235132635E+02  0.11372080328E+03  0.11699367638E+03  0.00000000000E+00 0.  1.
</event>
<event>
 4    1  0.9030572E+003  0.2163179E+02  0.7546771E-02  0.1510433E+00
          2   -1    0    0  501    0  0.00000000000E+00  0.00000000000E+00  0.42820707542E+03  0.42820707542E+03  0.00000000000E+00 0. -1.
          2   -1    0    0  502    0 -0.00000000000E+00 -0.00000000000E+00 -0.94817866354E+03  0.94817866354E+03  0.00000000000E+00 0.  1.
          2    1    1    2  501    0 -0.21404397528E+02  0.31282919405E+01 -0.94778197801E+03  0.94802880351E+03  0.00000000000E+00 0.  1.
          2    1    1    2  502    0  0.21404397528E+02 -0.31282919405E+01  0.42781038989E+03  0.42835693544E+03  0.00000000000E+00 0. -1.
</event>
<event>
 4    1  0.7940509E+003  0.2262331E+02  0.7546771E-02  0.1497283E+00
          2   -1    0    0  502    0  0.00000000000E+00  0.00000000000E+00  0.65107238822E+03  0.65107238822E+03  0.00000000000E+00 0.  1.
          2   -1    0    0  501    0 -0.00000000000E+00 -0.00000000000E+00 -0.10897990081E+01  0.10897990081E+01  0.00000000000E+00 0.  1.
          2    1    1    2  501    0  0.61007324395E+00 -0.22615077896E+02  0.49712566109E+03  0.49764016804E+03  0.00000000000E+00 0.  1.
          2    1    1    2  502    0 -0.61007324395E+00  0.22615077896E+02  0.15285692812E+03  0.15452201918E+03  0.00000000000E+00 0.  1.
</event>
<event>
 4    1  0.7940509E+003  0.2911557E+02  0.7546771E-02  0.1427441E+00
          2   -1    0    0  502    0  0.00000000000E+00  0.00000000000E+00  0.92107944786E+01  0.92107944786E+01  0.00000000000E+00 0.  1.
          2   -1    0    0  501    0 -0.00000000000E+00 -0.00000000000E+00 -0.25200494611E+03  0.25200494611E+03  0.00000000000E+00 0. -1.
          2    1    1    2  501    0  0.17986908768E+02  0.22895139448E+02 -0.17337058754E+02  0.33886426539E+02  0.00000000000E+00 0.  1.
          2    1    1    2  502    0 -0.17986908768E+02 -0.22895139448E+02 -0.22545709288E+03  0.22732931405E+03  0.00000000000E+00 0. -1.
</event>
<event>
 4    1  0.7940509E+003  0.3424651E+02  0.7546771E-02  0.1385939E+00
          2   -1    0    0  501    0  0.00000000000E+00  0.00000000000E+00  0.10160822119E+04  0.10160822119E+04  0.00000000000E+00 0.  1.
          2   -1    0    0  502    0 -0.00000000000E+00 -0.00000000000E+00 -0.87676180256E+02  0.87676180256E+02  0.00000000000E+00 0.  1.
          2    1    1    2  501    0 -0.33789756943E+02  0.55745391897E+01 -0.84031389706E+02  0.90741928662E+02  0.00000000000E+00 0.  1.
          2    1    1    2  502    0  0.33789756943E+02 -0.55745391897E+01  0.10124374214E+04  0.10130164635E+04  0.00000000000E+00 0.  1.
</event>
<event>
 4    1  0.7940509E+003  0.2118503E+02  0.7546771E-02  0.1516639E+00
          2   -1    0    0  502    0  0.00000000000E+00  0.00000000000E+00  0.25574792596E+02  0.25574792596E+02  0.00000000000E+00 0.  1.
          2   -1    0    0  501    0 -0.00000000000E+00 -0.00000000000E+00 -0.41063032392E+03  0.41063032392E+03  0.00000000000E+00 0.  1.
          2    1    1    2  501    0 -0.30342755915E+01 -0.20966609731E+02  0.20863478710E+02  0.29733655945E+02  0.00000000000E+00 0.  1.
          2    1    1    2  502    0  0.30342755915E+01  0.20966609731E+02 -0.40591901004E+03  0.40647146058E+03  0.00000000000E+00 0.  1.
</event>
<event>
 4    1  0.7940509E+003  0.3635556E+02  0.7546771E-02  0.1371276E+00
          2   -1    0    0  501    0  0.00000000000E+00  0.00000000000E+00  0.11225622761E+04  0.11225622761E+04  0.00000000000E+00 0. -1.
          2   -1    0    0  502    0 -0.00000000000E+00 -0.00000000000E+00 -0.38461413635E+01  0.38461413635E+01  0.00000000000E+00 0. -1.
          2    1    1    2  501    0  0.10933983688E+02  0.34672388892E+02  0.90215393350E+02  0.97265326546E+02  0.00000000000E+00 0. -1.
          2    1    1    2  502    0 -0.10933983688E+02 -0.34672388892E+02  0.10285007413E+04  0.10291430909E+04  0.00000000000E+00 0. -1.
</event>
<event>
 4    1  0.7940509E+003  0.3176939E+02  0.7546771E-02  0.1404819E+00
          2   -1    0    0  502    0  0.00000000000E+00  0.00000000000E+00  0.29795314746E+03  0.29795314746E+03  0.00000000000E+00 0.  1.
          2   -1    0    0  501    0 -0.00000000000E+00 -0.00000000000E+00 -0.34892491121E+01  0.34892491121E+01  0.00000000000E+00 0.  1.
          2    1    1    2  501    0 -0.30979646260E+02 -0.70395605792E+01  0.17297938522E+03  0.17587257207E+03  0.00000000000E+00 0.  1.
          2    1    1    2  502    0  0.30979646260E+02  0.70395605792E+01  0.12148451313E+03  0.12556982450E+03  0.00000000000E+00 0.  1.
</event>
<event>
 4    1  0.7940509E+003  0.2120022E+02  0.7546771E-02  0.1516425E+00
          2   -1    0    0  501    0  0.00000000000E+00  0.00000000000E+00  0.27314714845E+02  0.27314714845E+02  0.00000000000E+00 0. -1.
          2   -1    0    0  502    0 -0.00000000000E+00 -0.00000000000E+00 -0.75833610455E+03  0.75833610455E+03  0.00000000000E+00 0.  1.
          2    1    1    2  501    0 -0.14190996753E+02  0.15750083530E+02 -0.75405094160E+03  0.75434890604E+03  0.00000000000E+00 0.  1.
          2    1    1    2  502    0  0.14190996753E+02 -0.15750083530E+02  0.23029551885E+02  0.31301913361E+02  0.00000000000E+00 0. -1.
</event>
<event>
 4    1  0.7940509E+003  0.3103772E+02  0.7546771E-02  0.1410788E+00
          2   -1    0    0  501    0  0.00000000000E+00  0.00000000000E+00  0.21843563057E+03  0.21843563057E+03  0.00000000000E+00 0. -1.
          2   -1    0    0  502    0 -0.00000000000E+00 -0.00000000000E+00 -0.71800918703E+02  0.71800918703E+02  0.00000000000E+00 0.  1.
          2    1    1    2  501    0  0.22736829420E+02  0.21127626073E+02 -0.67273547221E+02  0.74088259199E+02  0.00000000000E+00 0.  1.
          2    1    1    2  502    0 -0.22736829420E+02 -0.21127626073E+02  0.21390825909E+03  0.21614829008E+03  0.00000000000E+00 0. -1.
</event>
<event>
 4    1  0.7940509E+003  0.2908690E+02  0.7546771E-02  0.1427701E+00
          2   -1    0    0  502    0  0.00000000000E+00  0.00000000000E+00  0.20291802412E+02  0.20291802412E+02  0.00000000000E+00 0. -1.
          2   -1    0    0  501    0 -0.00000000000E+00 -0.00000000000E+00 -0.61247952346E+03  0.61247952346E+03  0.00000000000E+00 0.  1.
          2    1    1    2  501    0  0.13759818611E+02  0.25626452800E+02  0.93331624616E+01  0.30547595861E+02  0.00000000000E+00 0. -1.
          2    1    1    2  502    0 -0.13759818611E+02 -0.25626452800E+02 -0.60152088351E+03  0.60222373001E+03  0.00000000000E+00 0.  1.
</event>
<event>
 4    1  0.7940509E+003  0.2707201E+02  0.7546771E-02  0.1446886E+00
          2   -1    0    0  501    0  0.00000000000E+00  0.00000000000E+00  0.91169314402E+03  0.91169314402E+03  0.00000000000E+00 0. -1.
          2   -1    0    0  502    0 -0.00000000000E+00 -0.00000000000E+00 -0.29665061871E+01  0.29665061871E+01  0.00000000000E+00 0. -1.
          2    1    1    2  501    0 -0.66626256879E+00  0.27063811489E+02  0.63884560338E+02  0.69383937967E+02  0.00000000000E+00 0. -1.
          2    1    1    2  502    0  0.66626256879E+00 -0.27063811489E+02  0.84484207750E+03  0.84527571224E+03  0.00000000000E+00 0. -1.
</event>
<event>
 4    1  0.7940509E+003  0.3631252E+02  0.7546771E-02  0.1371563E+00
          2   -1    0    0  501    0  0.00000000000E+00  0.00000000000E+00  0.37250344963E+01  0.37250344963E+01  0.00000000000E+00 0.  1.
          2   -1    0    0  502    0 -0.00000000000E+00 -0.00000000000E+00 -0.10544654072E+04  0.10544654072E+04  0.00000000000E+00 0. -1.
          2    1    1    2  501    0  0.40928982373E+01  0.36081124586E+02 -0.95660741500E+03  0.95729637302E+03  0.00000000000E+00 0. -1.
          2    1    1    2  502    0 -0.40928982373E+01 -0.36081124586E+02 -0.94132957682E+02  0.10089406865E+03  0.00000000000E+00 0.  1.
</event>
<event>
 4    1  0.7940509E+003  0.2869631E+02  0.7546771E-02  0.1431274E+00
          2   -1    0    0  502    0  0.00000000000E+00  0.00000000000E+00  0.29906292335E+02  0.29906292335E+02  0.00000000000E+00 0. -1.
          2   -1    0    0  501    0 -0.00000000000E+00 -0.00000000000E+00 -0.63339999427E+03  0.63339999427E+03  0.00000000000E+00 0.  1.
          2    1    1    2  501    0 -0.25568777822E+02 -0.13027506074E+02  0.22617351076E+02  0.36537964961E+02  0.00000000000E+00 0. -1.
          2    1    1    2  502    0  0.25568777822E+02  0.13027506074E+02 -0.62611105301E+03  0.62676832164E+03  0.00000000000E+00 0.  1.
</event>
<event>
 4    1  0.7940509E+003  0.2257670E+02  0.7546771E-02  0.1497883E+00
          2   -1    0    0  501    0  0.00000000000E+00  0.00000000000E+00  0.18603690411E+01  0.18603690411E+01  0.00000000000E+00 0.  1.
          2   -1    0    0  502    0 -0.00000000000E+00 -0.00000000000E+00 -0.81309256397E+03  0.81309256397E+03  0.00000000000E+00 0. -1.
          2    1    1    2  501    0 -0.21859442637E+02  0.56455261567E+01 -0.73741240721E+03  0.73775793151E+03  0.00000000000E+00 0. -1.
          2    1    1    2  502    0  0.21859442637E+02 -0.56455261567E+01 -0.73819787722E+02  0.77195001504E+02  0.00000000000E+00 0.  1.
</event>
<event>
 4    1  0.7940509E+003  0.3446330E+02  0.7546771E-02  0.1384376E+00
          2   -1    0    0  501    0  0.00000000000E+00  0.00000000000E+00  0.49296461589E+01  0.49296461589E+01  0.00000000000E+00 0. -1.
          2   -1    0    0  502    0 -0.00000000000E+00 -0.00000000000E+00 -0.24177512127E+03  0.24177512127E+03  0.00000000000E+00 0.  1.
          2    1    1    2  501    0  0.20311024457E+02 -0.27842074333E+02 -0.11114661759E+03  0.11636704610E+03  0.00000000000E+00 0.  1.
          2    1    1    2  502    0 -0.20311024457E+02  0.27842074333E+02 -0.12569885752E+03  0.13033772132E+03  0.00000000000E+00 0. -1.
</event>
<event>
 4    1  0.7940509E+003  0.2803264E+02  0.7546771E-02  0.1437502E+00
          2   -1    0    0  502    0  0.00000000000E+00  0.00000000000E+00  0.24471738852E+02  0.24471738852E+02  0.00000000000E+00 0.  1.
          2   -1    0    0  501    0 -0.00000000000E+00 -0.00000000000E+00 -0.69495466828E+03  0.69495466828E+03  0.00000000000E+00 0.  1.
          2    1    1    2  501    0  0.15592092248E+02  0.23296251268E+02  0.16062842059E+02  0.32308567886E+02  0.00000000000E+00 0.  1.
          2    1    1    2  502    0 -0.15592092248E+02 -0.23296251268E+02 -0.68654577149E+03  0.68711783925E+03  0.00000000000E+00 0.  1.
</event>
<event>
 4    1  0.7940509E+003  0.2803745E+02  0.7546771E-02  0.1437456E+00
          2   -1    0    0  502    0  0.00000000000E+00  0.00000000000E+00  0.37776506691E+02  0.37776506691E+02  0.00000000000E+00 0.  1.
          2   -1    0    0  501    0 -0.00000000000E+00 -0.00000000000E+00 -0.13713387144E+03  0.13713387144E+03  0.00000000000E+00 0. -1.
          2    1    1    2  501    0 -0.27330515999E+02 -0.62563243805E+01  0.30868275216E+02  0.41700708798E+02  0.00000000000E+00 0.  1.
          2    1    1    2  502    0  0.27330515999E+02  0.62563243805E+01 -0.13022563997E+03  0.13320966933E+03  0.00000000000E+00 0. -1.
</event>
<event>
 4    1  0.7940509E+003  0.2692253E+02  0.7546771E-02  0.1448388E+00
          2   -1    0    0  501    0  0.00000000000E+00  0.00000000000E+00  0.42155949595E+01  0.42155949595E+01  0.00000000000E+00 0.  1.
          2   -1    0    0  502    0 -0.00000000000E+00 -0.00000000000E+00 -0.48908897805E+03  0.48908897805E+03  0.00000000000E+00 0. -1.
          2    1    1    2  501    0 -0.25766546866E+02 -0.78043362814E+01 -0.44105714529E+03  0.44187806917E+03  0.00000000000E+00 0. -1.
          2    1    1    2  502    0  0.25766546866E+02  0.78043362814E+01 -0.43816237803E+02  0.51426503842E+02  0.00000000000E+00 0.  1.
</event>
<event>
 4    1  0.7940509E+003  0.2784110E+02  0.7546771E-02  0.1439337E+00
          2   -1    0    0  501    0  0.00000000000E+00  0.00000000000E+00  0.29726783969E+02  0.29726783969E+02  0.00000000000E+00 0. -1.
          2   -1    0    0  502    0 -0.00000000000E+00 -0.00000000000E+00 -0.41241435685E+03  0.41241435685E+03  0.00000000000E+00 0.  1.
          2    1    1    2  501    0  0.21837886460E+02 -0.17269444921E+02 -0.40531162479E+03  0.40626671068E+03  0.00000000000E+00 0.  1.
          2    1    1    2  502    0 -0.21837886460E+02  0.17269444921E+02  0.22624051913E+02  0.35874430140E+02  0.00000000000E+00 0. -1.
</event>
<event>
 4    1  0.7940509E+003  0.6204313E+02  0.7546771E-02  0.1253044E+00
          2   -1    0    0  502    0  0.00000000000E+00  0.00000000000E+00  0.58666324397E+02  0.58666324397E+02  0.00000000000E+00 0.  1.
          2   -1    0    0  501    0 -0.00000000000E+00 -0.00000000000E+00 -0.66170766927E+02  0.66170766927E+02  0.00000000000E+00 0.  1.
          2    1    1    2  501    0  0.37307948372E+02  0.49572840198E+02  0.19718141840E+01  0.62074451654E+02  0.00000000000E+00 0.  1.
          2    1    1    2  502    0 -0.37307948372E+02 -0.49572840198E+02 -0.94762567134E+01  0.62762639670E+02  0.00000000000E+00 0.  1.
</event>
<event>
 4    1  0.7940509E+003  0.1031374E+03  0.7546771E-02  0.1158480E+00
          2   -1    0    0  502    0  0.00000000000E+00  0.00000000000E+00  0.11900491341E+03  0.11900491341E+03  0.00000000000E+00 0. -1.
          2   -1    0    0  501    0 -0.00000000000E+00 -0.00000000000E+00 -0.29944260916E+04  0.29944260916E+04  0.00000000000E+00 0. -1.
          2    1    1    2  501    0  0.72424888270E+02  0.73429889469E+02  0.95594418750E+02  0.14062576579E+03  0.00000000000E+00 0. -1.
          2    1    1    2  502    0 -0.72424888270E+02 -0.73429889469E+02 -0.29710155969E+04  0.29728052392E+04  0.00000000000E+00 0. -1.
</event>
<event>
 4    1  0.7940509E+003  0.2479895E+02  0.7546771E-02  0.1471065E+00
          2   -1    0    0  501    0  0.00000000000E+00  0.00000000000E+00  0.72778958924E+03  0.72778958924E+03  0.00000000000E+00 0.  1.
          2   -1    0    0  502    0 -0.00000000000E+00 -0.00000000000E+00 -0.46189958394E+03  0.46189958394E+03  0.00000000000E+00 0. -1.
          2    1    1    2  501    0  0.39552474743E+01 -0.24481506465E+02 -0.46135522469E+03  0.46202124571E+03  0.00000000000E+00 0. -1.
          2    1    1    2  502    0 -0.39552474743E+01  0.24481506465E+02  0.72724522998E+03  0.72766792747E+03  0.00000000000E+00 0.  1.
</event>
<event>
 4    1  0.7940509E+003  0.2561975E+02  0.7546771E-02  0.1461988E+00
          2   -1    0    0  502    0  0.00000000000E+00  0.00000000000E+00  0.25675886437E+03  0.25675886437E+03  0.00000000000E+00 0. -1.
          2   -1    0    0  501    0 -0.00000000000E+00 -0.00000000000E+00 -0.82207418663E+02  0.82207418663E+02  0.00000000000E+00 0. -1.
          2    1    1    2  501    0  0.29951289417E+01 -0.25444073311E+02  0.25410287571E+03  0.25539115707E+03  0.00000000000E+00 0. -1.
          2    1    1    2  502    0 -0.29951289417E+01  0.25444073311E+02 -0.79551430005E+02  0.83575125964E+02  0.00000000000E+00 0. -1.
</event>
<event>
 4    1  0.7940509E+003  0.2163505E+02  0.7546771E-02  0.1510388E+00
          2   -1    0    0  501    0  0.00000000000E+00  0.00000000000E+00  0.12175999079E+04  0.12175999079E+04  0.00000000000E+00 0. -1.
          2   -1    0    0  502    0 -0.00000000000E+00 -0.00000000000E+00 -0.12661551021E+01  0.12661551021E+01  0.00000000000E+00 0. -1.
          2    1    1    2  501    0  0.14006290568E+02 -0.16489369868E+02  0.99597225936E+02  0.10191998287E+03  0.00000000000E+00 0. -1.
          2    1    1    2  502    0 -0.14006290568E+02  0.16489369868E+02  0.11167365269E+04  0.11169460801E+04  0.00000000000E+00 0. -1.
</event>
<event>
 4    1  0.7940509E+003  0.2052841E+02  0.7546771E-02  0.1526106E+00
          2   -1    0    0  502    0  0.00000000000E+00  0.00000000000E+00  0.12736945721E+01  0.12736945721E+01  0.00000000000E+00 0.  1.
          2   -1    0    0  501    0 -0.00000000000E+00 -0.00000000000E+00 -0.13063703923E+04  0.13063703923E+04  0.00000000000E+00 0. -1.
          2    1    1    2  501    0  0.16809831460E+02 -0.11783259720E+02 -0.87556529584E+02  0.89930870762E+02  0.00000000000E+00 0.  1.
          2    1    1    2  502    0 -0.16809831460E+02  0.11783259720E+02 -0.12175401681E+04  0.12177132161E+04  0.00000000000E+00 0. -1.
</event>
<event>
 4    1  0.7940509E+003  0.2121187E+02  0.7546771E-02  0.1516261E+00
          2   -1    0    0  501    0  0.00000000000E+00  0.00000000000E+00  0.47749525962E+01  0.47749525962E+01  0.00000000000E+00 0. -1.
          2   -1    0    0  502    0 -0.00000000000E+00 -0.00000000000E+00 -0.21967666928E+03  0.21967666928E+03  0.00000000000E+00 0.  1.
          2    1    1    2  501    0 -0.14198467741E+02 -0.15759023161E+02 -0.19225762943E+03  0.19342424711E+03  0.00000000000E+00 0.  1.
          2    1    1    2  502    0  0.14198467741E+02  0.15759023161E+02 -0.22644087257E+02  0.31027374766E+02  0.00000000000E+00 0. -1.
</event>
<event>
 4    1  0.7940509E+003  0.3054559E+02  0.7546771E-02  0.1414913E+00
          2   -1    0    0  501    0  0.00000000000E+00  0.00000000000E+00  0.13019797400E+03  0.13019797400E+03  0.00000000000E+00 0.  1.
          2   -1    0    0  502    0 -0.00000000000E+00 -0.00000000000E+00 -0.25785341180E+03  0.25785341180E+03  0.00000000000E+00 0.  1.
          2    1    1    2  501    0 -0.92094754072E+01 -0.29124189275E+02 -0.25513823265E+03  0.25696021210E+03  0.00000000000E+00 0.  1.
          2    1    1    2  502    0  0.92094754072E+01  0.29124189275E+02  0.12748279485E+03  0.13109117370E+03  0.00000000000E+00 0.  1.
</event>
<event>
 4    1  0.7940509E+003  0.3084820E+02  0.7546771E-02  0.1412366E+00
          2   -1    0    0  501    0  0.00000000000E+00  0.00000000000E+00  0.54421097329E+03  0.54421097329E+03  0.00000000000E+00 0.  1.
          2   -1    0    0  502    0 -0.00000000000E+00 -0.00000000000E+00 -0.21609839201E+01  0.21609839201E+01  0.00000000000E+00 0. -1.
          2    1    1    2  501    0  0.22625864381E+02 -0.20968582406E+02  0.15168672258E+03  0.15479170841E+03  0.00000000000E+00 0. -1.
          2    1    1    2  502    0 -0.22625864381E+02  0.20968582406E+02  0.39036326680E+03  0.39158024880E+03  0.00000000000E+00 0.  1.
</event>
<event>
 4    1  0.7940509E+003  0.3074984E+02  0.7546771E-02  0.1413190E+00
          2   -1    0    0  502    0  0.00000000000E+00  0.00000000000E+00  0.28971362185E+01  0.28971362185E+01  0.00000000000E+00 0.  1.
          2   -1    0    0  501    0 -0.00000000000E+00 -0.00000000000E+00 -0.13898934145E+04  0.13898934145E+04  0.00000000000E+00 0.  1.
          2    1    1    2  501    0  0.42686856459E+01  0.30452110212E+02 -0.84329433903E+02  0.89760827290E+02  0.00000000000E+00 0.  1.
          2    1    1    2  502    0 -0.42686856459E+01 -0.30452110212E+02 -0.13026668444E+04  0.13030297234E+04  0.00000000000E+00 0.  1.
</event>
<event>
 4    1  0.7940509E+003  0.2420864E+02  0.7546771E-02  0.1477854E+00
          2   -1    0    0  502    0  0.00000000000E+00  0.00000000000E+00  0.59173582452E+03  0.59173582452E+03  0.00000000000E+00 0. -1.
          2   -1    0    0  501    0 -0.00000000000E+00 -0.00000000000E+00 -0.23507978247E+01  0.23507978247E+01  0.00000000000E+00 0. -1.
          2    1    1    2  501    0 -0.23397320651E+02  0.62148036951E+01  0.52065910148E+03  0.52122160196E+03  0.00000000000E+00 0. -1.
          2    1    1    2  502    0  0.23397320651E+02 -0.62148036951E+01  0.68725925219E+02  0.72865020386E+02  0.00000000000E+00 0. -1.
</event>
<event>
 4    1  0.7940509E+003  0.6120006E+02  0.7546771E-02  0.1255809E+00
          2   -1    0    0  502    0  0.00000000000E+00  0.00000000000E+00  0.10106285623E+03  0.10106285623E+03  0.00000000000E+00 0.  1.
          2   -1    0    0  501    0 -0.00000000000E+00 -0.00000000000E+00 -0.14245527147E+03  0.14245527147E+03  0.00000000000E+00 0. -1.
          2    1    1    2  501    0 -0.20263259665E+02 -0.57748144280E+02  0.84033866447E+02  0.10395738824E+03  0.00000000000E+00 0.  1.
          2    1    1    2  502    0  0.20263259665E+02  0.57748144280E+02 -0.12542628169E+03  0.13956073946E+03  0.00000000000E+00 0. -1.
</event>
<event>
 4    1  0.7940509E+003  0.2159577E+02  0.7546771E-02  0.1510926E+00
          2   -1    0    0  501    0  0.00000000000E+00  0.00000000000E+00  0.12849156752E+03  0.12849156752E+03  0.00000000000E+00 0. -1.
          2   -1    0    0  502    0 -0.00000000000E+00 -0.00000000000E+00 -0.23462723366E+02  0.23462723366E+02  0.00000000000E+00 0. -1.
          2    1    1    2  501    0  0.21222941356E+02  0.39955092411E+01 -0.17339203059E+02  0.27695221548E+02  0.00000000000E+00 0. -1.
          2    1    1    2  502    0 -0.21222941356E+02 -0.39955092411E+01  0.12236804721E+03  0.12425906933E+03  0.00000000000E+00 0. -1.
</event>
<event>
 4    1  0.7940509E+003  0.3075578E+02  0.7546771E-02  0.1413140E+00
          2   -1    0    0  501    0  0.00000000000E+00  0.00000000000E+00  0.17122412564E+04  0.17122412564E+04  0.00000000000E+00 0. -1.
          2   -1    0    0  502    0 -0.00000000000E+00 -0.00000000000E+00 -0.52631578454E+01  0.52631578454E+01  0.00000000000E+00 0.  1.
          2    1    1    2  501    0  0.23577696222E+02 -0.19748672494E+02  0.41055181625E+02  0.51297619464E+02  0.00000000000E+00 0.  1.
          2    1    1    2  502    0 -0.23577696222E+02  0.19748672494E+02  0.16659229169E+04  0.16662067948E+04  0.00000000000E+00 0. -1.
</event>
<event>
 4    1  0.7940509E+003  0.3368984E+02  0.7546771E-02  0.1390015E+00
          2   -1    0    0  501    0  0.00000000000E+00  0.00000000000E+00  0.46010232373E+03  0.46010232373E+03  0.00000000000E+00 0.  1.
          2   -1    0    0  502    0 -0.00000000000E+00 -0.00000000000E+00 -0.11420745474E+02  0.11420745474E+02  0.00000000000E+00 0. -1.
          2    1    1    2  501    0  0.23211636221E+02 -0.24417726053E+02  0.15588316254E+02  0.37121435927E+02  0.00000000000E+00 0. -1.
          2    1    1    2  502    0 -0.23211636221E+02  0.24417726053E+02  0.43309326200E+03  0.43440163328E+03  0.00000000000E+00 0.  1.
</event>
<event>
 4    1  0.7940509E+003  0.2297768E+02  0.7546771E-02  0.1492779E+00
          2   -1    0    0  502    0  0.00000000000E+00  0.00000000000E+00  0.30478516808E+00  0.30478516808E+00  0.00000000000E+00 0.  1.
          2   -1    0    0  501    0 -0.00000000000E+00 -0.00000000000E+00 -0.18891186693E+04  0.18891186693E+04  0.00000000000E+00 0. -1.
          2    1    1    2  501    0  0.35841228179E+01  0.22696428260E+02 -0.67220338095E+03  0.67259598509E+03  0.00000000000E+00 0.  1.
          2    1    1    2  502    0 -0.35841228179E+01 -0.22696428260E+02 -0.12166105032E+04  0.12168274694E+04  0.00000000000E+00 0. -1.
</event>
<event>
 4    1  0.7940509E+003  0.2457451E+02  0.7546771E-02  0.1473620E+00
          2   -1    0    0  502    0  0.00000000000E+00  0.00000000000E+00  0.22284295930E+02  0.22284295930E+02  0.00000000000E+00 0. -1.
          2   -1    0    0  501    0 -0.00000000000E+00 -0.00000000000E+00 -0.75164697412E+02  0.75164697412E+02  0.00000000000E+00 0. -1.
          2    1    1    2  501    0  0.12998810098E+02 -0.20855150547E+02  0.12522864529E+02  0.27581307154E+02  0.00000000000E+00 0. -1.
          2    1    1    2  502    0 -0.12998810098E+02  0.20855150547E+02 -0.65403266011E+02  0.69867686188E+02  0.00000000000E+00 0. -1.
</event>
<event>
 4    1  0.7940509E+003  0.2608271E+02  0.7546771E-02  0.1457047E+00
          2   -1    0    0  502    0  0.00000000000E+00  0.00000000000E+00  0.13938148881E+03  0.13938148881E+03  0.00000000000E+00 0. -1.
          2   -1    0    0  501    0 -0.00000000000E+00 -0.00000000000E+00 -0.21008645772E+02  0.21008645772E+02  0.00000000000E+00 0.  1.
          2    1    1    2  501    0 -0.24437404787E+02 -0.91170617008E+01  0.12945083365E+03  0.13205236045E+03  0.00000000000E+00 0. -1.
          2    1    1    2  502    0  0.24437404787E+02  0.91170617008E+01 -0.11077990615E+02  0.28337774133E+02  0.00000000000E+00 0.  1.
</event>
<event>
 4    1  0.7940509E+003  0.3396487E+02  0.7546771E-02  0.1387990E+00
          2   -1    0    0  501    0  0.00000000000E+00  0.00000000000E+00  0.78922334994E+02  0.78922334994E+02  0.00000000000E+00 0. -1.
          2   -1    0    0  502    0 -0.00000000000E+00 -0.00000000000E+00 -0.50426467773E+03  0.50426467773E+03  0.00000000000E+00 0. -1.
          2    1    1    2  501    0  0.32143941706E+02  0.10971764643E+02 -0.50000740616E+03  0.50115967397E+03  0.00000000000E+00 0. -1.
          2    1    1    2  502    0 -0.32143941706E+02 -0.10971764643E+02  0.74665063417E+02  0.82027338752E+02  0.00000000000E+00 0. -1.
</event>
<event>
 4    1  0.7940509E+003  0.2944365E+02  0.7546771E-02  0.1424494E+00
          2   -1    0    0  501    0  0.00000000000E+00  0.00000000000E+00  0.92980426295E+03  0.92980426295E+03  0.00000000000E+00 0.  1.
          2   -1    0    0  502    0 -0.00000000000E+00 -0.00000000000E+00 -0.23659288619E+01  0.23659288619E+01  0.00000000000E+00 0. -1.
          2    1    1    2  501    0 -0.24523787624E+02  0.16294551569E+02  0.10091605475E+03  0.10512363520E+03  0.00000000000E+00 0. -1.
          2    1    1    2  502    0  0.24523787624E+02 -0.16294551569E+02  0.82652227933E+03  0.82704655661E+03  0.00000000000E+00 0.  1.
</event>
<event>
 4    1  0.7940509E+003  0.2394740E+02  0.7546771E-02  0.1480932E+00
          2   -1    0    0  501    0  0.00000000000E+00  0.00000000000E+00  0.22431169929E+01  0.22431169929E+01  0.00000000000E+00 0. -1.
          2   -1    0    0  502    0 -0.00000000000E+00 -0.00000000000E+00 -0.10895093779E+04  0.10895093779E+04  0.00000000000E+00 0. -1.
          2    1    1    2  501    0 -0.19259604231E+02 -0.14231857242E+02 -0.10211868011E+04  0.10214675525E+04  0.00000000000E+00 0. -1.
          2    1    1    2  502    0  0.19259604231E+02  0.14231857242E+02 -0.66079459820E+02  0.70284942383E+02  0.00000000000E+00 0. -1.
</event>
<event>
 4    1  0.7940509E+003  0.3214767E+02  0.7546771E-02  0.1401807E+00
          2   -1    0    0  502    0  0.00000000000E+00  0.00000000000E+00  0.18144350247E+04  0.18144350247E+04  0.00000000000E+00 0. -1.
          2   -1    0    0  501    0 -0.00000000000E+00 -0.00000000000E+00 -0.80157074982E+00  0.80157074982E+00  0.00000000000E+00 0. -1.
          2    1    1    2  501    0 -0.22603810792E+02  0.22859145308E+02  0.13950912839E+04  0.13954616309E+04  0.00000000000E+00 0. -1.
          2    1    1    2  502    0  0.22603810792E+02 -0.22859145308E+02  0.41854216998E+03  0.41977496452E+03  0.00000000000E+00 0. -1.
</event>
<event>
 4    1  0.7940509E+003  0.2274583E+02  0.7546771E-02  0.1495715E+00
          2   -1    0    0  501    0  0.00000000000E+00  0.00000000000E+00  0.30568755388E+03  0.30568755388E+03  0.00000000000E+00 0.  1.
          2   -1    0    0  502    0 -0.00000000000E+00 -0.00000000000E+00 -0.17279594914E+01  0.17279594914E+01  0.00000000000E+00 0.  1.
          2    1    1    2  501    0  0.74019280832E+01  0.21507776394E+02  0.17400192891E+03  0.17548231890E+03  0.00000000000E+00 0.  1.
          2    1    1    2  502    0 -0.74019280832E+01 -0.21507776394E+02  0.12995766548E+03  0.13193319446E+03  0.00000000000E+00 0.  1.
</event>
<event>
 4    1  0.7940509E+003  0.2292241E+02  0.7546771E-02  0.1493475E+00
          2   -1    0    0  501    0  0.00000000000E+00  0.00000000000E+00  0.16231518511E+03  0.16231518511E+03  0.00000000000E+00 0.  1.
          2   -1    0    0  502    0 -0.00000000000E+00 -0.00000000000E+00 -0.31608487163E+02  0.31608487163E+02  0.00000000000E+00 0. -1.
          2    1    1    2  501    0  0.30766546163E+01 -0.22714991796E+02 -0.26509301140E+02  0.35045394888E+02  0.00000000000E+00 0. -1.
          2    1    1    2  502    0 -0.30766546163E+01  0.22714991796E+02  0.15721599909E+03  0.15887827739E+03  0.00000000000E+00 0.  1.
</event>
<event>
 4    1  0.7940509E+003  0.3536481E+02  0.7546771E-02  0.1378017E+00
          2   -1    0    0  501    0  0.00000000000E+00  0.00000000000E+00  0.19895523620E+01  0.19895523620E+01  0.00000000000E+00 0. -1.
          2   -1    0    0  502    0 -0.00000000000E+00 -0.00000000000E+00 -0.66821566715E+03  0.66821566715E+03  0.00000000000E+00 0.  1.
          2    1    1    2  501    0  0.29361102761E+02  0.19712819846E+02 -0.41468691301E+03  0.41619214967E+03  0.00000000000E+00 0.  1.
          2    1    1    2  502    0 -0.29361102761E+02 -0.19712819846E+02 -0.25153920177E+03  0.25401306984E+03  0.00000000000E+00 0. -1.
</event>
<event>
 4    1  0.7940509E+003  0.5076783E+02  0.7546771E-02  0.1294877E+00
          2   -1    0    0  501    0  0.00000000000E+00  0.00000000000E+00  0.14013648067E+04  0.14013648067E+04  0.00000000000E+00 0.  1.
          2   -1    0    0  502    0 -0.00000000000E+00 -0.00000000000E+00 -0.48266177360E+01  0.48266177360E+01  0.00000000000E+00 0.  1.
          2    1    1    2  501    0  0.12342114134E+02 -0.49244741019E+02  0.14512038850E+03  0.15374426643E+03  0.00000000000E+00 0.  1.
          2    1    1    2  502    0 -0.12342114134E+02  0.49244741019E+02  0.12514178004E+04  0.12524471580E+04  0.00000000000E+00 0.  1.
</event>
<event>
 4    1  0.7940509E+003  0.4632093E+02  0.7546771E-02  0.1314963E+00
          2   -1    0    0  501    0  0.00000000000E+00  0.00000000000E+00  0.13229473178E+03  0.13229473178E+03  0.00000000000E+00 0.  1.
          2   -1    0    0  502    0 -0.00000000000E+00 -0.00000000000E+00 -0.24103084849E+03  0.24103084849E+03  0.00000000000E+00 0. -1.
          2    1    1    2  501    0  0.11917399911E+02 -0.44761632801E+02 -0.23464138590E+03  0.23916983123E+03  0.00000000000E+00 0. -1.
          2    1    1    2  502    0 -0.11917399911E+02  0.44761632801E+02  0.12590526919E+03  0.13415574904E+03  0.00000000000E+00 0.  1.
</event>
<event>
 4    1  0.7940509E+003  0.5137291E+02  0.7546771E-02  0.1292327E+00
          2   -1    0    0  501    0  0.00000000000E+00  0.00000000000E+00  0.17046636043E+03  0.17046636043E+03  0.00000000000E+00 0. -1.
          2   -1    0    0  502    0 -0.00000000000E+00 -0.00000000000E+00 -0.25071244213E+02  0.25071244213E+02  0.00000000000E+00 0. -1.
          2    1    1    2  501    0  0.45492171598E+01 -0.51171093161E+02  0.12232785933E+02  0.52809253013E+02  0.00000000000E+00 0. -1.
          2    1    1    2  502    0 -0.45492171598E+01  0.51171093161E+02  0.13316233029E+03  0.14272835163E+03  0.00000000000E+00 0. -1.
</event>
<event>
 4    1  0.7940509E+003  0.3554871E+02  0.7546771E-02  0.1376746E+00
          2   -1    0    0  501    0  0.00000000000E+00  0.00000000000E+00  0.12225353982E+03  0.12225353982E+03  0.00000000000E+00 0. -1.
          2   -1    0    0  502    0 -0.00000000000E+00 -0.00000000000E+00 -0.11914080616E+03  0.11914080616E+03  0.00000000000E+00 0. -1.
          2    1    1    2  501    0  0.35087242819E+02  0.57092827296E+01 -0.11378610969E+03  0.11920985394E+03  0.00000000000E+00 0. -1.
          2    1    1    2  502    0 -0.35087242819E+02 -0.57092827296E+01  0.11689884335E+03  0.12218449204E+03  0.00000000000E+00 0. -1.
</event>
<event>
 4    1  0.7940509E+003  0.2154921E+02  0.7546771E-02  0.1511566E+00
          2   -1    0    0  502    0  0.00000000000E+00  0.00000000000E+00  0.29308791425E+01  0.29308791425E+01  0.00000000000E+00 0. -1.
          2   -1    0    0  501    0 -0.00000000000E+00 -0.00000000000E+00 -0.15079804104E+04  0.15079804104E+04  0.00000000000E+00 0.  1.
          2    1    1    2  501    0  0.18621092308E+02  0.10845432605E+02 -0.37857208074E+02  0.43560724171E+02  0.00000000000E+00 0. -1.
          2    1    1    2  502    0 -0.18621092308E+02 -0.10845432605E+02 -0.14671923232E+04  0.14673505654E+04  0.00000000000E+00 0.  1.
</event>
<event>
 4    1  0.7940509E+003  0.4417478E+02  0.7546771E-02  0.1325618E+00
          2   -1    0    0  501    0  0.00000000000E+00  0.00000000000E+00  0.18851436763E+04  0.18851436763E+04  0.00000000000E+00 0.  1.
          2   -1    0    0  502    0 -0.00000000000E+00 -0.00000000000E+00 -0.24166550612E+01  0.24166550612E+01  0.00000000000E+00 0. -1.
          2    1    1    2  501    0 -0.19313800069E+02  0.39728934392E+02  0.22778893568E+03  0.23203277855E+03  0.00000000000E+00 0. -1.
          2    1    1    2  502    0  0.19313800069E+02 -0.39728934392E+02  0.16549380856E+04  0.16555275528E+04  0.00000000000E+00 0.  1.
</event>
<event>
 4    1  0.7940509E+003  0.3314412E+02  0.7546771E-02  0.1394102E+00
          2   -1    0    0  501    0  0.00000000000E+00  0.00000000000E+00  0.60275473806E+02  0.60275473806E+02  0.00000000000E+00 0. -1.
          2   -1    0    0  502    0 -0.00000000000E+00 -0.00000000000E+00 -0.32954802680E+02  0.32954802680E+02  0.00000000000E+00 0.  1.
          2    1    1    2  501    0 -0.88301117944E+01 -0.31946229021E+02 -0.17504380153E+02  0.37482472537E+02  0.00000000000E+00 0.  1.
          2    1    1    2  502    0  0.88301117944E+01  0.31946229021E+02  0.44825051279E+02  0.55747803949E+02  0.00000000000E+00 0. -1.
</event>
<event>
 4    1  0.7940509E+003  0.2386315E+02  0.7546771E-02  0.1481935E+00
          2   -1    0    0  502    0  0.00000000000E+00  0.00000000000E+00  0.35761849219E+02  0.35761849219E+02  0.00000000000E+00 0.  1.
          2   -1    0    0  501    0 -0.00000000000E+00 -0.00000000000E+00 -0.16030102005E+02  0.16030102005E+02  0.00000000000E+00 0.  1.
          2    1    1    2  501    0  0.18286275618E+02  0.15331733908E+02  0.11978714945E+02  0.26700927930E+02  0.00000000000E+00 0.  1.
          2    1    1    2  502    0 -0.18286275618E+02 -0.15331733908E+02  0.77530322689E+01  0.25091023294E+02  0.00000000000E+00 0.  1.
</event>
<event>
 4    1  0.7940509E+003  0.2007268E+02  0.7546771E-02  0.1532928E+00
          2   -1    0    0  501    0  0.00000000000E+00  0.00000000000E+00  0.85558991662E+03  0.85558991662E+03  0.00000000000E+00 0. -1.
          2   -1    0    0  502    0 -0.00000000000E+00 -0.00000000000E+00 -0.37470989390E+01  0.37470989390E+01  0.00000000000E+00 0. -1.
          2    1    1    2  501    0 -0.80859794084E+01  0.18371975286E+02  0.24158449017E+02  0.31409285216E+02  0.00000000000E+00 0. -1.
          2    1    1    2  502    0  0.80859794084E+01 -0.18371975286E+02  0.82768436866E+03  0.82792773034E+03  0.00000000000E+00 0. -1.
</event>
<event>
 4    1  0.7940509E+003  0.2966024E+02  0.7546771E-02  0.1422572E+00
          2   -1    0    0  501    0  0.00000000000E+00  0.00000000000E+00  0.29913300316E+01  0.29913300316E+01  0.00000000000E+00 0.  1.
          2   -1    0    0  502    0 -0.00000000000E+00 -0.00000000000E+00 -0.77806529845E+03  0.77806529845E+03  0.00000000000E+00 0. -1.
          2    1    1    2  501    0  0.13024769365E+01  0.29631628132E+02 -0.69553978404E+03  0.69617190479E+03  0.00000000000E+00 0. -1.
          2    1    1    2  502    0 -0.13024769365E+01 -0.29631628132E+02 -0.79534184371E+02  0.84884723688E+02  0.00000000000E+00 0.  1.
</event>
<event>
 4    1  0.7940509E+003  0.2258285E+02  0.7546771E-02  0.1497804E+00
          2   -1    0    0  501    0  0.00000000000E+00  0.00000000000E+00  0.62090453239E+02  0.62090453239E+02  0.00000000000E+00 0.  1.
          2   -1    0    0  502    0 -0.00000000000E+00 -0.00000000000E+00 -0.13046875956E+03  0.13046875956E+03  0.00000000000E+00 0. -1.
          2    1    1    2  501    0 -0.13980736013E+02 -0.17734831889E+02 -0.12738888522E+03  0.12937508771E+03  0.00000000000E+00 0. -1.
          2    1    1    2  502    0  0.13980736013E+02  0.17734831889E+02  0.59010578899E+02  0.63184125092E+02  0.00000000000E+00 0.  1.
</event>
<event>
 4    1  0.7940509E+003  0.2059986E+02  0.7546771E-02  0.1525055E+00
          2   -1    0    0  502    0  0.00000000000E+00  0.00000000000E+00  0.22942888672E+02  0.22942888672E+02  0.00000000000E+00 0. -1.
          2   -1    0    0  501    0 -0.00000000000E+00 -0.00000000000E+00 -0.85287972365E+02  0.85287972365E+02  0.00000000000E+00 0.  1.
          2    1    1    2  501    0 -0.14453270109E+00 -0.20599355107E+02  0.16716812459E+02  0.26529344871E+02  0.00000000000E+00 0. -1.
          2    1    1    2  502    0  0.14453270109E+00  0.20599355107E+02 -0.79061896152E+02  0.81701516165E+02  0.00000000000E+00 0.  1.
</event>
<event>
 4    1  0.7940509E+003  0.3451658E+02  0.7546771E-02  0.1383994E+00
          2   -1    0    0  502    0  0.00000000000E+00  0.00000000000E+00  0.35394915750E+02  0.35394915750E+02  0.00000000000E+00 0. -1.
          2   -1    0    0  501    0 -0.00000000000E+00 -0.00000000000E+00 -0.90470237774E+03  0.90470237774E+03  0.00000000000E+00 0.  1.
          2    1    1    2  501    0 -0.23515062607E+02  0.25267294051E+02  0.26567799875E+02  0.43557345055E+02  0.00000000000E+00 0. -1.
          2    1    1    2  502    0  0.23515062607E+02 -0.25267294051E+02 -0.89587526186E+03  0.89653994843E+03  0.00000000000E+00 0.  1.
</event>
<event>
 4    1  0.7940509E+003  0.2718857E+02  0.7546771E-02  0.1445723E+00
          2   -1    0    0  502    0  0.00000000000E+00  0.00000000000E+00  0.91655311347E+00  0.91655311347E+00  0.00000000000E+00 0.  1.
          2   -1    0    0  501    0 -0.00000000000E+00 -0.00000000000E+00 -0.95498443260E+03  0.95498443260E+03  0.00000000000E+00 0. -1.
          2    1    1    2  501    0 -0.16436075475E+02  0.21658116034E+02 -0.28858411423E+03  0.28986205263E+03  0.00000000000E+00 0.  1.
          2    1    1    2  502    0  0.16436075475E+02 -0.21658116034E+02 -0.66548376525E+03  0.66603893308E+03  0.00000000000E+00 0. -1.
</event>
<event>
 4    1  0.7940509E+003  0.2052797E+02  0.7546771E-02  0.1526112E+00
          2   -1    0    0  502    0  0.00000000000E+00  0.00000000000E+00  0.93059190600E+00  0.93059190600E+00  0.00000000000E+00 0. -1.
          2   -1    0    0  501    0 -0.00000000000E+00 -0.00000000000E+00 -0.46144984001E+03  0.46144984001E+03  0.00000000000E+00 0.  1.
          2    1    1    2  501    0  0.19883714195E+02 -0.51024974568E+01 -0.19865717481E+03  0.19971497358E+03  0.00000000000E+00 0. -1.
          2    1    1    2  502    0 -0.19883714195E+02  0.51024974568E+01 -0.26186207329E+03  0.26266545833E+03  0.00000000000E+00 0.  1.
</event>
<event>
 4    1  0.7940509E+003  0.2201711E+02  0.7546771E-02  0.1505223E+00
          2   -1    0    0  501    0  0.00000000000E+00  0.00000000000E+00  0.16246906105E+01  0.16246906105E+01  0.00000000000E+00 0. -1.
          2   -1    0    0  502    0 -0.00000000000E+00 -0.00000000000E+00 -0.59875239053E+03  0.59875239053E+03  0.00000000000E+00 0.  1.
          2    1    1    2  501    0 -0.55419579548E+01  0.21308212677E+02 -0.51118685674E+03  0.51166078190E+03  0.00000000000E+00 0.  1.
          2    1    1    2  502    0  0.55419579548E+01 -0.21308212677E+02 -0.85940843176E+02  0.88716299243E+02  0.00000000000E+00 0. -1.
</event>
<event>
 4    1  0.7940509E+003  0.3577427E+02  0.7546771E-02  0.1375200E+00
          2   -1    0    0  501    0  0.00000000000E+00  0.00000000000E+00  0.18937507380E+02  0.18937507380E+02  0.00000000000E+00 0. -1.
          2   -1    0    0  502    0 -0.00000000000E+00 -0.00000000000E+00 -0.15326195586E+03  0.15326195586E+03  0.00000000000E+00 0.  1.
          2    1    1    2  501    0 -0.58929570602E+01  0.35285570812E+02 -0.13153897811E+03  0.13631691462E+03  0.00000000000E+00 0.  1.
          2    1    1    2  502    0  0.58929570602E+01 -0.35285570812E+02 -0.27854703767E+01  0.35882548622E+02  0.00000000000E+00 0. -1.
</event>
<event>
 4    1  0.7940509E+003  0.4522467E+02  0.7546771E-02  0.1320320E+00
          2   -1    0    0  501    0  0.00000000000E+00  0.00000000000E+00  0.21635411645E+03  0.21635411645E+03  0.00000000000E+00 0.  1.
          2   -1    0    0  502    0 -0.00000000000E+00 -0.00000000000E+00 -0.14631698539E+03  0.14631698539E+03  0.00000000000E+00 0. -1.
          2    1    1    2  501    0  0.26194539385E+02 -0.36866200877E+02 -0.14036125584E+03  0.14746712448E+03  0.00000000000E+00 0. -1.
          2    1    1    2  502    0 -0.26194539385E+02  0.36866200877E+02  0.21039838691E+03  0.21520397736E+03  0.00000000000E+00 0.  1.
</event>
<event>
 4    1  0.7940509E+003  0.2051709E+02  0.7546771E-02  0.1526273E+00
          2   -1    0    0  502    0  0.00000000000E+00  0.00000000000E+00  0.77828757351E+01  0.77828757351E+01  0.00000000000E+00 0. -1.
          2   -1    0    0  501    0 -0.00000000000E+00 -0.00000000000E+00 -0.75323297914E+02  0.75323297914E+02  0.00000000000E+00 0.  1.
          2    1    1    2  501    0  0.17589444690E+02  0.10562305985E+02 -0.11706424925E+02  0.23621838556E+02  0.00000000000E+00 0. -1.
          2    1    1    2  502    0 -0.17589444690E+02 -0.10562305985E+02 -0.55833997254E+02  0.59484335094E+02  0.00000000000E+00 0.  1.
</event>
<event>
 4    1  0.7940509E+003  0.5669860E+02  0.7546771E-02  0.1271482E+00
          2   -1    0    0  502    0  0.00000000000E+00  0.00000000000E+00  0.17260194621E+04  0.17260194621E+04  0.00000000000E+00 0.  1.
          2   -1    0    0  501    0 -0.00000000000E+00 -0.00000000000E+00 -0.41472343778E+02  0.41472343778E+02  0.00000000000E+00 0. -1.
          2    1    1    2  501    0 -0.30098919102E+02 -0.48049832953E+02  0.17059471187E+04  0.17068890717E+04  0.00000000000E+00 0.  1.
          2    1    1    2  502    0  0.30098919102E+02  0.48049832953E+02 -0.21400000333E+02  0.60602734197E+02  0.00000000000E+00 0. -1.
</event>
<event>
 4    1  0.7940509E+003  0.5779563E+02  0.7546771E-02  0.1267512E+00
          2   -1    0    0  501    0  0.00000000000E+00  0.00000000000E+00  0.17348382359E+04  0.17348382359E+04  0.00000000000E+00 0. -1.
          2   -1    0    0  502    0 -0.00000000000E+00 -0.00000000000E+00 -0.13802247091E+04  0.13802247091E+04  0.00000000000E+00 0.  1.
          2    1    1    2  501    0  0.48024253121E+02 -0.32155970332E+02 -0.13791379340E+04  0.13803484257E+04  0.00000000000E+00 0.  1.
          2    1    1    2  502    0 -0.48024253121E+02  0.32155970332E+02  0.17337514608E+04  0.17347145192E+04  0.00000000000E+00 0. -1.
</event>
<event>
 4    1  0.7940509E+003  0.2284225E+02  0.7546771E-02  0.1494489E+00
          2   -1    0    0  501    0  0.00000000000E+00  0.00000000000E+00  0.39832646346E+02  0.39832646346E+02  0.00000000000E+00 0.  1.
          2   -1    0    0  502    0 -0.00000000000E+00 -0.00000000000E+00 -0.10997800389E+04  0.10997800389E+04  0.00000000000E+00 0.  1.
          2    1    1    2  501    0 -0.19582386946E+02 -0.11760040726E+02 -0.10963765128E+04  0.10966144383E+04  0.00000000000E+00 0.  1.
          2    1    1    2  502    0  0.19582386946E+02  0.11760040726E+02  0.36429120267E+02  0.42998246939E+02  0.00000000000E+00 0.  1.
</event>
<event>
 4    1  0.7940509E+003  0.2630385E+02  0.7546771E-02  0.1454729E+00
          2   -1    0    0  502    0  0.00000000000E+00  0.00000000000E+00  0.14688366605E+01  0.14688366605E+01  0.00000000000E+00 0. -1.
          2   -1    0    0  501    0 -0.00000000000E+00 -0.00000000000E+00 -0.76069839193E+03  0.76069839193E+03  0.00000000000E+00 0.  1.
          2    1    1    2  501    0 -0.23089078686E+02 -0.12601062440E+02 -0.14446140591E+03  0.14683661031E+03  0.00000000000E+00 0. -1.
          2    1    1    2  502    0  0.23089078686E+02  0.12601062440E+02 -0.61476814936E+03  0.61533061828E+03  0.00000000000E+00 0.  1.
</event>
<event>
 4    1  0.7940509E+003  0.2025302E+02  0.7546771E-02  0.1530202E+00
          2   -1    0    0  502    0  0.00000000000E+00  0.00000000000E+00  0.12373718428E+03  0.12373718428E+03  0.00000000000E+00 0. -1.
          2   -1    0    0  501    0 -0.00000000000E+00 -0.00000000000E+00 -0.41029923049E+03  0.41029923049E+03  0.00000000000E+00 0.  1.
          2    1    1    2  501    0 -0.16251926092E+02 -0.12085518193E+02  0.12265632428E+03  0.12431716992E+03  0.00000000000E+00 0. -1.
          2    1    1    2  502    0  0.16251926092E+02  0.12085518193E+02 -0.40921837049E+03  0.40971924485E+03  0.00000000000E+00 0.  1.
</event>
<event>
 4    1  0.7940509E+003  0.3415075E+02  0.7546771E-02  0.1386634E+00
          2   -1    0    0  501    0  0.00000000000E+00  0.00000000000E+00  0.14040844832E+03  0.14040844832E+03  0.00000000000E+00 0. -1.
          2   -1    0    0  502    0 -0.00000000000E+00 -0.00000000000E+00 -0.83147522089E+01  0.83147522089E+01  0.00000000000E+00 0.  1.
          2    1    1    2  501    0 -0.34122835740E+02 -0.13805955178E+01  0.63675239762E+02  0.72255173667E+02  0.00000000000E+00 0.  1.
          2    1    1    2  502    0  0.34122835740E+02  0.13805955178E+01  0.68418456349E+02  0.76468026862E+02  0.00000000000E+00 0. -1.
</event>
<event>
 4    1  0.7940509E+003  0.4151895E+02  0.7546771E-02  0.1339808E+00
          2   -1    0    0  501    0  0.00000000000E+00  0.00000000000E+00  0.24988973809E+02  0.24988973809E+02  0.00000000000E+00 0. -1.
          2   -1    0    0  502    0 -0.00000000000E+00 -0.00000000000E+00 -0.58683934761E+03  0.58683934761E+03  0.00000000000E+00 0. -1.
          2    1    1    2  501    0  0.27777590347E+02 -0.30858199557E+02 -0.56829720331E+03  0.56981184113E+03  0.00000000000E+00 0. -1.
          2    1    1    2  502    0 -0.27777590347E+02  0.30858199557E+02  0.64468295041E+01  0.42016480291E+02  0.00000000000E+00 0. -1.
</event>
<event>
 4    1  0.7940509E+003  0.5606666E+02  0.7546771E-02  0.1273816E+00
          2   -1    0    0  501    0  0.00000000000E+00  0.00000000000E+00  0.34033040296E+03  0.34033040296E+03  0.00000000000E+00 0. -1.
          2   -1    0    0  502    0 -0.00000000000E+00 -0.00000000000E+00 -0.37668784333E+02  0.37668784333E+02  0.00000000000E+00 0.  1.
          2    1    1    2  501    0 -0.16435180298E+02 -0.53603689559E+02 -0.12870170672E+02  0.57524881389E+02  0.00000000000E+00 0.  1.
          2    1    1    2  502    0  0.16435180298E+02  0.53603689559E+02  0.31553178930E+03  0.32047430590E+03  0.00000000000E+00 0. -1.
</event>
<event>
 4    1  0.7940509E+003  0.3448076E+02  0.7546771E-02  0.1384251E+00
          2   -1    0    0  501    0  0.00000000000E+00  0.00000000000E+00  0.80469195824E+02  0.80469195824E+02  0.00000000000E+00 0.  1.
          2   -1    0    0  502    0 -0.00000000000E+00 -0.00000000000E+00 -0.24314854788E+02  0.24314854788E+02  0.00000000000E+00 0.  1.
          2    1    1    2  501    0 -0.25598209492E+02 -0.23100966459E+02 -0.47401323087E+01  0.34805054731E+02  0.00000000000E+00 0.  1.
          2    1    1    2  502    0  0.25598209492E+02  0.23100966459E+02  0.60894473345E+02  0.69978995881E+02  0.00000000000E+00 0.  1.
</event>
<event>
 4    1  0.7940509E+003  0.2204406E+02  0.7546771E-02  0.1504864E+00
          2   -1    0    0  501    0  0.00000000000E+00  0.00000000000E+00  0.13547863081E+04  0.13547863081E+04  0.00000000000E+00 0. -1.
          2   -1    0    0  502    0 -0.00000000000E+00 -0.00000000000E+00 -0.26568294690E+01  0.26568294690E+01  0.00000000000E+00 0. -1.
          2    1    1    2  501    0  0.22038865092E+02 -0.47838064592E+00  0.44818867417E+02  0.49946684566E+02  0.00000000000E+00 0. -1.
          2    1    1    2  502    0 -0.22038865092E+02  0.47838064592E+00  0.13073106112E+04  0.13074964530E+04  0.00000000000E+00 0. -1.
</event>
<event>
 4    1  0.7940509E+003  0.3396141E+02  0.7546771E-02  0.1388015E+00
          2   -1    0    0  502    0  0.00000000000E+00  0.00000000000E+00  0.22680511602E+04  0.22680511602E+04  0.00000000000E+00 0. -1.
          2   -1    0    0  501    0 -0.00000000000E+00 -0.00000000000E+00 -0.19674702727E+02  0.19674702727E+02  0.00000000000E+00 0. -1.
          2    1    1    2  501    0  0.23577242189E+02  0.24443624136E+02  0.22531716651E+04  0.22534275958E+04  0.00000000000E+00 0. -1.
          2    1    1    2  502    0 -0.23577242189E+02 -0.24443624136E+02 -0.47952076453E+01  0.34298267106E+02  0.00000000000E+00 0. -1.
</event>
<event>
 4    1  0.7940509E+003  0.3810728E+02  0.7546771E-02  0.1359949E+00
          2   -1    0    0  502    0  0.00000000000E+00  0.00000000000E+00  0.47697907445E+03  0.47697907445E+03  0.00000000000E+00 0. -1.
          2   -1    0    0  501    0 -0.00000000000E+00 -0.00000000000E+00 -0.85807605602E+01  0.85807605602E+01  0.00000000000E+00 0. -1.
          2    1    1    2  501    0  0.35179142576E+02 -0.14648979450E+02  0.42920964719E+03  0.43089799943E+03  0.00000000000E+00 0. -1.
          2    1    1    2  502    0 -0.35179142576E+02  0.14648979450E+02  0.39188666699E+02  0.54661835580E+02  0.00000000000E+00 0. -1.
</event>
<event>
 4    1  0.7940509E+003  0.3403441E+02  0.7546771E-02  0.1387482E+00
          2   -1    0    0  502    0  0.00000000000E+00  0.00000000000E+00  0.93999562984E+01  0.93999562984E+01  0.00000000000E+00 0.  1.
          2   -1    0    0  501    0 -0.00000000000E+00 -0.00000000000E+00 -0.12536543048E+03  0.12536543048E+03  0.00000000000E+00 0.  1.
          2    1    1    2  501    0 -0.17521381693E+02  0.29177769883E+02 -0.49185014507E+02  0.59812262320E+02  0.00000000000E+00 0.  1.
          2    1    1    2  502    0  0.17521381693E+02 -0.29177769883E+02 -0.66780459674E+02  0.74953124458E+02  0.00000000000E+00 0.  1.
</event>
<event>
 4    1  0.7940509E+003  0.2718601E+02  0.7546771E-02  0.1445749E+00
          2   -1    0    0  502    0  0.00000000000E+00  0.00000000000E+00  0.33079753737E+03  0.33079753737E+03  0.00000000000E+00 0.  1.
          2   -1    0    0  501    0 -0.00000000000E+00 -0.00000000000E+00 -0.14260890649E+03  0.14260890649E+03  0.00000000000E+00 0.  1.
          2    1    1    2  501    0  0.73562139908E+01  0.26171840907E+02  0.32893601915E+03  0.33005754625E+03  0.00000000000E+00 0.  1.
          2    1    1    2  502    0 -0.73562139908E+01 -0.26171840907E+02 -0.14074738827E+03  0.14334889761E+03  0.00000000000E+00 0.  1.
</event>
<event>
 4    1  0.7940509E+003  0.5917341E+02  0.7546771E-02  0.1262667E+00
          2   -1    0    0  501    0  0.00000000000E+00  0.00000000000E+00  0.11736216211E+03  0.11736216211E+03  0.00000000000E+00 0. -1.
          2   -1    0    0  502    0 -0.00000000000E+00 -0.00000000000E+00 -0.47719487080E+02  0.47719487080E+02  0.00000000000E+00 0.  1.
          2    1    1    2  501    0 -0.41147747555E+02  0.42524759992E+02 -0.15709903893E+02  0.61223307829E+02  0.00000000000E+00 0.  1.
          2    1    1    2  502    0  0.41147747555E+02 -0.42524759992E+02  0.85352578920E+02  0.10385834136E+03  0.00000000000E+00 0. -1.
</event>
<event>
 4    1  0.7940509E+003  0.2711524E+02  0.7546771E-02  0.1446454E+00
          2   -1    0    0  501    0  0.00000000000E+00  0.00000000000E+00  0.15668290055E+01  0.15668290055E+01  0.00000000000E+00 0.  1.
          2   -1    0    0  502    0 -0.00000000000E+00 -0.00000000000E+00 -0.78980332445E+03  0.78980332445E+03  0.00000000000E+00 0. -1.
          2    1    1    2  501    0 -0.27023455101E+02 -0.22291772450E+01 -0.64619891337E+03  0.64676755639E+03  0.00000000000E+00 0. -1.
          2    1    1    2  502    0  0.27023455101E+02  0.22291772450E+01 -0.14203758207E+03  0.14460259706E+03  0.00000000000E+00 0.  1.
</event>
<event>
 4    1  0.7940509E+003  0.2899589E+02  0.7546771E-02  0.1428527E+00
          2   -1    0    0  502    0  0.00000000000E+00  0.00000000000E+00  0.37666734126E+01  0.37666734126E+01  0.00000000000E+00 0.  1.
          2   -1    0    0  501    0 -0.00000000000E+00 -0.00000000000E+00 -0.26668086365E+03  0.26668086365E+03  0.00000000000E+00 0.  1.
          2    1    1    2  501    0  0.19918432075E+02  0.21071729076E+02 -0.18605209728E+03  0.18829802071E+03  0.00000000000E+00 0.  1.
          2    1    1    2  502    0 -0.19918432075E+02 -0.21071729076E+02 -0.76862092967E+02  0.82149516358E+02  0.00000000000E+00 0.  1.
</event>
<event>
 4    1  0.7940509E+003  0.2407115E+02  0.7546771E-02  0.1479469E+00
          2   -1    0    0  501    0  0.00000000000E+00  0.00000000000E+00  0.63041286602E+03  0.63041286602E+03  0.00000000000E+00 0.  1.
          2   -1    0    0  502    0 -0.00000000000E+00 -0.00000000000E+00 -0.78868779967E+02  0.78868779967E+02  0.00000000000E+00 0. -1.
          2    1    1    2  501    0 -0.22485710155E+02  0.85914576689E+01 -0.76796286836E+02  0.80480370140E+02  0.00000000000E+00 0. -1.
          2    1    1    2  502    0  0.22485710155E+02 -0.85914576689E+01  0.62834037289E+03  0.62880127585E+03  0.00000000000E+00 0.  1.
</event>
<event>
 4    1  0.7940509E+003  0.4859550E+02  0.7546771E-02  0.1304379E+00
          2   -1    0    0  502    0  0.00000000000E+00  0.00000000000E+00  0.57509226628E+03  0.57509226628E+03  0.00000000000E+00 0.  1.
          2   -1    0    0  501    0 -0.00000000000E+00 -0.00000000000E+00 -0.65529431383E+02  0.65529431383E+02  0.00000000000E+00 0. -1.
          2    1    1    2  501    0 -0.39064487032E+02  0.28904815265E+02  0.56489393407E+03  0.56698031645E+03  0.00000000000E+00 0.  1.
          2    1    1    2  502    0  0.39064487032E+02 -0.28904815265E+02 -0.55331099167E+02  0.73641381218E+02  0.00000000000E+00 0. -1.
</event>
<event>
 4    1  0.7940509E+003  0.2024169E+02  0.7546771E-02  0.1530373E+00
          2   -1    0    0  501    0  0.00000000000E+00  0.00000000000E+00  0.38550020516E+03  0.38550020516E+03  0.00000000000E+00 0.  1.
          2   -1    0    0  502    0 -0.00000000000E+00 -0.00000000000E+00 -0.78644034438E+01  0.78644034438E+01  0.00000000000E+00 0.  1.
          2    1    1    2  501    0 -0.47171416350E-01 -0.20241634847E+02  0.59082200128E+01  0.21086324244E+02  0.00000000000E+00 0.  1.
          2    1    1    2  502    0  0.47171416350E-01  0.20241634847E+02  0.37172758170E+03  0.37227828436E+03  0.00000000000E+00 0.  1.
</event>
<event>
 4    1  0.7940509E+003  0.2550809E+02  0.7546771E-02  0.1463199E+00
          2   -1    0    0  502    0  0.00000000000E+00  0.00000000000E+00  0.50504719646E+01  0.50504719646E+01  0.00000000000E+00 0. -1.
          2   -1    0    0  501    0 -0.00000000000E+00 -0.00000000000E+00 -0.19609974814E+03  0.19609974814E+03  0.00000000000E+00 0.  1.
          2    1    1    2  501    0  0.61437010146E+01 -0.24757169355E+02 -0.36619200828E+02  0.44627663684E+02  0.00000000000E+00 0. -1.
          2    1    1    2  502    0 -0.61437010146E+01  0.24757169355E+02 -0.15443007535E+03  0.15652255642E+03  0.00000000000E+00 0.  1.
</event>
<event>
 4    1  0.7940509E+003  0.4143390E+02  0.7546771E-02  0.1340282E+00
          2   -1    0    0  502    0  0.00000000000E+00  0.00000000000E+00  0.72142906036E+03  0.72142906036E+03  0.00000000000E+00 0.  1.
          2   -1    0    0  501    0 -0.00000000000E+00 -0.00000000000E+00 -0.95563109771E+02  0.95563109771E+02  0.00000000000E+00 0. -1.
          2    1    1    2  501    0  0.99611295983E+01 -0.40218703442E+02  0.71631088783E+03  0.71750822729E+03  0.00000000000E+00 0.  1.
          2    1    1    2  502    0 -0.99611295983E+01  0.40218703442E+02 -0.90444937242E+02  0.99483942836E+02  0.00000000000E+00 0. -1.
</event>
<event>
 4    1  0.7940509E+003  0.2171721E+02  0.7546771E-02  0.1509267E+00
          2   -1    0    0  501    0  0.00000000000E+00  0.00000000000E+00  0.91934668646E+03  0.91934668646E+03  0.00000000000E+00 0. -1.
          2   -1    0    0  502    0 -0.00000000000E+00 -0.00000000000E+00 -0.98619568508E+01  0.98619568508E+01  0.00000000000E+00 0.  1.
          2    1    1    2  501    0  0.20589914569E+02  0.69059820189E+01  0.23836488640E+01  0.21847630340E+02  0.00000000000E+00 0.  1.
          2    1    1    2  502    0 -0.20589914569E+02 -0.69059820189E+01  0.90710108074E+03  0.90736101297E+03  0.00000000000E+00 0. -1.
</event>
<event>
 4    1  0.7940509E+003  0.2154303E+02  0.7546771E-02  0.1511651E+00
          2   -1    0    0  501    0  0.00000000000E+00  0.00000000000E+00  0.17309162990E+03  0.17309162990E+03  0.00000000000E+00 0.  1.
          2   -1    0    0  502    0 -0.00000000000E+00 -0.00000000000E+00 -0.42850100357E+01  0.42850100357E+01  0.00000000000E+00 0. -1.
          2    1    1    2  501    0 -0.21541682130E+02  0.24095914930E+00  0.30145776673E+02  0.37052260141E+02  0.00000000000E+00 0. -1.
          2    1    1    2  502    0  0.21541682130E+02 -0.24095914930E+00  0.13866084319E+03  0.14032437979E+03  0.00000000000E+00 0.  1.
</event>
<event>
 4    1  0.7940509E+003  0.5930616E+02  0.7546771E-02  0.1262208E+00
          2   -1    0    0  502    0  0.00000000000E+00  0.00000000000E+00  0.10992197384E+03  0.10992197384E+03  0.00000000000E+00 0.  1.
          2   -1    0    0  501    0 -0.00000000000E+00 -0.00000000000E+00 -0.12455829454E+03  0.12455829454E+03  0.00000000000E+00 0. -1.
          2    1    1    2  501    0  0.36983890004E+02 -0.46361757111E+02  0.93747514876E+02  0.11093158787E+03  0.00000000000E+00 0.  1.
          2    1    1    2  502    0 -0.36983890004E+02  0.46361757111E+02 -0.10838383558E+03  0.12354868051E+03  0.00000000000E+00 0. -1.
</event>
<event>
 4    1  0.7940509E+003  0.3554199E+02  0.7546771E-02  0.1376792E+00
          2   -1    0    0  501    0  0.00000000000E+00  0.00000000000E+00  0.82220962135E+02  0.82220962135E+02  0.00000000000E+00 0. -1.
          2   -1    0    0  502    0 -0.00000000000E+00 -0.00000000000E+00 -0.12546762514E+04  0.12546762514E+04  0.00000000000E+00 0. -1.
          2    1    1    2  501    0  0.35540304179E+02 -0.34635867882E+00 -0.12505709695E+04  0.12510759302E+04  0.00000000000E+00 0. -1.
          2    1    1    2  502    0 -0.35540304179E+02  0.34635867882E+00  0.78115680241E+02  0.85821283403E+02  0.00000000000E+00 0. -1.
</event>
<event>
 4    1  0.7940509E+003  0.6071930E+02  0.7546771E-02  0.1257408E+00
          2   -1    0    0  501    0  0.00000000000E+00  0.00000000000E+00  0.62533009666E+03  0.62533009666E+03  0.00000000000E+00 0.  1.
          2   -1    0    0  502    0 -0.00000000000E+00 -0.00000000000E+00 -0.13876676323E+04  0.13876676323E+04  0.00000000000E+00 0.  1.
          2    1    1    2  501    0 -0.54697607395E+02  0.26362950389E+02 -0.13855271874E+04  0.13868570295E+04  0.00000000000E+00 0.  1.
          2    1    1    2  502    0  0.54697607395E+02 -0.26362950389E+02  0.62318965176E+03  0.62614069942E+03  0.00000000000E+00 0.  1.
</event>
<event>
 4    1  0.7940509E+003  0.3269496E+02  0.7546771E-02  0.1397535E+00
          2   -1    0    0  502    0  0.00000000000E+00  0.00000000000E+00  0.71053455573E+01  0.71053455573E+01  0.00000000000E+00 0.  1.
          2   -1    0    0  501    0 -0.00000000000E+00 -0.00000000000E+00 -0.59722984558E+03  0.59722984558E+03  0.00000000000E+00 0. -1.
          2    1    1    2  501    0 -0.24897707383E+02  0.21191141429E+02 -0.33709793041E+02  0.46960733117E+02  0.00000000000E+00 0.  1.
          2    1    1    2  502    0  0.24897707383E+02 -0.21191141429E+02 -0.55641470699E+03  0.55737445802E+03  0.00000000000E+00 0. -1.
</event>
<event>
 4    1  0.7940509E+003  0.2453480E+02  0.7546771E-02  0.1474075E+00
          2   -1    0    0  501    0  0.00000000000E+00  0.00000000000E+00  0.65192821210E+03  0.65192821210E+03  0.00000000000E+00 0.  1.
          2   -1    0    0  502    0 -0.00000000000E+00 -0.00000000000E+00 -0.27365610181E+01  0.27365610181E+01  0.00000000000E+00 0.  1.
          2    1    1    2  501    0  0.15486688629E+02 -0.19029419062E+02  0.58148799346E+02  0.63112908188E+02  0.00000000000E+00 0.  1.
          2    1    1    2  502    0 -0.15486688629E+02  0.19029419062E+02  0.59104285173E+03  0.59155186493E+03  0.00000000000E+00 0.  1.
</event>
<event>
 4    1  0.7940509E+003  0.2336965E+02  0.7546771E-02  0.1487908E+00
          2   -1    0    0  501    0  0.00000000000E+00  0.00000000000E+00  0.38649590443E+03  0.38649590443E+03  0.00000000000E+00 0. -1.
          2   -1    0    0  502    0 -0.00000000000E+00 -0.00000000000E+00 -0.15961455857E+03  0.15961455857E+03  0.00000000000E+00 0.  1.
          2    1    1    2  501    0 -0.13542650311E+01  0.23330382281E+02 -0.15840320169E+03  0.16011781623E+03  0.00000000000E+00 0.  1.
          2    1    1    2  502    0  0.13542650311E+01 -0.23330382281E+02  0.38528454755E+03  0.38599264676E+03  0.00000000000E+00 0. -1.
</event>
<event>
 4    1  0.7940509E+003  0.2028499E+02  0.7546771E-02  0.1529723E+00
          2   -1    0    0  502    0  0.00000000000E+00  0.00000000000E+00  0.91728802082E+03  0.91728802082E+03  0.00000000000E+00 0.  1.
          2   -1    0    0  501    0 -0.00000000000E+00 -0.00000000000E+00 -0.48639119253E+00  0.48639119253E+00  0.00000000000E+00 0. -1.
          2    1    1    2  501    0  0.18901317740E+02 -0.73634960803E+01  0.33046288236E+03  0.33108487960E+03  0.00000000000E+00 0. -1.
          2    1    1    2  502    0 -0.18901317740E+02  0.73634960803E+01  0.58633874727E+03  0.58668953241E+03  0.00000000000E+00 0.  1.
</event>
<event>
 4    1  0.7940509E+003  0.4244651E+02  0.7546771E-02  0.1334716E+00
          2   -1    0    0  501    0  0.00000000000E+00  0.00000000000E+00  0.21765925931E+03  0.21765925931E+03  0.00000000000E+00 0.  1.
          2   -1    0    0  502    0 -0.00000000000E+00 -0.00000000000E+00 -0.89683081416E+02  0.89683081416E+02  0.00000000000E+00 0.  1.
          2    1    1    2  501    0  0.11962370674E+02  0.40726008130E+02 -0.82419585670E+02  0.92707573328E+02  0.00000000000E+00 0.  1.
          2    1    1    2  502    0 -0.11962370674E+02 -0.40726008130E+02  0.21039576356E+03  0.21463476740E+03  0.00000000000E+00 0.  1.
</event>
<event>
 4    1  0.7940509E+003  0.2131847E+02  0.7546771E-02  0.1514766E+00
          2   -1    0    0  502    0  0.00000000000E+00  0.00000000000E+00  0.15028494029E+03  0.15028494029E+03  0.00000000000E+00 0.  1.
          2   -1    0    0  501    0 -0.00000000000E+00 -0.00000000000E+00 -0.19615598472E+03  0.19615598472E+03  0.00000000000E+00 0. -1.
          2    1    1    2  501    0 -0.49917226229E+01 -0.20725828101E+02  0.14894449857E+03  0.15046242354E+03  0.00000000000E+00 0.  1.
          2    1    1    2  502    0  0.49917226229E+01  0.20725828101E+02 -0.19481554299E+03  0.19597850146E+03  0.00000000000E+00 0. -1.
</event>
<event>
 4    1  0.7940509E+003  0.2186820E+02  0.7546771E-02  0.1507221E+00
          2   -1    0    0  502    0  0.00000000000E+00  0.00000000000E+00  0.44182009553E+01  0.44182009553E+01  0.00000000000E+00 0. -1.
          2   -1    0    0  501    0 -0.00000000000E+00 -0.00000000000E+00 -0.17748243317E+03  0.17748243317E+03  0.00000000000E+00 0.  1.
          2    1    1    2  501    0 -0.16227835002E+02 -0.14658637961E+02 -0.29722976764E+02  0.36900862367E+02  0.00000000000E+00 0. -1.
          2    1    1    2  502    0  0.16227835002E+02  0.14658637961E+02 -0.14334125545E+03  0.14499977176E+03  0.00000000000E+00 0.  1.
</event>
<event>
 4    1  0.7940509E+003  0.2326890E+02  0.7546771E-02  0.1489149E+00
          2   -1    0    0  501    0  0.00000000000E+00  0.00000000000E+00  0.39262854620E+02  0.39262854620E+02  0.00000000000E+00 0.  1.
          2   -1    0    0  502    0 -0.00000000000E+00 -0.00000000000E+00 -0.36670729202E+03  0.36670729202E+03  0.00000000000E+00 0. -1.
          2    1    1    2  501    0  0.22987033321E+02  0.36108290665E+01 -0.36285405053E+03  0.36359937263E+03  0.00000000000E+00 0. -1.
          2    1    1    2  502    0 -0.22987033321E+02 -0.36108290665E+01  0.35409613137E+02  0.42370774007E+02  0.00000000000E+00 0.  1.
</event>
<event>
 4    1  0.7940509E+003  0.2092407E+02  0.7546771E-02  0.1520352E+00
          2   -1    0    0  501    0  0.00000000000E+00  0.00000000000E+00  0.91795371517E+03  0.91795371517E+03  0.00000000000E+00 0. -1.
          2   -1    0    0  502    0 -0.00000000000E+00 -0.00000000000E+00 -0.64129575984E+02  0.64129575984E+02  0.00000000000E+00 0.  1.
          2    1    1    2  501    0 -0.22089804778E+00  0.20922902708E+02 -0.62300165314E+02  0.65720067345E+02  0.00000000000E+00 0.  1.
          2    1    1    2  502    0  0.22089804778E+00 -0.20922902708E+02  0.91612430450E+03  0.91636322381E+03  0.00000000000E+00 0. -1.
</event>
<event>
 4    1  0.7940509E+003  0.3220210E+02  0.7546771E-02  0.1401378E+00
          2   -1    0    0  502    0  0.00000000000E+00  0.00000000000E+00  0.51126264446E+03  0.51126264446E+03  0.00000000000E+00 0.  1.
          2   -1    0    0  501    0 -0.00000000000E+00 -0.00000000000E+00 -0.66940575083E+01  0.66940575083E+01  0.00000000000E+00 0.  1.
          2    1    1    2  501    0  0.27752624402E+02  0.16333010755E+02  0.46849715198E+03  0.46960255196E+03  0.00000000000E+00 0.  1.
          2    1    1    2  502    0 -0.27752624402E+02 -0.16333010755E+02  0.36071434980E+02  0.48354150009E+02  0.00000000000E+00 0.  1.
</event>
<event>
 4    1  0.7940509E+003  0.2170400E+02  0.7546771E-02  0.1509446E+00
          2   -1    0    0  502    0  0.00000000000E+00  0.00000000000E+00  0.21877773684E+01  0.21877773684E+01  0.00000000000E+00 0.  1.
          2   -1    0    0  501    0 -0.00000000000E+00 -0.00000000000E+00 -0.10270497234E+04  0.10270497234E+04  0.00000000000E+00 0. -1.
          2    1    1    2  501    0 -0.53189912177E+01 -0.21042145268E+02 -0.54925117905E+02  0.59057870957E+02  0.00000000000E+00 0.  1.
          2    1    1    2  502    0  0.53189912177E+01  0.21042145268E+02 -0.96993682813E+03  0.97017962981E+03  0.00000000000E+00 0. -1.
</event>
<event>
 4    1  0.7940509E+003  0.2003114E+02  0.7546771E-02  0.1533560E+00
          2   -1    0    0  502    0  0.00000000000E+00  0.00000000000E+00  0.26591433965E+03  0.26591433965E+03  0.00000000000E+00 0.  1.
          2   -1    0    0  501    0 -0.00000000000E+00 -0.00000000000E+00 -0.29887774297E+02  0.29887774297E+02  0.00000000000E+00 0.  1.
          2    1    1    2  501    0 -0.17653054583E+02  0.94665807348E+01  0.26213247926E+03  0.26289671579E+03  0.00000000000E+00 0.  1.
          2    1    1    2  502    0  0.17653054583E+02 -0.94665807348E+01 -0.26105913910E+02  0.32905398159E+02  0.00000000000E+00 0.  1.
</event>
<event>
 4    1  0.7940509E+003  0.3921286E+02  0.7546771E-02  0.1353161E+00
          2   -1    0    0  502    0  0.00000000000E+00  0.00000000000E+00  0.61673199364E+03  0.61673199364E+03  0.00000000000E+00 0. -1.
          2   -1    0    0  501    0 -0.00000000000E+00 -0.00000000000E+00 -0.50920631709E+03  0.50920631709E+03  0.00000000000E+00 0. -1.
          2    1    1    2  501    0 -0.38039930375E+02 -0.95190292524E+01  0.61535207361E+03  0.61660021303E+03  0.00000000000E+00 0. -1.
          2    1    1    2  502    0  0.38039930375E+02  0.95190292524E+01 -0.50782639706E+03  0.50933809770E+03  0.00000000000E+00 0. -1.
</event>
<event>
 4    1  0.7940509E+003  0.2757862E+02  0.7546771E-02  0.1441881E+00
          2   -1    0    0  502    0  0.00000000000E+00  0.00000000000E+00  0.78684997524E+00  0.78684997524E+00  0.00000000000E+00 0. -1.
          2   -1    0    0  501    0 -0.00000000000E+00 -0.00000000000E+00 -0.10324606802E+04  0.10324606802E+04  0.00000000000E+00 0. -1.
          2    1    1    2  501    0 -0.17104551184E+02  0.21633650811E+02 -0.38536914658E+03  0.38635470704E+03  0.00000000000E+00 0. -1.
          2    1    1    2  502    0  0.17104551184E+02 -0.21633650811E+02 -0.64630468367E+03  0.64689282316E+03  0.00000000000E+00 0. -1.
</event>
<event>
 4    1  0.7940509E+003  0.4010304E+02  0.7546771E-02  0.1347883E+00
          2   -1    0    0  502    0  0.00000000000E+00  0.00000000000E+00  0.11110194266E+04  0.11110194266E+04  0.00000000000E+00 0.  1.
          2   -1    0    0  501    0 -0.00000000000E+00 -0.00000000000E+00 -0.35115436375E+01  0.35115436375E+01  0.00000000000E+00 0.  1.
          2    1    1    2  501    0  0.15733455788E+01 -0.40072162972E+02  0.98098963151E+03  0.98180899913E+03  0.00000000000E+00 0.  1.
          2    1    1    2  502    0 -0.15733455788E+01  0.40072162972E+02  0.12651825146E+03  0.13272197111E+03  0.00000000000E+00 0.  1.
</event>
<event>
 4    1  0.7940509E+003  0.3280553E+02  0.7546771E-02  0.1396684E+00
          2   -1    0    0  501    0  0.00000000000E+00  0.00000000000E+00  0.11172698709E+03  0.11172698709E+03  0.00000000000E+00 0. -1.
          2   -1    0    0  502    0 -0.00000000000E+00 -0.00000000000E+00 -0.10186210519E+03  0.10186210519E+03  0.00000000000E+00 0. -1.
          2    1    1    2  501    0  0.93054302428E+01  0.31458093894E+02 -0.96687299995E+02  0.10210111010E+03  0.00000000000E+00 0. -1.
          2    1    1    2  502    0 -0.93054302428E+01 -0.31458093894E+02  0.10655218190E+03  0.11148798218E+03  0.00000000000E+00 0. -1.
</event>
<event>
 4    1  0.7940509E+003  0.3396159E+02  0.7546771E-02  0.1388014E+00
          2   -1    0    0  501    0  0.00000000000E+00  0.00000000000E+00  0.14029885251E+04  0.14029885251E+04  0.00000000000E+00 0. -1.
          2   -1    0    0  502    0 -0.00000000000E+00 -0.00000000000E+00 -0.47155350811E+01  0.47155350811E+01  0.00000000000E+00 0. -1.
          2    1    1    2  501    0  0.27379714568E+02 -0.20093308200E+02  0.59574531609E+02  0.68574883308E+02  0.00000000000E+00 0. -1.
          2    1    1    2  502    0 -0.27379714568E+02  0.20093308200E+02  0.13386984584E+04  0.13391291768E+04  0.00000000000E+00 0. -1.
</event>
<event>
 4    1  0.7940509E+003  0.2470312E+02  0.7546771E-02  0.1472152E+00
          2   -1    0    0  502    0  0.00000000000E+00  0.00000000000E+00  0.10788041600E+04  0.10788041600E+04  0.00000000000E+00 0.  1.
          2   -1    0    0  501    0 -0.00000000000E+00 -0.00000000000E+00 -0.56567771967E+00  0.56567771967E+00  0.00000000000E+00 0. -1.
          2    1    1    2  501    0 -0.18506454715E+02  0.16363234768E+02  0.53681144460E+03  0.53737954127E+03  0.00000000000E+00 0. -1.
          2    1    1    2  502    0  0.18506454715E+02 -0.16363234768E+02  0.54142703768E+03  0.54199029646E+03  0.00000000000E+00 0.  1.
</event>
<event>
 4    1  0.7940509E+003  0.3622306E+02  0.7546771E-02  0.1372163E+00
          2   -1    0    0  501    0  0.00000000000E+00  0.00000000000E+00  0.17899791149E+03  0.17899791149E+03  0.00000000000E+00 0. -1.
          2   -1    0    0  502    0 -0.00000000000E+00 -0.00000000000E+00 -0.96185226846E+01  0.96185226846E+01  0.00000000000E+00 0.  1.
          2    1    1    2  501    0  0.28286591376E+02 -0.22626947769E+02  0.38691198729E+02  0.53001121461E+02  0.00000000000E+00 0.  1.
          2    1    1    2  502    0 -0.28286591376E+02  0.22626947769E+02  0.13068819007E+03  0.13561531271E+03  0.00000000000E+00 0. -1.
</event>
<event>
 4    1  0.7940509E+003  0.2342243E+02  0.7546771E-02  0.1487261E+00
          2   -1    0    0  502    0  0.00000000000E+00  0.00000000000E+00  0.11466009272E+01  0.11466009272E+01  0.00000000000E+00 0. -1.
          2   -1    0    0  501    0 -0.00000000000E+00 -0.00000000000E+00 -0.87623133946E+03  0.87623133946E+03  0.00000000000E+00 0. -1.
          2    1    1    2  501    0 -0.11784502789E+02  0.20241930749E+02 -0.14197229832E+03  0.14389143045E+03  0.00000000000E+00 0. -1.
          2    1    1    2  502    0  0.11784502789E+02 -0.20241930749E+02 -0.73311244022E+03  0.73348650994E+03  0.00000000000E+00 0. -1.
</event>
<event>
 4    1  0.7940509E+003  0.4826063E+02  0.7546771E-02  0.1305895E+00
          2   -1    0    0  501    0  0.00000000000E+00  0.00000000000E+00  0.32746456178E+02  0.32746456178E+02  0.00000000000E+00 0. -1.
          2   -1    0    0  502    0 -0.00000000000E+00 -0.00000000000E+00 -0.32323966058E+03  0.32323966058E+03  0.00000000000E+00 0. -1.
          2    1    1    2  501    0  0.22469081574E+02  0.42710987459E+02 -0.30244202277E+03  0.30626828960E+03  0.00000000000E+00 0. -1.
          2    1    1    2  502    0 -0.22469081574E+02 -0.42710987459E+02  0.11948818373E+02  0.49717827155E+02  0.00000000000E+00 0. -1.
</event>
<event>
 4    1  0.7940509E+003  0.4362951E+02  0.7546771E-02  0.1328436E+00
          2   -1    0    0  501    0  0.00000000000E+00  0.00000000000E+00  0.51716916020E+01  0.51716916020E+01  0.00000000000E+00 0. -1.
          2   -1    0    0  502    0 -0.00000000000E+00 -0.00000000000E+00 -0.16590699761E+04  0.16590699761E+04  0.00000000000E+00 0.  1.
          2    1    1    2  501    0 -0.11455426662E+02 -0.42098784099E+02 -0.15609853610E+04  0.15615949640E+04  0.00000000000E+00 0.  1.
          2    1    1    2  502    0  0.11455426662E+02  0.42098784099E+02 -0.92912923526E+02  0.10264670370E+03  0.00000000000E+00 0. -1.
</event>
<event>
 4    1  0.7940509E+003  0.2369765E+02  0.7546771E-02  0.1483919E+00
          2   -1    0    0  502    0  0.00000000000E+00  0.00000000000E+00  0.52039971786E+01  0.52039971786E+01  0.00000000000E+00 0. -1.
          2   -1    0    0  501    0 -0.00000000000E+00 -0.00000000000E+00 -0.15312692504E+03  0.15312692504E+03  0.00000000000E+00 0.  1.
          2    1    1    2  501    0 -0.16145131443E+02 -0.17346850181E+02 -0.30943831840E+02  0.38975623272E+02  0.00000000000E+00 0. -1.
          2    1    1    2  502    0  0.16145131443E+02  0.17346850181E+02 -0.11697909602E+03  0.11935529895E+03  0.00000000000E+00 0.  1.
</event>
<event>
 4    1  0.7940509E+003  0.3731031E+02  0.7546771E-02  0.1365011E+00
          2   -1    0    0  502    0  0.00000000000E+00  0.00000000000E+00  0.16596334670E+04  0.16596334670E+04  0.00000000000E+00 0. -1.
          2   -1    0    0  501    0 -0.00000000000E+00 -0.00000000000E+00 -0.65300136783E+01  0.65300136783E+01  0.00000000000E+00 0. -1.
          2    1    1    2  501    0  0.22750211153E+02 -0.29571733442E+02  0.16042908731E+04  0.16047246695E+04  0.00000000000E+00 0. -1.
          2    1    1    2  502    0 -0.22750211153E+02  0.29571733442E+02  0.48812580235E+02  0.61438811150E+02  0.00000000000E+00 0. -1.
</event>
<event>
 4    1  0.7940509E+003  0.2040096E+02  0.7546771E-02  0.1527992E+00
          2   -1    0    0  501    0  0.00000000000E+00  0.00000000000E+00  0.70909548496E+03  0.70909548496E+03  0.00000000000E+00 0.  1.
          2   -1    0    0  502    0 -0.00000000000E+00 -0.00000000000E+00 -0.60991788980E+00  0.60991788980E+00  0.00000000000E+00 0. -1.
          2    1    1    2  501    0  0.10301375539E+02 -0.17609115218E+02  0.28537271042E+03  0.28610100163E+03  0.00000000000E+00 0. -1.
          2    1    1    2  502    0 -0.10301375539E+02  0.17609115218E+02  0.42311285665E+03  0.42360440122E+03  0.00000000000E+00 0.  1.
</event>
<event>
 4    1  0.7940509E+003  0.2223093E+02  0.7546771E-02  0.1502388E+00
          2   -1    0    0  501    0  0.00000000000E+00  0.00000000000E+00  0.11056053850E+04  0.11056053850E+04  0.00000000000E+00 0.  1.
          2   -1    0    0  502    0 -0.00000000000E+00 -0.00000000000E+00 -0.14269386815E+02  0.14269386815E+02  0.00000000000E+00 0.  1.
          2    1    1    2  501    0 -0.47126236545E+01 -0.21725686048E+02 -0.54292056968E+01  0.22884285667E+02  0.00000000000E+00 0.  1.
          2    1    1    2  502    0  0.47126236545E+01  0.21725686048E+02  0.10967652038E+04  0.10969904861E+04  0.00000000000E+00 0.  1.
</event>
<event>
 4    1  0.7940509E+003  0.3462118E+02  0.7546771E-02  0.1383246E+00
          2   -1    0    0  501    0  0.00000000000E+00  0.00000000000E+00  0.19015007699E+03  0.19015007699E+03  0.00000000000E+00 0. -1.
          2   -1    0    0  502    0 -0.00000000000E+00 -0.00000000000E+00 -0.13948715982E+02  0.13948715982E+02  0.00000000000E+00 0.  1.
          2    1    1    2  501    0 -0.62694281586E+01  0.34048795646E+02  0.12550425702E+02  0.36825798018E+02  0.00000000000E+00 0.  1.
          2    1    1    2  502    0  0.62694281586E+01 -0.34048795646E+02  0.16365093531E+03  0.16727299495E+03  0.00000000000E+00 0. -1.
</event>
<event>
 4    1  0.7940509E+003  0.2386913E+02  0.7546771E-02  0.1481864E+00
          2   -1    0    0  501    0  0.00000000000E+00  0.00000000000E+00  0.17195010395E+03  0.17195010395E+03  0.00000000000E+00 0.  1.
          2   -1    0    0  502    0 -0.00000000000E+00 -0.00000000000E+00 -0.11337907157E+04  0.11337907157E+04  0.00000000000E+00 0.  1.
          2    1    1    2  501    0 -0.23780731035E+02 -0.20523529603E+01 -0.11328360475E+04  0.11330874838E+04  0.00000000000E+00 0.  1.
          2    1    1    2  502    0  0.23780731035E+02  0.20523529603E+01  0.17099543579E+03  0.17265333586E+03  0.00000000000E+00 0.  1.
</event>
<event>
 4    1  0.7940509E+003  0.2151421E+02  0.7546771E-02  0.1512048E+00
          2   -1    0    0  502    0  0.00000000000E+00  0.00000000000E+00  0.12053652286E+03  0.12053652286E+03  0.00000000000E+00 0. -1.
          2   -1    0    0  501    0 -0.00000000000E+00 -0.00000000000E+00 -0.22150311012E+02  0.22150311012E+02  0.00000000000E+00 0. -1.
          2    1    1    2  501    0 -0.93382885949E+01  0.19381884937E+02  0.11405830695E+03  0.11606962773E+03  0.00000000000E+00 0. -1.
          2    1    1    2  502    0  0.93382885949E+01 -0.19381884937E+02 -0.15672095104E+02  0.26617206137E+02  0.00000000000E+00 0. -1.
</event>
<event>
 4    1  0.7940509E+003  0.2460269E+02  0.7546771E-02  0.1473297E+00
          2   -1    0    0  502    0  0.00000000000E+00  0.00000000000E+00  0.57424712295E+02  0.57424712295E+02  0.00000000000E+00 0. -1.
          2   -1    0    0  501    0 -0.00000000000E+00 -0.00000000000E+00 -0.15771244291E+02  0.15771244291E+02  0.00000000000E+00 0. -1.
          2    1    1    2  501    0  0.10563850140E+02 -0.22219305860E+02  0.41903335355E+02  0.48591995190E+02  0.00000000000E+00 0. -1.
          2    1    1    2  502    0 -0.10563850140E+02  0.22219305860E+02 -0.24986735126E+00  0.24603961396E+02  0.00000000000E+00 0. -1.
</event>
<event>
 4    1  0.7940509E+003  0.2236713E+02  0.7546771E-02  0.1500602E+00
          2   -1    0    0  502    0  0.00000000000E+00  0.00000000000E+00  0.14342380115E+02  0.14342380115E+02  0.00000000000E+00 0. -1.
          2   -1    0    0  501    0 -0.00000000000E+00 -0.00000000000E+00 -0.14409856264E+03  0.14409856264E+03  0.00000000000E+00 0. -1.
          2    1    1    2  501    0 -0.19294180450E+02 -0.11314721556E+02  0.40906353263E+01  0.22738109431E+02  0.00000000000E+00 0. -1.
          2    1    1    2  502    0  0.19294180450E+02  0.11314721556E+02 -0.13384681785E+03  0.13570283333E+03  0.00000000000E+00 0. -1.
</event>
<event>
 4    1  0.7940509E+003  0.2667981E+02  0.7546771E-02  0.1450851E+00
          2   -1    0    0  501    0  0.00000000000E+00  0.00000000000E+00  0.12951412559E+03  0.12951412559E+03  0.00000000000E+00 0.  1.
          2   -1    0    0  502    0 -0.00000000000E+00 -0.00000000000E+00 -0.14102819743E+03  0.14102819743E+03  0.00000000000E+00 0.  1.
          2    1    1    2  501    0  0.25947476651E+02  0.62081069599E+01 -0.13836617348E+03  0.14091490376E+03  0.00000000000E+00 0.  1.
          2    1    1    2  502    0 -0.25947476651E+02 -0.62081069599E+01  0.12685210164E+03  0.12962741927E+03  0.00000000000E+00 0.  1.
</event>
<event>
 4    1  0.7940509E+003  0.2274759E+02  0.7546771E-02  0.1495692E+00
          2   -1    0    0  502    0  0.00000000000E+00  0.00000000000E+00  0.60718154247E+02  0.60718154247E+02  0.00000000000E+00 0. -1.
          2   -1    0    0  501    0 -0.00000000000E+00 -0.00000000000E+00 -0.35773213461E+03  0.35773213461E+03  0.00000000000E+00 0.  1.
          2    1    1    2  501    0 -0.17327634456E+02 -0.14737908426E+02  0.58210959254E+02  0.62497749062E+02  0.00000000000E+00 0. -1.
          2    1    1    2  502    0  0.17327634456E+02  0.14737908426E+02 -0.35522493962E+03  0.35595253979E+03  0.00000000000E+00 0.  1.
</event>
<event>
 4    1  0.7940509E+003  0.3606791E+02  0.7546771E-02  0.1373207E+00
          2   -1    0    0  501    0  0.00000000000E+00  0.00000000000E+00  0.52362698158E+03  0.52362698158E+03  0.00000000000E+00 0. -1.
          2   -1    0    0  502    0 -0.00000000000E+00 -0.00000000000E+00 -0.40404575038E+01  0.40404575038E+01  0.00000000000E+00 0.  1.
          2    1    1    2  501    0 -0.89583165684E+01  0.34937702443E+02  0.96062976824E+02  0.10261086689E+03  0.00000000000E+00 0.  1.
          2    1    1    2  502    0  0.89583165684E+01 -0.34937702443E+02  0.42352354725E+03  0.42505657219E+03  0.00000000000E+00 0. -1.
</event>
<event>
 4    1  0.7940509E+003  0.2506406E+02  0.7546771E-02  0.1468088E+00
          2   -1    0    0  501    0  0.00000000000E+00  0.00000000000E+00  0.70577577143E+01  0.70577577143E+01  0.00000000000E+00 0.  1.
          2   -1    0    0  502    0 -0.00000000000E+00 -0.00000000000E+00 -0.40542373495E+03  0.40542373495E+03  0.00000000000E+00 0. -1.
          2    1    1    2  501    0  0.26021461727E+01 -0.24928619207E+02 -0.38138279830E+03  0.38220550239E+03  0.00000000000E+00 0. -1.
          2    1    1    2  502    0 -0.26021461727E+01  0.24928619207E+02 -0.16983178940E+02  0.30275990276E+02  0.00000000000E+00 0.  1.
</event>
<event>
 4    1  0.7940509E+003  0.2399588E+02  0.7546771E-02  0.1480358E+00
          2   -1    0    0  501    0  0.00000000000E+00  0.00000000000E+00  0.57950500297E+03  0.57950500297E+03  0.00000000000E+00 0. -1.
          2   -1    0    0  502    0 -0.00000000000E+00 -0.00000000000E+00 -0.10952354917E+01  0.10952354917E+01  0.00000000000E+00 0. -1.
          2    1    1    2  501    0 -0.21139399297E+02  0.11354644912E+02  0.20077601673E+03  0.20220487397E+03  0.00000000000E+00 0. -1.
          2    1    1    2  502    0  0.21139399297E+02 -0.11354644912E+02  0.37763375075E+03  0.37839536449E+03  0.00000000000E+00 0. -1.
</event>
<event>
 4    1  0.7940509E+003  0.4060242E+02  0.7546771E-02  0.1344991E+00
          2   -1    0    0  501    0  0.00000000000E+00  0.00000000000E+00  0.16025330700E+03  0.16025330700E+03  0.00000000000E+00 0. -1.
          2   -1    0    0  502    0 -0.00000000000E+00 -0.00000000000E+00 -0.27503952950E+02  0.27503952950E+02  0.00000000000E+00 0.  1.
          2    1    1    2  501    0  0.16465004296E+01 -0.40569026109E+02 -0.79007035179E+01  0.41363969336E+02  0.00000000000E+00 0.  1.
          2    1    1    2  502    0 -0.16465004296E+01  0.40569026109E+02  0.14065005757E+03  0.14639329062E+03  0.00000000000E+00 0. -1.
</event>
<event>
 4    1  0.7940509E+003  0.3428388E+02  0.7546771E-02  0.1385669E+00
          2   -1    0    0  502    0  0.00000000000E+00  0.00000000000E+00  0.37599093993E+02  0.37599093993E+02  0.00000000000E+00 0.  1.
          2   -1    0    0  501    0 -0.00000000000E+00 -0.00000000000E+00 -0.40110814355E+03  0.40110814355E+03  0.00000000000E+00 0. -1.
          2    1    1    2  501    0 -0.22446320320E+02 -0.25914220117E+02  0.28877894821E+02  0.44825404733E+02  0.00000000000E+00 0.  1.
          2    1    1    2  502    0  0.22446320320E+02  0.25914220117E+02 -0.39238694438E+03  0.39388183281E+03  0.00000000000E+00 0. -1.
</event>
<event>
 4    1  0.7940509E+003  0.2193174E+02  0.7546771E-02  0.1506366E+00
          2   -1    0    0  502    0  0.00000000000E+00  0.00000000000E+00  0.20887185146E+03  0.20887185146E+03  0.00000000000E+00 0. -1.
          2   -1    0    0  501    0 -0.00000000000E+00 -0.00000000000E+00 -0.52466779061E+02  0.52466779061E+02  0.00000000000E+00 0.  1.
          2    1    1    2  501    0  0.20955059541E+02 -0.64719856714E+01  0.20597202995E+03  0.20713637595E+03  0.00000000000E+00 0. -1.
          2    1    1    2  502    0 -0.20955059541E+02  0.64719856714E+01 -0.49566957556E+02  0.54202254568E+02  0.00000000000E+00 0.  1.
</event>
<event>
 4    1  0.7940509E+003  0.3270964E+02  0.7546771E-02  0.1397422E+00
          2   -1    0    0  501    0  0.00000000000E+00  0.00000000000E+00  0.51861723147E+02  0.51861723147E+02  0.00000000000E+00 0. -1.
          2   -1    0    0  502    0 -0.00000000000E+00 -0.00000000000E+00 -0.11875445547E+03  0.11875445547E+03  0.00000000000E+00 0. -1.
          2    1    1    2  501    0 -0.12508478710E+02  0.30223478340E+02 -0.11099128031E+03  0.11571078164E+03  0.00000000000E+00 0. -1.
          2    1    1    2  502    0  0.12508478710E+02 -0.30223478340E+02  0.44098547988E+02  0.54905396978E+02  0.00000000000E+00 0. -1.
</event>
<event>
 4    1  0.7940509E+003  0.2747702E+02  0.7546771E-02  0.1442874E+00
          2   -1    0    0  502    0  0.00000000000E+00  0.00000000000E+00  0.11630998502E+01  0.11630998502E+01  0.00000000000E+00 0.  1.
          2   -1    0    0  501    0 -0.00000000000E+00 -0.00000000000E+00 -0.12108026858E+04  0.12108026858E+04  0.00000000000E+00 0. -1.
          2    1    1    2  501    0 -0.26040691831E+02  0.87675003212E+01 -0.19208531375E+03  0.19404060001E+03  0.00000000000E+00 0.  1.
          2    1    1    2  502    0  0.26040691831E+02 -0.87675003212E+01 -0.10175542722E+04  0.10179251856E+04  0.00000000000E+00 0. -1.
</event>
<event>
 4    1  0.7940509E+003  0.2424176E+02  0.7546771E-02  0.1477467E+00
          2   -1    0    0  501    0  0.00000000000E+00  0.00000000000E+00  0.63292415269E+02  0.63292415269E+02  0.00000000000E+00 0. -1.
          2   -1    0    0  502    0 -0.00000000000E+00 -0.00000000000E+00 -0.96313569699E+03  0.96313569699E+03  0.00000000000E+00 0. -1.
          2    1    1    2  501    0  0.45325943494E+01 -0.23814250277E+02 -0.96065594541E+03  0.96096176218E+03  0.00000000000E+00 0. -1.
          2    1    1    2  502    0 -0.45325943494E+01  0.23814250277E+02  0.60812663687E+02  0.65466350077E+02  0.00000000000E+00 0. -1.
</event>
<event>
 4    1  0.7940509E+003  0.2708197E+02  0.7546771E-02  0.1446786E+00
          2   -1    0    0  502    0  0.00000000000E+00  0.00000000000E+00  0.23556354879E+02  0.23556354879E+02  0.00000000000E+00 0.  1.
          2   -1    0    0  501    0 -0.00000000000E+00 -0.00000000000E+00 -0.19438637549E+03  0.19438637549E+03  0.00000000000E+00 0.  1.
          2    1    1    2  501    0  0.14857717510E+02 -0.22642469174E+02  0.14448668921E+02  0.30695231120E+02  0.00000000000E+00 0.  1.
          2    1    1    2  502    0 -0.14857717510E+02  0.22642469174E+02 -0.18527868953E+03  0.18724749925E+03  0.00000000000E+00 0.  1.
</event>
<event>
 4    1  0.7940509E+003  0.2648614E+02  0.7546771E-02  0.1452839E+00
          2   -1    0    0  502    0  0.00000000000E+00  0.00000000000E+00  0.28585617612E+02  0.28585617612E+02  0.00000000000E+00 0. -1.
          2   -1    0    0  501    0 -0.00000000000E+00 -0.00000000000E+00 -0.24814170976E+02  0.24814170976E+02  0.00000000000E+00 0. -1.
          2    1    1    2  501    0  0.22097311939E+02 -0.14602202557E+02 -0.91642861023E+00  0.26501987772E+02  0.00000000000E+00 0. -1.
          2    1    1    2  502    0 -0.22097311939E+02  0.14602202557E+02  0.46878752455E+01  0.26897800817E+02  0.00000000000E+00 0. -1.
</event>
<event>
 4    1  0.7940509E+003  0.2171151E+02  0.7546771E-02  0.1509344E+00
          2   -1    0    0  501    0  0.00000000000E+00  0.00000000000E+00  0.19400934279E+03  0.19400934279E+03  0.00000000000E+00 0.  1.
          2   -1    0    0  502    0 -0.00000000000E+00 -0.00000000000E+00 -0.53170405741E+01  0.53170405741E+01  0.00000000000E+00 0.  1.
          2    1    1    2  501    0 -0.84111701941E+01 -0.20016040497E+02  0.20903759624E+02  0.30138958635E+02  0.00000000000E+00 0.  1.
          2    1    1    2  502    0  0.84111701941E+01  0.20016040497E+02  0.16778854259E+03  0.16918742472E+03  0.00000000000E+00 0.  1.
</event>
<event>
 4    1  0.7940509E+003  0.2831337E+02  0.7546771E-02  0.1434843E+00
          2   -1    0    0  502    0  0.00000000000E+00  0.00000000000E+00  0.44562788575E+03  0.44562788575E+03  0.00000000000E+00 0. -1.
          2   -1    0    0  501    0 -0.00000000000E+00 -0.00000000000E+00 -0.59814125356E+03  0.59814125356E+03  0.00000000000E+00 0.  1.
          2    1    1    2  501    0 -0.26348972263E+02  0.10362368623E+02  0.44484250829E+03  0.44574264346E+03  0.00000000000E+00 0. -1.
          2    1    1    2  502    0  0.26348972263E+02 -0.10362368623E+02 -0.59735587610E+03  0.59802649585E+03  0.00000000000E+00 0.  1.
</event>
<event>
 4    1  0.7940509E+003  0.2203268E+02  0.7546771E-02  0.1505016E+00
          2   -1    0    0  502    0  0.00000000000E+00  0.00000000000E+00  0.68329185552E+03  0.68329185552E+03  0.00000000000E+00 0.  1.
          2   -1    0    0  501    0 -0.00000000000E+00 -0.00000000000E+00 -0.76021925552E+01  0.76021925552E+01  0.00000000000E+00 0.  1.
          2    1    1    2  501    0  0.20258186696E+02  0.86628510986E+01  0.66675462351E+03  0.66711855550E+03  0.00000000000E+00 0.  1.
          2    1    1    2  502    0 -0.20258186696E+02 -0.86628510986E+01  0.89350394593E+01  0.23775492582E+02  0.00000000000E+00 0.  1.
</event>
<event>
 4    1  0.7940509E+003  0.3020841E+02  0.7546771E-02  0.1417794E+00
          2   -1    0    0  502    0  0.00000000000E+00  0.00000000000E+00  0.16820093558E+02  0.16820093558E+02  0.00000000000E+00 0. -1.
          2   -1    0    0  501    0 -0.00000000000E+00 -0.00000000000E+00 -0.57426850947E+03  0.57426850947E+03  0.00000000000E+00 0. -1.
          2    1    1    2  501    0 -0.11482132050E+02 -0.27941167601E+02  0.25131743511E+01  0.30312773687E+02  0.00000000000E+00 0. -1.
          2    1    1    2  502    0  0.11482132050E+02  0.27941167601E+02 -0.55996159026E+03  0.56077582934E+03  0.00000000000E+00 0. -1.
</event>
<event>
 4    1  0.7940509E+003  0.2458605E+02  0.7546771E-02  0.1473488E+00
          2   -1    0    0  502    0  0.00000000000E+00  0.00000000000E+00  0.60945653441E+03  0.60945653441E+03  0.00000000000E+00 0. -1.
          2   -1    0    0  501    0 -0.00000000000E+00 -0.00000000000E+00 -0.13917537359E+01  0.13917537359E+01  0.00000000000E+00 0.  1.
          2    1    1    2  501    0  0.24537040079E+02 -0.15515420900E+01  0.46775701933E+03  0.46840271428E+03  0.00000000000E+00 0. -1.
          2    1    1    2  502    0 -0.24537040079E+02  0.15515420900E+01  0.14030776135E+03  0.14244557387E+03  0.00000000000E+00 0.  1.
</event>
<event>
 4    1  0.7940509E+003  0.3342493E+02  0.7546771E-02  0.1391988E+00
          2   -1    0    0  501    0  0.00000000000E+00  0.00000000000E+00  0.28389619450E+01  0.28389619450E+01  0.00000000000E+00 0.  1.
          2   -1    0    0  502    0 -0.00000000000E+00 -0.00000000000E+00 -0.39540060368E+03  0.39540060368E+03  0.00000000000E+00 0.  1.
          2    1    1    2  501    0 -0.75131028119E+01  0.32569610240E+02 -0.20996430138E+03  0.21260817030E+03  0.00000000000E+00 0.  1.
          2    1    1    2  502    0  0.75131028119E+01 -0.32569610240E+02 -0.18259734036E+03  0.18563139533E+03  0.00000000000E+00 0.  1.
</event>
<event>
 4    1  0.7940509E+003  0.2096806E+02  0.7546771E-02  0.1519721E+00
          2   -1    0    0  501    0  0.00000000000E+00  0.00000000000E+00  0.56637584738E+00  0.56637584738E+00  0.00000000000E+00 0. -1.
          2   -1    0    0  502    0 -0.00000000000E+00 -0.00000000000E+00 -0.10563872514E+04  0.10563872514E+04  0.00000000000E+00 0. -1.
          2    1    1    2  501    0  0.19437239420E+02  0.78646927972E+01 -0.80004614879E+03  0.80032087306E+03  0.00000000000E+00 0. -1.
          2    1    1    2  502    0 -0.19437239420E+02 -0.78646927972E+01 -0.25577472681E+03  0.25663275423E+03  0.00000000000E+00 0. -1.
</event>
<event>
 4    1  0.7940509E+003  0.2486800E+02  0.7546771E-02  0.1470286E+00
          2   -1    0    0  501    0  0.00000000000E+00  0.00000000000E+00  0.30223495610E+01  0.30223495610E+01  0.00000000000E+00 0. -1.
          2   -1    0    0  502    0 -0.00000000000E+00 -0.00000000000E+00 -0.33574380943E+03  0.33574380943E+03  0.00000000000E+00 0. -1.
          2    1    1    2  501    0 -0.20529413411E+02 -0.14034264507E+02 -0.27221671996E+03  0.27335025155E+03  0.00000000000E+00 0. -1.
          2    1    1    2  502    0  0.20529413411E+02  0.14034264507E+02 -0.60504739915E+02  0.65415907449E+02  0.00000000000E+00 0. -1.
</event>
<event>
 4    1  0.7940509E+003  0.3533641E+02  0.7546771E-02  0.1378213E+00
          2   -1    0    0  502    0  0.00000000000E+00  0.00000000000E+00  0.23275888803E+01  0.23275888803E+01  0.00000000000E+00 0. -1.
          2   -1    0    0  501    0 -0.00000000000E+00 -0.00000000000E+00 -0.18496589801E+04  0.18496589801E+04  0.00000000000E+00 0. -1.
          2    1    1    2  501    0  0.19322389868E+02 -0.29585592154E+02 -0.14342785151E+03  0.14771665648E+03  0.00000000000E+00 0. -1.
          2    1    1    2  502    0 -0.19322389868E+02  0.29585592154E+02 -0.17039035397E+04  0.17042699125E+04  0.00000000000E+00 0. -1.
</event>
<event>
 4    1  0.7940509E+003  0.2034708E+02  0.7546771E-02  0.1528794E+00
          2   -1    0    0  502    0  0.00000000000E+00  0.00000000000E+00  0.15001821443E+02  0.15001821443E+02  0.00000000000E+00 0.  1.
          2   -1    0    0  501    0 -0.00000000000E+00 -0.00000000000E+00 -0.11340654848E+03  0.11340654848E+03  0.00000000000E+00 0.  1.
          2    1    1    2  501    0  0.18572115144E+02 -0.83114389445E+01  0.66462480497E+01  0.21405048269E+02  0.00000000000E+00 0.  1.
          2    1    1    2  502    0 -0.18572115144E+02  0.83114389445E+01 -0.10505097508E+03  0.10700332165E+03  0.00000000000E+00 0.  1.
</event>
<event>
 4    1  0.7940509E+003  0.2058247E+02  0.7546771E-02  0.1525310E+00
          2   -1    0    0  501    0  0.00000000000E+00  0.00000000000E+00  0.56530774381E+03  0.56530774381E+03  0.00000000000E+00 0. -1.
          2   -1    0    0  502    0 -0.00000000000E+00 -0.00000000000E+00 -0.15789982093E+03  0.15789982093E+03  0.00000000000E+00 0. -1.
          2    1    1    2  501    0  0.19431837386E+02  0.67853940865E+01 -0.15704071367E+03  0.15838378587E+03  0.00000000000E+00 0. -1.
          2    1    1    2  502    0 -0.19431837386E+02 -0.67853940865E+01  0.56444863655E+03  0.56482377887E+03  0.00000000000E+00 0. -1.
</event>
<event>
 4    1  0.7940509E+003  0.2112854E+02  0.7546771E-02  0.1517437E+00
          2   -1    0    0  502    0  0.00000000000E+00  0.00000000000E+00  0.33915056245E+03  0.33915056245E+03  0.00000000000E+00 0.  1.
          2   -1    0    0  501    0 -0.00000000000E+00 -0.00000000000E+00 -0.19248352713E+02  0.19248352713E+02  0.00000000000E+00 0. -1.
          2    1    1    2  501    0 -0.15634429447E+02 -0.14211959748E+02  0.33291490592E+03  0.33358469654E+03  0.00000000000E+00 0.  1.
          2    1    1    2  502    0  0.15634429447E+02  0.14211959748E+02 -0.13012696180E+02  0.24814218623E+02  0.00000000000E+00 0. -1.
</event>
<event>
 4    1  0.7940509E+003  0.2408518E+02  0.7546771E-02  0.1479303E+00
          2   -1    0    0  501    0  0.00000000000E+00  0.00000000000E+00  0.87084104713E+01  0.87084104713E+01  0.00000000000E+00 0.  1.
          2   -1    0    0  502    0 -0.00000000000E+00 -0.00000000000E+00 -0.68321039440E+02  0.68321039440E+02  0.00000000000E+00 0.  1.
          2    1    1    2  501    0  0.92040190302E+01 -0.22257171980E+02 -0.23717053571E+02  0.33802282481E+02  0.00000000000E+00 0.  1.
          2    1    1    2  502    0 -0.92040190302E+01  0.22257171980E+02 -0.35895575398E+02  0.43227167430E+02  0.00000000000E+00 0.  1.
</event>
<event>
 4    1  0.7940509E+003  0.3040544E+02  0.7546771E-02  0.1416105E+00
          2   -1    0    0  502    0  0.00000000000E+00  0.00000000000E+00  0.65157890968E+03  0.65157890968E+03  0.00000000000E+00 0.  1.
          2   -1    0    0  501    0 -0.00000000000E+00 -0.00000000000E+00 -0.23919007331E+02  0.23919007331E+02  0.00000000000E+00 0. -1.
          2    1    1    2  501    0 -0.21934147197E+02  0.21056682312E+02  0.64140834593E+03  0.64212861399E+03  0.00000000000E+00 0.  1.
          2    1    1    2  502    0  0.21934147197E+02 -0.21056682312E+02 -0.13748443577E+02  0.33369303020E+02  0.00000000000E+00 0. -1.
</event>
<event>
 4    1  0.7940509E+003  0.3623077E+02  0.7546771E-02  0.1372111E+00
          2   -1    0    0  502    0  0.00000000000E+00  0.00000000000E+00  0.37458411860E+01  0.37458411860E+01  0.00000000000E+00 0. -1.
          2   -1    0    0  501    0 -0.00000000000E+00 -0.00000000000E+00 -0.38857254690E+03  0.38857254690E+03  0.00000000000E+00 0. -1.
          2    1    1    2  501    0 -0.16928977686E+02 -0.32032456524E+02 -0.25386832755E+03  0.25644062917E+03  0.00000000000E+00 0. -1.
          2    1    1    2  502    0  0.16928977686E+02  0.32032456524E+02 -0.13095837816E+03  0.13587775891E+03  0.00000000000E+00 0. -1.
</event>
<event>
 4    1  0.7940509E+003  0.2276026E+02  0.7546771E-02  0.1495531E+00
          2   -1    0    0  502    0  0.00000000000E+00  0.00000000000E+00  0.40731808804E+02  0.40731808804E+02  0.00000000000E+00 0. -1.
          2   -1    0    0  501    0 -0.00000000000E+00 -0.00000000000E+00 -0.40191012630E+03  0.40191012630E+03  0.00000000000E+00 0. -1.
          2    1    1    2  501    0 -0.16285821015E+02  0.15899732750E+02  0.37201915379E+02  0.43612062271E+02  0.00000000000E+00 0. -1.
          2    1    1    2  502    0  0.16285821015E+02 -0.15899732750E+02 -0.39838023288E+03  0.39902987284E+03  0.00000000000E+00 0. -1.
</event>
<event>
 4    1  0.7940509E+003  0.2049073E+02  0.7546771E-02  0.1526662E+00
          2   -1    0    0  501    0  0.00000000000E+00  0.00000000000E+00  0.38667986963E+01  0.38667986963E+01  0.00000000000E+00 0. -1.
          2   -1    0    0  502    0 -0.00000000000E+00 -0.00000000000E+00 -0.86764985330E+03  0.86764985330E+03  0.00000000000E+00 0.  1.
          2    1    1    2  501    0 -0.11717634742E+02 -0.16809733836E+02 -0.83947197943E+03  0.83972202208E+03  0.00000000000E+00 0.  1.
          2    1    1    2  502    0  0.11717634742E+02  0.16809733836E+02 -0.24311075179E+02  0.31794629923E+02  0.00000000000E+00 0. -1.
</event>
<event>
 4    1  0.7940509E+003  0.2319792E+02  0.7546771E-02  0.1490028E+00
          2   -1    0    0  502    0  0.00000000000E+00  0.00000000000E+00  0.67161844887E+03  0.67161844887E+03  0.00000000000E+00 0. -1.
          2   -1    0    0  501    0 -0.00000000000E+00 -0.00000000000E+00 -0.12908849498E+01  0.12908849498E+01  0.00000000000E+00 0. -1.
          2    1    1    2  501    0  0.23182592425E+02 -0.84323659018E+00  0.54237478544E+03  0.54287065818E+03  0.00000000000E+00 0. -1.
          2    1    1    2  502    0 -0.23182592425E+02  0.84323659018E+00  0.12795277849E+03  0.13003867564E+03  0.00000000000E+00 0. -1.
</event>
<event>
 4    1  0.7940509E+003  0.2192263E+02  0.7546771E-02  0.1506489E+00
          2   -1    0    0  501    0  0.00000000000E+00  0.00000000000E+00  0.10133956487E+04  0.10133956487E+04  0.00000000000E+00 0.  1.
          2   -1    0    0  502    0 -0.00000000000E+00 -0.00000000000E+00 -0.56631023145E+01  0.56631023145E+01  0.00000000000E+00 0. -1.
          2    1    1    2  501    0  0.11490072075E+02 -0.18670298179E+02  0.16138234349E+02  0.27222130672E+02  0.00000000000E+00 0. -1.
          2    1    1    2  502    0 -0.11490072075E+02  0.18670298179E+02  0.99159431208E+03  0.99183662039E+03  0.00000000000E+00 0.  1.
</event>
<event>
 4    1  0.7940509E+003  0.2225719E+02  0.7546771E-02  0.1502042E+00
          2   -1    0    0  502    0  0.00000000000E+00  0.00000000000E+00  0.17063047643E+04  0.17063047643E+04  0.00000000000E+00 0.  1.
          2   -1    0    0  501    0 -0.00000000000E+00 -0.00000000000E+00 -0.33320893761E+00  0.33320893761E+00  0.00000000000E+00 0.  1.
          2    1    1    2  501    0 -0.22257192206E+02 -0.30245184784E-02  0.54685897512E+03  0.54731172222E+03  0.00000000000E+00 0.  1.
          2    1    1    2  502    0  0.22257192206E+02  0.30245184784E-02  0.11591125803E+04  0.11593262511E+04  0.00000000000E+00 0.  1.
</event>
<event>
 4    1  0.7940509E+003  0.3225042E+02  0.7546771E-02  0.1400998E+00
          2   -1    0    0  501    0  0.00000000000E+00  0.00000000000E+00  0.85514242056E+00  0.85514242056E+00  0.00000000000E+00 0.  1.
          2   -1    0    0  502    0 -0.00000000000E+00 -0.00000000000E+00 -0.15505227972E+04  0.15505227972E+04  0.00000000000E+00 0.  1.
          2    1    1    2  501    0 -0.20897840160E+02 -0.24563584859E+02 -0.11349826478E+04  0.11354407515E+04  0.00000000000E+00 0.  1.
          2    1    1    2  502    0  0.20897840160E+02  0.24563584859E+02 -0.41468500702E+03  0.41593718813E+03  0.00000000000E+00 0.  1.
</event>
<event>
 4    1  0.7940509E+003  0.4021170E+02  0.7546771E-02  0.1347250E+00
          2   -1    0    0  501    0  0.00000000000E+00  0.00000000000E+00  0.13053187426E+04  0.13053187426E+04  0.00000000000E+00 0. -1.
          2   -1    0    0  502    0 -0.00000000000E+00 -0.00000000000E+00 -0.12767191473E+01  0.12767191473E+01  0.00000000000E+00 0. -1.
          2    1    1    2  501    0 -0.28035967234E+02  0.28826471539E+02  0.53937833719E+03  0.54087519036E+03  0.00000000000E+00 0. -1.
          2    1    1    2  502    0  0.28035967234E+02 -0.28826471539E+02  0.76466368623E+03  0.76572027135E+03  0.00000000000E+00 0. -1.
</event>
<event>
 4    1  0.7940509E+003  0.2170761E+02  0.7546771E-02  0.1509397E+00
          2   -1    0    0  502    0  0.00000000000E+00  0.00000000000E+00  0.17912283978E+02  0.17912283978E+02  0.00000000000E+00 0.  1.
          2   -1    0    0  501    0 -0.00000000000E+00 -0.00000000000E+00 -0.35864600329E+02  0.35864600329E+02  0.00000000000E+00 0.  1.
          2    1    1    2  501    0 -0.20986541360E+02  0.55484629164E+01  0.49043274473E+01  0.22254725042E+02  0.00000000000E+00 0.  1.
          2    1    1    2  502    0  0.20986541360E+02 -0.55484629164E+01 -0.22856643799E+02  0.31522159265E+02  0.00000000000E+00 0.  1.
</event>
<event>
 4    1  0.7940509E+003  0.5124614E+02  0.7546771E-02  0.1292858E+00
          2   -1    0    0  502    0  0.00000000000E+00  0.00000000000E+00  0.42334398918E+03  0.42334398918E+03  0.00000000000E+00 0.  1.
          2   -1    0    0  501    0 -0.00000000000E+00 -0.00000000000E+00 -0.34857045353E+02  0.34857045353E+02  0.00000000000E+00 0.  1.
          2    1    1    2  501    0 -0.26090604343E+02  0.44107221777E+02  0.40195988875E+03  0.40521342378E+03  0.00000000000E+00 0.  1.
          2    1    1    2  502    0  0.26090604343E+02 -0.44107221777E+02 -0.13472944928E+02  0.52987610749E+02  0.00000000000E+00 0.  1.
</event>
<event>
 4    1  0.7940509E+003  0.6350480E+02  0.7546771E-02  0.1248368E+00
          2   -1    0    0  501    0  0.00000000000E+00  0.00000000000E+00  0.53626247115E+03  0.53626247115E+03  0.00000000000E+00 0. -1.
          2   -1    0    0  502    0 -0.00000000000E+00 -0.00000000000E+00 -0.25133160016E+03  0.25133160016E+03  0.00000000000E+00 0. -1.
          2    1    1    2  501    0  0.33623787683E+02 -0.53873008682E+02 -0.24539528560E+03  0.25347920301E+03  0.00000000000E+00 0. -1.
          2    1    1    2  502    0 -0.33623787683E+02  0.53873008682E+02  0.53032615660E+03  0.53411486830E+03  0.00000000000E+00 0. -1.
</event>
<event>
 4    1  0.7940509E+003  0.2948931E+02  0.7546771E-02  0.1424087E+00
          2   -1    0    0  502    0  0.00000000000E+00  0.00000000000E+00  0.50763442538E+03  0.50763442538E+03  0.00000000000E+00 0. -1.
          2   -1    0    0  501    0 -0.00000000000E+00 -0.00000000000E+00 -0.32597461497E+01  0.32597461497E+01  0.00000000000E+00 0. -1.
          2    1    1    2  501    0  0.20397612147E+01 -0.29418677764E+02  0.42814457037E+03  0.42915893602E+03  0.00000000000E+00 0. -1.
          2    1    1    2  502    0 -0.20397612147E+01  0.29418677764E+02  0.76230108861E+02  0.81735235512E+02  0.00000000000E+00 0. -1.
</event>
<event>
 4    1  0.7940509E+003  0.2034665E+02  0.7546771E-02  0.1528801E+00
          2   -1    0    0  501    0  0.00000000000E+00  0.00000000000E+00  0.28871854749E+02  0.28871854749E+02  0.00000000000E+00 0.  1.
          2   -1    0    0  502    0 -0.00000000000E+00 -0.00000000000E+00 -0.18194679375E+02  0.18194679375E+02  0.00000000000E+00 0.  1.
          2    1    1    2  501    0 -0.13973997744E+02  0.14788973114E+02 -0.54950546574E+01  0.21075624888E+02  0.00000000000E+00 0.  1.
          2    1    1    2  502    0  0.13973997744E+02 -0.14788973114E+02  0.16172230032E+02  0.25990909236E+02  0.00000000000E+00 0.  1.
</event>
<event>
 4    1  0.7940509E+003  0.8696963E+02  0.7546771E-02  0.1188530E+00
          2   -1    0    0  501    0  0.00000000000E+00  0.00000000000E+00  0.27401922165E+03  0.27401922165E+03  0.00000000000E+00 0. -1.
          2   -1    0    0  502    0 -0.00000000000E+00 -0.00000000000E+00 -0.43872165335E+02  0.43872165335E+02  0.00000000000E+00 0. -1.
          2    1    1    2  501    0  0.13857467726E+02 -0.85858533965E+02  0.18281723589E+02  0.88870347607E+02  0.00000000000E+00 0. -1.
          2    1    1    2  502    0 -0.13857467726E+02  0.85858533965E+02  0.21186533272E+03  0.22902103938E+03  0.00000000000E+00 0. -1.
</event>
<event>
 4    1  0.7940509E+003  0.2049150E+02  0.7546771E-02  0.1526650E+00
          2   -1    0    0  502    0  0.00000000000E+00  0.00000000000E+00  0.23756731300E+01  0.23756731300E+01  0.00000000000E+00 0. -1.
          2   -1    0    0  501    0 -0.00000000000E+00 -0.00000000000E+00 -0.76065007640E+03  0.76065007640E+03  0.00000000000E+00 0.  1.
          2    1    1    2  501    0  0.45691556878E+00  0.20486401436E+02 -0.44876114241E+02  0.49333224555E+02  0.00000000000E+00 0. -1.
          2    1    1    2  502    0 -0.45691556878E+00 -0.20486401436E+02 -0.71339828902E+03  0.71369252497E+03  0.00000000000E+00 0.  1.
</event>
<event>
 4    1  0.7940509E+003  0.2274074E+02  0.7546771E-02  0.1495780E+00
          2   -1    0    0  501    0  0.00000000000E+00  0.00000000000E+00  0.17457348254E+03  0.17457348254E+03  0.00000000000E+00 0. -1.
          2   -1    0    0  502    0 -0.00000000000E+00 -0.00000000000E+00 -0.29767039629E+01  0.29767039629E+01  0.00000000000E+00 0.  1.
          2    1    1    2  501    0  0.43300125018E+01 -0.22324698629E+02  0.91971137785E+02  0.94740864270E+02  0.00000000000E+00 0.  1.
          2    1    1    2  502    0 -0.43300125018E+01  0.22324698629E+02  0.79625640788E+02  0.82809322229E+02  0.00000000000E+00 0. -1.
</event>
<event>
 4    1  0.7940509E+003  0.2392363E+02  0.7546771E-02  0.1481215E+00
          2   -1    0    0  501    0  0.00000000000E+00  0.00000000000E+00  0.32023247573E+03  0.32023247573E+03  0.00000000000E+00 0.  1.
          2   -1    0    0  502    0 -0.00000000000E+00 -0.00000000000E+00 -0.89093986714E+02  0.89093986714E+02  0.00000000000E+00 0.  1.
          2    1    1    2  501    0 -0.88144710284E+01 -0.22240623775E+02 -0.87030769488E+02  0.90259044329E+02  0.00000000000E+00 0.  1.
          2    1    1    2  502    0  0.88144710284E+01  0.22240623775E+02  0.31816925850E+03  0.31906741811E+03  0.00000000000E+00 0.  1.
</event>
<event>
 4    1  0.7940509E+003  0.2050456E+02  0.7546771E-02  0.1526457E+00
          2   -1    0    0  502    0  0.00000000000E+00  0.00000000000E+00  0.88410926401E+03  0.88410926401E+03  0.00000000000E+00 0.  1.
          2   -1    0    0  501    0 -0.00000000000E+00 -0.00000000000E+00 -0.11100675497E+01  0.11100675497E+01  0.00000000000E+00 0. -1.
          2    1    1    2  501    0  0.14388920162E+02  0.14608084121E+02  0.77613231748E+03  0.77640312428E+03  0.00000000000E+00 0.  1.
          2    1    1    2  502    0 -0.14388920162E+02 -0.14608084121E+02  0.10686687898E+03  0.10881620729E+03  0.00000000000E+00 0. -1.
</event>
<event>
 4    1  0.7940509E+003  0.2298160E+02  0.7546771E-02  0.1492729E+00
          2   -1    0    0  502    0  0.00000000000E+00  0.00000000000E+00  0.81609874708E+03  0.81609874708E+03  0.00000000000E+00 0.  1.
          2   -1    0    0  501    0 -0.00000000000E+00 -0.00000000000E+00 -0.29183513866E+01  0.29183513866E+01  0.00000000000E+00 0. -1.
          2    1    1    2  501    0 -0.14455518104E+02  0.17865942213E+02  0.76785044736E+03  0.76819428754E+03  0.00000000000E+00 0.  1.
          2    1    1    2  502    0  0.14455518104E+02 -0.17865942213E+02  0.45329948334E+02  0.50822810929E+02  0.00000000000E+00 0. -1.
</event>
<event>
 4    1  0.7940509E+003  0.3734853E+02  0.7546771E-02  0.1364765E+00
          2   -1    0    0  502    0  0.00000000000E+00  0.00000000000E+00  0.46894324471E+01  0.46894324471E+01  0.00000000000E+00 0. -1.
          2   -1    0    0  501    0 -0.00000000000E+00 -0.00000000000E+00 -0.12238388773E+04  0.12238388773E+04  0.00000000000E+00 0.  1.
          2    1    1    2  501    0 -0.99360825348E+01 -0.36002600417E+02 -0.75148631483E+02  0.83917994415E+02  0.00000000000E+00 0. -1.
          2    1    1    2  502    0  0.99360825348E+01  0.36002600417E+02 -0.11440008134E+04  0.11446103154E+04  0.00000000000E+00 0.  1.
</event>
<event>
 4    1  0.7940509E+003  0.6009262E+02  0.7546771E-02  0.1259518E+00
          2   -1    0    0  502    0  0.00000000000E+00  0.00000000000E+00  0.28657848753E+03  0.28657848753E+03  0.00000000000E+00 0.  1.
          2   -1    0    0  501    0 -0.00000000000E+00 -0.00000000000E+00 -0.60606920811E+03  0.60606920811E+03  0.00000000000E+00 0. -1.
          2    1    1    2  501    0 -0.21256865801E+02  0.56207370343E+02  0.28191434604E+03  0.28824784705E+03  0.00000000000E+00 0.  1.
          2    1    1    2  502    0  0.21256865801E+02 -0.56207370343E+02 -0.60140506662E+03  0.60439984859E+03  0.00000000000E+00 0. -1.
</event>
<event>
 4    1  0.7940509E+003  0.2454112E+02  0.7546771E-02  0.1474003E+00
          2   -1    0    0  501    0  0.00000000000E+00  0.00000000000E+00  0.77269125332E+03  0.77269125332E+03  0.00000000000E+00 0. -1.
          2   -1    0    0  502    0 -0.00000000000E+00 -0.00000000000E+00 -0.26438017504E+02  0.26438017504E+02  0.00000000000E+00 0. -1.
          2    1    1    2  501    0  0.24506276462E+02 -0.13072121552E+01 -0.20504015124E+02  0.31979384389E+02  0.00000000000E+00 0. -1.
          2    1    1    2  502    0 -0.24506276462E+02  0.13072121552E+01  0.76675725094E+03  0.76714988643E+03  0.00000000000E+00 0. -1.
</event>
<event>
 4    1  0.7940509E+003  0.2016714E+02  0.7546771E-02  0.1531496E+00
          2   -1    0    0  502    0  0.00000000000E+00  0.00000000000E+00  0.15710890868E+03  0.15710890868E+03  0.00000000000E+00 0. -1.
          2   -1    0    0  501    0 -0.00000000000E+00 -0.00000000000E+00 -0.65362727857E+01  0.65362727857E+01  0.00000000000E+00 0.  1.
          2    1    1    2  501    0  0.28183294592E+01  0.19969242215E+02  0.13887373587E+03  0.14033042482E+03  0.00000000000E+00 0. -1.
          2    1    1    2  502    0 -0.28183294592E+01 -0.19969242215E+02  0.11698900020E+02  0.23314756642E+02  0.00000000000E+00 0.  1.
</event>
<event>
 4    1  0.7940509E+003  0.2200949E+02  0.7546771E-02  0.1505325E+00
          2   -1    0    0  501    0  0.00000000000E+00  0.00000000000E+00  0.98247860488E+03  0.98247860488E+03  0.00000000000E+00 0. -1.
          2   -1    0    0  502    0 -0.00000000000E+00 -0.00000000000E+00 -0.10027132638E+01  0.10027132638E+01  0.00000000000E+00 0.  1.
          2    1    1    2  501    0  0.22008052600E+02 -0.25129880104E+00  0.14015837447E+03  0.14187595802E+03  0.00000000000E+00 0.  1.
          2    1    1    2  502    0 -0.22008052600E+02  0.25129880104E+00  0.84131751715E+03  0.84160536012E+03  0.00000000000E+00 0. -1.
</event>
<event>
 4    1  0.7940509E+003  0.3069878E+02  0.7546771E-02  0.1413619E+00
          2   -1    0    0  501    0  0.00000000000E+00  0.00000000000E+00  0.37118891476E+01  0.37118891476E+01  0.00000000000E+00 0.  1.
          2   -1    0    0  502    0 -0.00000000000E+00 -0.00000000000E+00 -0.48934137966E+03  0.48934137966E+03  0.00000000000E+00 0.  1.
          2    1    1    2  501    0  0.30511571028E+02 -0.33851473344E+01 -0.41381926443E+03  0.41495638181E+03  0.00000000000E+00 0.  1.
          2    1    1    2  502    0 -0.30511571028E+02  0.33851473344E+01 -0.71810226076E+02  0.78096886994E+02  0.00000000000E+00 0.  1.
</event>
<event>
 4    1  0.7940509E+003  0.5021745E+02  0.7546771E-02  0.1297232E+00
          2   -1    0    0  502    0  0.00000000000E+00  0.00000000000E+00  0.62250555355E+02  0.62250555355E+02  0.00000000000E+00 0. -1.
          2   -1    0    0  501    0 -0.00000000000E+00 -0.00000000000E+00 -0.13393864562E+03  0.13393864562E+03  0.00000000000E+00 0. -1.
          2    1    1    2  501    0  0.26570482221E+02 -0.42612230833E+02  0.46083761599E+02  0.68157947629E+02  0.00000000000E+00 0. -1.
          2    1    1    2  502    0 -0.26570482221E+02  0.42612230833E+02 -0.11777185187E+03  0.12803125335E+03  0.00000000000E+00 0. -1.
</event>
<event>
 4    1  0.8637927E+003  0.2096763E+02  0.7546771E-02  0.1519727E+00
          2   -1    0    0  502    0  0.00000000000E+00  0.00000000000E+00  0.96915493620E+03  0.96915493620E+03  0.00000000000E+00 0. -1.
          2   -1    0    0  501    0 -0.00000000000E+00 -0.00000000000E+00 -0.53665362901E+03  0.53665362901E+03  0.00000000000E+00 0.  1.
          2    1    1    2  501    0  0.13429597302E+02  0.16102400335E+02  0.96883665363E+03  0.96906351845E+03  0.00000000000E+00 0. -1.
          2    1    1    2  502    0 -0.13429597302E+02 -0.16102400335E+02 -0.53633534644E+03  0.53674504676E+03  0.00000000000E+00 0.  1.
</event>
<event>
 4    1  0.7940509E+003  0.3721371E+02  0.7546771E-02  0.1365635E+00
          2   -1    0    0  502    0  0.00000000000E+00  0.00000000000E+00  0.15070411817E+02  0.15070411817E+02  0.00000000000E+00 0. -1.
          2   -1    0    0  501    0 -0.00000000000E+00 -0.00000000000E+00 -0.11511433090E+03  0.11511433090E+03  0.00000000000E+00 0. -1.
          2    1    1    2  501    0  0.29487333553E+02 -0.22701479161E+02 -0.20786341840E+02  0.42625485372E+02  0.00000000000E+00 0. -1.
          2    1    1    2  502    0 -0.29487333553E+02  0.22701479161E+02 -0.79257577241E+02  0.87559257342E+02  0.00000000000E+00 0. -1.
</event>
<event>
 4    1  0.7940509E+003  0.6490196E+02  0.7546771E-02  0.1244029E+00
          2   -1    0    0  502    0  0.00000000000E+00  0.00000000000E+00  0.12044285388E+03  0.12044285388E+03  0.00000000000E+00 0.  1.
          2   -1    0    0  501    0 -0.00000000000E+00 -0.00000000000E+00 -0.19513591438E+03  0.19513591438E+03  0.00000000000E+00 0.  1.
          2    1    1    2  501    0 -0.18589064859E+02  0.62182886044E+02  0.10560538237E+03  0.12395467492E+03  0.00000000000E+00 0.  1.
          2    1    1    2  502    0  0.18589064859E+02 -0.62182886044E+02 -0.18029844287E+03  0.19162409335E+03  0.00000000000E+00 0.  1.
</event>
<event>
 4    1  0.7940509E+003  0.2463430E+02  0.7546771E-02  0.1472936E+00
          2   -1    0    0  502    0  0.00000000000E+00  0.00000000000E+00  0.14511438030E+02  0.14511438030E+02  0.00000000000E+00 0.  1.
          2   -1    0    0  501    0 -0.00000000000E+00 -0.00000000000E+00 -0.79251662830E+03  0.79251662830E+03  0.00000000000E+00 0.  1.
          2    1    1    2  501    0  0.12404167024E+01 -0.24603046735E+02  0.37210757674E+01  0.24913750161E+02  0.00000000000E+00 0.  1.
          2    1    1    2  502    0 -0.12404167024E+01  0.24603046735E+02 -0.78172626604E+03  0.78211431617E+03  0.00000000000E+00 0.  1.
</event>
<event>
 4    1  0.7940509E+003  0.2924181E+02  0.7546771E-02  0.1426301E+00
          2   -1    0    0  501    0  0.00000000000E+00  0.00000000000E+00  0.33812078401E+01  0.33812078401E+01  0.00000000000E+00 0.  1.
          2   -1    0    0  502    0 -0.00000000000E+00 -0.00000000000E+00 -0.12485543994E+04  0.12485543994E+04  0.00000000000E+00 0. -1.
          2    1    1    2  501    0  0.19026414233E+02  0.22205384949E+02 -0.11815766898E+04  0.11819384745E+04  0.00000000000E+00 0. -1.
          2    1    1    2  502    0 -0.19026414233E+02 -0.22205384949E+02 -0.63596501735E+02  0.69997132743E+02  0.00000000000E+00 0.  1.
</event>
<event>
 4    1  0.7940509E+003  0.2689596E+02  0.7546771E-02  0.1448656E+00
          2   -1    0    0  502    0  0.00000000000E+00  0.00000000000E+00  0.31593848461E+01  0.31593848461E+01  0.00000000000E+00 0.  1.
          2   -1    0    0  501    0 -0.00000000000E+00 -0.00000000000E+00 -0.67456640654E+03  0.67456640654E+03  0.00000000000E+00 0. -1.
          2    1    1    2  501    0  0.26616913625E+02  0.38642727269E+01 -0.60290596785E+02  0.66017791203E+02  0.00000000000E+00 0.  1.
          2    1    1    2  502    0 -0.26616913625E+02 -0.38642727269E+01 -0.61111642491E+03  0.61170800018E+03  0.00000000000E+00 0. -1.
</event>
<event>
 4    1  0.7940509E+003  0.3272036E+02  0.7546771E-02  0.1397339E+00
          2   -1    0    0  502    0  0.00000000000E+00  0.00000000000E+00  0.22489479219E+01  0.22489479219E+01  0.00000000000E+00 0. -1.
          2   -1    0    0  501    0 -0.00000000000E+00 -0.00000000000E+00 -0.95639951479E+03  0.95639951479E+03  0.00000000000E+00 0.  1.
          2    1    1    2  501    0  0.31579486500E+02  0.85649149518E+01 -0.13738246654E+03  0.14122522384E+03  0.00000000000E+00 0. -1.
          2    1    1    2  502    0 -0.31579486500E+02 -0.85649149518E+01 -0.81676810032E+03  0.81742323887E+03  0.00000000000E+00 0.  1.
</event>
<event>
 4    1  0.7940509E+003  0.4072891E+02  0.7546771E-02  0.1344267E+00
          2   -1    0    0  502    0  0.00000000000E+00  0.00000000000E+00  0.71882828815E+01  0.71882828815E+01  0.00000000000E+00 0.  1.
          2   -1    0    0  501    0 -0.00000000000E+00 -0.00000000000E+00 -0.67914837441E+03  0.67914837441E+03  0.00000000000E+00 0. -1.
          2    1    1    2  501    0 -0.25360266352E+02 -0.31870064103E+02 -0.57145279346E+02  0.70174261998E+02  0.00000000000E+00 0.  1.
          2    1    1    2  502    0  0.25360266352E+02  0.31870064103E+02 -0.61481481218E+03  0.61616239529E+03  0.00000000000E+00 0. -1.
</event>
<event>
 4    1  0.7940509E+003  0.8129188E+02  0.7546771E-02  0.1200880E+00
          2   -1    0    0  501    0  0.00000000000E+00  0.00000000000E+00  0.33444457986E+03  0.33444457986E+03  0.00000000000E+00 0. -1.
          2   -1    0    0  502    0 -0.00000000000E+00 -0.00000000000E+00 -0.15452038452E+04  0.15452038452E+04  0.00000000000E+00 0.  1.
          2    1    1    2  501    0  0.76130403507E+02 -0.28504949950E+02 -0.15391755271E+04  0.15413207563E+04  0.00000000000E+00 0.  1.
          2    1    1    2  502    0 -0.76130403507E+02  0.28504949950E+02  0.32841626173E+03  0.33832766880E+03  0.00000000000E+00 0. -1.
</event>
<event>
 4    1  0.7940509E+003  0.2625105E+02  0.7546771E-02  0.1455280E+00
          2   -1    0    0  502    0  0.00000000000E+00  0.00000000000E+00  0.15383509399E+02  0.15383509399E+02  0.00000000000E+00 0. -1.
          2   -1    0    0  501    0 -0.00000000000E+00 -0.00000000000E+00 -0.35297648316E+03  0.35297648316E+03  0.00000000000E+00 0.  1.
          2    1    1    2  501    0 -0.36489787008E+01  0.25996202259E+02  0.33000917708E+01  0.26457667757E+02  0.00000000000E+00 0. -1.
          2    1    1    2  502    0  0.36489787008E+01 -0.25996202259E+02 -0.34089306553E+03  0.34190232480E+03  0.00000000000E+00 0.  1.
</event>
<event>
 4    1  0.7940509E+003  0.3198659E+02  0.7546771E-02  0.1403084E+00
          2   -1    0    0  501    0  0.00000000000E+00  0.00000000000E+00  0.19358313290E+03  0.19358313290E+03  0.00000000000E+00 0. -1.
          2   -1    0    0  502    0 -0.00000000000E+00 -0.00000000000E+00 -0.24638491935E+03  0.24638491935E+03  0.00000000000E+00 0.  1.
          2    1    1    2  501    0  0.14355247609E+02 -0.28584410203E+02 -0.24401265389E+03  0.24610021719E+03  0.00000000000E+00 0.  1.
          2    1    1    2  502    0 -0.14355247609E+02  0.28584410203E+02  0.19121086744E+03  0.19386783506E+03  0.00000000000E+00 0. -1.
</event>
<event>
 4    1  0.7940509E+003  0.2534154E+02  0.7546771E-02  0.1465019E+00
          2   -1    0    0  502    0  0.00000000000E+00  0.00000000000E+00  0.53757574705E+02  0.53757574705E+02  0.00000000000E+00 0.  1.
          2   -1    0    0  501    0 -0.00000000000E+00 -0.00000000000E+00 -0.42285621694E+03  0.42285621694E+03  0.00000000000E+00 0. -1.
          2    1    1    2  501    0 -0.21770271923E+02 -0.12971085970E+02  0.50367254872E+02  0.56383101849E+02  0.00000000000E+00 0.  1.
          2    1    1    2  502    0  0.21770271923E+02  0.12971085970E+02 -0.41946589710E+03  0.42023068979E+03  0.00000000000E+00 0. -1.
</event>
<event>
 4    1  0.7940509E+003  0.3224162E+02  0.7546771E-02  0.1401067E+00
          2   -1    0    0  501    0  0.00000000000E+00  0.00000000000E+00  0.14731805202E+03  0.14731805202E+03  0.00000000000E+00 0. -1.
          2   -1    0    0  502    0 -0.00000000000E+00 -0.00000000000E+00 -0.57677138320E+03  0.57677138320E+03  0.00000000000E+00 0.  1.
          2    1    1    2  501    0 -0.22089574616E+02  0.23485581178E+02 -0.57454991243E+03  0.57545384150E+03  0.00000000000E+00 0.  1.
          2    1    1    2  502    0  0.22089574616E+02 -0.23485581178E+02  0.14509658125E+03  0.14863559372E+03  0.00000000000E+00 0. -1.
</event>
<event>
 4    1  0.7940509E+003  0.5711932E+02  0.7546771E-02  0.1269947E+00
          2   -1    0    0  502    0  0.00000000000E+00  0.00000000000E+00  0.22419987485E+04  0.22419987485E+04  0.00000000000E+00 0.  1.
          2   -1    0    0  501    0 -0.00000000000E+00 -0.00000000000E+00 -0.43457258218E+02  0.43457258218E+02  0.00000000000E+00 0.  1.
          2    1    1    2  501    0 -0.42164389171E+02 -0.38532851441E+02  0.22227029188E+04  0.22234367276E+04  0.00000000000E+00 0.  1.
          2    1    1    2  502    0  0.42164389171E+02  0.38532851441E+02 -0.24161428525E+02  0.62019279121E+02  0.00000000000E+00 0.  1.
</event>
<event>
 4    1  0.7940509E+003  0.2043380E+02  0.7546771E-02  0.1527504E+00
          2   -1    0    0  502    0  0.00000000000E+00  0.00000000000E+00  0.30271302750E+03  0.30271302750E+03  0.00000000000E+00 0. -1.
          2   -1    0    0  501    0 -0.00000000000E+00 -0.00000000000E+00 -0.16311190099E+01  0.16311190099E+01  0.00000000000E+00 0. -1.
          2    1    1    2  501    0  0.13039883281E+02 -0.15732189028E+02  0.21032879791E+03  0.21131905631E+03  0.00000000000E+00 0. -1.
          2    1    1    2  502    0 -0.13039883281E+02  0.15732189028E+02  0.90753110578E+02  0.93025090203E+02  0.00000000000E+00 0. -1.
</event>
<event>
 4    1  0.7940509E+003  0.2423777E+02  0.7546771E-02  0.1477514E+00
          2   -1    0    0  502    0  0.00000000000E+00  0.00000000000E+00  0.23416771064E+02  0.23416771064E+02  0.00000000000E+00 0. -1.
          2   -1    0    0  501    0 -0.00000000000E+00 -0.00000000000E+00 -0.12284514982E+04  0.12284514982E+04  0.00000000000E+00 0.  1.
          2    1    1    2  501    0  0.18048643402E+02 -0.16177631316E+02  0.16992360967E+02  0.29600838077E+02  0.00000000000E+00 0. -1.
          2    1    1    2  502    0 -0.18048643402E+02  0.16177631316E+02 -0.12220270881E+04  0.12222674311E+04  0.00000000000E+00 0.  1.
</event>
<event>
 4    1  0.7940509E+003  0.6542399E+02  0.7546771E-02  0.1242440E+00
          2   -1    0    0  502    0  0.00000000000E+00  0.00000000000E+00  0.34447910729E+02  0.34447910729E+02  0.00000000000E+00 0.  1.
          2   -1    0    0  501    0 -0.00000000000E+00 -0.00000000000E+00 -0.19178296748E+04  0.19178296748E+04  0.00000000000E+00 0.  1.
          2    1    1    2  501    0  0.49311440745E+02  0.42996288176E+02  0.22969119642E+01  0.65464301645E+02  0.00000000000E+00 0.  1.
          2    1    1    2  502    0 -0.49311440745E+02 -0.42996288176E+02 -0.18856786760E+04  0.18868132839E+04  0.00000000000E+00 0.  1.
</event>
<event>
 4    1  0.7940509E+003  0.2053186E+02  0.7546771E-02  0.1526055E+00
          2   -1    0    0  502    0  0.00000000000E+00  0.00000000000E+00  0.64394224090E+03  0.64394224090E+03  0.00000000000E+00 0.  1.
          2   -1    0    0  501    0 -0.00000000000E+00 -0.00000000000E+00 -0.72986454873E+00  0.72986454873E+00  0.00000000000E+00 0. -1.
          2    1    1    2  501    0 -0.34153221592E+01  0.20245807075E+02  0.21813078092E+03  0.21909494452E+03  0.00000000000E+00 0. -1.
          2    1    1    2  502    0  0.34153221592E+01 -0.20245807075E+02  0.42508159543E+03  0.42557716093E+03  0.00000000000E+00 0.  1.
</event>
<event>
 4    1  0.7940509E+003  0.2996263E+02  0.7546771E-02  0.1419922E+00
          2   -1    0    0  501    0  0.00000000000E+00  0.00000000000E+00  0.31510898184E+02  0.31510898184E+02  0.00000000000E+00 0.  1.
          2   -1    0    0  502    0 -0.00000000000E+00 -0.00000000000E+00 -0.15342859129E+04  0.15342859129E+04  0.00000000000E+00 0. -1.
          2    1    1    2  501    0  0.97905497290E+01  0.28317919482E+02 -0.15269829581E+04  0.15272768949E+04  0.00000000000E+00 0. -1.
          2    1    1    2  502    0 -0.97905497290E+01 -0.28317919482E+02  0.24207943309E+02  0.38519916239E+02  0.00000000000E+00 0.  1.
</event>
<event>
 4    1  0.7940509E+003  0.4716536E+02  0.7546771E-02  0.1310954E+00
          2   -1    0    0  501    0  0.00000000000E+00  0.00000000000E+00  0.25047300093E+03  0.25047300093E+03  0.00000000000E+00 0. -1.
          2   -1    0    0  502    0 -0.00000000000E+00 -0.00000000000E+00 -0.19052006541E+04  0.19052006541E+04  0.00000000000E+00 0.  1.
          2    1    1    2  501    0  0.46977684803E+02  0.42033269536E+01 -0.19026854418E+04  0.19032699391E+04  0.00000000000E+00 0.  1.
          2    1    1    2  502    0 -0.46977684803E+02 -0.42033269536E+01  0.24795778865E+03  0.25240371586E+03  0.00000000000E+00 0. -1.
</event>
<event>
 4    1  0.7940509E+003  0.2540309E+02  0.7546771E-02  0.1464344E+00
          2   -1    0    0  501    0  0.00000000000E+00  0.00000000000E+00  0.20433304946E+03  0.20433304946E+03  0.00000000000E+00 0. -1.
          2   -1    0    0  502    0 -0.00000000000E+00 -0.00000000000E+00 -0.13040067044E+02  0.13040067044E+02  0.00000000000E+00 0. -1.
          2    1    1    2  501    0  0.23680541009E+02  0.91950371650E+01  0.10323008062E+01  0.25424051131E+02  0.00000000000E+00 0. -1.
          2    1    1    2  502    0 -0.23680541009E+02 -0.91950371650E+01  0.19026068161E+03  0.19194906537E+03  0.00000000000E+00 0. -1.
</event>
<event>
 4    1  0.7940509E+003  0.2255651E+02  0.7546771E-02  0.1498143E+00
          2   -1    0    0  501    0  0.00000000000E+00  0.00000000000E+00  0.41263586971E+00  0.41263586971E+00  0.00000000000E+00 0. -1.
          2   -1    0    0  502    0 -0.00000000000E+00 -0.00000000000E+00 -0.13843815555E+04  0.13843815555E+04  0.00000000000E+00 0. -1.
          2    1    1    2  501    0 -0.16684146617E+02  0.15180101588E+02 -0.92091697301E+03  0.92119317595E+03  0.00000000000E+00 0. -1.
          2    1    1    2  502    0  0.16684146617E+02 -0.15180101588E+02 -0.46305194661E+03  0.46360101541E+03  0.00000000000E+00 0. -1.
</event>
<event>
 4    1  0.7940509E+003  0.3682085E+02  0.7546771E-02  0.1368195E+00
          2   -1    0    0  501    0  0.00000000000E+00  0.00000000000E+00  0.63460972076E+01  0.63460972076E+01  0.00000000000E+00 0. -1.
          2   -1    0    0  502    0 -0.00000000000E+00 -0.00000000000E+00 -0.24211858011E+04  0.24211858011E+04  0.00000000000E+00 0.  1.
          2    1    1    2  501    0 -0.33222278364E+02  0.15876247741E+02 -0.23663995603E+04  0.23666860066E+04  0.00000000000E+00 0.  1.
          2    1    1    2  502    0  0.33222278364E+02 -0.15876247741E+02 -0.48440143596E+02  0.60845891674E+02  0.00000000000E+00 0. -1.
</event>
<event>
 4    1  0.7940509E+003  0.3687307E+02  0.7546771E-02  0.1367853E+00
          2   -1    0    0  501    0  0.00000000000E+00  0.00000000000E+00  0.61781461539E+01  0.61781461539E+01  0.00000000000E+00 0. -1.
          2   -1    0    0  502    0 -0.00000000000E+00 -0.00000000000E+00 -0.62097528986E+03  0.62097528986E+03  0.00000000000E+00 0. -1.
          2    1    1    2  501    0 -0.59580610398E+01 -0.36388529938E+02 -0.55935627104E+03  0.56057030028E+03  0.00000000000E+00 0. -1.
          2    1    1    2  502    0  0.59580610398E+01  0.36388529938E+02 -0.55440872666E+02  0.66583135736E+02  0.00000000000E+00 0. -1.
</event>
<event>
 4    1  0.7940509E+003  0.2562418E+02  0.7546771E-02  0.1461940E+00
          2   -1    0    0  502    0  0.00000000000E+00  0.00000000000E+00  0.14251426115E+04  0.14251426115E+04  0.00000000000E+00 0.  1.
          2   -1    0    0  501    0 -0.00000000000E+00 -0.00000000000E+00 -0.33913156299E+01  0.33913156299E+01  0.00000000000E+00 0. -1.
          2    1    1    2  501    0 -0.16762204925E+02  0.19381102289E+02  0.13748541924E+04  0.13750929601E+04  0.00000000000E+00 0.  1.
          2    1    1    2  502    0  0.16762204925E+02 -0.19381102289E+02  0.46897103463E+02  0.53440966993E+02  0.00000000000E+00 0. -1.
</event>
<event>
 4    1  0.7940509E+003  0.3131169E+02  0.7546771E-02  0.1408530E+00
          2   -1    0    0  502    0  0.00000000000E+00  0.00000000000E+00  0.41469343313E+01  0.41469343313E+01  0.00000000000E+00 0. -1.
          2   -1    0    0  501    0 -0.00000000000E+00 -0.00000000000E+00 -0.19944816868E+04  0.19944816868E+04  0.00000000000E+00 0.  1.
          2    1    1    2  501    0  0.14073593163E+02 -0.27970626847E+02 -0.56948810787E+02  0.64989145562E+02  0.00000000000E+00 0. -1.
          2    1    1    2  502    0 -0.14073593163E+02  0.27970626847E+02 -0.19333859417E+04  0.19336394755E+04  0.00000000000E+00 0.  1.
</event>
<event>
 4    1  0.7940509E+003  0.3417795E+02  0.7546771E-02  0.1386436E+00
          2   -1    0    0  501    0  0.00000000000E+00  0.00000000000E+00  0.78624773170E+01  0.78624773170E+01  0.00000000000E+00 0. -1.
          2   -1    0    0  502    0 -0.00000000000E+00 -0.00000000000E+00 -0.36293073385E+03  0.36293073385E+03  0.00000000000E+00 0.  1.
          2    1    1    2  501    0 -0.27121990480E+02 -0.20797358117E+02 -0.32001677674E+03  0.32183671305E+03  0.00000000000E+00 0.  1.
          2    1    1    2  502    0  0.27121990480E+02  0.20797358117E+02 -0.35051479796E+02  0.48956498119E+02  0.00000000000E+00 0. -1.
</event>
<event>
 4    1  0.7940509E+003  0.2615413E+02  0.7546771E-02  0.1456295E+00
          2   -1    0    0  501    0  0.00000000000E+00  0.00000000000E+00  0.12523923702E+04  0.12523923702E+04  0.00000000000E+00 0.  1.
          2   -1    0    0  502    0 -0.00000000000E+00 -0.00000000000E+00 -0.15351480454E+03  0.15351480454E+03  0.00000000000E+00 0. -1.
          2    1    1    2  501    0  0.15271775038E+02 -0.21232319308E+02 -0.15226318213E+03  0.15449309088E+03  0.00000000000E+00 0. -1.
          2    1    1    2  502    0 -0.15271775038E+02  0.21232319308E+02  0.12511407478E+04  0.12514140839E+04  0.00000000000E+00 0.  1.
</event>
<event>
 4    1  0.7940509E+003  0.3578406E+02  0.7546771E-02  0.1375133E+00
          2   -1    0    0  502    0  0.00000000000E+00  0.00000000000E+00  0.30136095284E+02  0.30136095284E+02  0.00000000000E+00 0. -1.
          2   -1    0    0  501    0 -0.00000000000E+00 -0.00000000000E+00 -0.14128398971E+04  0.14128398971E+04  0.00000000000E+00 0. -1.
          2    1    1    2  501    0 -0.20442280607E+02 -0.29370263916E+02  0.19204053914E+02  0.40611512230E+02  0.00000000000E+00 0. -1.
          2    1    1    2  502    0  0.20442280607E+02  0.29370263916E+02 -0.14019078558E+04  0.14023644802E+04  0.00000000000E+00 0. -1.
</event>
<event>
 4    1  0.7940509E+003  0.3184082E+02  0.7546771E-02  0.1404247E+00
          2   -1    0    0  502    0  0.00000000000E+00  0.00000000000E+00  0.61625084429E+01  0.61625084429E+01  0.00000000000E+00 0. -1.
          2   -1    0    0  501    0 -0.00000000000E+00 -0.00000000000E+00 -0.30653011250E+03  0.30653011250E+03  0.00000000000E+00 0.  1.
          2    1    1    2  501    0  0.26007860252E+02  0.18369241140E+02 -0.43765779358E+02  0.54122834901E+02  0.00000000000E+00 0. -1.
          2    1    1    2  502    0 -0.26007860252E+02 -0.18369241140E+02 -0.25660182470E+03  0.25856978604E+03  0.00000000000E+00 0.  1.
</event>
<event>
 4    1  0.7940509E+003  0.3146224E+02  0.7546771E-02  0.1407301E+00
          2   -1    0    0  501    0  0.00000000000E+00  0.00000000000E+00  0.11838057899E+03  0.11838057899E+03  0.00000000000E+00 0. -1.
          2   -1    0    0  502    0 -0.00000000000E+00 -0.00000000000E+00 -0.42022234340E+02  0.42022234340E+02  0.00000000000E+00 0. -1.
          2    1    1    2  501    0 -0.58099377843E+01 -0.30921146205E+02 -0.33600651114E+02  0.46031254762E+02  0.00000000000E+00 0. -1.
          2    1    1    2  502    0  0.58099377843E+01  0.30921146205E+02  0.10995899576E+03  0.11437155857E+03  0.00000000000E+00 0. -1.
</event>
<event>
 4    1  0.7940509E+003  0.2213993E+02  0.7546771E-02  0.1503590E+00
          2   -1    0    0  502    0  0.00000000000E+00  0.00000000000E+00  0.63348550927E+00  0.63348550927E+00  0.00000000000E+00 0. -1.
          2   -1    0    0  501    0 -0.00000000000E+00 -0.00000000000E+00 -0.11045174411E+04  0.11045174411E+04  0.00000000000E+00 0. -1.
          2    1    1    2  501    0  0.47752853966E+00 -0.22134782683E+02 -0.24956492297E+03  0.25054506065E+03  0.00000000000E+00 0. -1.
          2    1    1    2  502    0 -0.47752853966E+00  0.22134782683E+02 -0.85431903260E+03  0.85460586594E+03  0.00000000000E+00 0. -1.
</event>
<event>
 4    1  0.7940509E+003  0.2784781E+02  0.7546771E-02  0.1439273E+00
          2   -1    0    0  501    0  0.00000000000E+00  0.00000000000E+00  0.68784676805E+01  0.68784676805E+01  0.00000000000E+00 0. -1.
          2   -1    0    0  502    0 -0.00000000000E+00 -0.00000000000E+00 -0.28748159285E+03  0.28748159285E+03  0.00000000000E+00 0. -1.
          2    1    1    2  501    0  0.26954547608E+02 -0.69966514318E+01 -0.25504767458E+03  0.25656347572E+03  0.00000000000E+00 0. -1.
          2    1    1    2  502    0 -0.26954547608E+02  0.69966514318E+01 -0.25555450588E+02  0.37796584803E+02  0.00000000000E+00 0. -1.
</event>
<event>
 4    1  0.7940509E+003  0.2969743E+02  0.7546771E-02  0.1422244E+00
          2   -1    0    0  502    0  0.00000000000E+00  0.00000000000E+00  0.67326102608E+03  0.67326102608E+03  0.00000000000E+00 0. -1.
          2   -1    0    0  501    0 -0.00000000000E+00 -0.00000000000E+00 -0.13478840981E+02  0.13478840981E+02  0.00000000000E+00 0. -1.
          2    1    1    2  501    0  0.49335631076E+01  0.29284765236E+02  0.65614934822E+03  0.65682105987E+03  0.00000000000E+00 0. -1.
          2    1    1    2  502    0 -0.49335631076E+01 -0.29284765236E+02  0.36328368781E+01  0.29918807189E+02  0.00000000000E+00 0. -1.
</event>
<event>
 4    1  0.7940509E+003  0.4354314E+02  0.7546771E-02  0.1328887E+00
          2   -1    0    0  501    0  0.00000000000E+00  0.00000000000E+00  0.11266411633E+03  0.11266411633E+03  0.00000000000E+00 0.  1.
          2   -1    0    0  502    0 -0.00000000000E+00 -0.00000000000E+00 -0.73923883379E+03  0.73923883379E+03  0.00000000000E+00 0.  1.
          2    1    1    2  501    0 -0.19545053623E+01  0.43499249255E+02 -0.73436251345E+03  0.73565229963E+03  0.00000000000E+00 0.  1.
          2    1    1    2  502    0  0.19545053623E+01 -0.43499249255E+02  0.10778779599E+03  0.11625065049E+03  0.00000000000E+00 0.  1.
</event>
<event>
 4    1  0.7940509E+003  0.2587355E+02  0.7546771E-02  0.1459264E+00
          2   -1    0    0  501    0  0.00000000000E+00  0.00000000000E+00  0.20292316697E+03  0.20292316697E+03  0.00000000000E+00 0. -1.
          2   -1    0    0  502    0 -0.00000000000E+00 -0.00000000000E+00 -0.33275690427E+02  0.33275690427E+02  0.00000000000E+00 0. -1.
          2    1    1    2  501    0  0.11307860523E+02 -0.23271718710E+02 -0.27268671311E+02  0.37590172072E+02  0.00000000000E+00 0. -1.
          2    1    1    2  502    0 -0.11307860523E+02  0.23271718710E+02  0.19691614785E+03  0.19860868532E+03  0.00000000000E+00 0. -1.
</event>
<event>
 4    1  0.7940509E+003  0.2209555E+02  0.7546771E-02  0.1504179E+00
          2   -1    0    0  501    0  0.00000000000E+00  0.00000000000E+00  0.69402371652E+03  0.69402371652E+03  0.00000000000E+00 0.  1.
          2   -1    0    0  502    0 -0.00000000000E+00 -0.00000000000E+00 -0.29290166819E+01  0.29290166819E+01  0.00000000000E+00 0. -1.
          2    1    1    2  501    0 -0.90483368581E+01  0.20157903045E+02  0.41786104058E+02  0.47268297488E+02  0.00000000000E+00 0. -1.
          2    1    1    2  502    0  0.90483368581E+01 -0.20157903045E+02  0.64930859578E+03  0.64968443572E+03  0.00000000000E+00 0.  1.
</event>
<event>
 4    1  0.7940509E+003  0.2449312E+02  0.7546771E-02  0.1474554E+00
          2   -1    0    0  502    0  0.00000000000E+00  0.00000000000E+00  0.11947069493E+02  0.11947069493E+02  0.00000000000E+00 0.  1.
          2   -1    0    0  501    0 -0.00000000000E+00 -0.00000000000E+00 -0.71002958405E+02  0.71002958405E+02  0.00000000000E+00 0. -1.
          2    1    1    2  501    0 -0.93218828086E+00 -0.24475376367E+02 -0.70859128636E+01  0.25497513298E+02  0.00000000000E+00 0.  1.
          2    1    1    2  502    0  0.93218828086E+00  0.24475376367E+02 -0.51969976048E+02  0.57452514599E+02  0.00000000000E+00 0. -1.
</event>
<event>
 4    1  0.7940509E+003  0.5763059E+02  0.7546771E-02  0.1268103E+00
          2   -1    0    0  502    0  0.00000000000E+00  0.00000000000E+00  0.26623466994E+01  0.26623466994E+01  0.00000000000E+00 0. -1.
          2   -1    0    0  501    0 -0.00000000000E+00 -0.00000000000E+00 -0.26546989168E+04  0.26546989168E+04  0.00000000000E+00 0. -1.
          2    1    1    2  501    0  0.47094042730E+02  0.33217999977E+02 -0.35865340683E+03  0.36325411300E+03  0.00000000000E+00 0. -1.
          2    1    1    2  502    0 -0.47094042730E+02 -0.33217999977E+02 -0.22933831632E+04  0.22941071505E+04  0.00000000000E+00 0. -1.
</event>
<event>
 4    1  0.7940509E+003  0.2933838E+02  0.7546771E-02  0.1425434E+00
          2   -1    0    0  501    0  0.00000000000E+00  0.00000000000E+00  0.14229274641E+03  0.14229274641E+03  0.00000000000E+00 0.  1.
          2   -1    0    0  502    0 -0.00000000000E+00 -0.00000000000E+00 -0.15158101832E+02  0.15158101832E+02  0.00000000000E+00 0. -1.
          2    1    1    2  501    0 -0.15853364813E+02 -0.24686256189E+02  0.25394210896E+01  0.29448074301E+02  0.00000000000E+00 0. -1.
          2    1    1    2  502    0  0.15853364813E+02  0.24686256189E+02  0.12459522349E+03  0.12800277394E+03  0.00000000000E+00 0.  1.
</event>
<event>
 4    1  0.7940509E+003  0.2169348E+02  0.7546771E-02  0.1509590E+00
          2   -1    0    0  501    0  0.00000000000E+00  0.00000000000E+00  0.16772023534E+04  0.16772023534E+04  0.00000000000E+00 0. -1.
          2   -1    0    0  502    0 -0.00000000000E+00 -0.00000000000E+00 -0.81106434221E+00  0.81106434221E+00  0.00000000000E+00 0. -1.
          2    1    1    2  501    0  0.20018489440E+02 -0.83586567664E+01  0.15966453775E+03  0.16113153532E+03  0.00000000000E+00 0. -1.
          2    1    1    2  502    0 -0.20018489440E+02  0.83586567664E+01  0.15167267513E+04  0.15168818824E+04  0.00000000000E+00 0. -1.
</event>
<event>
 4    1  0.7940509E+003  0.2140778E+02  0.7546771E-02  0.1513522E+00
          2   -1    0    0  502    0  0.00000000000E+00  0.00000000000E+00  0.87443633876E+01  0.87443633876E+01  0.00000000000E+00 0.  1.
          2   -1    0    0  501    0 -0.00000000000E+00 -0.00000000000E+00 -0.11481001369E+03  0.11481001369E+03  0.00000000000E+00 0. -1.
          2    1    1    2  501    0  0.21100105424E+02  0.36164101508E+01 -0.74889180379E+01  0.22679875764E+02  0.00000000000E+00 0.  1.
          2    1    1    2  502    0 -0.21100105424E+02 -0.36164101508E+01 -0.98576732265E+02  0.10087450131E+03  0.00000000000E+00 0. -1.
</event>
<event>
 4    1  0.7940509E+003  0.2901319E+02  0.7546771E-02  0.1428370E+00
          2   -1    0    0  502    0  0.00000000000E+00  0.00000000000E+00  0.26313232408E+02  0.26313232408E+02  0.00000000000E+00 0. -1.
          2   -1    0    0  501    0 -0.00000000000E+00 -0.00000000000E+00 -0.10823984701E+04  0.10823984701E+04  0.00000000000E+00 0.  1.
          2    1    1    2  501    0 -0.24034390045E+02 -0.16251553882E+02  0.18059827959E+02  0.34174878117E+02  0.00000000000E+00 0. -1.
          2    1    1    2  502    0  0.24034390045E+02  0.16251553882E+02 -0.10741450657E+04  0.10745368244E+04  0.00000000000E+00 0.  1.
</event>
<event>
 4    1  0.7940509E+003  0.2344429E+02  0.7546771E-02  0.1486993E+00
          2   -1    0    0  502    0  0.00000000000E+00  0.00000000000E+00  0.77321029674E+03  0.77321029674E+03  0.00000000000E+00 0.  1.
          2   -1    0    0  501    0 -0.00000000000E+00 -0.00000000000E+00 -0.64590018608E+02  0.64590018608E+02  0.00000000000E+00 0.  1.
          2    1    1    2  501    0  0.23306346676E+02  0.25394792962E+01  0.77089880926E+03  0.77125521643E+03  0.00000000000E+00 0.  1.
          2    1    1    2  502    0 -0.23306346676E+02 -0.25394792962E+01 -0.62278531129E+02  0.66545098918E+02  0.00000000000E+00 0.  1.
</event>
<event>
 4    1  0.7940509E+003  0.2849399E+02  0.7546771E-02  0.1433152E+00
          2   -1    0    0  501    0  0.00000000000E+00  0.00000000000E+00  0.17580430065E+02  0.17580430065E+02  0.00000000000E+00 0.  1.
          2   -1    0    0  502    0 -0.00000000000E+00 -0.00000000000E+00 -0.10460975554E+04  0.10460975554E+04  0.00000000000E+00 0.  1.
          2    1    1    2  501    0 -0.11738205364E+02 -0.25963860749E+02 -0.10342253975E+04  0.10346178426E+04  0.00000000000E+00 0.  1.
          2    1    1    2  502    0  0.11738205364E+02  0.25963860749E+02  0.57082721389E+01  0.29060142824E+02  0.00000000000E+00 0.  1.
</event>
<event>
 4    1  0.7940509E+003  0.2305769E+02  0.7546771E-02  0.1491775E+00
          2   -1    0    0  501    0  0.00000000000E+00  0.00000000000E+00  0.34429774062E+01  0.34429774062E+01  0.00000000000E+00 0. -1.
          2   -1    0    0  502    0 -0.00000000000E+00 -0.00000000000E+00 -0.25441280438E+03  0.25441280438E+03  0.00000000000E+00 0. -1.
          2    1    1    2  501    0 -0.16837158100E+01 -0.22996133146E+02 -0.20631378602E+03  0.20759825466E+03  0.00000000000E+00 0. -1.
          2    1    1    2  502    0  0.16837158100E+01  0.22996133146E+02 -0.44656040957E+02  0.50257527124E+02  0.00000000000E+00 0. -1.
</event>
<event>
 4    1  0.7940509E+003  0.2103687E+02  0.7546771E-02  0.1518739E+00
          2   -1    0    0  501    0  0.00000000000E+00  0.00000000000E+00  0.10706211728E+03  0.10706211728E+03  0.00000000000E+00 0.  1.
          2   -1    0    0  502    0 -0.00000000000E+00 -0.00000000000E+00 -0.35023601255E+03  0.35023601255E+03  0.00000000000E+00 0.  1.
          2    1    1    2  501    0 -0.14906649074E+02  0.14843917245E+02 -0.34888271798E+03  0.34951638154E+03  0.00000000000E+00 0.  1.
          2    1    1    2  502    0  0.14906649074E+02 -0.14843917245E+02  0.10570882271E+03  0.10778174829E+03  0.00000000000E+00 0.  1.
</event>
<event>
 4    1  0.8577696E+003  0.2486231E+02  0.7546771E-02  0.1470350E+00
          2   -1    0    0  501    0  0.00000000000E+00  0.00000000000E+00  0.76956785928E+03  0.76956785928E+03  0.00000000000E+00 0. -1.
          2   -1    0    0  502    0 -0.00000000000E+00 -0.00000000000E+00 -0.57066905260E+03  0.57066905260E+03  0.00000000000E+00 0.  1.
          2    1    1    2  501    0  0.10669024124E+02  0.22456765344E+02 -0.57019728714E+03  0.57073906529E+03  0.00000000000E+00 0.  1.
          2    1    1    2  502    0 -0.10669024124E+02 -0.22456765344E+02  0.76909609382E+03  0.76949784659E+03  0.00000000000E+00 0. -1.
</event>
<event>
 4    1  0.7940509E+003  0.2103880E+02  0.7546771E-02  0.1518711E+00
          2   -1    0    0  502    0  0.00000000000E+00  0.00000000000E+00  0.11366199791E+03  0.11366199791E+03  0.00000000000E+00 0. -1.
          2   -1    0    0  501    0 -0.00000000000E+00 -0.00000000000E+00 -0.86256158485E+03  0.86256158485E+03  0.00000000000E+00 0.  1.
          2    1    1    2  501    0  0.19158586620E+02 -0.86936683234E+01  0.11255889240E+03  0.11450823363E+03  0.00000000000E+00 0. -1.
          2    1    1    2  502    0 -0.19158586620E+02  0.86936683234E+01 -0.86145847934E+03  0.86171534914E+03  0.00000000000E+00 0.  1.
</event>
<event>
 4    1  0.7940509E+003  0.2991131E+02  0.7546771E-02  0.1420369E+00
          2   -1    0    0  502    0  0.00000000000E+00  0.00000000000E+00  0.11764170645E+04  0.11764170645E+04  0.00000000000E+00 0.  1.
          2   -1    0    0  501    0 -0.00000000000E+00 -0.00000000000E+00 -0.91454731651E+00  0.91454731651E+00  0.00000000000E+00 0.  1.
          2    1    1    2  501    0 -0.15545336280E+02 -0.25554428147E+02  0.82933488925E+03  0.82987411383E+03  0.00000000000E+00 0.  1.
          2    1    1    2  502    0  0.15545336280E+02  0.25554428147E+02  0.34616762797E+03  0.34745749802E+03  0.00000000000E+00 0.  1.
</event>
<event>
 4    1  0.7940509E+003  0.3085744E+02  0.7546771E-02  0.1412289E+00
          2   -1    0    0  501    0  0.00000000000E+00  0.00000000000E+00  0.91543365055E+03  0.91543365055E+03  0.00000000000E+00 0.  1.
          2   -1    0    0  502    0 -0.00000000000E+00 -0.00000000000E+00 -0.11175349663E+03  0.11175349663E+03  0.00000000000E+00 0.  1.
          2    1    1    2  501    0 -0.28138404105E+02 -0.12665384190E+02 -0.10935777953E+03  0.11362792652E+03  0.00000000000E+00 0.  1.
          2    1    1    2  502    0  0.28138404105E+02  0.12665384190E+02  0.91303793344E+03  0.91355922066E+03  0.00000000000E+00 0.  1.
</event>
<event>
 4    1  0.7940509E+003  0.2633626E+02  0.7546771E-02  0.1454392E+00
          2   -1    0    0  502    0  0.00000000000E+00  0.00000000000E+00  0.33339797234E+01  0.33339797234E+01  0.00000000000E+00 0. -1.
          2   -1    0    0  501    0 -0.00000000000E+00 -0.00000000000E+00 -0.45654776666E+03  0.45654776666E+03  0.00000000000E+00 0.  1.
          2    1    1    2  501    0  0.11993382568E+02  0.23446905638E+02 -0.56960859208E+02  0.62754586216E+02  0.00000000000E+00 0. -1.
          2    1    1    2  502    0 -0.11993382568E+02 -0.23446905638E+02 -0.39625292772E+03  0.39712716016E+03  0.00000000000E+00 0.  1.
</event>
<event>
 4    1  0.7940509E+003  0.2262269E+02  0.7546771E-02  0.1497291E+00
          2   -1    0    0  502    0  0.00000000000E+00  0.00000000000E+00  0.11278105193E+01  0.11278105193E+01  0.00000000000E+00 0.  1.
          2   -1    0    0  501    0 -0.00000000000E+00 -0.00000000000E+00 -0.11861612940E+04  0.11861612940E+04  0.00000000000E+00 0. -1.
          2    1    1    2  501    0  0.15342814457E+02  0.16624804425E+02 -0.10589839007E+04  0.10592255133E+04  0.00000000000E+00 0. -1.
          2    1    1    2  502    0 -0.15342814457E+02 -0.16624804425E+02 -0.12604958279E+03  0.12806359123E+03  0.00000000000E+00 0.  1.
</event>
<event>
 4    1  0.7940509E+003  0.2170460E+02  0.7546771E-02  0.1509438E+00
          2   -1    0    0  501    0  0.00000000000E+00  0.00000000000E+00  0.33607882761E+00  0.33607882761E+00  0.00000000000E+00 0. -1.
          2   -1    0    0  502    0 -0.00000000000E+00 -0.00000000000E+00 -0.20321371227E+04  0.20321371227E+04  0.00000000000E+00 0.  1.
          2    1    1    2  501    0 -0.20033791780E+02  0.83508504241E+01 -0.15819197683E+04  0.15820686593E+04  0.00000000000E+00 0.  1.
          2    1    1    2  502    0  0.20033791780E+02 -0.83508504241E+01 -0.44988127555E+03  0.45040454216E+03  0.00000000000E+00 0. -1.
</event>
<event>
 4    1  0.7940509E+003  0.3127292E+02  0.7546771E-02  0.1408848E+00
          2   -1    0    0  501    0  0.00000000000E+00  0.00000000000E+00  0.75885276423E+03  0.75885276423E+03  0.00000000000E+00 0. -1.
          2   -1    0    0  502    0 -0.00000000000E+00 -0.00000000000E+00 -0.13893574585E+03  0.13893574585E+03  0.00000000000E+00 0. -1.
          2    1    1    2  501    0  0.29159147871E+02 -0.11302196052E+02 -0.13684890144E+03  0.14037669808E+03  0.00000000000E+00 0. -1.
          2    1    1    2  502    0 -0.29159147871E+02  0.11302196052E+02  0.75676591982E+03  0.75741181199E+03  0.00000000000E+00 0. -1.
</event>
<event>
 4    1  0.7940509E+003  0.3839794E+02  0.7546771E-02  0.1358138E+00
          2   -1    0    0  501    0  0.00000000000E+00  0.00000000000E+00  0.13293166166E+03  0.13293166166E+03  0.00000000000E+00 0. -1.
          2   -1    0    0  502    0 -0.00000000000E+00 -0.00000000000E+00 -0.29171997334E+02  0.29171997334E+02  0.00000000000E+00 0.  1.
          2    1    1    2  501    0 -0.37896154169E+02 -0.61873602379E+01 -0.11929734139E+02  0.40208462843E+02  0.00000000000E+00 0.  1.
          2    1    1    2  502    0  0.37896154169E+02  0.61873602379E+01  0.11568939846E+03  0.12189519615E+03  0.00000000000E+00 0. -1.
</event>
<event>
 4    1  0.7940509E+003  0.2061274E+02  0.7546771E-02  0.1524866E+00
          2   -1    0    0  501    0  0.00000000000E+00  0.00000000000E+00  0.22632574993E+02  0.22632574993E+02  0.00000000000E+00 0. -1.
          2   -1    0    0  502    0 -0.00000000000E+00 -0.00000000000E+00 -0.23494789494E+02  0.23494789494E+02  0.00000000000E+00 0. -1.
          2    1    1    2  501    0 -0.34369861449E+01 -0.20324178265E+02 -0.10770345097E+02  0.23256943682E+02  0.00000000000E+00 0. -1.
          2    1    1    2  502    0  0.34369861449E+01  0.20324178265E+02  0.99081305962E+01  0.22870420805E+02  0.00000000000E+00 0. -1.
</event>
<event>
 4    1  0.7940509E+003  0.2175418E+02  0.7546771E-02  0.1508764E+00
          2   -1    0    0  501    0  0.00000000000E+00  0.00000000000E+00  0.12814642754E+02  0.12814642754E+02  0.00000000000E+00 0.  1.
          2   -1    0    0  502    0 -0.00000000000E+00 -0.00000000000E+00 -0.45414978643E+03  0.45414978643E+03  0.00000000000E+00 0. -1.
          2    1    1    2  501    0  0.20819586231E+02  0.63078594256E+01 -0.44445553070E+03  0.44498759873E+03  0.00000000000E+00 0. -1.
          2    1    1    2  502    0 -0.20819586231E+02 -0.63078594256E+01  0.31203870225E+01  0.21976830448E+02  0.00000000000E+00 0.  1.
</event>
<event>
 4    1  0.7940509E+003  0.2058804E+02  0.7546771E-02  0.1525229E+00
          2   -1    0    0  501    0  0.00000000000E+00  0.00000000000E+00  0.32600993773E+01  0.32600993773E+01  0.00000000000E+00 0.  1.
          2   -1    0    0  502    0 -0.00000000000E+00 -0.00000000000E+00 -0.46159571688E+03  0.46159571688E+03  0.00000000000E+00 0. -1.
          2    1    1    2  501    0 -0.18948299932E+02  0.80516756132E+01 -0.42616084336E+03  0.42665786289E+03  0.00000000000E+00 0. -1.
          2    1    1    2  502    0  0.18948299932E+02 -0.80516756132E+01 -0.32174774140E+02  0.38197953367E+02  0.00000000000E+00 0.  1.
</event>
<event>
 4    1  0.7940509E+003  0.2731594E+02  0.7546771E-02  0.1444460E+00
          2   -1    0    0  502    0  0.00000000000E+00  0.00000000000E+00  0.80667803898E+03  0.80667803898E+03  0.00000000000E+00 0.  1.
          2   -1    0    0  501    0 -0.00000000000E+00 -0.00000000000E+00 -0.75828828893E+01  0.75828828893E+01  0.00000000000E+00 0. -1.
          2    1    1    2  501    0 -0.27311307711E+02 -0.50298796562E+00  0.78103934692E+03  0.78151687248E+03  0.00000000000E+00 0.  1.
          2    1    1    2  502    0  0.27311307711E+02  0.50298796562E+00  0.18055809165E+02  0.32744049389E+02  0.00000000000E+00 0. -1.
</event>
<event>
 4    1  0.7940509E+003  0.4379197E+02  0.7546771E-02  0.1327591E+00
          2   -1    0    0  502    0  0.00000000000E+00  0.00000000000E+00  0.20339361387E+02  0.20339361387E+02  0.00000000000E+00 0.  1.
          2   -1    0    0  501    0 -0.00000000000E+00 -0.00000000000E+00 -0.23216286124E+03  0.23216286124E+03  0.00000000000E+00 0. -1.
          2    1    1    2  501    0 -0.94289699575E+01  0.42764838487E+02 -0.86184368714E+01  0.44631987849E+02  0.00000000000E+00 0.  1.
          2    1    1    2  502    0  0.94289699575E+01 -0.42764838487E+02 -0.20320506298E+03  0.20787023478E+03  0.00000000000E+00 0. -1.
</event>
<event>
 4    1  0.7940509E+003  0.2486114E+02  0.7546771E-02  0.1470363E+00
          2   -1    0    0  501    0  0.00000000000E+00  0.00000000000E+00  0.11481186178E+03  0.11481186178E+03  0.00000000000E+00 0.  1.
          2   -1    0    0  502    0 -0.00000000000E+00 -0.00000000000E+00 -0.25446182919E+03  0.25446182919E+03  0.00000000000E+00 0. -1.
          2    1    1    2  501    0 -0.18809458109E+02 -0.16256706354E+02 -0.25249830425E+03  0.25371927374E+03  0.00000000000E+00 0. -1.
          2    1    1    2  502    0  0.18809458109E+02  0.16256706354E+02  0.11284833683E+03  0.11555441723E+03  0.00000000000E+00 0.  1.
</event>
<event>
 4    1  0.7940509E+003  0.2316119E+02  0.7546771E-02  0.1490484E+00
          2   -1    0    0  502    0  0.00000000000E+00  0.00000000000E+00  0.22899788400E+03  0.22899788400E+03  0.00000000000E+00 0. -1.
          2   -1    0    0  501    0 -0.00000000000E+00 -0.00000000000E+00 -0.22767802642E+02  0.22767802642E+02  0.00000000000E+00 0.  1.
          2    1    1    2  501    0  0.18671004938E+02 -0.13705267910E+02  0.22234615961E+03  0.22354922386E+03  0.00000000000E+00 0. -1.
          2    1    1    2  502    0 -0.18671004938E+02  0.13705267910E+02 -0.16116078252E+02  0.28216462785E+02  0.00000000000E+00 0.  1.
</event>
<event>
 4    1  0.7940509E+003  0.5320484E+02  0.7546771E-02  0.1284845E+00
          2   -1    0    0  501    0  0.00000000000E+00  0.00000000000E+00  0.16414585036E+03  0.16414585036E+03  0.00000000000E+00 0. -1.
          2   -1    0    0  502    0 -0.00000000000E+00 -0.00000000000E+00 -0.24766989999E+02  0.24766989999E+02  0.00000000000E+00 0. -1.
          2    1    1    2  501    0 -0.51144904171E+02 -0.14661304057E+02  0.17635836947E+02  0.56051563798E+02  0.00000000000E+00 0. -1.
          2    1    1    2  502    0  0.51144904171E+02  0.14661304057E+02  0.12174302341E+03  0.13286127656E+03  0.00000000000E+00 0. -1.
</event>
<event>
 4    1  0.7940509E+003  0.2493858E+02  0.7546771E-02  0.1469492E+00
          2   -1    0    0  501    0  0.00000000000E+00  0.00000000000E+00  0.51519877856E+02  0.51519877856E+02  0.00000000000E+00 0.  1.
          2   -1    0    0  502    0 -0.00000000000E+00 -0.00000000000E+00 -0.29129162813E+02  0.29129162813E+02  0.00000000000E+00 0. -1.
          2    1    1    2  501    0  0.19473526663E+02  0.15579299886E+02 -0.19662256832E+02  0.31757474228E+02  0.00000000000E+00 0. -1.
          2    1    1    2  502    0 -0.19473526663E+02 -0.15579299886E+02  0.42052971875E+02  0.48891566442E+02  0.00000000000E+00 0.  1.
</event>
<event>
 4    1  0.7940509E+003  0.2220652E+02  0.7546771E-02  0.1502710E+00
          2   -1    0    0  501    0  0.00000000000E+00  0.00000000000E+00  0.19174257308E+03  0.19174257308E+03  0.00000000000E+00 0. -1.
          2   -1    0    0  502    0 -0.00000000000E+00 -0.00000000000E+00 -0.53559309526E+01  0.53559309526E+01  0.00000000000E+00 0.  1.
          2    1    1    2  501    0 -0.71517010249E+01  0.21023383091E+02  0.22140999772E+02  0.31358465126E+02  0.00000000000E+00 0.  1.
          2    1    1    2  502    0  0.71517010249E+01 -0.21023383091E+02  0.16424564236E+03  0.16574003891E+03  0.00000000000E+00 0. -1.
</event>
<event>
 4    1  0.7940509E+003  0.2361312E+02  0.7546771E-02  0.1484939E+00
          2   -1    0    0  501    0  0.00000000000E+00  0.00000000000E+00  0.62452762021E+02  0.62452762021E+02  0.00000000000E+00 0.  1.
          2   -1    0    0  502    0 -0.00000000000E+00 -0.00000000000E+00 -0.64857049883E+03  0.64857049883E+03  0.00000000000E+00 0. -1.
          2    1    1    2  501    0  0.23440036231E+02  0.28538108140E+01 -0.64611508799E+03  0.64654643025E+03  0.00000000000E+00 0. -1.
          2    1    1    2  502    0 -0.23440036231E+02 -0.28538108140E+01  0.59997351187E+02  0.64476830599E+02  0.00000000000E+00 0.  1.
</event>
<event>
 4    1  0.7940509E+003  0.2497431E+02  0.7546771E-02  0.1469091E+00
          2   -1    0    0  502    0  0.00000000000E+00  0.00000000000E+00  0.85172464112E+00  0.85172464112E+00  0.00000000000E+00 0. -1.
          2   -1    0    0  501    0 -0.00000000000E+00 -0.00000000000E+00 -0.15168005982E+04  0.15168005982E+04  0.00000000000E+00 0. -1.
          2    1    1    2  501    0 -0.49235859559E+00  0.24969456101E+02 -0.21224764673E+03  0.21371190818E+03  0.00000000000E+00 0. -1.
          2    1    1    2  502    0  0.49235859559E+00 -0.24969456101E+02 -0.13037012269E+04  0.13039404147E+04  0.00000000000E+00 0. -1.
</event>
<event>
 4    1  0.7940509E+003  0.2168692E+02  0.7546771E-02  0.1509679E+00
          2   -1    0    0  501    0  0.00000000000E+00  0.00000000000E+00  0.11119895335E+03  0.11119895335E+03  0.00000000000E+00 0. -1.
          2   -1    0    0  502    0 -0.00000000000E+00 -0.00000000000E+00 -0.89928468123E+02  0.89928468123E+02  0.00000000000E+00 0.  1.
          2    1    1    2  501    0 -0.18912822490E+02  0.10612612570E+02 -0.87535108055E+02  0.90181580948E+02  0.00000000000E+00 0.  1.
          2    1    1    2  502    0  0.18912822490E+02 -0.10612612570E+02  0.10880559329E+03  0.11094584053E+03  0.00000000000E+00 0. -1.
</event>
<event>
 4    1  0.7940509E+003  0.3084686E+02  0.7546771E-02  0.1412377E+00
          2   -1    0    0  502    0  0.00000000000E+00  0.00000000000E+00  0.27583905336E+03  0.27583905336E+03  0.00000000000E+00 0.  1.
          2   -1    0    0  501    0 -0.00000000000E+00 -0.00000000000E+00 -0.12179500828E+03  0.12179500828E+03  0.00000000000E+00 0.  1.
          2    1    1    2  501    0  0.30099878084E+02 -0.67473171291E+01  0.27300329874E+03  0.27474047767E+03  0.00000000000E+00 0.  1.
          2    1    1    2  502    0 -0.30099878084E+02  0.67473171291E+01 -0.11895925366E+03  0.12289358396E+03  0.00000000000E+00 0.  1.
</event>
<event>
 4    1  0.7940509E+003  0.3409981E+02  0.7546771E-02  0.1387005E+00
          2   -1    0    0  502    0  0.00000000000E+00  0.00000000000E+00  0.86949671646E+03  0.86949671646E+03  0.00000000000E+00 0.  1.
          2   -1    0    0  501    0 -0.00000000000E+00 -0.00000000000E+00 -0.15796071458E+03  0.15796071458E+03  0.00000000000E+00 0.  1.
          2    1    1    2  501    0 -0.31410512195E+02  0.13273171843E+02  0.86731743670E+03  0.86798751913E+03  0.00000000000E+00 0.  1.
          2    1    1    2  502    0  0.31410512195E+02 -0.13273171843E+02 -0.15578143482E+03  0.15946991190E+03  0.00000000000E+00 0.  1.
</event>
<event>
 4    1  0.7940509E+003  0.2103203E+02  0.7546771E-02  0.1518808E+00
          2   -1    0    0  502    0  0.00000000000E+00  0.00000000000E+00  0.19312443249E+01  0.19312443249E+01  0.00000000000E+00 0.  1.
          2   -1    0    0  501    0 -0.00000000000E+00 -0.00000000000E+00 -0.40624090670E+03  0.40624090670E+03  0.00000000000E+00 0.  1.
          2    1    1    2  501    0  0.84834379804E+01  0.19245193849E+02 -0.67368568813E+02  0.70575280872E+02  0.00000000000E+00 0.  1.
          2    1    1    2  502    0 -0.84834379804E+01 -0.19245193849E+02 -0.33694109356E+03  0.33759687015E+03  0.00000000000E+00 0.  1.
</event>
<event>
 4    1  0.7940509E+003  0.2025280E+02  0.7546771E-02  0.1530206E+00
          2   -1    0    0  502    0  0.00000000000E+00  0.00000000000E+00  0.65212373742E+03  0.65212373742E+03  0.00000000000E+00 0. -1.
          2   -1    0    0  501    0 -0.00000000000E+00 -0.00000000000E+00 -0.22267832790E+01  0.22267832790E+01  0.00000000000E+00 0.  1.
          2    1    1    2  501    0  0.14684105271E+02  0.13948227927E+02  0.60209055163E+03  0.60243108185E+03  0.00000000000E+00 0. -1.
          2    1    1    2  502    0 -0.14684105271E+02 -0.13948227927E+02  0.47806402506E+02  0.51919438850E+02  0.00000000000E+00 0.  1.
</event>
<event>
 4    1  0.7940509E+003  0.2493323E+02  0.7546771E-02  0.1469552E+00
          2   -1    0    0  502    0  0.00000000000E+00  0.00000000000E+00  0.15639430429E+01  0.15639430429E+01  0.00000000000E+00 0. -1.
          2   -1    0    0  501    0 -0.00000000000E+00 -0.00000000000E+00 -0.58266485351E+03  0.58266485351E+03  0.00000000000E+00 0. -1.
          2    1    1    2  501    0  0.16840240611E+02  0.18386743954E+02 -0.12587692066E+03  0.12832250470E+03  0.00000000000E+00 0. -1.
          2    1    1    2  502    0 -0.16840240611E+02 -0.18386743954E+02 -0.45522398981E+03  0.45590629186E+03  0.00000000000E+00 0. -1.
</event>
<event>
 4    1  0.7940509E+003  0.2601933E+02  0.7546771E-02  0.1457716E+00
          2   -1    0    0  502    0  0.00000000000E+00  0.00000000000E+00  0.12253785460E+04  0.12253785460E+04  0.00000000000E+00 0.  1.
          2   -1    0    0  501    0 -0.00000000000E+00 -0.00000000000E+00 -0.35664456505E+02  0.35664456505E+02  0.00000000000E+00 0.  1.
          2    1    1    2  501    0 -0.15999485866E+02  0.20518824927E+02  0.12204757010E+04  0.12207530227E+04  0.00000000000E+00 0.  1.
          2    1    1    2  502    0  0.15999485866E+02 -0.20518824927E+02 -0.30761611541E+02  0.40289979759E+02  0.00000000000E+00 0.  1.
</event>
<event>
 4    1  0.7940509E+003  0.2009109E+02  0.7546771E-02  0.1532648E+00
          2   -1    0    0  501    0  0.00000000000E+00  0.00000000000E+00  0.73522730398E+02  0.73522730398E+02  0.00000000000E+00 0. -1.
          2   -1    0    0  502    0 -0.00000000000E+00 -0.00000000000E+00 -0.13025546997E+02  0.13025546997E+02  0.00000000000E+00 0. -1.
          2    1    1    2  501    0 -0.18208469815E+02 -0.84913862842E+01 -0.26655889022E+01  0.20267150225E+02  0.00000000000E+00 0. -1.
          2    1    1    2  502    0  0.18208469815E+02  0.84913862842E+01  0.63162772303E+02  0.66281127171E+02  0.00000000000E+00 0. -1.
</event>
<event>
 4    1  0.7940509E+003  0.4250425E+02  0.7546771E-02  0.1334404E+00
          2   -1    0    0  502    0  0.00000000000E+00  0.00000000000E+00  0.10544067699E+03  0.10544067699E+03  0.00000000000E+00 0.  1.
          2   -1    0    0  501    0 -0.00000000000E+00 -0.00000000000E+00 -0.88794753186E+02  0.88794753186E+02  0.00000000000E+00 0. -1.
          2    1    1    2  501    0  0.16580121375E+02  0.39137082184E+02  0.95569006101E+02  0.10459467746E+03  0.00000000000E+00 0.  1.
          2    1    1    2  502    0 -0.16580121375E+02 -0.39137082184E+02 -0.78923082299E+02  0.89640752709E+02  0.00000000000E+00 0. -1.
</event>
<event>
 4    1  0.7940509E+003  0.2361538E+02  0.7546771E-02  0.1484912E+00
          2   -1    0    0  502    0  0.00000000000E+00  0.00000000000E+00  0.10302817748E+03  0.10302817748E+03  0.00000000000E+00 0. -1.
          2   -1    0    0  501    0 -0.00000000000E+00 -0.00000000000E+00 -0.13643029764E+02  0.13643029764E+02  0.00000000000E+00 0.  1.
          2    1    1    2  501    0  0.23580231391E+02  0.12879311802E+01  0.90001146442E+02  0.93047796536E+02  0.00000000000E+00 0. -1.
          2    1    1    2  502    0 -0.23580231391E+02 -0.12879311802E+01 -0.61599872470E+00  0.23623410710E+02  0.00000000000E+00 0.  1.
</event>
<event>
 4    1  0.7940509E+003  0.3021053E+02  0.7546771E-02  0.1417776E+00
          2   -1    0    0  502    0  0.00000000000E+00  0.00000000000E+00  0.10889166671E+04  0.10889166671E+04  0.00000000000E+00 0. -1.
          2   -1    0    0  501    0 -0.00000000000E+00 -0.00000000000E+00 -0.31506516754E+02  0.31506516754E+02  0.00000000000E+00 0.  1.
          2    1    1    2  501    0 -0.29931665051E+02 -0.40953041462E+01  0.10814149393E+04  0.10818368394E+04  0.00000000000E+00 0. -1.
          2    1    1    2  502    0  0.29931665051E+02  0.40953041462E+01 -0.24004788944E+02  0.38586344488E+02  0.00000000000E+00 0.  1.
</event>
<event>
 4    1  0.7940509E+003  0.2309251E+02  0.7546771E-02  0.1491340E+00
          2   -1    0    0  502    0  0.00000000000E+00  0.00000000000E+00  0.12203309768E+01  0.12203309768E+01  0.00000000000E+00 0. -1.
          2   -1    0    0  501    0 -0.00000000000E+00 -0.00000000000E+00 -0.60955854336E+03  0.60955854336E+03  0.00000000000E+00 0.  1.
          2    1    1    2  501    0 -0.19385466111E+02 -0.12548618156E+02 -0.14167571763E+03  0.14354536942E+03  0.00000000000E+00 0. -1.
          2    1    1    2  502    0  0.19385466111E+02  0.12548618156E+02 -0.46666249475E+03  0.46723350492E+03  0.00000000000E+00 0.  1.
</event>
<event>
 4    1  0.7940509E+003  0.2575658E+02  0.7546771E-02  0.1460515E+00
          2   -1    0    0  501    0  0.00000000000E+00  0.00000000000E+00  0.45423973107E+01  0.45423973107E+01  0.00000000000E+00 0.  1.
          2   -1    0    0  502    0 -0.00000000000E+00 -0.00000000000E+00 -0.11015921550E+04  0.11015921550E+04  0.00000000000E+00 0.  1.
          2    1    1    2  501    0  0.24187624227E+02 -0.88521200725E+01 -0.10636269171E+04  0.10639387294E+04  0.00000000000E+00 0.  1.
          2    1    1    2  502    0 -0.24187624227E+02  0.88521200725E+01 -0.33422840577E+02  0.42195822871E+02  0.00000000000E+00 0.  1.
</event>
<event>
 4    1  0.7940509E+003  0.2793551E+02  0.7546771E-02  0.1438431E+00
          2   -1    0    0  502    0  0.00000000000E+00  0.00000000000E+00  0.86946953035E+02  0.86946953035E+02  0.00000000000E+00 0.  1.
          2   -1    0    0  501    0 -0.00000000000E+00 -0.00000000000E+00 -0.29936550779E+02  0.29936550779E+02  0.00000000000E+00 0. -1.
          2    1    1    2  501    0 -0.20560377674E+02  0.18911990775E+02  0.77407452467E+02  0.82294023007E+02  0.00000000000E+00 0.  1.
          2    1    1    2  502    0  0.20560377674E+02 -0.18911990775E+02 -0.20397050211E+02  0.34589480807E+02  0.00000000000E+00 0. -1.
</event>
<event>
 4    1  0.7940509E+003  0.5575995E+02  0.7546771E-02  0.1274962E+00
          2   -1    0    0  502    0  0.00000000000E+00  0.00000000000E+00  0.17873587784E+04  0.17873587784E+04  0.00000000000E+00 0.  1.
          2   -1    0    0  501    0 -0.00000000000E+00 -0.00000000000E+00 -0.37281149682E+02  0.37281149682E+02  0.00000000000E+00 0.  1.
          2    1    1    2  501    0  0.38199496586E+02 -0.40619828159E+02  0.17658201552E+04  0.17667003120E+04  0.00000000000E+00 0.  1.
          2    1    1    2  502    0 -0.38199496586E+02  0.40619828159E+02 -0.15742526417E+02  0.57939616128E+02  0.00000000000E+00 0.  1.
</event>
<event>
 4    1  0.7940509E+003  0.2198731E+02  0.7546771E-02  0.1505622E+00
          2   -1    0    0  502    0  0.00000000000E+00  0.00000000000E+00  0.11534907889E+01  0.11534907889E+01  0.00000000000E+00 0. -1.
          2   -1    0    0  501    0 -0.00000000000E+00 -0.00000000000E+00 -0.13559943044E+04  0.13559943044E+04  0.00000000000E+00 0. -1.
          2    1    1    2  501    0 -0.23103940365E+00 -0.21986093504E+02 -0.11337928938E+03  0.11549157955E+03  0.00000000000E+00 0. -1.
          2    1    1    2  502    0  0.23103940365E+00  0.21986093504E+02 -0.12414615242E+04  0.12416562156E+04  0.00000000000E+00 0. -1.
</event>
<event>
 4    1  0.7940509E+003  0.2848815E+02  0.7546771E-02  0.1433206E+00
          2   -1    0    0  502    0  0.00000000000E+00  0.00000000000E+00  0.34705852258E+01  0.34705852258E+01  0.00000000000E+00 0. -1.
          2   -1    0    0  501    0 -0.00000000000E+00 -0.00000000000E+00 -0.19368735109E+04  0.19368735109E+04  0.00000000000E+00 0. -1.
          2    1    1    2  501    0  0.22576283844E+02 -0.17374872333E+02 -0.56978321260E+02  0.63703248539E+02  0.00000000000E+00 0. -1.
          2    1    1    2  502    0 -0.22576283844E+02  0.17374872333E+02 -0.18764246044E+04  0.18766408475E+04  0.00000000000E+00 0. -1.
</event>
<event>
 4    1  0.7940509E+003  0.2164650E+02  0.7546771E-02  0.1510231E+00
          2   -1    0    0  502    0  0.00000000000E+00  0.00000000000E+00  0.58639833375E+00  0.58639833375E+00  0.00000000000E+00 0.  1.
          2   -1    0    0  501    0 -0.00000000000E+00 -0.00000000000E+00 -0.83828640970E+03  0.83828640970E+03  0.00000000000E+00 0. -1.
          2    1    1    2  501    0  0.21581308091E+02 -0.16786720122E+01 -0.50957513554E+03  0.51003469446E+03  0.00000000000E+00 0. -1.
          2    1    1    2  502    0 -0.21581308091E+02  0.16786720122E+01 -0.32812487583E+03  0.32883811358E+03  0.00000000000E+00 0.  1.
</event>
<event>
 4    1  0.7940509E+003  0.4537873E+02  0.7546771E-02  0.1319556E+00
          2   -1    0    0  501    0  0.00000000000E+00  0.00000000000E+00  0.17161008045E+03  0.17161008045E+03  0.00000000000E+00 0.  1.
          2   -1    0    0  502    0 -0.00000000000E+00 -0.00000000000E+00 -0.16936826875E+03  0.16936826875E+03  0.00000000000E+00 0. -1.
          2    1    1    2  501    0  0.24253796195E+02  0.38353394428E+02 -0.16321789098E+03  0.16940870530E+03  0.00000000000E+00 0. -1.
          2    1    1    2  502    0 -0.24253796195E+02 -0.38353394428E+02  0.16545970268E+03  0.17156964389E+03  0.00000000000E+00 0.  1.
</event>
<event>
 4    1  0.7940509E+003  0.2087179E+02  0.7546771E-02  0.1521103E+00
          2   -1    0    0  501    0  0.00000000000E+00  0.00000000000E+00  0.11362394067E+02  0.11362394067E+02  0.00000000000E+00 0.  1.
          2   -1    0    0  502    0 -0.00000000000E+00 -0.00000000000E+00 -0.47130332858E+02  0.47130332858E+02  0.00000000000E+00 0. -1.
          2    1    1    2  501    0  0.58115404694E+01  0.20046385763E+02 -0.30514742697E+02  0.36970002795E+02  0.00000000000E+00 0. -1.
          2    1    1    2  502    0 -0.58115404694E+01 -0.20046385763E+02 -0.52531960940E+01  0.21522724131E+02  0.00000000000E+00 0.  1.
</event>
<event>
 4    1  0.7940509E+003  0.3713949E+02  0.7546771E-02  0.1366116E+00
          2   -1    0    0  501    0  0.00000000000E+00  0.00000000000E+00  0.88302143947E+01  0.88302143947E+01  0.00000000000E+00 0.  1.
          2   -1    0    0  502    0 -0.00000000000E+00 -0.00000000000E+00 -0.17398518355E+04  0.17398518355E+04  0.00000000000E+00 0. -1.
          2    1    1    2  501    0  0.37068745350E+02  0.22912331498E+01 -0.16996789781E+04  0.17000846950E+04  0.00000000000E+00 0. -1.
          2    1    1    2  502    0 -0.37068745350E+02 -0.22912331498E+01 -0.31342643018E+02  0.48597354892E+02  0.00000000000E+00 0.  1.
</event>
<event>
 4    1  0.7940509E+003  0.2635589E+02  0.7546771E-02  0.1454188E+00
          2   -1    0    0  502    0  0.00000000000E+00  0.00000000000E+00  0.15929723049E+03  0.15929723049E+03  0.00000000000E+00 0. -1.
          2   -1    0    0  501    0 -0.00000000000E+00 -0.00000000000E+00 -0.69768695003E+01  0.69768695003E+01  0.00000000000E+00 0. -1.
          2    1    1    2  501    0 -0.13544014796E+02 -0.22609566609E+02  0.12707038639E+03  0.12977486635E+03  0.00000000000E+00 0. -1.
          2    1    1    2  502    0  0.13544014796E+02  0.22609566609E+02  0.25249974602E+02  0.36499233642E+02  0.00000000000E+00 0. -1.
</event>
<event>
 4    1  0.7940509E+003  0.2176017E+02  0.7546771E-02  0.1508682E+00
          2   -1    0    0  501    0  0.00000000000E+00  0.00000000000E+00  0.28719334781E+03  0.28719334781E+03  0.00000000000E+00 0.  1.
          2   -1    0    0  502    0 -0.00000000000E+00 -0.00000000000E+00 -0.20600478106E+01  0.20600478106E+01  0.00000000000E+00 0.  1.
          2    1    1    2  501    0 -0.19228833686E+02  0.10186119332E+02  0.77942158695E+02  0.80922711114E+02  0.00000000000E+00 0.  1.
          2    1    1    2  502    0  0.19228833686E+02 -0.10186119332E+02  0.20719114130E+03  0.20833068450E+03  0.00000000000E+00 0.  1.
</event>
<event>
 4    1  0.7940509E+003  0.6386847E+02  0.7546771E-02  0.1247226E+00
          2   -1    0    0  502    0  0.00000000000E+00  0.00000000000E+00  0.22534137279E+04  0.22534137279E+04  0.00000000000E+00 0. -1.
          2   -1    0    0  501    0 -0.00000000000E+00 -0.00000000000E+00 -0.66618216838E+01  0.66618216838E+01  0.00000000000E+00 0.  1.
          2    1    1    2  501    0  0.15746840673E+02 -0.61896840440E+02  0.20877352785E+04  0.20887119894E+04  0.00000000000E+00 0. -1.
          2    1    1    2  502    0 -0.15746840673E+02  0.61896840440E+02  0.15901662779E+03  0.17136356019E+03  0.00000000000E+00 0.  1.
</event>
<event>
 4    1  0.7940509E+003  0.6105208E+02  0.7546771E-02  0.1256299E+00
          2   -1    0    0  501    0  0.00000000000E+00  0.00000000000E+00  0.72940548887E+03  0.72940548887E+03  0.00000000000E+00 0.  1.
          2   -1    0    0  502    0 -0.00000000000E+00 -0.00000000000E+00 -0.93276800951E+01  0.93276800951E+01  0.00000000000E+00 0.  1.
          2    1    1    2  501    0  0.13992350059E+02  0.59427023239E+02  0.11166789561E+03  0.12726773299E+03  0.00000000000E+00 0.  1.
          2    1    1    2  502    0 -0.13992350059E+02 -0.59427023239E+02  0.60840991317E+03  0.61146543597E+03  0.00000000000E+00 0.  1.
</event>
<event>
 4    1  0.7940509E+003  0.2598024E+02  0.7546771E-02  0.1458130E+00
          2   -1    0    0  501    0  0.00000000000E+00  0.00000000000E+00  0.12369582060E+01  0.12369582060E+01  0.00000000000E+00 0.  1.
          2   -1    0    0  502    0 -0.00000000000E+00 -0.00000000000E+00 -0.20496859745E+04  0.20496859745E+04  0.00000000000E+00 0. -1.
          2    1    1    2  501    0  0.23128843412E+02 -0.11833413728E+02 -0.19026433871E+04  0.19028207565E+04  0.00000000000E+00 0. -1.
          2    1    1    2  502    0 -0.23128843412E+02  0.11833413728E+02 -0.14580562924E+03  0.14810217620E+03  0.00000000000E+00 0.  1.
</event>
<event>
 4    1  0.7940509E+003  0.2160625E+02  0.7546771E-02  0.1510782E+00
          2   -1    0    0  502    0  0.00000000000E+00  0.00000000000E+00  0.72612081138E+02  0.72612081138E+02  0.00000000000E+00 0.  1.
          2   -1    0    0  501    0 -0.00000000000E+00 -0.00000000000E+00 -0.12334722394E+04  0.12334722394E+04  0.00000000000E+00 0. -1.
          2    1    1    2  501    0  0.13675368854E+02 -0.16727653695E+02  0.70907966380E+02  0.74126714533E+02  0.00000000000E+00 0.  1.
          2    1    1    2  502    0 -0.13675368854E+02  0.16727653695E+02 -0.12317681246E+04  0.12319576060E+04  0.00000000000E+00 0. -1.
</event>
<event>
 4    1  0.7940509E+003  0.2367546E+02  0.7546771E-02  0.1484186E+00
          2   -1    0    0  501    0  0.00000000000E+00  0.00000000000E+00  0.17497981033E+02  0.17497981033E+02  0.00000000000E+00 0. -1.
          2   -1    0    0  502    0 -0.00000000000E+00 -0.00000000000E+00 -0.93609220403E+02  0.93609220403E+02  0.00000000000E+00 0.  1.
          2    1    1    2  501    0 -0.17398682759E+02 -0.16056559453E+02 -0.83112021205E+02  0.86418373810E+02  0.00000000000E+00 0.  1.
          2    1    1    2  502    0  0.17398682759E+02  0.16056559453E+02  0.70007818356E+01  0.24688827626E+02  0.00000000000E+00 0. -1.
</event>
<event>
 4    1  0.7940509E+003  0.2706598E+02  0.7546771E-02  0.1446946E+00
          2   -1    0    0  502    0  0.00000000000E+00  0.00000000000E+00  0.64919434764E+00  0.64919434764E+00  0.00000000000E+00 0. -1.
          2   -1    0    0  501    0 -0.00000000000E+00 -0.00000000000E+00 -0.22610926251E+04  0.22610926251E+04  0.00000000000E+00 0.  1.
          2    1    1    2  501    0  0.23212170532E+02  0.13919860819E+02 -0.32982550387E+03  0.33093417833E+03  0.00000000000E+00 0. -1.
          2    1    1    2  502    0 -0.23212170532E+02 -0.13919860819E+02 -0.19306179269E+04  0.19308076411E+04  0.00000000000E+00 0.  1.
</event>
<event>
 4    1  0.7940509E+003  0.2627031E+02  0.7546771E-02  0.1455079E+00
          2   -1    0    0  502    0  0.00000000000E+00  0.00000000000E+00  0.97502860818E+01  0.97502860818E+01  0.00000000000E+00 0.  1.
          2   -1    0    0  501    0 -0.00000000000E+00 -0.00000000000E+00 -0.64498410857E+03  0.64498410857E+03  0.00000000000E+00 0. -1.
          2    1    1    2  501    0 -0.19674555722E+02 -0.17408068920E+02 -0.87341612336E+01  0.27684193664E+02  0.00000000000E+00 0.  1.
          2    1    1    2  502    0  0.19674555722E+02  0.17408068920E+02 -0.62649966125E+03  0.62705020098E+03  0.00000000000E+00 0. -1.
</event>
<event>
 4    1  0.7940509E+003  0.3061231E+02  0.7546771E-02  0.1414349E+00
          2   -1    0    0  502    0  0.00000000000E+00  0.00000000000E+00  0.98354392880E+02  0.98354392880E+02  0.00000000000E+00 0.  1.
          2   -1    0    0  501    0 -0.00000000000E+00 -0.00000000000E+00 -0.14887508661E+02  0.14887508661E+02  0.00000000000E+00 0.  1.
          2    1    1    2  501    0 -0.27396888450E+02 -0.13657387730E+02  0.75706253098E+02  0.81661193320E+02  0.00000000000E+00 0.  1.
          2    1    1    2  502    0  0.27396888450E+02  0.13657387730E+02  0.77606311209E+01  0.31580708221E+02  0.00000000000E+00 0.  1.
</event>
<event>
 4    1  0.7940509E+003  0.3123960E+02  0.7546771E-02  0.1409122E+00
          2   -1    0    0  501    0  0.00000000000E+00  0.00000000000E+00  0.22224699601E+04  0.22224699601E+04  0.00000000000E+00 0.  1.
          2   -1    0    0  502    0 -0.00000000000E+00 -0.00000000000E+00 -0.54947528607E+01  0.54947528607E+01  0.00000000000E+00 0.  1.
          2    1    1    2  501    0  0.30618373631E+02 -0.61990172444E+01  0.39943751455E+02  0.50709130331E+02  0.00000000000E+00 0.  1.
          2    1    1    2  502    0 -0.30618373631E+02  0.61990172444E+01  0.21770314558E+04  0.21772555826E+04  0.00000000000E+00 0.  1.
</event>
<event>
 4    1  0.7940509E+003  0.2087565E+02  0.7546771E-02  0.1521048E+00
          2   -1    0    0  502    0  0.00000000000E+00  0.00000000000E+00  0.10170196839E+04  0.10170196839E+04  0.00000000000E+00 0.  1.
          2   -1    0    0  501    0 -0.00000000000E+00 -0.00000000000E+00 -0.30536401223E+01  0.30536401223E+01  0.00000000000E+00 0.  1.
          2    1    1    2  501    0 -0.17206175546E+02  0.11821178850E+02  0.97988238413E+03  0.98010472883E+03  0.00000000000E+00 0.  1.
          2    1    1    2  502    0  0.17206175546E+02 -0.11821178850E+02  0.34083659618E+02  0.39968595162E+02  0.00000000000E+00 0.  1.
</event>
<event>
 4    1  0.7940509E+003  0.2260492E+02  0.7546771E-02  0.1497520E+00
          2   -1    0    0  501    0  0.00000000000E+00  0.00000000000E+00  0.88141626839E+03  0.88141626839E+03  0.00000000000E+00 0.  1.
          2   -1    0    0  502    0 -0.00000000000E+00 -0.00000000000E+00 -0.28578987526E+01  0.28578987526E+01  0.00000000000E+00 0. -1.
          2    1    1    2  501    0  0.13703234489E+02  0.17977868134E+02  0.44525143853E+02  0.49934665446E+02  0.00000000000E+00 0. -1.
          2    1    1    2  502    0 -0.13703234489E+02 -0.17977868134E+02  0.83403322578E+03  0.83433950169E+03  0.00000000000E+00 0.  1.
</event>
<event>
 4    1  0.7940509E+003  0.2160842E+02  0.7546771E-02  0.1510753E+00
          2   -1    0    0  501    0  0.00000000000E+00  0.00000000000E+00  0.57806562800E+01  0.57806562800E+01  0.00000000000E+00 0. -1.
          2   -1    0    0  502    0 -0.00000000000E+00 -0.00000000000E+00 -0.15064994096E+03  0.15064994096E+03  0.00000000000E+00 0.  1.
          2    1    1    2  501    0 -0.10860517663E+02  0.18680816736E+02 -0.12570341094E+03  0.12754713356E+03  0.00000000000E+00 0.  1.
          2    1    1    2  502    0  0.10860517663E+02 -0.18680816736E+02 -0.19165873739E+02  0.28883463677E+02  0.00000000000E+00 0. -1.
</event>
<event>
 4    1  0.7940509E+003  0.3434983E+02  0.7546771E-02  0.1385193E+00
          2   -1    0    0  501    0  0.00000000000E+00  0.00000000000E+00  0.62290315471E+02  0.62290315471E+02  0.00000000000E+00 0.  1.
          2   -1    0    0  502    0 -0.00000000000E+00 -0.00000000000E+00 -0.18221845066E+03  0.18221845066E+03  0.00000000000E+00 0.  1.
          2    1    1    2  501    0 -0.51424946943E+01 -0.33962709781E+02 -0.17568978282E+03  0.17901623026E+03  0.00000000000E+00 0.  1.
          2    1    1    2  502    0  0.51424946943E+01  0.33962709781E+02  0.55761647637E+02  0.65492535869E+02  0.00000000000E+00 0.  1.
</event>
<event>
 4    1  0.7940509E+003  0.2605870E+02  0.7546771E-02  0.1457300E+00
          2   -1    0    0  502    0  0.00000000000E+00  0.00000000000E+00  0.89460727439E+00  0.89460727439E+00  0.00000000000E+00 0. -1.
          2   -1    0    0  501    0 -0.00000000000E+00 -0.00000000000E+00 -0.14974039905E+04  0.14974039905E+04  0.00000000000E+00 0.  1.
          2    1    1    2  501    0 -0.15116306450E+01  0.26014818181E+02 -0.22220128621E+03  0.22372408763E+03  0.00000000000E+00 0. -1.
          2    1    1    2  502    0  0.15116306450E+01 -0.26014818181E+02 -0.12743080970E+04  0.12745745101E+04  0.00000000000E+00 0.  1.
</event>
<event>
 4    1  0.7940509E+003  0.2119213E+02  0.7546771E-02  0.1516539E+00
          2   -1    0    0  501    0  0.00000000000E+00  0.00000000000E+00  0.86548346388E+03  0.86548346388E+03  0.00000000000E+00 0.  1.
          2   -1    0    0  502    0 -0.00000000000E+00 -0.00000000000E+00 -0.52714065887E+00  0.52714065887E+00  0.00000000000E+00 0. -1.
          2    1    1    2  501    0  0.11355647204E+02 -0.17892893277E+02  0.37836558794E+03  0.37895860524E+03  0.00000000000E+00 0.  1.
          2    1    1    2  502    0 -0.11355647204E+02  0.17892893277E+02  0.48659073529E+03  0.48705199930E+03  0.00000000000E+00 0. -1.
</event>
<event>
 4    1  0.7940509E+003  0.3287836E+02  0.7546771E-02  0.1396126E+00
          2   -1    0    0  501    0  0.00000000000E+00  0.00000000000E+00  0.18108165678E+03  0.18108165678E+03  0.00000000000E+00 0. -1.
          2   -1    0    0  502    0 -0.00000000000E+00 -0.00000000000E+00 -0.39771986750E+03  0.39771986750E+03  0.00000000000E+00 0.  1.
          2    1    1    2  501    0 -0.32876944907E+02 -0.30549418793E+00 -0.39553976341E+03  0.39690388166E+03  0.00000000000E+00 0.  1.
          2    1    1    2  502    0  0.32876944907E+02  0.30549418793E+00  0.17890155269E+03  0.18189764262E+03  0.00000000000E+00 0. -1.
</event>
<event>
 4    1  0.7940509E+003  0.2468147E+02  0.7546771E-02  0.1472398E+00
          2   -1    0    0  501    0  0.00000000000E+00  0.00000000000E+00  0.18329641419E+02  0.18329641419E+02  0.00000000000E+00 0.  1.
          2   -1    0    0  502    0 -0.00000000000E+00 -0.00000000000E+00 -0.81365643408E+02  0.81365643408E+02  0.00000000000E+00 0. -1.
          2    1    1    2  501    0 -0.14340831624E+02  0.20087698843E+02 -0.69856712971E+02  0.74088699838E+02  0.00000000000E+00 0. -1.
          2    1    1    2  502    0  0.14340831624E+02 -0.20087698843E+02  0.68207109827E+01  0.25606584989E+02  0.00000000000E+00 0.  1.
</event>
<event>
 4    1  0.7940509E+003  0.2434655E+02  0.7546771E-02  0.1476248E+00
          2   -1    0    0  502    0  0.00000000000E+00  0.00000000000E+00  0.35185275828E+02  0.35185275828E+02  0.00000000000E+00 0. -1.
          2   -1    0    0  501    0 -0.00000000000E+00 -0.00000000000E+00 -0.74071587459E+03  0.74071587459E+03  0.00000000000E+00 0. -1.
          2    1    1    2  501    0 -0.15811423176E+02 -0.18513606211E+02  0.30748172771E+02  0.39219954698E+02  0.00000000000E+00 0. -1.
          2    1    1    2  502    0  0.15811423176E+02  0.18513606211E+02 -0.73627877153E+03  0.73668119572E+03  0.00000000000E+00 0. -1.
</event>
<event>
 4    1  0.7940509E+003  0.2550926E+02  0.7546771E-02  0.1463186E+00
          2   -1    0    0  501    0  0.00000000000E+00  0.00000000000E+00  0.99588762707E+03  0.99588762707E+03  0.00000000000E+00 0.  1.
          2   -1    0    0  502    0 -0.00000000000E+00 -0.00000000000E+00 -0.45605511778E+01  0.45605511778E+01  0.00000000000E+00 0.  1.
          2    1    1    2  501    0  0.64427890299E+01  0.24682235706E+02  0.32658706183E+02  0.41440479962E+02  0.00000000000E+00 0.  1.
          2    1    1    2  502    0 -0.64427890299E+01 -0.24682235706E+02  0.95866836971E+03  0.95900769829E+03  0.00000000000E+00 0.  1.
</event>
<event>
 4    1  0.7940509E+003  0.2198150E+02  0.7546771E-02  0.1505699E+00
          2   -1    0    0  502    0  0.00000000000E+00  0.00000000000E+00  0.16287258990E+02  0.16287258990E+02  0.00000000000E+00 0. -1.
          2   -1    0    0  501    0 -0.00000000000E+00 -0.00000000000E+00 -0.38889880765E+03  0.38889880765E+03  0.00000000000E+00 0.  1.
          2    1    1    2  501    0 -0.61350503044E+01  0.21107991545E+02  0.84067506003E+01  0.23534221996E+02  0.00000000000E+00 0. -1.
          2    1    1    2  502    0  0.61350503044E+01 -0.21107991545E+02 -0.38101829926E+03  0.38165184464E+03  0.00000000000E+00 0.  1.
</event>
<event>
 4    1  0.7940509E+003  0.2262653E+02  0.7546771E-02  0.1497242E+00
          2   -1    0    0  501    0  0.00000000000E+00  0.00000000000E+00  0.11860142374E+03  0.11860142374E+03  0.00000000000E+00 0.  1.
          2   -1    0    0  502    0 -0.00000000000E+00 -0.00000000000E+00 -0.13033264405E+04  0.13033264405E+04  0.00000000000E+00 0. -1.
          2    1    1    2  501    0 -0.15355911088E+02 -0.16617933881E+02 -0.13021481014E+04  0.13023446693E+04  0.00000000000E+00 0. -1.
          2    1    1    2  502    0  0.15355911088E+02  0.16617933881E+02  0.11742308457E+03  0.11958319498E+03  0.00000000000E+00 0.  1.
</event>
<event>
 4    1  0.7940509E+003  0.3856727E+02  0.7546771E-02  0.1357092E+00
          2   -1    0    0  502    0  0.00000000000E+00  0.00000000000E+00  0.96568106251E+02  0.96568106251E+02  0.00000000000E+00 0. -1.
          2   -1    0    0  501    0 -0.00000000000E+00 -0.00000000000E+00 -0.80049925327E+02  0.80049925327E+02  0.00000000000E+00 0.  1.
          2    1    1    2  501    0  0.37701018320E+02  0.81281937031E+01  0.87618542980E+02  0.95731099384E+02  0.00000000000E+00 0. -1.
          2    1    1    2  502    0 -0.37701018320E+02 -0.81281937031E+01 -0.71100362056E+02  0.80886932194E+02  0.00000000000E+00 0.  1.
</event>
<event>
 4    1  0.7940509E+003  0.3327501E+02  0.7546771E-02  0.1393113E+00
          2   -1    0    0  502    0  0.00000000000E+00  0.00000000000E+00  0.58415980067E+01  0.58415980067E+01  0.00000000000E+00 0.  1.
          2   -1    0    0  501    0 -0.00000000000E+00 -0.00000000000E+00 -0.97222737705E+03  0.97222737705E+03  0.00000000000E+00 0. -1.
          2    1    1    2  501    0  0.81369630635E+01 -0.32264779942E+02 -0.44410419968E+02  0.55493347298E+02  0.00000000000E+00 0.  1.
          2    1    1    2  502    0 -0.81369630635E+01  0.32264779942E+02 -0.92197535907E+03  0.92257562775E+03  0.00000000000E+00 0. -1.
</event>
<event>
 4    1  0.7940509E+003  0.2291448E+02  0.7546771E-02  0.1493575E+00
          2   -1    0    0  502    0  0.00000000000E+00  0.00000000000E+00  0.16022681852E+03  0.16022681852E+03  0.00000000000E+00 0.  1.
          2   -1    0    0  501    0 -0.00000000000E+00 -0.00000000000E+00 -0.37627002710E+02  0.37627002710E+02  0.00000000000E+00 0. -1.
          2    1    1    2  501    0  0.18510415119E+02 -0.13506960396E+02  0.15582075851E+03  0.15749661022E+03  0.00000000000E+00 0.  1.
          2    1    1    2  502    0 -0.18510415119E+02  0.13506960396E+02 -0.33220942699E+02  0.40357211015E+02  0.00000000000E+00 0. -1.
</event>
<event>
 4    1  0.7940509E+003  0.3558079E+02  0.7546771E-02  0.1376525E+00
          2   -1    0    0  501    0  0.00000000000E+00  0.00000000000E+00  0.79316863116E+02  0.79316863116E+02  0.00000000000E+00 0.  1.
          2   -1    0    0  502    0 -0.00000000000E+00 -0.00000000000E+00 -0.10501268860E+04  0.10501268860E+04  0.00000000000E+00 0. -1.
          2    1    1    2  501    0  0.32062260822E+02  0.15427377060E+02 -0.10458187622E+04  0.10464238510E+04  0.00000000000E+00 0. -1.
          2    1    1    2  502    0 -0.32062260822E+02 -0.15427377060E+02  0.75008739255E+02  0.83019898196E+02  0.00000000000E+00 0.  1.
</event>
<event>
 4    1  0.7940509E+003  0.2836343E+02  0.7546771E-02  0.1434373E+00
          2   -1    0    0  501    0  0.00000000000E+00  0.00000000000E+00  0.81525998442E+02  0.81525998442E+02  0.00000000000E+00 0.  1.
          2   -1    0    0  502    0 -0.00000000000E+00 -0.00000000000E+00 -0.17693420786E+02  0.17693420786E+02  0.00000000000E+00 0. -1.
          2    1    1    2  501    0  0.48757686711E+01 -0.27941206852E+02 -0.10765382114E+01  0.28383852715E+02  0.00000000000E+00 0. -1.
          2    1    1    2  502    0 -0.48757686711E+01  0.27941206852E+02  0.64909115868E+02  0.70835566513E+02  0.00000000000E+00 0.  1.
</event>
<event>
 4    1  0.7940509E+003  0.3664308E+02  0.7546771E-02  0.1369366E+00
          2   -1    0    0  501    0  0.00000000000E+00  0.00000000000E+00  0.13544381261E+04  0.13544381261E+04  0.00000000000E+00 0.  1.
          2   -1    0    0  502    0 -0.00000000000E+00 -0.00000000000E+00 -0.68542174367E+01  0.68542174367E+01  0.00000000000E+00 0. -1.
          2    1    1    2  501    0  0.35484840766E+02  0.91401169976E+01  0.44289127705E+02  0.57482540791E+02  0.00000000000E+00 0. -1.
          2    1    1    2  502    0 -0.35484840766E+02 -0.91401169976E+01  0.13032947810E+04  0.13038098027E+04  0.00000000000E+00 0.  1.
</event>
<event>
 4    1  0.7940509E+003  0.2131741E+02  0.7546771E-02  0.1514781E+00
          2   -1    0    0  501    0  0.00000000000E+00  0.00000000000E+00  0.11120415396E+03  0.11120415396E+03  0.00000000000E+00 0.  1.
          2   -1    0    0  502    0 -0.00000000000E+00 -0.00000000000E+00 -0.85150329147E+01  0.85150329147E+01  0.00000000000E+00 0. -1.
          2    1    1    2  501    0  0.37063069077E+01 -0.20992742870E+02  0.81755378889E+01  0.22831368419E+02  0.00000000000E+00 0. -1.
          2    1    1    2  502    0 -0.37063069077E+01  0.20992742870E+02  0.94513583160E+02  0.96887818460E+02  0.00000000000E+00 0.  1.
</event>
<event>
 4    1  0.7940509E+003  0.2208479E+02  0.7546771E-02  0.1504322E+00
          2   -1    0    0  502    0  0.00000000000E+00  0.00000000000E+00  0.12437808845E+01  0.12437808845E+01  0.00000000000E+00 0.  1.
          2   -1    0    0  501    0 -0.00000000000E+00 -0.00000000000E+00 -0.61432699606E+03  0.61432699606E+03  0.00000000000E+00 0.  1.
          2    1    1    2  501    0  0.31421332438E+01 -0.21860122055E+02 -0.12144170929E+03  0.12343349096E+03  0.00000000000E+00 0.  1.
          2    1    1    2  502    0 -0.31421332438E+01  0.21860122055E+02 -0.49164150589E+03  0.49213728598E+03  0.00000000000E+00 0.  1.
</event>
<event>
 4    1  0.7940509E+003  0.2347656E+02  0.7546771E-02  0.1486599E+00
          2   -1    0    0  501    0  0.00000000000E+00  0.00000000000E+00  0.29890154956E+03  0.29890154956E+03  0.00000000000E+00 0.  1.
          2   -1    0    0  502    0 -0.00000000000E+00 -0.00000000000E+00 -0.54373452616E+01  0.54373452616E+01  0.00000000000E+00 0.  1.
          2    1    1    2  501    0 -0.23255961192E+02 -0.32107770645E+01  0.23026700092E+02  0.32884308378E+02  0.00000000000E+00 0.  1.
          2    1    1    2  502    0  0.23255961192E+02  0.32107770645E+01  0.27043750420E+03  0.27145458644E+03  0.00000000000E+00 0.  1.
</event>
<event>
 4    1  0.8779762E+003  0.2101317E+02  0.7546771E-02  0.1519077E+00
          2   -1    0    0  502    0  0.00000000000E+00  0.00000000000E+00  0.14956737566E+04  0.14956737566E+04  0.00000000000E+00 0. -1.
          2   -1    0    0  501    0 -0.00000000000E+00 -0.00000000000E+00 -0.45515703549E+03  0.45515703549E+03  0.00000000000E+00 0.  1.
          2    1    1    2  501    0  0.17105264292E+02  0.12205058451E+02  0.14953573720E+04  0.14955050062E+04  0.00000000000E+00 0. -1.
          2    1    1    2  502    0 -0.17105264292E+02 -0.12205058451E+02 -0.45484065094E+03  0.45532578586E+03  0.00000000000E+00 0.  1.
</event>
<event>
 4    1  0.7940509E+003  0.3665987E+02  0.7546771E-02  0.1369255E+00
          2   -1    0    0  501    0  0.00000000000E+00  0.00000000000E+00  0.33420093012E+03  0.33420093012E+03  0.00000000000E+00 0.  1.
          2   -1    0    0  502    0 -0.00000000000E+00 -0.00000000000E+00 -0.47491019616E+01  0.47491019616E+01  0.00000000000E+00 0. -1.
          2    1    1    2  501    0  0.40788072973E+01 -0.36432261944E+02  0.98384463909E+02  0.10499261459E+03  0.00000000000E+00 0. -1.
          2    1    1    2  502    0 -0.40788072973E+01  0.36432261944E+02  0.23106736425E+03  0.23395741749E+03  0.00000000000E+00 0.  1.
</event>
<event>
 4    1  0.7940509E+003  0.2058587E+02  0.7546771E-02  0.1525260E+00
          2   -1    0    0  502    0  0.00000000000E+00  0.00000000000E+00  0.37416889739E+03  0.37416889739E+03  0.00000000000E+00 0.  1.
          2   -1    0    0  501    0 -0.00000000000E+00 -0.00000000000E+00 -0.32417186915E+01  0.32417186915E+01  0.00000000000E+00 0. -1.
          2    1    1    2  501    0  0.18124499778E+02 -0.97611782908E+01  0.33767545353E+03  0.33830236477E+03  0.00000000000E+00 0.  1.
          2    1    1    2  502    0 -0.18124499778E+02  0.97611782908E+01  0.33251725172E+02  0.39108251312E+02  0.00000000000E+00 0. -1.
</event>
<event>
 4    1  0.7940509E+003  0.3082796E+02  0.7546771E-02  0.1412535E+00
          2   -1    0    0  501    0  0.00000000000E+00  0.00000000000E+00  0.11925449764E+03  0.11925449764E+03  0.00000000000E+00 0.  1.
          2   -1    0    0  502    0 -0.00000000000E+00 -0.00000000000E+00 -0.11714905996E+02  0.11714905996E+02  0.00000000000E+00 0.  1.
          2    1    1    2  501    0 -0.14612261720E+02  0.27144883939E+02  0.16741194652E+02  0.35080343713E+02  0.00000000000E+00 0.  1.
          2    1    1    2  502    0  0.14612261720E+02 -0.27144883939E+02  0.90798396987E+02  0.95889059918E+02  0.00000000000E+00 0.  1.
</event>
<event>
 4    1  0.7940509E+003  0.2103062E+02  0.7546771E-02  0.1518828E+00
          2   -1    0    0  502    0  0.00000000000E+00  0.00000000000E+00  0.13007919218E+04  0.13007919218E+04  0.00000000000E+00 0.  1.
          2   -1    0    0  501    0 -0.00000000000E+00 -0.00000000000E+00 -0.14997008490E+01  0.14997008490E+01  0.00000000000E+00 0.  1.
          2    1    1    2  501    0 -0.10966768223E+02 -0.17944835346E+02  0.12222395240E+04  0.12224204437E+04  0.00000000000E+00 0.  1.
          2    1    1    2  502    0  0.10966768223E+02  0.17944835346E+02  0.77052696922E+02  0.79871178931E+02  0.00000000000E+00 0.  1.
</event>
<event>
 4    1  0.7940509E+003  0.2582894E+02  0.7546771E-02  0.1459740E+00
          2   -1    0    0  502    0  0.00000000000E+00  0.00000000000E+00  0.91863200474E+03  0.91863200474E+03  0.00000000000E+00 0. -1.
          2   -1    0    0  501    0 -0.00000000000E+00 -0.00000000000E+00 -0.11904231627E+03  0.11904231627E+03  0.00000000000E+00 0.  1.
          2    1    1    2  501    0 -0.18344584600E+02  0.18182688873E+02  0.91704698358E+03  0.91741065181E+03  0.00000000000E+00 0. -1.
          2    1    1    2  502    0  0.18344584600E+02 -0.18182688873E+02 -0.11745729510E+03  0.12026366920E+03  0.00000000000E+00 0.  1.
</event>
<event>
 4    1  0.7940509E+003  0.2255538E+02  0.7546771E-02  0.1498158E+00
          2   -1    0    0  501    0  0.00000000000E+00  0.00000000000E+00  0.26785313422E+03  0.26785313422E+03  0.00000000000E+00 0. -1.
          2   -1    0    0  502    0 -0.00000000000E+00 -0.00000000000E+00 -0.47592802441E+01  0.47592802441E+01  0.00000000000E+00 0. -1.
          2    1    1    2  501    0 -0.57207681595E+01 -0.21817839272E+02  0.25883874106E+02  0.34332495359E+02  0.00000000000E+00 0. -1.
          2    1    1    2  502    0  0.57207681595E+01  0.21817839272E+02  0.23720997987E+03  0.23827991910E+03  0.00000000000E+00 0. -1.
</event>
<event>
 4    1  0.7940509E+003  0.3906893E+02  0.7546771E-02  0.1354030E+00
          2   -1    0    0  501    0  0.00000000000E+00  0.00000000000E+00  0.12053631599E+03  0.12053631599E+03  0.00000000000E+00 0. -1.
          2   -1    0    0  502    0 -0.00000000000E+00 -0.00000000000E+00 -0.50759447932E+03  0.50759447932E+03  0.00000000000E+00 0. -1.
          2    1    1    2  501    0 -0.32066143034E+01  0.38937118287E+02 -0.50365215139E+03  0.50516519195E+03  0.00000000000E+00 0. -1.
          2    1    1    2  502    0  0.32066143034E+01 -0.38937118287E+02  0.11659398806E+03  0.12296560335E+03  0.00000000000E+00 0. -1.
</event>
<event>
 4    1  0.7940509E+003  0.3609231E+02  0.7546771E-02  0.1373042E+00
          2   -1    0    0  501    0  0.00000000000E+00  0.00000000000E+00  0.41958420383E+03  0.41958420383E+03  0.00000000000E+00 0.  1.
          2   -1    0    0  502    0 -0.00000000000E+00 -0.00000000000E+00 -0.29873745261E+02  0.29873745261E+02  0.00000000000E+00 0. -1.
          2    1    1    2  501    0  0.12154326520E+02 -0.33984221376E+02 -0.17875984511E+02  0.40276615770E+02  0.00000000000E+00 0. -1.
          2    1    1    2  502    0 -0.12154326520E+02  0.33984221376E+02  0.40758644308E+03  0.40918133332E+03  0.00000000000E+00 0.  1.
</event>
<event>
 4    1  0.7940509E+003  0.2026993E+02  0.7546771E-02  0.1529949E+00
          2   -1    0    0  501    0  0.00000000000E+00  0.00000000000E+00  0.19493893384E+04  0.19493893384E+04  0.00000000000E+00 0.  1.
          2   -1    0    0  502    0 -0.00000000000E+00 -0.00000000000E+00 -0.25873421181E+00  0.25873421181E+00  0.00000000000E+00 0.  1.
          2    1    1    2  501    0 -0.11893935485E+02 -0.16413537566E+02  0.55484050219E+03  0.55521063821E+03  0.00000000000E+00 0.  1.
          2    1    1    2  502    0  0.11893935485E+02  0.16413537566E+02  0.13942901020E+04  0.13944374344E+04  0.00000000000E+00 0.  1.
</event>
<event>
 4    1  0.7940509E+003  0.2714943E+02  0.7546771E-02  0.1446113E+00
          2   -1    0    0  502    0  0.00000000000E+00  0.00000000000E+00  0.26225362281E+03  0.26225362281E+03  0.00000000000E+00 0. -1.
          2   -1    0    0  501    0 -0.00000000000E+00 -0.00000000000E+00 -0.43872102794E+02  0.43872102794E+02  0.00000000000E+00 0. -1.
          2    1    1    2  501    0 -0.64862204816E+01  0.26363241468E+02  0.25726959731E+03  0.25869815859E+03  0.00000000000E+00 0. -1.
          2    1    1    2  502    0  0.64862204816E+01 -0.26363241468E+02 -0.38888077297E+02  0.47427567012E+02  0.00000000000E+00 0. -1.
</event>
<event>
 4    1  0.7940509E+003  0.3322164E+02  0.7546771E-02  0.1393516E+00
          2   -1    0    0  502    0  0.00000000000E+00  0.00000000000E+00  0.63388019493E+03  0.63388019493E+03  0.00000000000E+00 0.  1.
          2   -1    0    0  501    0 -0.00000000000E+00 -0.00000000000E+00 -0.21907574693E+01  0.21907574693E+01  0.00000000000E+00 0. -1.
          2    1    1    2  501    0 -0.24990677825E+02 -0.21889348267E+02  0.45992263790E+03  0.46112092817E+03  0.00000000000E+00 0.  1.
          2    1    1    2  502    0  0.24990677825E+02  0.21889348267E+02  0.17176679956E+03  0.17495002423E+03  0.00000000000E+00 0. -1.
</event>
<event>
 4    1  0.7940509E+003  0.2392626E+02  0.7546771E-02  0.1481183E+00
          2   -1    0    0  502    0  0.00000000000E+00  0.00000000000E+00  0.24737287418E+01  0.24737287418E+01  0.00000000000E+00 0. -1.
          2   -1    0    0  501    0 -0.00000000000E+00 -0.00000000000E+00 -0.16626754546E+04  0.16626754546E+04  0.00000000000E+00 0. -1.
          2    1    1    2  501    0  0.32257001251E+01 -0.23707821093E+02 -0.57636848949E+02  0.62405707103E+02  0.00000000000E+00 0. -1.
          2    1    1    2  502    0 -0.32257001251E+01  0.23707821093E+02 -0.16025648769E+04  0.16027434762E+04  0.00000000000E+00 0. -1.
</event>
<event>
 4    1  0.7940509E+003  0.2541515E+02  0.7546771E-02  0.1464212E+00
          2   -1    0    0  501    0  0.00000000000E+00  0.00000000000E+00  0.21106216647E+01  0.21106216647E+01  0.00000000000E+00 0. -1.
          2   -1    0    0  502    0 -0.00000000000E+00 -0.00000000000E+00 -0.35920206017E+03  0.35920206017E+03  0.00000000000E+00 0.  1.
          2    1    1    2  501    0 -0.21962026609E+02  0.12790593601E+02 -0.24804717593E+03  0.24934580683E+03  0.00000000000E+00 0.  1.
          2    1    1    2  502    0  0.21962026609E+02 -0.12790593601E+02 -0.10904426257E+03  0.11196687500E+03  0.00000000000E+00 0. -1.
</event>
<event>
 4    1  0.7940509E+003  0.2271086E+02  0.7546771E-02  0.1496161E+00
          2   -1    0    0  502    0  0.00000000000E+00  0.00000000000E+00  0.38307075586E+03  0.38307075586E+03  0.00000000000E+00 0.  1.
          2   -1    0    0  501    0 -0.00000000000E+00 -0.00000000000E+00 -0.31059815613E+01  0.31059815613E+01  0.00000000000E+00 0.  1.
          2    1    1    2  501    0  0.13693816308E+02 -0.18118021239E+02  0.33531261522E+03  0.33608084329E+03  0.00000000000E+00 0.  1.
          2    1    1    2  502    0 -0.13693816308E+02  0.18118021239E+02  0.44652159072E+02  0.50095894128E+02  0.00000000000E+00 0.  1.
</event>
<event>
 4    1  0.7940509E+003  0.3976905E+02  0.7546771E-02  0.1349844E+00
          2   -1    0    0  502    0  0.00000000000E+00  0.00000000000E+00  0.17300201174E+01  0.17300201174E+01  0.00000000000E+00 0.  1.
          2   -1    0    0  501    0 -0.00000000000E+00 -0.00000000000E+00 -0.10375109342E+04  0.10375109342E+04  0.00000000000E+00 0.  1.
          2    1    1    2  501    0 -0.23970475858E+02  0.31733164240E+02 -0.33874829949E+03  0.34107475402E+03  0.00000000000E+00 0.  1.
          2    1    1    2  502    0  0.23970475858E+02 -0.31733164240E+02 -0.69703261461E+03  0.69816620031E+03  0.00000000000E+00 0.  1.
</event>
<event>
 4    1  0.9918837E+003  0.2839906E+02  0.7546771E-02  0.1434039E+00
          2   -1    0    0  502    0  0.00000000000E+00  0.00000000000E+00  0.10580443586E+04  0.10580443586E+04  0.00000000000E+00 0.  1.
          2   -1    0    0  501    0 -0.00000000000E+00 -0.00000000000E+00 -0.51911430508E+03  0.51911430508E+03  0.00000000000E+00 0. -1.
          2    1    1    2  501    0 -0.61472148352E+01  0.27725766743E+02  0.10574651756E+04  0.10578464463E+04  0.00000000000E+00 0.  1.
          2    1    1    2  502    0  0.61472148352E+01 -0.27725766743E+02 -0.51853512202E+03  0.51931221742E+03  0.00000000000E+00 0. -1.
</event>
<event>
 4    1  0.7940509E+003  0.2059309E+02  0.7546771E-02  0.1525155E+00
          2   -1    0    0  501    0  0.00000000000E+00  0.00000000000E+00  0.46059555347E+03  0.46059555347E+03  0.00000000000E+00 0.  1.
          2   -1    0    0  502    0 -0.00000000000E+00 -0.00000000000E+00 -0.60504730157E+01  0.60504730157E+01  0.00000000000E+00 0.  1.
          2    1    1    2  501    0 -0.19928165547E+02 -0.51907106975E+01  0.12434326282E+02  0.24055929201E+02  0.00000000000E+00 0.  1.
          2    1    1    2  502    0  0.19928165547E+02  0.51907106975E+01  0.44211075417E+03  0.44259009728E+03  0.00000000000E+00 0.  1.
</event>
<event>
 4    1  0.7940509E+003  0.2083415E+02  0.7546771E-02  0.1521646E+00
          2   -1    0    0  501    0  0.00000000000E+00  0.00000000000E+00  0.20328339141E+02  0.20328339141E+02  0.00000000000E+00 0.  1.
          2   -1    0    0  502    0 -0.00000000000E+00 -0.00000000000E+00 -0.55908463222E+02  0.55908463222E+02  0.00000000000E+00 0. -1.
          2    1    1    2  501    0  0.41453765821E+01 -0.20417587172E+02 -0.47758012683E+02  0.52104604291E+02  0.00000000000E+00 0. -1.
          2    1    1    2  502    0 -0.41453765821E+01  0.20417587172E+02  0.12177888602E+02  0.24132198071E+02  0.00000000000E+00 0.  1.
</event>
<event>
 4    1  0.7940509E+003  0.3012557E+02  0.7546771E-02  0.1418508E+00
          2   -1    0    0  501    0  0.00000000000E+00  0.00000000000E+00  0.59792248630E+01  0.59792248630E+01  0.00000000000E+00 0.  1.
          2   -1    0    0  502    0 -0.00000000000E+00 -0.00000000000E+00 -0.24462670454E+03  0.24462670454E+03  0.00000000000E+00 0.  1.
          2    1    1    2  501    0 -0.29856272503E+02  0.40190374558E+01 -0.19651776653E+03  0.19881343574E+03  0.00000000000E+00 0.  1.
          2    1    1    2  502    0  0.29856272503E+02 -0.40190374558E+01 -0.42129713154E+02  0.51792493667E+02  0.00000000000E+00 0.  1.
</event>
<event>
 4    1  0.7940509E+003  0.2062268E+02  0.7546771E-02  0.1524721E+00
          2   -1    0    0  501    0  0.00000000000E+00  0.00000000000E+00  0.60486010146E+03  0.60486010146E+03  0.00000000000E+00 0. -1.
          2   -1    0    0  502    0 -0.00000000000E+00 -0.00000000000E+00 -0.27758719899E+01  0.27758719899E+01  0.00000000000E+00 0. -1.
          2    1    1    2  501    0 -0.19509181721E+02  0.66848224623E+01  0.38507584900E+02  0.43682137283E+02  0.00000000000E+00 0. -1.
          2    1    1    2  502    0  0.19509181721E+02 -0.66848224623E+01  0.56357664457E+03  0.56395383617E+03  0.00000000000E+00 0. -1.
</event>
<event>
 4    1  0.7940509E+003  0.3027762E+02  0.7546771E-02  0.1417199E+00
          2   -1    0    0  502    0  0.00000000000E+00  0.00000000000E+00  0.13270509913E+04  0.13270509913E+04  0.00000000000E+00 0.  1.
          2   -1    0    0  501    0 -0.00000000000E+00 -0.00000000000E+00 -0.15615095940E+02  0.15615095940E+02  0.00000000000E+00 0.  1.
          2    1    1    2  501    0  0.25559814387E+02  0.16230526268E+02  0.13120332680E+04  0.13123825777E+04  0.00000000000E+00 0.  1.
          2    1    1    2  502    0 -0.25559814387E+02 -0.16230526268E+02 -0.59737259663E+00  0.30283509514E+02  0.00000000000E+00 0.  1.
</event>
<event>
 4    1  0.7940509E+003  0.2452732E+02  0.7546771E-02  0.1474161E+00
          2   -1    0    0  502    0  0.00000000000E+00  0.00000000000E+00  0.11465318720E+02  0.11465318720E+02  0.00000000000E+00 0.  1.
          2   -1    0    0  501    0 -0.00000000000E+00 -0.00000000000E+00 -0.27518738895E+03  0.27518738895E+03  0.00000000000E+00 0. -1.
          2    1    1    2  501    0 -0.21577956223E+02  0.11661091144E+02 -0.29207830893E+01  0.24700611638E+02  0.00000000000E+00 0.  1.
          2    1    1    2  502    0  0.21577956223E+02 -0.11661091144E+02 -0.26080128714E+03  0.26195209603E+03  0.00000000000E+00 0. -1.
</event>
<event>
 4    1  0.7940509E+003  0.2941273E+02  0.7546771E-02  0.1424769E+00
          2   -1    0    0  502    0  0.00000000000E+00  0.00000000000E+00  0.36841409358E+03  0.36841409358E+03  0.00000000000E+00 0.  1.
          2   -1    0    0  501    0 -0.00000000000E+00 -0.00000000000E+00 -0.24173974387E+01  0.24173974387E+01  0.00000000000E+00 0. -1.
          2    1    1    2  501    0 -0.39574131148E+01  0.29145282189E+02  0.21436942047E+03  0.21637781084E+03  0.00000000000E+00 0.  1.
          2    1    1    2  502    0  0.39574131148E+01 -0.29145282189E+02  0.15162727567E+03  0.15445368017E+03  0.00000000000E+00 0. -1.
</event>
<event>
 4    1  0.7940509E+003  0.3538285E+02  0.7546771E-02  0.1377891E+00
          2   -1    0    0  501    0  0.00000000000E+00  0.00000000000E+00  0.85548651609E+03  0.85548651609E+03  0.00000000000E+00 0.  1.
          2   -1    0    0  502    0 -0.00000000000E+00 -0.00000000000E+00 -0.16474281412E+02  0.16474281412E+02  0.00000000000E+00 0.  1.
          2    1    1    2  501    0  0.35380926441E+02 -0.36876110373E+00  0.33403389440E+01  0.35540171705E+02  0.00000000000E+00 0.  1.
          2    1    1    2  502    0 -0.35380926441E+02  0.36876110373E+00  0.83567189573E+03  0.83642062580E+03  0.00000000000E+00 0.  1.
</event>
<event>
 4    1  0.7940509E+003  0.2357357E+02  0.7546771E-02  0.1485419E+00
          2   -1    0    0  502    0  0.00000000000E+00  0.00000000000E+00  0.45149547406E+00  0.45149547406E+00  0.00000000000E+00 0. -1.
          2   -1    0    0  501    0 -0.00000000000E+00 -0.00000000000E+00 -0.14477981934E+04  0.14477981934E+04  0.00000000000E+00 0. -1.
          2    1    1    2  501    0  0.16216825232E+02 -0.17109293705E+02 -0.44334998704E+03  0.44397626554E+03  0.00000000000E+00 0. -1.
          2    1    1    2  502    0 -0.16216825232E+02  0.17109293705E+02 -0.10039967109E+04  0.10042734234E+04  0.00000000000E+00 0. -1.
</event>
<event>
 4    1  0.7940509E+003  0.2104254E+02  0.7546771E-02  0.1518658E+00
          2   -1    0    0  501    0  0.00000000000E+00  0.00000000000E+00  0.68038888559E+00  0.68038888559E+00  0.00000000000E+00 0. -1.
          2   -1    0    0  502    0 -0.00000000000E+00 -0.00000000000E+00 -0.16569079763E+04  0.16569079763E+04  0.00000000000E+00 0. -1.
          2    1    1    2  501    0 -0.19319704949E+01 -0.20953658819E+02 -0.14739502762E+04  0.14741004732E+04  0.00000000000E+00 0. -1.
          2    1    1    2  502    0  0.19319704949E+01  0.20953658819E+02 -0.18227731115E+03  0.18348789194E+03  0.00000000000E+00 0. -1.
</event>
<event>
 4    1  0.7940509E+003  0.2059793E+02  0.7546771E-02  0.1525084E+00
          2   -1    0    0  501    0  0.00000000000E+00  0.00000000000E+00  0.76448390392E+03  0.76448390392E+03  0.00000000000E+00 0. -1.
          2   -1    0    0  502    0 -0.00000000000E+00 -0.00000000000E+00 -0.11182959342E+01  0.11182959342E+01  0.00000000000E+00 0. -1.
          2    1    1    2  501    0  0.20430827638E+02  0.26183915148E+01  0.10999502188E+03  0.11190701287E+03  0.00000000000E+00 0. -1.
          2    1    1    2  502    0 -0.20430827638E+02 -0.26183915148E+01  0.65337058611E+03  0.65369518698E+03  0.00000000000E+00 0. -1.
</event>
<event>
 4    1  0.1528878E+004  0.2377100E+02  0.7546771E-02  0.1483037E+00
          2   -1    0    0  502    0  0.00000000000E+00  0.00000000000E+00  0.96738501734E+03  0.96738501734E+03  0.00000000000E+00 0. -1.
          2   -1    0    0  501    0 -0.00000000000E+00 -0.00000000000E+00 -0.67915797951E+03  0.67915797951E+03  0.00000000000E+00 0.  1.
          2    1    1    2  501    0 -0.22061502792E+02 -0.88515816134E+01  0.96703091304E+03  0.96732303145E+03  0.00000000000E+00 0. -1.
          2    1    1    2  502    0  0.22061502792E+02  0.88515816134E+01 -0.67880387521E+03  0.67921996540E+03  0.00000000000E+00 0.  1.
</event>
<event>
 4    1  0.7940509E+003  0.2785429E+02  0.7546771E-02  0.1439210E+00
          2   -1    0    0  502    0  0.00000000000E+00  0.00000000000E+00  0.14157380659E+02  0.14157380659E+02  0.00000000000E+00 0. -1.
          2   -1    0    0  501    0 -0.00000000000E+00 -0.00000000000E+00 -0.14403161543E+04  0.14403161543E+04  0.00000000000E+00 0. -1.
          2    1    1    2  501    0  0.25489634566E+02  0.11231213871E+02  0.18788550626E+00  0.27854926607E+02  0.00000000000E+00 0. -1.
          2    1    1    2  502    0 -0.25489634566E+02 -0.11231213871E+02 -0.14263466592E+04  0.14266186084E+04  0.00000000000E+00 0. -1.
</event>
<event>
 4    1  0.7940509E+003  0.2616010E+02  0.7546771E-02  0.1456233E+00
          2   -1    0    0  502    0  0.00000000000E+00  0.00000000000E+00  0.10602277707E+03  0.10602277707E+03  0.00000000000E+00 0.  1.
          2   -1    0    0  501    0 -0.00000000000E+00 -0.00000000000E+00 -0.82593090934E+02  0.82593090934E+02  0.00000000000E+00 0.  1.
          2    1    1    2  501    0 -0.20437270907E+01  0.26080141833E+02  0.10226267858E+03  0.10555570116E+03  0.00000000000E+00 0.  1.
          2    1    1    2  502    0  0.20437270907E+01 -0.26080141833E+02 -0.78832992440E+02  0.83060166840E+02  0.00000000000E+00 0.  1.
</event>
<event>
 4    1  0.7940509E+003  0.2231478E+02  0.7546771E-02  0.1501286E+00
          2   -1    0    0  502    0  0.00000000000E+00  0.00000000000E+00  0.15933348577E+03  0.15933348577E+03  0.00000000000E+00 0. -1.
          2   -1    0    0  501    0 -0.00000000000E+00 -0.00000000000E+00 -0.80740481176E+01  0.80740481176E+01  0.00000000000E+00 0. -1.
          2    1    1    2  501    0  0.21816221701E+02 -0.46906161600E+01  0.14116139690E+03  0.14291427285E+03  0.00000000000E+00 0. -1.
          2    1    1    2  502    0 -0.21816221701E+02  0.46906161600E+01  0.10098040752E+02  0.24493261038E+02  0.00000000000E+00 0. -1.
</event>
<event>
 4    1  0.7940509E+003  0.2414705E+02  0.7546771E-02  0.1478576E+00
          2   -1    0    0  502    0  0.00000000000E+00  0.00000000000E+00  0.93596480010E+03  0.93596480010E+03  0.00000000000E+00 0.  1.
          2   -1    0    0  501    0 -0.00000000000E+00 -0.00000000000E+00 -0.12006252046E+01  0.12006252046E+01  0.00000000000E+00 0. -1.
          2    1    1    2  501    0 -0.11747985363E+02  0.21096561385E+02  0.79240654916E+03  0.79277438103E+03  0.00000000000E+00 0.  1.
          2    1    1    2  502    0  0.11747985363E+02 -0.21096561385E+02  0.14235762574E+03  0.14439104428E+03  0.00000000000E+00 0. -1.
</event>
<event>
 4    1  0.7940509E+003  0.2763430E+02  0.7546771E-02  0.1441338E+00
          2   -1    0    0  502    0  0.00000000000E+00  0.00000000000E+00  0.66389776444E+02  0.66389776444E+02  0.00000000000E+00 0.  1.
          2   -1    0    0  501    0 -0.00000000000E+00 -0.00000000000E+00 -0.17655691640E+03  0.17655691640E+03  0.00000000000E+00 0.  1.
          2    1    1    2  501    0  0.18444944915E+02  0.20577616701E+02  0.62366177146E+02  0.68214326602E+02  0.00000000000E+00 0.  1.
          2    1    1    2  502    0 -0.18444944915E+02 -0.20577616701E+02 -0.17253331710E+03  0.17473236624E+03  0.00000000000E+00 0.  1.
</event>
<event>
 4    1  0.7940509E+003  0.2306817E+02  0.7546771E-02  0.1491644E+00
          2   -1    0    0  501    0  0.00000000000E+00  0.00000000000E+00  0.59797934567E+03  0.59797934567E+03  0.00000000000E+00 0.  1.
          2   -1    0    0  502    0 -0.00000000000E+00 -0.00000000000E+00 -0.16162598075E+02  0.16162598075E+02  0.00000000000E+00 0.  1.
          2    1    1    2  501    0 -0.53268952471E+01 -0.22444698652E+02 -0.75893996247E+01  0.24284548528E+02  0.00000000000E+00 0.  1.
          2    1    1    2  502    0  0.53268952471E+01  0.22444698652E+02  0.58940614722E+03  0.58985739522E+03  0.00000000000E+00 0.  1.
</event>
<event>
 4    1  0.7940509E+003  0.3063004E+02  0.7546771E-02  0.1414199E+00
          2   -1    0    0  501    0  0.00000000000E+00  0.00000000000E+00  0.30638588116E+01  0.30638588116E+01  0.00000000000E+00 0. -1.
          2   -1    0    0  502    0 -0.00000000000E+00 -0.00000000000E+00 -0.60932381326E+03  0.60932381326E+03  0.00000000000E+00 0. -1.
          2    1    1    2  501    0 -0.19310096131E+02 -0.23776450885E+02 -0.51908915870E+03  0.51999207120E+03  0.00000000000E+00 0. -1.
          2    1    1    2  502    0  0.19310096131E+02  0.23776450885E+02 -0.87170795746E+02  0.92395600871E+02  0.00000000000E+00 0. -1.
</event>
<event>
 4    1  0.7940509E+003  0.7783576E+02  0.7546771E-02  0.1208963E+00
          2   -1    0    0  501    0  0.00000000000E+00  0.00000000000E+00  0.31977398840E+02  0.31977398840E+02  0.00000000000E+00 0.  1.
          2   -1    0    0  502    0 -0.00000000000E+00 -0.00000000000E+00 -0.25049519523E+03  0.25049519523E+03  0.00000000000E+00 0. -1.
          2    1    1    2  501    0  0.62512147180E+02  0.46374965118E+02 -0.17897616575E+03  0.19516883420E+03  0.00000000000E+00 0. -1.
          2    1    1    2  502    0 -0.62512147180E+02 -0.46374965118E+02 -0.39541630642E+02  0.87303759876E+02  0.00000000000E+00 0.  1.
</event>
<event>
 4    1  0.7940509E+003  0.5686189E+02  0.7546771E-02  0.1270884E+00
          2   -1    0    0  502    0  0.00000000000E+00  0.00000000000E+00  0.10175323957E+04  0.10175323957E+04  0.00000000000E+00 0.  1.
          2   -1    0    0  501    0 -0.00000000000E+00 -0.00000000000E+00 -0.31997662963E+01  0.31997662963E+01  0.00000000000E+00 0.  1.
          2    1    1    2  501    0  0.25958718398E+02 -0.50590707333E+02  0.54967890665E+03  0.55261213807E+03  0.00000000000E+00 0.  1.
          2    1    1    2  502    0 -0.25958718398E+02  0.50590707333E+02  0.46465372275E+03  0.46812002392E+03  0.00000000000E+00 0.  1.
</event>
<event>
 4    1  0.7940509E+003  0.5341668E+02  0.7546771E-02  0.1284002E+00
          2   -1    0    0  502    0  0.00000000000E+00  0.00000000000E+00  0.30189165362E+04  0.30189165362E+04  0.00000000000E+00 0. -1.
          2   -1    0    0  501    0 -0.00000000000E+00 -0.00000000000E+00 -0.17475023390E+03  0.17475023390E+03  0.00000000000E+00 0.  1.
          2    1    1    2  501    0  0.22052322942E+02  0.48652202173E+02  0.30145923643E+04  0.30150655822E+04  0.00000000000E+00 0. -1.
          2    1    1    2  502    0 -0.22052322942E+02 -0.48652202173E+02 -0.17042606202E+03  0.17860118795E+03  0.00000000000E+00 0.  1.
</event>
<event>
 4    1  0.7940509E+003  0.2805392E+02  0.7546771E-02  0.1437299E+00
          2   -1    0    0  501    0  0.00000000000E+00  0.00000000000E+00  0.11503865307E+02  0.11503865307E+02  0.00000000000E+00 0.  1.
          2   -1    0    0  502    0 -0.00000000000E+00 -0.00000000000E+00 -0.62661441823E+03  0.62661441823E+03  0.00000000000E+00 0. -1.
          2    1    1    2  501    0  0.35481652843E+01 -0.27828634118E+02 -0.60869370795E+03  0.60933984972E+03  0.00000000000E+00 0. -1.
          2    1    1    2  502    0 -0.35481652843E+01  0.27828634118E+02 -0.64168449731E+01  0.28778433821E+02  0.00000000000E+00 0.  1.
</event>
<event>
 4    1  0.7940509E+003  0.6421958E+02  0.7546771E-02  0.1246133E+00
          2   -1    0    0  501    0  0.00000000000E+00  0.00000000000E+00  0.75718843648E+02  0.75718843648E+02  0.00000000000E+00 0. -1.
          2   -1    0    0  502    0 -0.00000000000E+00 -0.00000000000E+00 -0.21119350392E+04  0.21119350392E+04  0.00000000000E+00 0.  1.
          2    1    1    2  501    0  0.64086095285E+02  0.41384503557E+01 -0.20977380390E+04  0.20987208091E+04  0.00000000000E+00 0.  1.
          2    1    1    2  502    0 -0.64086095285E+02 -0.41384503557E+01  0.61521843450E+02  0.88933073722E+02  0.00000000000E+00 0. -1.
</event>
<event>
 4    1  0.7940509E+003  0.3918602E+02  0.7546771E-02  0.1353323E+00
          2   -1    0    0  502    0  0.00000000000E+00  0.00000000000E+00  0.42133750075E+03  0.42133750075E+03  0.00000000000E+00 0.  1.
          2   -1    0    0  501    0 -0.00000000000E+00 -0.00000000000E+00 -0.99092339003E+02  0.99092339003E+02  0.00000000000E+00 0. -1.
          2    1    1    2  501    0  0.30666644083E+02 -0.24394692293E+02  0.41650753921E+03  0.41834683492E+03  0.00000000000E+00 0.  1.
          2    1    1    2  502    0 -0.30666644083E+02  0.24394692293E+02 -0.94262377459E+02  0.10208300483E+03  0.00000000000E+00 0. -1.
</event>
<event>
 4    1  0.7940509E+003  0.2916446E+02  0.7546771E-02  0.1426999E+00
          2   -1    0    0  501    0  0.00000000000E+00  0.00000000000E+00  0.36247309418E+02  0.36247309418E+02  0.00000000000E+00 0.  1.
          2   -1    0    0  502    0 -0.00000000000E+00 -0.00000000000E+00 -0.37221482920E+03  0.37221482920E+03  0.00000000000E+00 0.  1.
          2    1    1    2  501    0  0.11906901842E+02 -0.26623136924E+02 -0.36567234300E+03  0.36683351560E+03  0.00000000000E+00 0.  1.
          2    1    1    2  502    0 -0.11906901842E+02  0.26623136924E+02  0.29704823224E+02  0.41628623013E+02  0.00000000000E+00 0.  1.
</event>
<event>
 4    1  0.7940509E+003  0.6080674E+02  0.7546771E-02  0.1257116E+00
          2   -1    0    0  502    0  0.00000000000E+00  0.00000000000E+00  0.51939818367E+01  0.51939818367E+01  0.00000000000E+00 0. -1.
          2   -1    0    0  501    0 -0.00000000000E+00 -0.00000000000E+00 -0.14287122372E+04  0.14287122372E+04  0.00000000000E+00 0.  1.
          2    1    1    2  501    0  0.43866892780E+02  0.42108856930E+02 -0.12196015562E+04  0.12211164629E+04  0.00000000000E+00 0.  1.
          2    1    1    2  502    0 -0.43866892780E+02 -0.42108856930E+02 -0.20391669922E+03  0.21278975618E+03  0.00000000000E+00 0. -1.
</event>
<event>
 4    1  0.7940509E+003  0.1879172E+03  0.7546771E-02  0.1064050E+00
          2   -1    0    0  502    0  0.00000000000E+00  0.00000000000E+00  0.86763145310E+03  0.86763145310E+03  0.00000000000E+00 0. -1.
          2   -1    0    0  501    0 -0.00000000000E+00 -0.00000000000E+00 -0.12895128900E+03  0.12895128900E+03  0.00000000000E+00 0.  1.
          2    1    1    2  501    0 -0.79056090022E+02 -0.17047879837E+03  0.78156120355E+03  0.80383505830E+03  0.00000000000E+00 0. -1.
          2    1    1    2  502    0  0.79056090022E+02  0.17047879837E+03 -0.42881039448E+02  0.19274768379E+03  0.00000000000E+00 0.  1.
</event>
<event>
 4    1  0.7940509E+003  0.2167634E+02  0.7546771E-02  0.1509824E+00
          2   -1    0    0  502    0  0.00000000000E+00  0.00000000000E+00  0.37371714448E+01  0.37371714448E+01  0.00000000000E+00 0. -1.
          2   -1    0    0  501    0 -0.00000000000E+00 -0.00000000000E+00 -0.50106806723E+03  0.50106806723E+03  0.00000000000E+00 0.  1.
          2    1    1    2  501    0  0.13661209360E+02 -0.16829592301E+02 -0.30212220732E+02  0.37183895704E+02  0.00000000000E+00 0. -1.
          2    1    1    2  502    0 -0.13661209360E+02  0.16829592301E+02 -0.46711867505E+03  0.46762134297E+03  0.00000000000E+00 0.  1.
</event>
<event>
 4    1  0.7940509E+003  0.2256542E+02  0.7546771E-02  0.1498028E+00
          2   -1    0    0  501    0  0.00000000000E+00  0.00000000000E+00  0.22305597842E+03  0.22305597842E+03  0.00000000000E+00 0. -1.
          2   -1    0    0  502    0 -0.00000000000E+00 -0.00000000000E+00 -0.10791194242E+02  0.10791194242E+02  0.00000000000E+00 0. -1.
          2    1    1    2  501    0 -0.35919513032E+01 -0.22277702956E+02  0.23101289267E+01  0.22683360837E+02  0.00000000000E+00 0. -1.
          2    1    1    2  502    0  0.35919513032E+01  0.22277702956E+02  0.20995465525E+03  0.21116381183E+03  0.00000000000E+00 0. -1.
</event>
<event>
 4    1  0.7940509E+003  0.5129789E+02  0.7546771E-02  0.1292641E+00
          2   -1    0    0  501    0  0.00000000000E+00  0.00000000000E+00  0.82386123981E+01  0.82386123981E+01  0.00000000000E+00 0. -1.
          2   -1    0    0  502    0 -0.00000000000E+00 -0.00000000000E+00 -0.37011552218E+03  0.37011552218E+03  0.00000000000E+00 0. -1.
          2    1    1    2  501    0 -0.17390755534E+02  0.48260082436E+02 -0.25096110046E+03  0.25615024473E+03  0.00000000000E+00 0. -1.
          2    1    1    2  502    0  0.17390755534E+02 -0.48260082436E+02 -0.11091580932E+03  0.12220388984E+03  0.00000000000E+00 0. -1.
</event>
<event>
 4    1  0.7940509E+003  0.3861761E+02  0.7546771E-02  0.1356783E+00
          2   -1    0    0  501    0  0.00000000000E+00  0.00000000000E+00  0.19706684452E+03  0.19706684452E+03  0.00000000000E+00 0.  1.
          2   -1    0    0  502    0 -0.00000000000E+00 -0.00000000000E+00 -0.37789036746E+03  0.37789036746E+03  0.00000000000E+00 0. -1.
          2    1    1    2  501    0 -0.31999869327E+02 -0.21617770777E+02 -0.37499730584E+03  0.37698050219E+03  0.00000000000E+00 0. -1.
          2    1    1    2  502    0  0.31999869327E+02  0.21617770777E+02  0.19417378290E+03  0.19797670978E+03  0.00000000000E+00 0.  1.
</event>
<event>
 4    1  0.7940509E+003  0.2861958E+02  0.7546771E-02  0.1431984E+00
          2   -1    0    0  502    0  0.00000000000E+00  0.00000000000E+00  0.21269252731E+01  0.21269252731E+01  0.00000000000E+00 0.  1.
          2   -1    0    0  501    0 -0.00000000000E+00 -0.00000000000E+00 -0.57689302889E+03  0.57689302889E+03  0.00000000000E+00 0.  1.
          2    1    1    2  501    0  0.27500806520E+01  0.28487141857E+02 -0.12045411735E+03  0.12380740923E+03  0.00000000000E+00 0.  1.
          2    1    1    2  502    0 -0.27500806520E+01 -0.28487141857E+02 -0.45431198627E+03  0.45521254493E+03  0.00000000000E+00 0.  1.
</event>
<event>
 4    1  0.7940509E+003  0.2245312E+02  0.7546771E-02  0.1499482E+00
          2   -1    0    0  501    0  0.00000000000E+00  0.00000000000E+00  0.95393892332E+03  0.95393892332E+03  0.00000000000E+00 0.  1.
          2   -1    0    0  502    0 -0.00000000000E+00 -0.00000000000E+00 -0.13816887681E+01  0.13816887681E+01  0.00000000000E+00 0. -1.
          2    1    1    2  501    0  0.71401852782E+01 -0.21287560114E+02  0.10092517057E+03  0.10339261345E+03  0.00000000000E+00 0. -1.
          2    1    1    2  502    0 -0.71401852782E+01  0.21287560114E+02  0.85163206398E+03  0.85192799864E+03  0.00000000000E+00 0.  1.
</event>
<event>
 4    1  0.7940509E+003  0.2400407E+02  0.7546771E-02  0.1480261E+00
          2   -1    0    0  502    0  0.00000000000E+00  0.00000000000E+00  0.19629550290E+03  0.19629550290E+03  0.00000000000E+00 0.  1.
          2   -1    0    0  501    0 -0.00000000000E+00 -0.00000000000E+00 -0.58249772435E+03  0.58249772435E+03  0.00000000000E+00 0.  1.
          2    1    1    2  501    0 -0.23043995184E+02  0.67208250226E+01  0.19531313222E+03  0.19678265884E+03  0.00000000000E+00 0.  1.
          2    1    1    2  502    0  0.23043995184E+02 -0.67208250226E+01 -0.58151535366E+03  0.58201056841E+03  0.00000000000E+00 0.  1.
</event>
<event>
 4    1  0.7940509E+003  0.3162958E+02  0.7546771E-02  0.1405945E+00
          2   -1    0    0  502    0  0.00000000000E+00  0.00000000000E+00  0.15944424961E+04  0.15944424961E+04  0.00000000000E+00 0.  1.
          2   -1    0    0  501    0 -0.00000000000E+00 -0.00000000000E+00 -0.13801103747E+01  0.13801103747E+01  0.00000000000E+00 0.  1.
          2    1    1    2  501    0  0.17853764170E+02  0.26108875659E+02  0.13857786468E+04  0.13861395631E+04  0.00000000000E+00 0.  1.
          2    1    1    2  502    0 -0.17853764170E+02 -0.26108875659E+02  0.20728373889E+03  0.20968304340E+03  0.00000000000E+00 0.  1.
</event>
<event>
 4    1  0.7940509E+003  0.2273009E+02  0.7546771E-02  0.1495916E+00
          2   -1    0    0  501    0  0.00000000000E+00  0.00000000000E+00  0.72254629326E+01  0.72254629326E+01  0.00000000000E+00 0.  1.
          2   -1    0    0  502    0 -0.00000000000E+00 -0.00000000000E+00 -0.15652224115E+04  0.15652224115E+04  0.00000000000E+00 0. -1.
          2    1    1    2  501    0 -0.22685964770E+02  0.14155887669E+01 -0.15470537059E+04  0.15472206778E+04  0.00000000000E+00 0. -1.
          2    1    1    2  502    0  0.22685964770E+02 -0.14155887669E+01 -0.10943242650E+02  0.25227196610E+02  0.00000000000E+00 0.  1.
</event>
<event>
 4    1  0.7940509E+003  0.8954926E+02  0.7546771E-02  0.1183264E+00
          2   -1    0    0  501    0  0.00000000000E+00  0.00000000000E+00  0.49775383626E+02  0.49775383626E+02  0.00000000000E+00 0.  1.
          2   -1    0    0  502    0 -0.00000000000E+00 -0.00000000000E+00 -0.24272446634E+04  0.24272446634E+04  0.00000000000E+00 0. -1.
          2    1    1    2  501    0  0.29477325888E+02  0.84558600832E+02 -0.23854367913E+04  0.23871170384E+04  0.00000000000E+00 0. -1.
          2    1    1    2  502    0 -0.29477325888E+02 -0.84558600832E+02  0.79675115497E+01  0.89903008606E+02  0.00000000000E+00 0.  1.
</event>
<event>
 4    1  0.7940509E+003  0.4287166E+02  0.7546771E-02  0.1332433E+00
          2   -1    0    0  501    0  0.00000000000E+00  0.00000000000E+00  0.87773378005E+02  0.87773378005E+02  0.00000000000E+00 0. -1.
          2   -1    0    0  502    0 -0.00000000000E+00 -0.00000000000E+00 -0.33455415420E+03  0.33455415420E+03  0.00000000000E+00 0.  1.
          2    1    1    2  501    0 -0.38893568903E+02 -0.18035233076E+02 -0.32783891012E+03  0.33063020177E+03  0.00000000000E+00 0.  1.
          2    1    1    2  502    0  0.38893568903E+02  0.18035233076E+02  0.81058133923E+02  0.91697330436E+02  0.00000000000E+00 0. -1.
</event>
<event>
 4    1  0.7940509E+003  0.2911984E+02  0.7546771E-02  0.1427402E+00
          2   -1    0    0  502    0  0.00000000000E+00  0.00000000000E+00  0.34317970206E+02  0.34317970206E+02  0.00000000000E+00 0. -1.
          2   -1    0    0  501    0 -0.00000000000E+00 -0.00000000000E+00 -0.34796085589E+02  0.34796085589E+02  0.00000000000E+00 0.  1.
          2    1    1    2  501    0  0.44175015706E+01 -0.28782821245E+02  0.18366921895E+02  0.34428315945E+02  0.00000000000E+00 0. -1.
          2    1    1    2  502    0 -0.44175015706E+01  0.28782821245E+02 -0.18845037278E+02  0.34685739850E+02  0.00000000000E+00 0.  1.
</event>
<event>
 4    1  0.7940509E+003  0.3209703E+02  0.7546771E-02  0.1402208E+00
          2   -1    0    0  502    0  0.00000000000E+00  0.00000000000E+00  0.20928444031E+01  0.20928444031E+01  0.00000000000E+00 0.  1.
          2   -1    0    0  501    0 -0.00000000000E+00 -0.00000000000E+00 -0.58153981618E+03  0.58153981618E+03  0.00000000000E+00 0. -1.
          2    1    1    2  501    0 -0.16939023823E+02  0.27263319423E+02 -0.40406441184E+03  0.40533722754E+03  0.00000000000E+00 0. -1.
          2    1    1    2  502    0  0.16939023823E+02 -0.27263319423E+02 -0.17538255993E+03  0.17829543304E+03  0.00000000000E+00 0.  1.
</event>
<event>
 4    1  0.7940509E+003  0.3081351E+02  0.7546771E-02  0.1412656E+00
          2   -1    0    0  501    0  0.00000000000E+00  0.00000000000E+00  0.38219555304E+02  0.38219555304E+02  0.00000000000E+00 0.  1.
          2   -1    0    0  502    0 -0.00000000000E+00 -0.00000000000E+00 -0.50523143534E+03  0.50523143534E+03  0.00000000000E+00 0.  1.
          2    1    1    2  501    0  0.81255343585E+01 -0.29722855537E+02 -0.49846676517E+03  0.49941825000E+03  0.00000000000E+00 0.  1.
          2    1    1    2  502    0 -0.81255343585E+01  0.29722855537E+02  0.31454885137E+02  0.44032740647E+02  0.00000000000E+00 0.  1.
</event>
<event>
 4    1  0.7940509E+003  0.2026541E+02  0.7546771E-02  0.1530016E+00
          2   -1    0    0  502    0  0.00000000000E+00  0.00000000000E+00  0.46844747330E+02  0.46844747330E+02  0.00000000000E+00 0. -1.
          2   -1    0    0  501    0 -0.00000000000E+00 -0.00000000000E+00 -0.10272543271E+03  0.10272543271E+03  0.00000000000E+00 0.  1.
          2    1    1    2  501    0  0.38294893980E+01 -0.19900296426E+02  0.43582368361E+02  0.48063599729E+02  0.00000000000E+00 0. -1.
          2    1    1    2  502    0 -0.38294893980E+01  0.19900296426E+02 -0.99463053743E+02  0.10150658031E+03  0.00000000000E+00 0.  1.
</event>
<event>
 4    1  0.7940509E+003  0.5060735E+02  0.7546771E-02  0.1295560E+00
          2   -1    0    0  502    0  0.00000000000E+00  0.00000000000E+00  0.50848020486E+03  0.50848020486E+03  0.00000000000E+00 0.  1.
          2   -1    0    0  501    0 -0.00000000000E+00 -0.00000000000E+00 -0.13600463245E+03  0.13600463245E+03  0.00000000000E+00 0.  1.
          2    1    1    2  501    0  0.48618944064E+02  0.14046425108E+02  0.50245696634E+03  0.50499911564E+03  0.00000000000E+00 0.  1.
          2    1    1    2  502    0 -0.48618944064E+02 -0.14046425108E+02 -0.12998139393E+03  0.13948572167E+03  0.00000000000E+00 0.  1.
</event>
<event>
 4    1  0.7940509E+003  0.2741923E+02  0.7546771E-02  0.1443442E+00
          2   -1    0    0  502    0  0.00000000000E+00  0.00000000000E+00  0.53085193819E+02  0.53085193819E+02  0.00000000000E+00 0.  1.
          2   -1    0    0  501    0 -0.00000000000E+00 -0.00000000000E+00 -0.14369566986E+02  0.14369566986E+02  0.00000000000E+00 0. -1.
          2    1    1    2  501    0 -0.27340402606E+02  0.20776474932E+01  0.23407407300E+02  0.36051642823E+02  0.00000000000E+00 0.  1.
          2    1    1    2  502    0  0.27340402606E+02 -0.20776474932E+01  0.15308219533E+02  0.31403117982E+02  0.00000000000E+00 0. -1.
</event>
<event>
 4    1  0.7940509E+003  0.2452878E+02  0.7546771E-02  0.1474144E+00
          2   -1    0    0  502    0  0.00000000000E+00  0.00000000000E+00  0.47843288756E+03  0.47843288756E+03  0.00000000000E+00 0.  1.
          2   -1    0    0  501    0 -0.00000000000E+00 -0.00000000000E+00 -0.78206493023E+01  0.78206493023E+01  0.00000000000E+00 0. -1.
          2    1    1    2  501    0  0.24052223385E+02  0.48116140149E+01  0.45802924851E+03  0.45868557158E+03  0.00000000000E+00 0.  1.
          2    1    1    2  502    0 -0.24052223385E+02 -0.48116140149E+01  0.12582989748E+02  0.27567965289E+02  0.00000000000E+00 0. -1.
</event>
<event>
 4    1  0.7940509E+003  0.3218698E+02  0.7546771E-02  0.1401497E+00
          2   -1    0    0  501    0  0.00000000000E+00  0.00000000000E+00  0.17515827906E+03  0.17515827906E+03  0.00000000000E+00 0. -1.
          2   -1    0    0  502    0 -0.00000000000E+00 -0.00000000000E+00 -0.19598477926E+02  0.19598477926E+02  0.00000000000E+00 0. -1.
          2    1    1    2  501    0  0.31624411963E+02  0.59914928091E+01 -0.35883600843E+01  0.32386382110E+02  0.00000000000E+00 0. -1.
          2    1    1    2  502    0 -0.31624411963E+02 -0.59914928091E+01  0.15914816122E+03  0.16237037488E+03  0.00000000000E+00 0. -1.
</event>
<event>
 4    1  0.7940509E+003  0.3334804E+02  0.7546771E-02  0.1392564E+00
          2   -1    0    0  501    0  0.00000000000E+00  0.00000000000E+00  0.74498460130E+03  0.74498460130E+03  0.00000000000E+00 0.  1.
          2   -1    0    0  502    0 -0.00000000000E+00 -0.00000000000E+00 -0.36988104087E+01  0.36988104087E+01  0.00000000000E+00 0.  1.
          2    1    1    2  501    0 -0.34969380458E+01 -0.33164188136E+02  0.81545791510E+02  0.88101124076E+02  0.00000000000E+00 0.  1.
          2    1    1    2  502    0  0.34969380458E+01  0.33164188136E+02  0.65973999939E+03  0.66058228764E+03  0.00000000000E+00 0.  1.
</event>
<event>
 4    1  0.7940509E+003  0.3037698E+02  0.7546771E-02  0.1416348E+00
          2   -1    0    0  501    0  0.00000000000E+00  0.00000000000E+00  0.40078755940E+02  0.40078755940E+02  0.00000000000E+00 0.  1.
          2   -1    0    0  502    0 -0.00000000000E+00 -0.00000000000E+00 -0.30972817734E+02  0.30972817734E+02  0.00000000000E+00 0.  1.
          2    1    1    2  501    0 -0.14591309189E+02  0.26643101409E+02 -0.13444559718E+02  0.33219231516E+02  0.00000000000E+00 0.  1.
          2    1    1    2  502    0  0.14591309189E+02 -0.26643101409E+02  0.22550497924E+02  0.37832342158E+02  0.00000000000E+00 0.  1.
</event>
<event>
 4    1  0.7940509E+003  0.2111376E+02  0.7546771E-02  0.1517647E+00
          2   -1    0    0  501    0  0.00000000000E+00  0.00000000000E+00  0.31692912131E+03  0.31692912131E+03  0.00000000000E+00 0.  1.
          2   -1    0    0  502    0 -0.00000000000E+00 -0.00000000000E+00 -0.12194746495E+02  0.12194746495E+02  0.00000000000E+00 0.  1.
          2    1    1    2  501    0 -0.81798338247E+01 -0.19464867291E+02 -0.24134118180E+01  0.21251242238E+02  0.00000000000E+00 0.  1.
          2    1    1    2  502    0  0.81798338247E+01  0.19464867291E+02  0.30714778664E+03  0.30787262557E+03  0.00000000000E+00 0.  1.
</event>
<event>
 4    1  0.7940509E+003  0.2126060E+02  0.7546771E-02  0.1515576E+00
          2   -1    0    0  501    0  0.00000000000E+00  0.00000000000E+00  0.17739740373E+03  0.17739740373E+03  0.00000000000E+00 0.  1.
          2   -1    0    0  502    0 -0.00000000000E+00 -0.00000000000E+00 -0.17179939362E+03  0.17179939362E+03  0.00000000000E+00 0. -1.
          2    1    1    2  501    0  0.60037496813E+01 -0.20395297538E+02 -0.17049978736E+03  0.17182022774E+03  0.00000000000E+00 0. -1.
          2    1    1    2  502    0 -0.60037496813E+01  0.20395297538E+02  0.17609779747E+03  0.17737656961E+03  0.00000000000E+00 0.  1.
</event>
<event>
 4    1  0.7940509E+003  0.3230143E+02  0.7546771E-02  0.1400597E+00
          2   -1    0    0  502    0  0.00000000000E+00  0.00000000000E+00  0.51115579331E+03  0.51115579331E+03  0.00000000000E+00 0. -1.
          2   -1    0    0  501    0 -0.00000000000E+00 -0.00000000000E+00 -0.47207603903E+03  0.47207603903E+03  0.00000000000E+00 0.  1.
          2    1    1    2  501    0  0.29444953631E+02  0.13280715263E+02  0.51009178615E+03  0.51111350304E+03  0.00000000000E+00 0. -1.
          2    1    1    2  502    0 -0.29444953631E+02 -0.13280715263E+02 -0.47101203187E+03  0.47211832930E+03  0.00000000000E+00 0.  1.
</event>
