<event>
 4    1  0.1602044E+006  0.3053922E+02  0.7546771E-02  0.1414967E+00
         21   -1    0    0  503  501  0.00000000000E+00  0.00000000000E+00  0.18780409353E+03  0.18780409353E+03  0.00000000000E+00 0.  1.
         21   -1    0    0  504  502 -0.00000000000E+00 -0.00000000000E+00 -0.67906463185E+01  0.67906463185E+01  0.00000000000E+00 0.  1.
         21    1    1    2  503  502  0.28760997156E+02  0.10268821971E+02  0.14094142863E+03  0.14421210062E+03  0.00000000000E+00 0.  1.
         21    1    1    2  504  501 -0.28760997156E+02 -0.10268821971E+02  0.40072018582E+02  0.50382639226E+02  0.00000000000E+00 0.  1.
</event>
<event>
 4    1  0.1602044E+006  0.2155135E+02  0.7546771E-02  0.1511537E+00
         21   -1    0    0  503  501  0.00000000000E+00  0.00000000000E+00  0.14086565470E+03  0.14086565470E+03  0.00000000000E+00 0. -1.
         21   -1    0    0  504  502 -0.00000000000E+00 -0.00000000000E+00 -0.33067457547E+01  0.33067457547E+01  0.00000000000E+00 0. -1.
         21    1    1    2  503  502  0.12687655259E+02 -0.17420800173E+02  0.64904409904E+02  0.68388912110E+02  0.00000000000E+00 0. -1.
         21    1    1    2  504  501 -0.12687655259E+02  0.17420800173E+02  0.72654499040E+02  0.75783488343E+02  0.00000000000E+00 0. -1.
</event>
<event>
 4    1  0.1602044E+006  0.3085477E+02  0.7546771E-02  0.1412311E+00
         21   -1    0    0  503  501  0.00000000000E+00  0.00000000000E+00  0.19343232510E+03  0.19343232510E+03  0.00000000000E+00 0.  1.
         21   -1    0    0  501  502 -0.00000000000E+00 -0.00000000000E+00 -0.90128834566E+02  0.90128834566E+02  0.00000000000E+00 0.  1.
         21    1    1    2  503  504 -0.29057948656E+02 -0.10375584166E+02  0.18950684421E+03  0.19200224251E+03  0.00000000000E+00 0.  1.
         21    1    1    2  504  502  0.29057948656E+02  0.10375584166E+02 -0.86203353672E+02  0.91558917158E+02  0.00000000000E+00 0.  1.
</event>
<event>
 4    1  0.1602044E+006  0.3122209E+02  0.7546771E-02  0.1409266E+00
         21   -1    0    0  504  501  0.00000000000E+00  0.00000000000E+00  0.16668579612E+03  0.16668579612E+03  0.00000000000E+00 0.  1.
         21   -1    0    0  503  502 -0.00000000000E+00 -0.00000000000E+00 -0.37206590452E+02  0.37206590452E+02  0.00000000000E+00 0. -1.
         21    1    1    2  503  501 -0.57178964177E+01 -0.30694046422E+02  0.15833137476E+03  0.16138042960E+03  0.00000000000E+00 0.  1.
         21    1    1    2  504  502  0.57178964177E+01  0.30694046422E+02 -0.28852169084E+02  0.42511956978E+02  0.00000000000E+00 0. -1.
</event>
<event>
 4    1  0.1602044E+006  0.5374424E+02  0.7546771E-02  0.1282707E+00
         21   -1    0    0  503  501  0.00000000000E+00  0.00000000000E+00  0.26232382257E+03  0.26232382257E+03  0.00000000000E+00 0.  1.
         21   -1    0    0  504  502 -0.00000000000E+00 -0.00000000000E+00 -0.16292972167E+02  0.16292972167E+02  0.00000000000E+00 0. -1.
         21    1    1    2  503  502  0.53032342571E+02  0.87185954046E+01  0.43696673001E+02  0.69266460107E+02  0.00000000000E+00 0. -1.
         21    1    1    2  504  501 -0.53032342571E+02 -0.87185954046E+01  0.20233417740E+03  0.20935033463E+03  0.00000000000E+00 0.  1.
</event>
<event>
 4    1  0.1602044E+006  0.8538973E+02  0.7546771E-02  0.1191859E+00
         21   -1    0    0  502  501  0.00000000000E+00  0.00000000000E+00  0.25514579053E+04  0.25514579053E+04  0.00000000000E+00 0. -1.
         21   -1    0    0  503  502 -0.00000000000E+00 -0.00000000000E+00 -0.38820012133E+01  0.38820012133E+01  0.00000000000E+00 0. -1.
         21    1    1    2  503  504  0.67011871216E+02  0.52922734830E+02  0.61749774068E+03  0.62337377751E+03  0.00000000000E+00 0. -1.
         21    1    1    2  504  501 -0.67011871216E+02 -0.52922734830E+02  0.19300781634E+04  0.19319661290E+04  0.00000000000E+00 0. -1.
</event>
<event>
 4    1  0.1602044E+006  0.2391692E+02  0.7546771E-02  0.1481294E+00
         21   -1    0    0  504  501  0.00000000000E+00  0.00000000000E+00  0.75436033881E+01  0.75436033881E+01  0.00000000000E+00 0. -1.
         21   -1    0    0  503  502 -0.00000000000E+00 -0.00000000000E+00 -0.35408767453E+03  0.35408767453E+03  0.00000000000E+00 0. -1.
         21    1    1    2  503  501  0.17945908848E+02 -0.15810234640E+02 -0.12982403611E+02  0.27213268221E+02  0.00000000000E+00 0. -1.
         21    1    1    2  504  502 -0.17945908848E+02  0.15810234640E+02 -0.33356166753E+03  0.33441800970E+03  0.00000000000E+00 0. -1.
</event>
<event>
 4    1  0.1602044E+006  0.2687731E+02  0.7546771E-02  0.1448844E+00
         21   -1    0    0  502  501  0.00000000000E+00  0.00000000000E+00  0.86205066325E+02  0.86205066325E+02  0.00000000000E+00 0. -1.
         21   -1    0    0  504  502 -0.00000000000E+00 -0.00000000000E+00 -0.28176750013E+02  0.28176750013E+02  0.00000000000E+00 0. -1.
         21    1    1    2  503  501 -0.24370856872E+02 -0.11333636032E+02  0.76952120814E+02  0.81510851229E+02  0.00000000000E+00 0. -1.
         21    1    1    2  504  503  0.24370856872E+02  0.11333636032E+02 -0.18923804501E+02  0.32870965109E+02  0.00000000000E+00 0. -1.
</event>
<event>
 4    1  0.1602044E+006  0.3322028E+02  0.7546771E-02  0.1393526E+00
         21   -1    0    0  504  501  0.00000000000E+00  0.00000000000E+00  0.63963456394E+03  0.63963456394E+03  0.00000000000E+00 0. -1.
         21   -1    0    0  503  502 -0.00000000000E+00 -0.00000000000E+00 -0.99175314409E+01  0.99175314409E+01  0.00000000000E+00 0. -1.
         21    1    1    2  503  501  0.11925697448E+02 -0.31005885619E+02  0.19681701845E+02  0.38612907042E+02  0.00000000000E+00 0. -1.
         21    1    1    2  504  502 -0.11925697448E+02  0.31005885619E+02  0.61003533065E+03  0.61093918834E+03  0.00000000000E+00 0. -1.
</event>
<event>
 4    1  0.1602044E+006  0.2177504E+02  0.7546771E-02  0.1508481E+00
         21   -1    0    0  503  501  0.00000000000E+00  0.00000000000E+00  0.80335251779E+03  0.80335251779E+03  0.00000000000E+00 0. -1.
         21   -1    0    0  504  502 -0.00000000000E+00 -0.00000000000E+00 -0.31470014590E+01  0.31470014590E+01  0.00000000000E+00 0.  1.
         21    1    1    2  503  502 -0.21442764239E+02 -0.37894919216E+01  0.36629305728E+02  0.42612890366E+02  0.00000000000E+00 0.  1.
         21    1    1    2  504  501  0.21442764239E+02  0.37894919216E+01  0.76357621060E+03  0.76388662888E+03  0.00000000000E+00 0. -1.
</event>
<event>
 4    1  0.1602044E+006  0.3106165E+02  0.7546771E-02  0.1410590E+00
         21   -1    0    0  502  501  0.00000000000E+00  0.00000000000E+00  0.16168992990E+02  0.16168992990E+02  0.00000000000E+00 0.  1.
         21   -1    0    0  503  502 -0.00000000000E+00 -0.00000000000E+00 -0.54731772318E+03  0.54731772318E+03  0.00000000000E+00 0.  1.
         21    1    1    2  503  504  0.97488621982E+00  0.31046343370E+02 -0.53151605528E+03  0.53242289852E+03  0.00000000000E+00 0.  1.
         21    1    1    2  504  501 -0.97488621982E+00 -0.31046343370E+02  0.36732508908E+00  0.31063817658E+02  0.00000000000E+00 0.  1.
</event>
<event>
 4    1  0.1602044E+006  0.2659447E+02  0.7546771E-02  0.1451725E+00
         21   -1    0    0  504  501  0.00000000000E+00  0.00000000000E+00  0.14487908510E+03  0.14487908510E+03  0.00000000000E+00 0. -1.
         21   -1    0    0  503  502 -0.00000000000E+00 -0.00000000000E+00 -0.11718321193E+02  0.11718321193E+02  0.00000000000E+00 0. -1.
         21    1    1    2  503  501  0.90735479065E+01 -0.24998726241E+02  0.12638580648E+03  0.12915354299E+03  0.00000000000E+00 0. -1.
         21    1    1    2  504  502 -0.90735479065E+01  0.24998726241E+02  0.67749574262E+01  0.27443863311E+02  0.00000000000E+00 0. -1.
</event>
<event>
 4    1  0.1602044E+006  0.2130504E+02  0.7546771E-02  0.1514954E+00
         21   -1    0    0  502  501  0.00000000000E+00  0.00000000000E+00  0.70844304824E+01  0.70844304824E+01  0.00000000000E+00 0. -1.
         21   -1    0    0  504  502 -0.00000000000E+00 -0.00000000000E+00 -0.13040543418E+03  0.13040543418E+03  0.00000000000E+00 0.  1.
         21    1    1    2  503  501  0.20280990799E+02  0.65258203449E+01 -0.12630364465E+02  0.24767539754E+02  0.00000000000E+00 0. -1.
         21    1    1    2  504  503 -0.20280990799E+02 -0.65258203449E+01 -0.11069063923E+03  0.11272232491E+03  0.00000000000E+00 0.  1.
</event>
<event>
 4    1  0.1602044E+006  0.2219562E+02  0.7546771E-02  0.1502854E+00
         21   -1    0    0  502  501  0.00000000000E+00  0.00000000000E+00  0.16137461442E+02  0.16137461442E+02  0.00000000000E+00 0. -1.
         21   -1    0    0  504  502 -0.00000000000E+00 -0.00000000000E+00 -0.59848383836E+03  0.59848383836E+03  0.00000000000E+00 0.  1.
         21    1    1    2  503  501  0.13968886280E+02 -0.17248645171E+02  0.81970719360E+01  0.23660886130E+02  0.00000000000E+00 0. -1.
         21    1    1    2  504  503 -0.13968886280E+02  0.17248645171E+02 -0.59054344885E+03  0.59096041367E+03  0.00000000000E+00 0.  1.
</event>
<event>
 4    1  0.1602044E+006  0.2869215E+02  0.7546771E-02  0.1431313E+00
         21   -1    0    0  504  501  0.00000000000E+00  0.00000000000E+00  0.10243147759E+02  0.10243147759E+02  0.00000000000E+00 0. -1.
         21   -1    0    0  501  502 -0.00000000000E+00 -0.00000000000E+00 -0.58408005571E+03  0.58408005571E+03  0.00000000000E+00 0. -1.
         21    1    1    2  503  502  0.11021896203E+02  0.26490699614E+02 -0.56287894854E+03  0.56360974980E+03  0.00000000000E+00 0. -1.
         21    1    1    2  504  503 -0.11021896203E+02 -0.26490699614E+02 -0.10957959416E+02  0.30713453673E+02  0.00000000000E+00 0. -1.
</event>
<event>
 4    1  0.1602044E+006  0.2485236E+02  0.7546771E-02  0.1470462E+00
         21   -1    0    0  503  501  0.00000000000E+00  0.00000000000E+00  0.81897549377E+01  0.81897549377E+01  0.00000000000E+00 0. -1.
         21   -1    0    0  504  502 -0.00000000000E+00 -0.00000000000E+00 -0.87239288074E+02  0.87239288074E+02  0.00000000000E+00 0.  1.
         21    1    1    2  503  502 -0.22765437800E+02  0.99686775876E+01 -0.21959242480E+02  0.33163956661E+02  0.00000000000E+00 0. -1.
         21    1    1    2  504  501  0.22765437800E+02 -0.99686775876E+01 -0.57090290657E+02  0.62265086352E+02  0.00000000000E+00 0.  1.
</event>
<event>
 4    1  0.1602044E+006  0.2739101E+02  0.7546771E-02  0.1443719E+00
         21   -1    0    0  503  501  0.00000000000E+00  0.00000000000E+00  0.59161366732E+03  0.59161366732E+03  0.00000000000E+00 0. -1.
         21   -1    0    0  504  502 -0.00000000000E+00 -0.00000000000E+00 -0.22972101650E+01  0.22972101650E+01  0.00000000000E+00 0. -1.
         21    1    1    2  503  502  0.25702049214E+02  0.94695393617E+01  0.95908385185E+02  0.99743099301E+02  0.00000000000E+00 0. -1.
         21    1    1    2  504  501 -0.25702049214E+02 -0.94695393617E+01  0.49340807197E+03  0.49416777819E+03  0.00000000000E+00 0. -1.
</event>
<event>
 4    1  0.1602044E+006  0.2870325E+02  0.7546771E-02  0.1431210E+00
         21   -1    0    0  503  501  0.00000000000E+00  0.00000000000E+00  0.62124359495E+03  0.62124359495E+03  0.00000000000E+00 0. -1.
         21   -1    0    0  504  502 -0.00000000000E+00 -0.00000000000E+00 -0.13289609926E+01  0.13289609926E+01  0.00000000000E+00 0. -1.
         21    1    1    2  503  502 -0.25694172398E+02 -0.12793987282E+02  0.29570011989E+03  0.29708994852E+03  0.00000000000E+00 0. -1.
         21    1    1    2  504  501  0.25694172398E+02  0.12793987282E+02  0.32421451407E+03  0.32548260743E+03  0.00000000000E+00 0. -1.
</event>
<event>
 4    1  0.1602044E+006  0.2281627E+02  0.7546771E-02  0.1494818E+00
         21   -1    0    0  504  501  0.00000000000E+00  0.00000000000E+00  0.33313572012E+02  0.33313572012E+02  0.00000000000E+00 0.  1.
         21   -1    0    0  503  502 -0.00000000000E+00 -0.00000000000E+00 -0.30996790861E+02  0.30996790861E+02  0.00000000000E+00 0. -1.
         21    1    1    2  503  501  0.19750124372E+02  0.11424306074E+02 -0.21484423323E+02  0.31339473950E+02  0.00000000000E+00 0. -1.
         21    1    1    2  504  502 -0.19750124372E+02 -0.11424306074E+02  0.23801204474E+02  0.32970888923E+02  0.00000000000E+00 0.  1.
</event>
<event>
 4    1  0.1602044E+006  0.2600868E+02  0.7546771E-02  0.1457828E+00
         21   -1    0    0  503  501  0.00000000000E+00  0.00000000000E+00  0.68560819805E+01  0.68560819805E+01  0.00000000000E+00 0.  1.
         21   -1    0    0  504  502 -0.00000000000E+00 -0.00000000000E+00 -0.12068862706E+04  0.12068862706E+04  0.00000000000E+00 0. -1.
         21    1    1    2  503  502 -0.25261040835E+02  0.61912260539E+01 -0.18478982121E+02  0.31904925080E+02  0.00000000000E+00 0.  1.
         21    1    1    2  504  501  0.25261040835E+02 -0.61912260539E+01 -0.11815512065E+04  0.11818374275E+04  0.00000000000E+00 0. -1.
</event>
<event>
 4    1  0.1602044E+006  0.2145863E+02  0.7546771E-02  0.1512817E+00
         21   -1    0    0  504  501  0.00000000000E+00  0.00000000000E+00  0.87506986073E+02  0.87506986073E+02  0.00000000000E+00 0. -1.
         21   -1    0    0  503  502 -0.00000000000E+00 -0.00000000000E+00 -0.63142159612E+01  0.63142159612E+01  0.00000000000E+00 0. -1.
         21    1    1    2  503  501  0.17641206789E+02  0.12217222997E+02  0.59745023063E+02  0.63481812321E+02  0.00000000000E+00 0. -1.
         21    1    1    2  504  502 -0.17641206789E+02 -0.12217222997E+02  0.21447747049E+02  0.30339389714E+02  0.00000000000E+00 0. -1.
</event>
<event>
 4    1  0.1602044E+006  0.3011736E+02  0.7546771E-02  0.1418579E+00
         21   -1    0    0  504  501  0.00000000000E+00  0.00000000000E+00  0.44192856008E+03  0.44192856008E+03  0.00000000000E+00 0. -1.
         21   -1    0    0  503  502 -0.00000000000E+00 -0.00000000000E+00 -0.16194231592E+02  0.16194231592E+02  0.00000000000E+00 0.  1.
         21    1    1    2  503  501 -0.28698745426E+02  0.91343983809E+01  0.42692105902E+03  0.42798206254E+03  0.00000000000E+00 0. -1.
         21    1    1    2  504  502  0.28698745426E+02 -0.91343983809E+01 -0.11867305366E+01  0.30140729125E+02  0.00000000000E+00 0.  1.
</event>
<event>
 4    1  0.1602044E+006  0.2425655E+02  0.7546771E-02  0.1477295E+00
         21   -1    0    0  503  501  0.00000000000E+00  0.00000000000E+00  0.64275700774E+02  0.64275700774E+02  0.00000000000E+00 0.  1.
         21   -1    0    0  501  502 -0.00000000000E+00 -0.00000000000E+00 -0.99371245177E+01  0.99371245177E+01  0.00000000000E+00 0.  1.
         21    1    1    2  503  504  0.14934630680E+02 -0.19113793249E+02  0.37586026746E+02  0.44733541023E+02  0.00000000000E+00 0.  1.
         21    1    1    2  504  502 -0.14934630680E+02  0.19113793249E+02  0.16752549511E+02  0.29479284269E+02  0.00000000000E+00 0.  1.
</event>
<event>
 4    1  0.1602044E+006  0.2324835E+02  0.7546771E-02  0.1489403E+00
         21   -1    0    0  502  501  0.00000000000E+00  0.00000000000E+00  0.12444296791E+03  0.12444296791E+03  0.00000000000E+00 0. -1.
         21   -1    0    0  503  502 -0.00000000000E+00 -0.00000000000E+00 -0.45263244397E+01  0.45263244397E+01  0.00000000000E+00 0. -1.
         21    1    1    2  503  504  0.12604892247E+02 -0.19534649678E+02  0.46989289426E+02  0.52425939833E+02  0.00000000000E+00 0. -1.
         21    1    1    2  504  501 -0.12604892247E+02  0.19534649678E+02  0.72927354040E+02  0.76543352512E+02  0.00000000000E+00 0. -1.
</event>
<event>
 4    1  0.1602044E+006  0.2036371E+02  0.7546771E-02  0.1528546E+00
         21   -1    0    0  504  501  0.00000000000E+00  0.00000000000E+00  0.48916559853E+02  0.48916559853E+02  0.00000000000E+00 0. -1.
         21   -1    0    0  501  502 -0.00000000000E+00 -0.00000000000E+00 -0.86549325979E+03  0.86549325979E+03  0.00000000000E+00 0.  1.
         21    1    1    2  503  502  0.18976976806E+02  0.73861321236E+01 -0.86324864206E+03  0.86348879473E+03  0.00000000000E+00 0.  1.
         21    1    1    2  504  503 -0.18976976806E+02 -0.73861321236E+01  0.46671942127E+02  0.50921024914E+02  0.00000000000E+00 0. -1.
</event>
<event>
 4    1  0.1602044E+006  0.2474631E+02  0.7546771E-02  0.1471662E+00
         21   -1    0    0  504  501  0.00000000000E+00  0.00000000000E+00  0.36882031651E+02  0.36882031651E+02  0.00000000000E+00 0.  1.
         21   -1    0    0  503  502 -0.00000000000E+00 -0.00000000000E+00 -0.17701946986E+02  0.17701946986E+02  0.00000000000E+00 0. -1.
         21    1    1    2  503  501  0.22598215858E+02  0.10084657314E+02  0.27922682376E+01  0.24903341845E+02  0.00000000000E+00 0.  1.
         21    1    1    2  504  502 -0.22598215858E+02 -0.10084657314E+02  0.16387816428E+02  0.29680636792E+02  0.00000000000E+00 0. -1.
</event>
<event>
 4    1  0.1602044E+006  0.2152271E+02  0.7546771E-02  0.1511931E+00
         21   -1    0    0  504  501  0.00000000000E+00  0.00000000000E+00  0.26097236555E+02  0.26097236555E+02  0.00000000000E+00 0. -1.
         21   -1    0    0  503  502 -0.00000000000E+00 -0.00000000000E+00 -0.25514819412E+02  0.25514819412E+02  0.00000000000E+00 0. -1.
         21    1    1    2  503  501  0.13159926435E+02  0.17030655667E+02  0.14527261012E+02  0.25966674965E+02  0.00000000000E+00 0. -1.
         21    1    1    2  504  502 -0.13159926435E+02 -0.17030655667E+02 -0.13944843869E+02  0.25645381002E+02  0.00000000000E+00 0. -1.
</event>
<event>
 4    1  0.1602044E+006  0.2082425E+02  0.7546771E-02  0.1521789E+00
         21   -1    0    0  504  501  0.00000000000E+00  0.00000000000E+00  0.11480488059E+03  0.11480488059E+03  0.00000000000E+00 0. -1.
         21   -1    0    0  503  502 -0.00000000000E+00 -0.00000000000E+00 -0.71674375932E+01  0.71674375932E+01  0.00000000000E+00 0.  1.
         21    1    1    2  503  501  0.20799108501E+02 -0.10230043083E+01  0.11875704017E+02  0.23972521731E+02  0.00000000000E+00 0.  1.
         21    1    1    2  504  502 -0.20799108501E+02  0.10230043083E+01  0.95761738979E+02  0.97999796452E+02  0.00000000000E+00 0. -1.
</event>
<event>
 4    1  0.1602044E+006  0.2553066E+02  0.7546771E-02  0.1462954E+00
         21   -1    0    0  504  501  0.00000000000E+00  0.00000000000E+00  0.97842639000E+03  0.97842639000E+03  0.00000000000E+00 0. -1.
         21   -1    0    0  503  502 -0.00000000000E+00 -0.00000000000E+00 -0.67598266907E+00  0.67598266907E+00  0.00000000000E+00 0.  1.
         21    1    1    2  503  501 -0.17026607091E+02  0.19023908143E+02  0.54780826010E+03  0.54840286675E+03  0.00000000000E+00 0.  1.
         21    1    1    2  504  502  0.17026607091E+02 -0.19023908143E+02  0.42994214723E+03  0.43069950591E+03  0.00000000000E+00 0. -1.
</event>
<event>
 4    1  0.1602044E+006  0.2113668E+02  0.7546771E-02  0.1517322E+00
         21   -1    0    0  504  501  0.00000000000E+00  0.00000000000E+00  0.65605745626E+01  0.65605745626E+01  0.00000000000E+00 0. -1.
         21   -1    0    0  501  502 -0.00000000000E+00 -0.00000000000E+00 -0.73879219370E+02  0.73879219370E+02  0.00000000000E+00 0. -1.
         21    1    1    2  503  502  0.15614840534E+02  0.14245558972E+02 -0.44910698023E+02  0.49635974779E+02  0.00000000000E+00 0. -1.
         21    1    1    2  504  503 -0.15614840534E+02 -0.14245558972E+02 -0.22407946785E+02  0.30803819154E+02  0.00000000000E+00 0. -1.
</event>
<event>
 4    1  0.1602044E+006  0.5616287E+02  0.7546771E-02  0.1273458E+00
         21   -1    0    0  502  501  0.00000000000E+00  0.00000000000E+00  0.71836548469E+03  0.71836548469E+03  0.00000000000E+00 0.  1.
         21   -1    0    0  503  502 -0.00000000000E+00 -0.00000000000E+00 -0.11498240433E+03  0.11498240433E+03  0.00000000000E+00 0. -1.
         21    1    1    2  503  504 -0.37409393258E+01  0.56038145538E+02 -0.10694908604E+03  0.12079890474E+03  0.00000000000E+00 0. -1.
         21    1    1    2  504  501  0.37409393258E+01 -0.56038145538E+02  0.71033216640E+03  0.71254898428E+03  0.00000000000E+00 0.  1.
</event>
<event>
 4    1  0.1602044E+006  0.3093920E+02  0.7546771E-02  0.1411606E+00
         21   -1    0    0  504  501  0.00000000000E+00  0.00000000000E+00  0.85818928204E+02  0.85818928204E+02  0.00000000000E+00 0. -1.
         21   -1    0    0  501  502 -0.00000000000E+00 -0.00000000000E+00 -0.21074309591E+02  0.21074309591E+02  0.00000000000E+00 0. -1.
         21    1    1    2  503  502  0.30693814853E+02 -0.38889058552E+01 -0.42970852682E+01  0.31236177756E+02  0.00000000000E+00 0. -1.
         21    1    1    2  504  503 -0.30693814853E+02  0.38889058552E+01  0.69041703881E+02  0.75657060039E+02  0.00000000000E+00 0. -1.
</event>
<event>
 4    1  0.1602044E+006  0.3049409E+02  0.7546771E-02  0.1415350E+00
         21   -1    0    0  504  501  0.00000000000E+00  0.00000000000E+00  0.12389009644E+03  0.12389009644E+03  0.00000000000E+00 0. -1.
         21   -1    0    0  503  502 -0.00000000000E+00 -0.00000000000E+00 -0.27756791210E+02  0.27756791210E+02  0.00000000000E+00 0. -1.
         21    1    1    2  503  501 -0.29292991779E+02 -0.84740870564E+01 -0.16698654850E+02  0.34766860552E+02  0.00000000000E+00 0. -1.
         21    1    1    2  504  502  0.29292991779E+02  0.84740870564E+01  0.11283196008E+03  0.11688002709E+03  0.00000000000E+00 0. -1.
</event>
<event>
 4    1  0.1602044E+006  0.2315026E+02  0.7546771E-02  0.1490620E+00
         21   -1    0    0  504  501  0.00000000000E+00  0.00000000000E+00  0.54381533768E+00  0.54381533768E+00  0.00000000000E+00 0. -1.
         21   -1    0    0  503  502 -0.00000000000E+00 -0.00000000000E+00 -0.11110654370E+04  0.11110654370E+04  0.00000000000E+00 0. -1.
         21    1    1    2  503  501 -0.14273125729E+02 -0.18226696569E+02 -0.74210210180E+03  0.74246310621E+03  0.00000000000E+00 0. -1.
         21    1    1    2  504  502  0.14273125729E+02  0.18226696569E+02 -0.36841951985E+03  0.36914614612E+03  0.00000000000E+00 0. -1.
</event>
<event>
 4    1  0.1602044E+006  0.2021911E+02  0.7546771E-02  0.1530712E+00
         21   -1    0    0  503  501  0.00000000000E+00  0.00000000000E+00  0.18740793377E+03  0.18740793377E+03  0.00000000000E+00 0.  1.
         21   -1    0    0  504  502 -0.00000000000E+00 -0.00000000000E+00 -0.93941706613E+01  0.93941706613E+01  0.00000000000E+00 0. -1.
         21    1    1    2  503  502 -0.13130476133E+02  0.15375400127E+02  0.27842101314E+01  0.20409903444E+02  0.00000000000E+00 0. -1.
         21    1    1    2  504  501  0.13130476133E+02 -0.15375400127E+02  0.17522955298E+03  0.17639220099E+03  0.00000000000E+00 0.  1.
</event>
<event>
 4    1  0.1602044E+006  0.2108620E+02  0.7546771E-02  0.1518038E+00
         21   -1    0    0  503  501  0.00000000000E+00  0.00000000000E+00  0.18668474888E+01  0.18668474888E+01  0.00000000000E+00 0. -1.
         21   -1    0    0  501  502 -0.00000000000E+00 -0.00000000000E+00 -0.24624946090E+03  0.24624946090E+03  0.00000000000E+00 0. -1.
         21    1    1    2  503  504  0.84647500841E+01 -0.19312577326E+02 -0.99720397315E+02  0.10192539074E+03  0.00000000000E+00 0. -1.
         21    1    1    2  504  502 -0.84647500841E+01  0.19312577326E+02 -0.14466221609E+03  0.14619091765E+03  0.00000000000E+00 0. -1.
</event>
<event>
 4    1  0.1602044E+006  0.2847880E+02  0.7546771E-02  0.1433293E+00
         21   -1    0    0  503  501  0.00000000000E+00  0.00000000000E+00  0.75769566671E+02  0.75769566671E+02  0.00000000000E+00 0. -1.
         21   -1    0    0  501  502 -0.00000000000E+00 -0.00000000000E+00 -0.10176802003E+03  0.10176802003E+03  0.00000000000E+00 0.  1.
         21    1    1    2  503  504  0.20763064365E+02 -0.19491976537E+02  0.70971501619E+02  0.76472191241E+02  0.00000000000E+00 0. -1.
         21    1    1    2  504  502 -0.20763064365E+02  0.19491976537E+02 -0.96969954975E+02  0.10106539546E+03  0.00000000000E+00 0.  1.
</event>
<event>
 4    1  0.1602044E+006  0.2283840E+02  0.7546771E-02  0.1494537E+00
         21   -1    0    0  504  501  0.00000000000E+00  0.00000000000E+00  0.67512382634E+02  0.67512382634E+02  0.00000000000E+00 0. -1.
         21   -1    0    0  503  502 -0.00000000000E+00 -0.00000000000E+00 -0.77361165378E+01  0.77361165378E+01  0.00000000000E+00 0. -1.
         21    1    1    2  503  501  0.13281727630E+02 -0.18579237552E+02  0.31256960909E+02  0.38711625671E+02  0.00000000000E+00 0. -1.
         21    1    1    2  504  502 -0.13281727630E+02  0.18579237552E+02  0.28519305187E+02  0.36536873501E+02  0.00000000000E+00 0. -1.
</event>
<event>
 4    1  0.1602044E+006  0.2110326E+02  0.7546771E-02  0.1517796E+00
         21   -1    0    0  503  501  0.00000000000E+00  0.00000000000E+00  0.32730733265E+03  0.32730733265E+03  0.00000000000E+00 0.  1.
         21   -1    0    0  504  502 -0.00000000000E+00 -0.00000000000E+00 -0.49395168232E+01  0.49395168232E+01  0.00000000000E+00 0. -1.
         21    1    1    2  503  502 -0.99507301432E+01 -0.18609953819E+02  0.19779800776E+02  0.28923829799E+02  0.00000000000E+00 0. -1.
         21    1    1    2  504  501  0.99507301432E+01  0.18609953819E+02  0.30258801505E+03  0.30332301967E+03  0.00000000000E+00 0.  1.
</event>
<event>
 4    1  0.1602044E+006  0.2202315E+02  0.7546771E-02  0.1505143E+00
         21   -1    0    0  504  501  0.00000000000E+00  0.00000000000E+00  0.39542143764E+02  0.39542143764E+02  0.00000000000E+00 0.  1.
         21   -1    0    0  503  502 -0.00000000000E+00 -0.00000000000E+00 -0.16316129376E+02  0.16316129376E+02  0.00000000000E+00 0.  1.
         21    1    1    2  503  501 -0.20292822012E+02 -0.85569022499E+01 -0.23022041424E+01  0.22143155720E+02  0.00000000000E+00 0.  1.
         21    1    1    2  504  502  0.20292822012E+02  0.85569022499E+01  0.25528218530E+02  0.33715117420E+02  0.00000000000E+00 0.  1.
</event>
<event>
 4    1  0.1602044E+006  0.2284220E+02  0.7546771E-02  0.1494489E+00
         21   -1    0    0  503  501  0.00000000000E+00  0.00000000000E+00  0.44757392221E+03  0.44757392221E+03  0.00000000000E+00 0. -1.
         21   -1    0    0  504  502 -0.00000000000E+00 -0.00000000000E+00 -0.81471576297E+01  0.81471576297E+01  0.00000000000E+00 0.  1.
         21    1    1    2  503  502  0.22212791561E+02 -0.53252385871E+01  0.43064276225E+03  0.43124813617E+03  0.00000000000E+00 0. -1.
         21    1    1    2  504  501 -0.22212791561E+02  0.53252385871E+01  0.87840023375E+01  0.24472943673E+02  0.00000000000E+00 0.  1.
</event>
<event>
 4    1  0.1602044E+006  0.4270341E+02  0.7546771E-02  0.1333333E+00
         21   -1    0    0  504  501  0.00000000000E+00  0.00000000000E+00  0.68065386882E+02  0.68065386882E+02  0.00000000000E+00 0. -1.
         21   -1    0    0  503  502 -0.00000000000E+00 -0.00000000000E+00 -0.32721998264E+03  0.32721998264E+03  0.00000000000E+00 0. -1.
         21    1    1    2  503  501 -0.30849958112E+01  0.42591825575E+02 -0.31895607766E+03  0.32180205140E+03  0.00000000000E+00 0. -1.
         21    1    1    2  504  502  0.30849958112E+01 -0.42591825575E+02  0.59801481904E+02  0.73483318127E+02  0.00000000000E+00 0. -1.
</event>
<event>
 4    1  0.1602044E+006  0.2786307E+02  0.7546771E-02  0.1439126E+00
         21   -1    0    0  503  501  0.00000000000E+00  0.00000000000E+00  0.31184316457E+03  0.31184316457E+03  0.00000000000E+00 0. -1.
         21   -1    0    0  501  502 -0.00000000000E+00 -0.00000000000E+00 -0.52440337000E+01  0.52440337000E+01  0.00000000000E+00 0. -1.
         21    1    1    2  503  504 -0.25160823631E+02  0.11970122295E+02  0.26820369674E+03  0.26964712833E+03  0.00000000000E+00 0. -1.
         21    1    1    2  504  502  0.25160823631E+02 -0.11970122295E+02  0.38395434129E+02  0.47440069936E+02  0.00000000000E+00 0. -1.
</event>
<event>
 4    1  0.1602044E+006  0.2235945E+02  0.7546771E-02  0.1500702E+00
         21   -1    0    0  502  501  0.00000000000E+00  0.00000000000E+00  0.30043027216E+03  0.30043027216E+03  0.00000000000E+00 0. -1.
         21   -1    0    0  503  502 -0.00000000000E+00 -0.00000000000E+00 -0.85047458819E+01  0.85047458819E+01  0.00000000000E+00 0.  1.
         21    1    1    2  503  504 -0.24564793623E+01  0.22224100139E+02  0.74291559215E+01  0.23561351310E+02  0.00000000000E+00 0.  1.
         21    1    1    2  504  501  0.24564793623E+01 -0.22224100139E+02  0.28449637036E+03  0.28537366673E+03  0.00000000000E+00 0. -1.
</event>
<event>
 4    1  0.1602044E+006  0.4438792E+02  0.7546771E-02  0.1324529E+00
         21   -1    0    0  502  501  0.00000000000E+00  0.00000000000E+00  0.67175602030E+02  0.67175602030E+02  0.00000000000E+00 0.  1.
         21   -1    0    0  504  502 -0.00000000000E+00 -0.00000000000E+00 -0.33121915345E+02  0.33121915345E+02  0.00000000000E+00 0.  1.
         21    1    1    2  503  501  0.35893350845E+02  0.26114256274E+02  0.33994001132E+02  0.55909562050E+02  0.00000000000E+00 0.  1.
         21    1    1    2  504  503 -0.35893350845E+02 -0.26114256274E+02  0.59685552662E-01  0.44387955326E+02  0.00000000000E+00 0.  1.
</event>
<event>
 4    1  0.1602044E+006  0.2320789E+02  0.7546771E-02  0.1489904E+00
         21   -1    0    0  502  501  0.00000000000E+00  0.00000000000E+00  0.20660766988E+02  0.20660766988E+02  0.00000000000E+00 0.  1.
         21   -1    0    0  503  502 -0.00000000000E+00 -0.00000000000E+00 -0.28706916228E+02  0.28706916228E+02  0.00000000000E+00 0.  1.
         21    1    1    2  503  504 -0.49181907103E-01 -0.23207840732E+02 -0.11505578814E+02  0.25903371096E+02  0.00000000000E+00 0.  1.
         21    1    1    2  504  501  0.49181907103E-01  0.23207840732E+02  0.34594295738E+01  0.23464312120E+02  0.00000000000E+00 0.  1.
</event>
<event>
 4    1  0.1602044E+006  0.2862917E+02  0.7546771E-02  0.1431895E+00
         21   -1    0    0  503  501  0.00000000000E+00  0.00000000000E+00  0.24872109302E+02  0.24872109302E+02  0.00000000000E+00 0.  1.
         21   -1    0    0  501  502 -0.00000000000E+00 -0.00000000000E+00 -0.72387298872E+02  0.72387298872E+02  0.00000000000E+00 0.  1.
         21    1    1    2  503  504 -0.19542768444E+02 -0.20921514810E+02  0.12134871806E+02  0.31094769562E+02  0.00000000000E+00 0.  1.
         21    1    1    2  504  502  0.19542768444E+02  0.20921514810E+02 -0.59650061376E+02  0.66164638611E+02  0.00000000000E+00 0.  1.
</event>
<event>
 4    1  0.1602044E+006  0.2154303E+02  0.7546771E-02  0.1511651E+00
         21   -1    0    0  504  501  0.00000000000E+00  0.00000000000E+00  0.17582908438E+03  0.17582908438E+03  0.00000000000E+00 0. -1.
         21   -1    0    0  501  502 -0.00000000000E+00 -0.00000000000E+00 -0.26493151575E+01  0.26493151575E+01  0.00000000000E+00 0. -1.
         21    1    1    2  503  502 -0.16282468435E+02  0.14106144290E+02  0.81160078369E+02  0.83970592506E+02  0.00000000000E+00 0. -1.
         21    1    1    2  504  503  0.16282468435E+02 -0.14106144290E+02  0.92019690857E+02  0.94507807035E+02  0.00000000000E+00 0. -1.
</event>
<event>
 4    1  0.1602044E+006  0.2409456E+02  0.7546771E-02  0.1479193E+00
         21   -1    0    0  503  501  0.00000000000E+00  0.00000000000E+00  0.11179849545E+01  0.11179849545E+01  0.00000000000E+00 0.  1.
         21   -1    0    0  504  502 -0.00000000000E+00 -0.00000000000E+00 -0.53428102288E+03  0.53428102288E+03  0.00000000000E+00 0.  1.
         21    1    1    2  503  502 -0.23678306484E+01  0.23977931587E+02 -0.31143698633E+03  0.31236764281E+03  0.00000000000E+00 0.  1.
         21    1    1    2  504  501  0.23678306484E+01 -0.23977931587E+02 -0.22172605160E+03  0.22303136502E+03  0.00000000000E+00 0.  1.
</event>
<event>
 4    1  0.1602044E+006  0.2437742E+02  0.7546771E-02  0.1475890E+00
         21   -1    0    0  503  501  0.00000000000E+00  0.00000000000E+00  0.91814905571E+00  0.91814905571E+00  0.00000000000E+00 0.  1.
         21   -1    0    0  501  502 -0.00000000000E+00 -0.00000000000E+00 -0.82291760418E+03  0.82291760418E+03  0.00000000000E+00 0.  1.
         21    1    1    2  503  504 -0.23526156095E+02  0.63858250474E+01 -0.22067462801E+03  0.22201700437E+03  0.00000000000E+00 0.  1.
         21    1    1    2  504  502  0.23526156095E+02 -0.63858250474E+01 -0.60132482711E+03  0.60181874886E+03  0.00000000000E+00 0.  1.
</event>
<event>
 4    1  0.1602044E+006  0.2326175E+02  0.7546771E-02  0.1489237E+00
         21   -1    0    0  504  501  0.00000000000E+00  0.00000000000E+00  0.12807319249E+01  0.12807319249E+01  0.00000000000E+00 0.  1.
         21   -1    0    0  503  502 -0.00000000000E+00 -0.00000000000E+00 -0.60293742624E+03  0.60293742624E+03  0.00000000000E+00 0.  1.
         21    1    1    2  503  501  0.12426772107E+02 -0.19664292458E+02 -0.46609724556E+03  0.46667735255E+03  0.00000000000E+00 0.  1.
         21    1    1    2  504  502 -0.12426772107E+02  0.19664292458E+02 -0.13555944875E+03  0.13754080562E+03  0.00000000000E+00 0.  1.
</event>
<event>
 4    1  0.1602044E+006  0.2401094E+02  0.7546771E-02  0.1480179E+00
         21   -1    0    0  504  501  0.00000000000E+00  0.00000000000E+00  0.61412652381E+02  0.61412652381E+02  0.00000000000E+00 0. -1.
         21   -1    0    0  503  502 -0.00000000000E+00 -0.00000000000E+00 -0.31321975689E+02  0.31321975689E+02  0.00000000000E+00 0. -1.
         21    1    1    2  503  501  0.10639246640E+02  0.21525141564E+02  0.53846857955E+02  0.58957691611E+02  0.00000000000E+00 0. -1.
         21    1    1    2  504  502 -0.10639246640E+02 -0.21525141564E+02 -0.23756181263E+02  0.33776936460E+02  0.00000000000E+00 0. -1.
</event>
<event>
 4    1  0.1602044E+006  0.2441418E+02  0.7546771E-02  0.1475465E+00
         21   -1    0    0  503  501  0.00000000000E+00  0.00000000000E+00  0.61947556331E+02  0.61947556331E+02  0.00000000000E+00 0.  1.
         21   -1    0    0  504  502 -0.00000000000E+00 -0.00000000000E+00 -0.28150427946E+02  0.28150427946E+02  0.00000000000E+00 0. -1.
         21    1    1    2  503  502 -0.20375096835E+01 -0.24329005676E+02 -0.19649406623E+02  0.31339290731E+02  0.00000000000E+00 0. -1.
         21    1    1    2  504  501  0.20375096835E+01  0.24329005676E+02  0.53446535008E+02  0.58758693547E+02  0.00000000000E+00 0.  1.
</event>
<event>
 4    1  0.1602044E+006  0.3424078E+02  0.7546771E-02  0.1385981E+00
         21   -1    0    0  503  501  0.00000000000E+00  0.00000000000E+00  0.51835826911E+02  0.51835826911E+02  0.00000000000E+00 0.  1.
         21   -1    0    0  504  502 -0.00000000000E+00 -0.00000000000E+00 -0.28487145741E+02  0.28487145741E+02  0.00000000000E+00 0. -1.
         21    1    1    2  503  502 -0.26414753704E+02  0.21787423178E+02  0.29903508234E+02  0.45460431439E+02  0.00000000000E+00 0.  1.
         21    1    1    2  504  501  0.26414753704E+02 -0.21787423178E+02 -0.65548270635E+01  0.34862541212E+02  0.00000000000E+00 0. -1.
</event>
<event>
 4    1  0.1602044E+006  0.2539754E+02  0.7546771E-02  0.1464405E+00
         21   -1    0    0  503  501  0.00000000000E+00  0.00000000000E+00  0.16442726948E+01  0.16442726948E+01  0.00000000000E+00 0.  1.
         21   -1    0    0  504  502 -0.00000000000E+00 -0.00000000000E+00 -0.59786471750E+03  0.59786471750E+03  0.00000000000E+00 0.  1.
         21    1    1    2  503  502 -0.12745458674E+02  0.21967889163E+02 -0.12233928096E+03  0.12494772722E+03  0.00000000000E+00 0.  1.
         21    1    1    2  504  501  0.12745458674E+02 -0.21967889163E+02 -0.47388116385E+03  0.47456126298E+03  0.00000000000E+00 0.  1.
</event>
<event>
 4    1  0.1602044E+006  0.3787525E+02  0.7546771E-02  0.1361408E+00
         21   -1    0    0  502  501  0.00000000000E+00  0.00000000000E+00  0.65386491920E+03  0.65386491920E+03  0.00000000000E+00 0. -1.
         21   -1    0    0  504  502 -0.00000000000E+00 -0.00000000000E+00 -0.34782040106E+01  0.34782040106E+01  0.00000000000E+00 0. -1.
         21    1    1    2  503  501  0.35694512516E+02 -0.12666344240E+02  0.52490955316E+03  0.52627423792E+03  0.00000000000E+00 0. -1.
         21    1    1    2  504  503 -0.35694512516E+02  0.12666344240E+02  0.12547716202E+03  0.13106888528E+03  0.00000000000E+00 0. -1.
</event>
<event>
 4    1  0.1602044E+006  0.2055050E+02  0.7546771E-02  0.1525780E+00
         21   -1    0    0  502  501  0.00000000000E+00  0.00000000000E+00  0.92371493964E+01  0.92371493964E+01  0.00000000000E+00 0. -1.
         21   -1    0    0  504  502 -0.00000000000E+00 -0.00000000000E+00 -0.55522473442E+02  0.55522473442E+02  0.00000000000E+00 0. -1.
         21    1    1    2  503  501  0.80997416556E+01  0.18886962329E+02 -0.95374255761E+01  0.22655808251E+02  0.00000000000E+00 0. -1.
         21    1    1    2  504  503 -0.80997416556E+01 -0.18886962329E+02 -0.36747898470E+02  0.42103814588E+02  0.00000000000E+00 0. -1.
</event>
<event>
 4    1  0.1602044E+006  0.2355379E+02  0.7546771E-02  0.1485659E+00
         21   -1    0    0  503  501  0.00000000000E+00  0.00000000000E+00  0.34118324276E+03  0.34118324276E+03  0.00000000000E+00 0. -1.
         21   -1    0    0  501  502 -0.00000000000E+00 -0.00000000000E+00 -0.18421374131E+01  0.18421374131E+01  0.00000000000E+00 0. -1.
         21    1    1    2  503  504 -0.19899480969E+02 -0.12601247932E+02  0.22841280970E+03  0.22962402406E+03  0.00000000000E+00 0. -1.
         21    1    1    2  504  502  0.19899480969E+02  0.12601247932E+02  0.11092829565E+03  0.11340135611E+03  0.00000000000E+00 0. -1.
</event>
<event>
 4    1  0.1602044E+006  0.2090508E+02  0.7546771E-02  0.1520624E+00
         21   -1    0    0  504  501  0.00000000000E+00  0.00000000000E+00  0.72709693250E+03  0.72709693250E+03  0.00000000000E+00 0.  1.
         21   -1    0    0  503  502 -0.00000000000E+00 -0.00000000000E+00 -0.79346054725E+00  0.79346054725E+00  0.00000000000E+00 0.  1.
         21    1    1    2  503  501 -0.86415576805E+01  0.19035384981E+02  0.18393171021E+03  0.18511589997E+03  0.00000000000E+00 0.  1.
         21    1    1    2  504  502  0.86415576805E+01 -0.19035384981E+02  0.54237176174E+03  0.54277449307E+03  0.00000000000E+00 0.  1.
</event>
<event>
 4    1  0.1602044E+006  0.2413615E+02  0.7546771E-02  0.1478704E+00
         21   -1    0    0  502  501  0.00000000000E+00  0.00000000000E+00  0.18890748583E+03  0.18890748583E+03  0.00000000000E+00 0. -1.
         21   -1    0    0  503  502 -0.00000000000E+00 -0.00000000000E+00 -0.44325491863E+01  0.44325491863E+01  0.00000000000E+00 0. -1.
         21    1    1    2  503  504  0.17292688685E+02  0.16837957622E+02  0.38912603135E+02  0.45790223646E+02  0.00000000000E+00 0. -1.
         21    1    1    2  504  501 -0.17292688685E+02 -0.16837957622E+02  0.14556233351E+03  0.14754981137E+03  0.00000000000E+00 0. -1.
</event>
<event>
 4    1  0.1602044E+006  0.2438224E+02  0.7546771E-02  0.1475834E+00
         21   -1    0    0  503  501  0.00000000000E+00  0.00000000000E+00  0.31693776379E+03  0.31693776379E+03  0.00000000000E+00 0. -1.
         21   -1    0    0  504  502 -0.00000000000E+00 -0.00000000000E+00 -0.20889116949E+02  0.20889116949E+02  0.00000000000E+00 0. -1.
         21    1    1    2  503  502  0.13116509003E+02 -0.20553612399E+02  0.30917560433E+03  0.31013553183E+03  0.00000000000E+00 0. -1.
         21    1    1    2  504  501 -0.13116509003E+02  0.20553612399E+02 -0.13126957493E+02  0.27691348904E+02  0.00000000000E+00 0. -1.
</event>
<event>
 4    1  0.1602044E+006  0.3357864E+02  0.7546771E-02  0.1390841E+00
         21   -1    0    0  503  501  0.00000000000E+00  0.00000000000E+00  0.34599768231E+02  0.34599768231E+02  0.00000000000E+00 0. -1.
         21   -1    0    0  504  502 -0.00000000000E+00 -0.00000000000E+00 -0.32760911764E+02  0.32760911764E+02  0.00000000000E+00 0.  1.
         21    1    1    2  503  502  0.29138343160E+02  0.16687776797E+02 -0.15299570829E+01  0.33613475055E+02  0.00000000000E+00 0.  1.
         21    1    1    2  504  501 -0.29138343160E+02 -0.16687776797E+02  0.33688135493E+01  0.33747204941E+02  0.00000000000E+00 0. -1.
</event>
<event>
 4    1  0.1602044E+006  0.2190688E+02  0.7546771E-02  0.1506700E+00
         21   -1    0    0  504  501  0.00000000000E+00  0.00000000000E+00  0.14713682415E+03  0.14713682415E+03  0.00000000000E+00 0.  1.
         21   -1    0    0  503  502 -0.00000000000E+00 -0.00000000000E+00 -0.32744068431E+01  0.32744068431E+01  0.00000000000E+00 0.  1.
         21    1    1    2  503  501 -0.19955907446E+02 -0.90373304355E+01  0.76621889868E+02  0.79692067299E+02  0.00000000000E+00 0.  1.
         21    1    1    2  504  502  0.19955907446E+02  0.90373304355E+01  0.67240527436E+02  0.70719163692E+02  0.00000000000E+00 0.  1.
</event>
<event>
 4    1  0.1602044E+006  0.2260765E+02  0.7546771E-02  0.1497485E+00
         21   -1    0    0  504  501  0.00000000000E+00  0.00000000000E+00  0.16660289131E+03  0.16660289131E+03  0.00000000000E+00 0.  1.
         21   -1    0    0  501  502 -0.00000000000E+00 -0.00000000000E+00 -0.76678195155E+01  0.76678195155E+01  0.00000000000E+00 0.  1.
         21    1    1    2  503  502 -0.25080459156E+01  0.22468096183E+02  0.11977767553E+02  0.25584615611E+02  0.00000000000E+00 0.  1.
         21    1    1    2  504  503  0.25080459156E+01 -0.22468096183E+02  0.14695730424E+03  0.14868609521E+03  0.00000000000E+00 0.  1.
</event>
<event>
 4    1  0.1602044E+006  0.2063113E+02  0.7546771E-02  0.1524597E+00
         21   -1    0    0  504  501  0.00000000000E+00  0.00000000000E+00  0.19064297018E+02  0.19064297018E+02  0.00000000000E+00 0. -1.
         21   -1    0    0  503  502 -0.00000000000E+00 -0.00000000000E+00 -0.35906765841E+02  0.35906765841E+02  0.00000000000E+00 0.  1.
         21    1    1    2  503  501 -0.56623187116E+01  0.19838892151E+02  0.84818664237E+01  0.22306625765E+02  0.00000000000E+00 0. -1.
         21    1    1    2  504  502  0.56623187116E+01 -0.19838892151E+02 -0.25324335247E+02  0.32664437094E+02  0.00000000000E+00 0.  1.
</event>
<event>
 4    1  0.1602044E+006  0.2219847E+02  0.7546771E-02  0.1502816E+00
         21   -1    0    0  504  501  0.00000000000E+00  0.00000000000E+00  0.19530106496E+03  0.19530106496E+03  0.00000000000E+00 0.  1.
         21   -1    0    0  501  502 -0.00000000000E+00 -0.00000000000E+00 -0.21369691331E+02  0.21369691331E+02  0.00000000000E+00 0. -1.
         21    1    1    2  503  502  0.18379589220E+02 -0.12448408843E+02 -0.14773230086E+02  0.26664967838E+02  0.00000000000E+00 0. -1.
         21    1    1    2  504  503 -0.18379589220E+02  0.12448408843E+02  0.18870460371E+03  0.19000578845E+03  0.00000000000E+00 0.  1.
</event>
<event>
 4    1  0.1602044E+006  0.3417106E+02  0.7546771E-02  0.1386486E+00
         21   -1    0    0  502  501  0.00000000000E+00  0.00000000000E+00  0.60364293212E+01  0.60364293212E+01  0.00000000000E+00 0.  1.
         21   -1    0    0  504  502 -0.00000000000E+00 -0.00000000000E+00 -0.21228642407E+03  0.21228642407E+03  0.00000000000E+00 0.  1.
         21    1    1    2  503  501  0.11109653886E+02  0.32314656737E+02 -0.70595966736E+02  0.78431192576E+02  0.00000000000E+00 0.  1.
         21    1    1    2  504  503 -0.11109653886E+02 -0.32314656737E+02 -0.13565402802E+03  0.13989166082E+03  0.00000000000E+00 0.  1.
</event>
<event>
 4    1  0.1602044E+006  0.4772534E+02  0.7546771E-02  0.1308348E+00
         21   -1    0    0  503  501  0.00000000000E+00  0.00000000000E+00  0.19410112965E+03  0.19410112965E+03  0.00000000000E+00 0.  1.
         21   -1    0    0  501  502 -0.00000000000E+00 -0.00000000000E+00 -0.81066591916E+02  0.81066591916E+02  0.00000000000E+00 0. -1.
         21    1    1    2  503  504 -0.38072798245E+02 -0.28777952256E+02  0.18375421059E+03  0.18985077933E+03  0.00000000000E+00 0.  1.
         21    1    1    2  504  502  0.38072798245E+02  0.28777952256E+02 -0.70719672862E+02  0.85316942232E+02  0.00000000000E+00 0. -1.
</event>
<event>
 4    1  0.1602044E+006  0.2450282E+02  0.7546771E-02  0.1474443E+00
         21   -1    0    0  504  501  0.00000000000E+00  0.00000000000E+00  0.85985791224E+02  0.85985791224E+02  0.00000000000E+00 0.  1.
         21   -1    0    0  503  502 -0.00000000000E+00 -0.00000000000E+00 -0.53839172126E+02  0.53839172126E+02  0.00000000000E+00 0.  1.
         21    1    1    2  503  501  0.23728402354E+02  0.61115475249E+01 -0.49148323253E+02  0.54917627134E+02  0.00000000000E+00 0.  1.
         21    1    1    2  504  502 -0.23728402354E+02 -0.61115475249E+01  0.81294942352E+02  0.84907336216E+02  0.00000000000E+00 0.  1.
</event>
<event>
 4    1  0.1602044E+006  0.2152681E+02  0.7546771E-02  0.1511875E+00
         21   -1    0    0  504  501  0.00000000000E+00  0.00000000000E+00  0.18209788300E+02  0.18209788300E+02  0.00000000000E+00 0.  1.
         21   -1    0    0  503  502 -0.00000000000E+00 -0.00000000000E+00 -0.25896345556E+02  0.25896345556E+02  0.00000000000E+00 0.  1.
         21    1    1    2  503  501 -0.18019180379E+02 -0.11777631895E+02 -0.67448642560E+01  0.22558738183E+02  0.00000000000E+00 0.  1.
         21    1    1    2  504  502  0.18019180379E+02  0.11777631895E+02 -0.94169299976E+00  0.21547395673E+02  0.00000000000E+00 0.  1.
</event>
<event>
 4    1  0.1602044E+006  0.2399381E+02  0.7546771E-02  0.1480382E+00
         21   -1    0    0  503  501  0.00000000000E+00  0.00000000000E+00  0.10711229386E+01  0.10711229386E+01  0.00000000000E+00 0.  1.
         21   -1    0    0  504  502 -0.00000000000E+00 -0.00000000000E+00 -0.53760369913E+03  0.53760369913E+03  0.00000000000E+00 0.  1.
         21    1    1    2  503  502  0.23670660667E+02  0.39246610331E+01 -0.27241328303E+03  0.27346791386E+03  0.00000000000E+00 0.  1.
         21    1    1    2  504  501 -0.23670660667E+02 -0.39246610331E+01 -0.26411929316E+03  0.26520690821E+03  0.00000000000E+00 0.  1.
</event>
<event>
 4    1  0.1602044E+006  0.2572168E+02  0.7546771E-02  0.1460890E+00
         21   -1    0    0  502  501  0.00000000000E+00  0.00000000000E+00  0.95512467510E+03  0.95512467510E+03  0.00000000000E+00 0. -1.
         21   -1    0    0  504  502 -0.00000000000E+00 -0.00000000000E+00 -0.21497541596E+03  0.21497541596E+03  0.00000000000E+00 0. -1.
         21    1    1    2  503  501 -0.11081337131E+02 -0.23212253808E+02  0.95418134640E+03  0.95452797056E+03  0.00000000000E+00 0. -1.
         21    1    1    2  504  503  0.11081337131E+02  0.23212253808E+02 -0.21403208726E+03  0.21557212050E+03  0.00000000000E+00 0. -1.
</event>
<event>
 4    1  0.1602044E+006  0.2608655E+02  0.7546771E-02  0.1457006E+00
         21   -1    0    0  504  501  0.00000000000E+00  0.00000000000E+00  0.50093155675E+00  0.50093155675E+00  0.00000000000E+00 0. -1.
         21   -1    0    0  503  502 -0.00000000000E+00 -0.00000000000E+00 -0.13689343079E+04  0.13689343079E+04  0.00000000000E+00 0. -1.
         21    1    1    2  503  501  0.25628157158E+02  0.48688220756E+01 -0.74403989570E+03  0.74449706129E+03  0.00000000000E+00 0. -1.
         21    1    1    2  504  502 -0.25628157158E+02 -0.48688220756E+01 -0.62439348069E+03  0.62493817822E+03  0.00000000000E+00 0. -1.
</event>
<event>
 4    1  0.1602044E+006  0.2820057E+02  0.7546771E-02  0.1435907E+00
         21   -1    0    0  502  501  0.00000000000E+00  0.00000000000E+00  0.29593864177E+02  0.29593864177E+02  0.00000000000E+00 0.  1.
         21   -1    0    0  503  502 -0.00000000000E+00 -0.00000000000E+00 -0.31926671996E+02  0.31926671996E+02  0.00000000000E+00 0. -1.
         21    1    1    2  503  504 -0.27889518934E+02 -0.41769181573E+01 -0.13404747016E+02  0.31224335929E+02  0.00000000000E+00 0. -1.
         21    1    1    2  504  501  0.27889518934E+02  0.41769181573E+01  0.11071939197E+02  0.30296200244E+02  0.00000000000E+00 0.  1.
</event>
<event>
 4    1  0.1602044E+006  0.2764359E+02  0.7546771E-02  0.1441248E+00
         21   -1    0    0  504  501  0.00000000000E+00  0.00000000000E+00  0.11121113427E+02  0.11121113427E+02  0.00000000000E+00 0.  1.
         21   -1    0    0  503  502 -0.00000000000E+00 -0.00000000000E+00 -0.81810217022E+02  0.81810217022E+02  0.00000000000E+00 0.  1.
         21    1    1    2  503  501 -0.19010711967E+02 -0.20068908327E+02 -0.16753106555E+02  0.32323904934E+02  0.00000000000E+00 0.  1.
         21    1    1    2  504  502  0.19010711967E+02  0.20068908327E+02 -0.53935997040E+02  0.60607425515E+02  0.00000000000E+00 0.  1.
</event>
<event>
 4    1  0.1602044E+006  0.3438221E+02  0.7546771E-02  0.1384959E+00
         21   -1    0    0  502  501  0.00000000000E+00  0.00000000000E+00  0.24338598075E+03  0.24338598075E+03  0.00000000000E+00 0. -1.
         21   -1    0    0  503  502 -0.00000000000E+00 -0.00000000000E+00 -0.54120582095E+02  0.54120582095E+02  0.00000000000E+00 0.  1.
         21    1    1    2  503  504  0.74575504802E+01  0.33563691679E+02 -0.47288778348E+02  0.58466785579E+02  0.00000000000E+00 0.  1.
         21    1    1    2  504  501 -0.74575504802E+01 -0.33563691679E+02  0.23655417700E+03  0.23903977727E+03  0.00000000000E+00 0. -1.
</event>
<event>
 4    1  0.1602044E+006  0.2260520E+02  0.7546771E-02  0.1497516E+00
         21   -1    0    0  503  501  0.00000000000E+00  0.00000000000E+00  0.58285378224E+01  0.58285378224E+01  0.00000000000E+00 0.  1.
         21   -1    0    0  504  502 -0.00000000000E+00 -0.00000000000E+00 -0.33047080995E+03  0.33047080995E+03  0.00000000000E+00 0.  1.
         21    1    1    2  503  502 -0.22599065263E+02  0.52640282538E+00 -0.18191437728E+02  0.29015913863E+02  0.00000000000E+00 0.  1.
         21    1    1    2  504  501  0.22599065263E+02 -0.52640282538E+00 -0.30645083440E+03  0.30728343391E+03  0.00000000000E+00 0.  1.
</event>
<event>
 4    1  0.1602044E+006  0.2143774E+02  0.7546771E-02  0.1513106E+00
         21   -1    0    0  503  501  0.00000000000E+00  0.00000000000E+00  0.47395912299E+03  0.47395912299E+03  0.00000000000E+00 0. -1.
         21   -1    0    0  501  502 -0.00000000000E+00 -0.00000000000E+00 -0.32899134150E+01  0.32899134150E+01  0.00000000000E+00 0. -1.
         21    1    1    2  503  504  0.16448196292E+01  0.21374544930E+02  0.43573153027E+03  0.43625857363E+03  0.00000000000E+00 0. -1.
         21    1    1    2  504  502 -0.16448196292E+01 -0.21374544930E+02  0.34937679311E+02  0.40990462771E+02  0.00000000000E+00 0. -1.
</event>
<event>
 4    1  0.1602044E+006  0.2095235E+02  0.7546771E-02  0.1519946E+00
         21   -1    0    0  503  501  0.00000000000E+00  0.00000000000E+00  0.70615432122E+01  0.70615432122E+01  0.00000000000E+00 0.  1.
         21   -1    0    0  504  502 -0.00000000000E+00 -0.00000000000E+00 -0.63262070363E+02  0.63262070363E+02  0.00000000000E+00 0.  1.
         21    1    1    2  503  502 -0.27513301256E+01 -0.20770923518E+02 -0.23475937510E+02  0.31466183805E+02  0.00000000000E+00 0.  1.
         21    1    1    2  504  501  0.27513301256E+01  0.20770923518E+02 -0.32724589640E+02  0.38857429770E+02  0.00000000000E+00 0.  1.
</event>
<event>
 4    1  0.1602044E+006  0.2206027E+02  0.7546771E-02  0.1504648E+00
         21   -1    0    0  504  501  0.00000000000E+00  0.00000000000E+00  0.37401620081E+02  0.37401620081E+02  0.00000000000E+00 0. -1.
         21   -1    0    0  503  502 -0.00000000000E+00 -0.00000000000E+00 -0.13735062560E+02  0.13735062560E+02  0.00000000000E+00 0. -1.
         21    1    1    2  503  501  0.69907414827E+01  0.20923310587E+02  0.17701297234E+02  0.28284117738E+02  0.00000000000E+00 0. -1.
         21    1    1    2  504  502 -0.69907414827E+01 -0.20923310587E+02  0.59652602865E+01  0.22852564904E+02  0.00000000000E+00 0. -1.
</event>
<event>
 4    1  0.1602044E+006  0.2148015E+02  0.7546771E-02  0.1512519E+00
         21   -1    0    0  503  501  0.00000000000E+00  0.00000000000E+00  0.17069307107E+01  0.17069307107E+01  0.00000000000E+00 0. -1.
         21   -1    0    0  504  502 -0.00000000000E+00 -0.00000000000E+00 -0.54770993199E+03  0.54770993199E+03  0.00000000000E+00 0. -1.
         21    1    1    2  503  502 -0.19864433560E+02  0.81731854100E+01 -0.46850366974E+03  0.46899582646E+03  0.00000000000E+00 0. -1.
         21    1    1    2  504  501  0.19864433560E+02 -0.81731854100E+01 -0.77499331537E+02  0.80421036234E+02  0.00000000000E+00 0. -1.
</event>
<event>
 4    1  0.1602044E+006  0.2507779E+02  0.7546771E-02  0.1467935E+00
         21   -1    0    0  502  501  0.00000000000E+00  0.00000000000E+00  0.10942452248E+02  0.10942452248E+02  0.00000000000E+00 0.  1.
         21   -1    0    0  504  502 -0.00000000000E+00 -0.00000000000E+00 -0.82865177602E+03  0.82865177602E+03  0.00000000000E+00 0.  1.
         21    1    1    2  503  501  0.25053405647E+02 -0.11055526500E+01 -0.38771061473E+01  0.25375723305E+02  0.00000000000E+00 0.  1.
         21    1    1    2  504  503 -0.25053405647E+02  0.11055526500E+01 -0.81383221763E+03  0.81421850497E+03  0.00000000000E+00 0.  1.
</event>
<event>
 4    1  0.1602044E+006  0.2294649E+02  0.7546771E-02  0.1493171E+00
         21   -1    0    0  503  501  0.00000000000E+00  0.00000000000E+00  0.27634831499E+03  0.27634831499E+03  0.00000000000E+00 0. -1.
         21   -1    0    0  501  502 -0.00000000000E+00 -0.00000000000E+00 -0.52395863044E+02  0.52395863044E+02  0.00000000000E+00 0.  1.
         21    1    1    2  503  504 -0.22021358816E+02  0.64499118041E+01  0.27333197601E+03  0.27429347552E+03  0.00000000000E+00 0. -1.
         21    1    1    2  504  502  0.22021358816E+02 -0.64499118041E+01 -0.49379524067E+02  0.54450702506E+02  0.00000000000E+00 0.  1.
</event>
<event>
 4    1  0.1602044E+006  0.3711852E+02  0.7546771E-02  0.1366252E+00
         21   -1    0    0  504  501  0.00000000000E+00  0.00000000000E+00  0.16407892044E+02  0.16407892044E+02  0.00000000000E+00 0. -1.
         21   -1    0    0  503  502 -0.00000000000E+00 -0.00000000000E+00 -0.22008392010E+03  0.22008392010E+03  0.00000000000E+00 0. -1.
         21    1    1    2  503  501  0.28738291621E+02  0.23492454418E+02 -0.88468135034E+01  0.38158235402E+02  0.00000000000E+00 0. -1.
         21    1    1    2  504  502 -0.28738291621E+02 -0.23492454418E+02 -0.19482921455E+03  0.19833357674E+03  0.00000000000E+00 0. -1.
</event>
<event>
 4    1  0.1602044E+006  0.2137674E+02  0.7546771E-02  0.1513953E+00
         21   -1    0    0  504  501  0.00000000000E+00  0.00000000000E+00  0.23687262744E+02  0.23687262744E+02  0.00000000000E+00 0. -1.
         21   -1    0    0  503  502 -0.00000000000E+00 -0.00000000000E+00 -0.52588656044E+03  0.52588656044E+03  0.00000000000E+00 0.  1.
         21    1    1    2  503  501  0.38218292157E+01  0.21032319645E+02  0.18600040239E+02  0.28335954989E+02  0.00000000000E+00 0. -1.
         21    1    1    2  504  502 -0.38218292157E+01 -0.21032319645E+02 -0.52079933794E+03  0.52123786820E+03  0.00000000000E+00 0.  1.
</event>
<event>
 4    1  0.1602044E+006  0.3876795E+02  0.7546771E-02  0.1355861E+00
         21   -1    0    0  503  501  0.00000000000E+00  0.00000000000E+00  0.14350957466E+03  0.14350957466E+03  0.00000000000E+00 0.  1.
         21   -1    0    0  501  502 -0.00000000000E+00 -0.00000000000E+00 -0.14712589903E+02  0.14712589903E+02  0.00000000000E+00 0. -1.
         21    1    1    2  503  504 -0.38763259012E+02  0.60320806697E+00  0.10686655199E+03  0.11368119477E+03  0.00000000000E+00 0.  1.
         21    1    1    2  504  502  0.38763259012E+02 -0.60320806697E+00  0.21930432768E+02  0.44540969798E+02  0.00000000000E+00 0. -1.
</event>
<event>
 4    1  0.1602044E+006  0.2787743E+02  0.7546771E-02  0.1438988E+00
         21   -1    0    0  503  501  0.00000000000E+00  0.00000000000E+00  0.77075167722E+02  0.77075167722E+02  0.00000000000E+00 0.  1.
         21   -1    0    0  504  502 -0.00000000000E+00 -0.00000000000E+00 -0.19566583662E+02  0.19566583662E+02  0.00000000000E+00 0.  1.
         21    1    1    2  503  502  0.24408612801E+02  0.13467395877E+02  0.62394825647E+02  0.68339340048E+02  0.00000000000E+00 0.  1.
         21    1    1    2  504  501 -0.24408612801E+02 -0.13467395877E+02 -0.48862415871E+01  0.28302411336E+02  0.00000000000E+00 0.  1.
</event>
<event>
 4    1  0.1602044E+006  0.2902449E+02  0.7546771E-02  0.1428267E+00
         21   -1    0    0  503  501  0.00000000000E+00  0.00000000000E+00  0.26478377474E+03  0.26478377474E+03  0.00000000000E+00 0.  1.
         21   -1    0    0  504  502 -0.00000000000E+00 -0.00000000000E+00 -0.40900190965E+01  0.40900190965E+01  0.00000000000E+00 0. -1.
         21    1    1    2  503  502 -0.20361344000E+02 -0.20684207691E+02  0.19370652257E+03  0.19586892980E+03  0.00000000000E+00 0.  1.
         21    1    1    2  504  501  0.20361344000E+02  0.20684207691E+02  0.66987233079E+02  0.73004864036E+02  0.00000000000E+00 0. -1.
</event>
<event>
 4    1  0.1602044E+006  0.3275997E+02  0.7546771E-02  0.1397034E+00
         21   -1    0    0  502  501  0.00000000000E+00  0.00000000000E+00  0.68604050859E+03  0.68604050859E+03  0.00000000000E+00 0. -1.
         21   -1    0    0  503  502 -0.00000000000E+00 -0.00000000000E+00 -0.69152997428E+02  0.69152997428E+02  0.00000000000E+00 0.  1.
         21    1    1    2  503  504 -0.24218394395E+02 -0.22060933333E+02 -0.64857617227E+02  0.72661722516E+02  0.00000000000E+00 0.  1.
         21    1    1    2  504  501  0.24218394395E+02  0.22060933333E+02  0.68174512839E+03  0.68253178350E+03  0.00000000000E+00 0. -1.
</event>
<event>
 4    1  0.1602044E+006  0.2208033E+02  0.7546771E-02  0.1504381E+00
         21   -1    0    0  504  501  0.00000000000E+00  0.00000000000E+00  0.65809170010E+01  0.65809170010E+01  0.00000000000E+00 0. -1.
         21   -1    0    0  503  502 -0.00000000000E+00 -0.00000000000E+00 -0.22510416087E+03  0.22510416087E+03  0.00000000000E+00 0. -1.
         21    1    1    2  503  501  0.21635500405E+02  0.44097815899E+01 -0.20414577464E+03  0.20533640289E+03  0.00000000000E+00 0. -1.
         21    1    1    2  504  502 -0.21635500405E+02 -0.44097815899E+01 -0.14377469229E+02  0.26348674973E+02  0.00000000000E+00 0. -1.
</event>
<event>
 4    1  0.1602044E+006  0.3030454E+02  0.7546771E-02  0.1416968E+00
         21   -1    0    0  503  501  0.00000000000E+00  0.00000000000E+00  0.14969567719E+03  0.14969567719E+03  0.00000000000E+00 0.  1.
         21   -1    0    0  504  502 -0.00000000000E+00 -0.00000000000E+00 -0.51993575593E+02  0.51993575593E+02  0.00000000000E+00 0.  1.
         21    1    1    2  503  502  0.46296344629E+01 -0.29948815652E+02 -0.45857407230E+02  0.54966051997E+02  0.00000000000E+00 0.  1.
         21    1    1    2  504  501 -0.46296344629E+01  0.29948815652E+02  0.14355950883E+03  0.14672320079E+03  0.00000000000E+00 0.  1.
</event>
<event>
 4    1  0.1602044E+006  0.2477091E+02  0.7546771E-02  0.1471383E+00
         21   -1    0    0  502  501  0.00000000000E+00  0.00000000000E+00  0.37615129731E+02  0.37615129731E+02  0.00000000000E+00 0.  1.
         21   -1    0    0  504  502 -0.00000000000E+00 -0.00000000000E+00 -0.78839823915E+02  0.78839823915E+02  0.00000000000E+00 0. -1.
         21    1    1    2  503  501  0.12944111830E+02 -0.21119849691E+02  0.31242570842E+02  0.39870995910E+02  0.00000000000E+00 0.  1.
         21    1    1    2  504  503 -0.12944111830E+02  0.21119849691E+02 -0.72467265026E+02  0.76583957735E+02  0.00000000000E+00 0. -1.
</event>
<event>
 4    1  0.1602044E+006  0.2979658E+02  0.7546771E-02  0.1421373E+00
         21   -1    0    0  503  501  0.00000000000E+00  0.00000000000E+00  0.20344252559E+02  0.20344252559E+02  0.00000000000E+00 0.  1.
         21   -1    0    0  501  502 -0.00000000000E+00 -0.00000000000E+00 -0.98828352610E+02  0.98828352610E+02  0.00000000000E+00 0.  1.
         21    1    1    2  503  504  0.22794751610E+02  0.19189456334E+02  0.52853060146E+01  0.30261698482E+02  0.00000000000E+00 0.  1.
         21    1    1    2  504  502 -0.22794751610E+02 -0.19189456334E+02 -0.83769406065E+02  0.88910906687E+02  0.00000000000E+00 0.  1.
</event>
<event>
 4    1  0.1602044E+006  0.2207782E+02  0.7546771E-02  0.1504414E+00
         21   -1    0    0  502  501  0.00000000000E+00  0.00000000000E+00  0.24901463183E+02  0.24901463183E+02  0.00000000000E+00 0.  1.
         21   -1    0    0  504  502 -0.00000000000E+00 -0.00000000000E+00 -0.16626509419E+03  0.16626509419E+03  0.00000000000E+00 0. -1.
         21    1    1    2  503  501 -0.20409097373E+02  0.84201455869E+01  0.19098831150E+02  0.29192386997E+02  0.00000000000E+00 0.  1.
         21    1    1    2  504  503  0.20409097373E+02 -0.84201455869E+01 -0.16046246215E+03  0.16197417037E+03  0.00000000000E+00 0. -1.
</event>
<event>
 4    1  0.1602044E+006  0.2116317E+02  0.7546771E-02  0.1516948E+00
         21   -1    0    0  503  501  0.00000000000E+00  0.00000000000E+00  0.28970237483E+03  0.28970237483E+03  0.00000000000E+00 0.  1.
         21   -1    0    0  504  502 -0.00000000000E+00 -0.00000000000E+00 -0.16743626477E+01  0.16743626477E+01  0.00000000000E+00 0.  1.
         21    1    1    2  503  502  0.33961272487E+01  0.20888896551E+02  0.10367542926E+03  0.10581339382E+03  0.00000000000E+00 0.  1.
         21    1    1    2  504  501 -0.33961272487E+01 -0.20888896551E+02  0.18435258293E+03  0.18556334366E+03  0.00000000000E+00 0.  1.
</event>
<event>
 4    1  0.1602044E+006  0.3727799E+02  0.7546771E-02  0.1365220E+00
         21   -1    0    0  502  501  0.00000000000E+00  0.00000000000E+00  0.21272424060E+02  0.21272424060E+02  0.00000000000E+00 0.  1.
         21   -1    0    0  504  502 -0.00000000000E+00 -0.00000000000E+00 -0.68781257716E+02  0.68781257716E+02  0.00000000000E+00 0. -1.
         21    1    1    2  503  501  0.36855558485E+02  0.55960986491E+01 -0.13662852055E+02  0.39702922280E+02  0.00000000000E+00 0.  1.
         21    1    1    2  504  503 -0.36855558485E+02 -0.55960986491E+01 -0.33845981600E+02  0.50350759496E+02  0.00000000000E+00 0. -1.
</event>
<event>
 4    1  0.1602044E+006  0.2088531E+02  0.7546771E-02  0.1520909E+00
         21   -1    0    0  503  501  0.00000000000E+00  0.00000000000E+00  0.57350441667E+02  0.57350441667E+02  0.00000000000E+00 0.  1.
         21   -1    0    0  501  502 -0.00000000000E+00 -0.00000000000E+00 -0.88080190231E+01  0.88080190231E+01  0.00000000000E+00 0. -1.
         21    1    1    2  503  504 -0.13004096073E+02 -0.16342873864E+02  0.36492244120E+02  0.42046164174E+02  0.00000000000E+00 0.  1.
         21    1    1    2  504  502  0.13004096073E+02  0.16342873864E+02  0.12050178523E+02  0.24112296516E+02  0.00000000000E+00 0. -1.
</event>
<event>
 4    1  0.1602044E+006  0.4290520E+02  0.7546771E-02  0.1332254E+00
         21   -1    0    0  504  501  0.00000000000E+00  0.00000000000E+00  0.80046007101E+02  0.80046007101E+02  0.00000000000E+00 0. -1.
         21   -1    0    0  501  502 -0.00000000000E+00 -0.00000000000E+00 -0.95713942506E+02  0.95713942506E+02  0.00000000000E+00 0. -1.
         21    1    1    2  503  502 -0.36972431010E+02  0.21769140948E+02 -0.84432192307E+02  0.94708242779E+02  0.00000000000E+00 0. -1.
         21    1    1    2  504  503  0.36972431010E+02 -0.21769140948E+02  0.68764256903E+02  0.81051706828E+02  0.00000000000E+00 0. -1.
</event>
<event>
 4    1  0.1602044E+006  0.3450243E+02  0.7546771E-02  0.1384095E+00
         21   -1    0    0  503  501  0.00000000000E+00  0.00000000000E+00  0.12171340262E+03  0.12171340262E+03  0.00000000000E+00 0.  1.
         21   -1    0    0  501  502 -0.00000000000E+00 -0.00000000000E+00 -0.14047848884E+03  0.14047848884E+03  0.00000000000E+00 0.  1.
         21    1    1    2  503  504 -0.34442095347E+02 -0.20395171677E+01  0.11706744854E+03  0.12204591378E+03  0.00000000000E+00 0.  1.
         21    1    1    2  504  502  0.34442095347E+02  0.20395171677E+01 -0.13583253476E+03  0.14014597769E+03  0.00000000000E+00 0.  1.
</event>
<event>
 4    1  0.1602044E+006  0.2480165E+02  0.7546771E-02  0.1471035E+00
         21   -1    0    0  504  501  0.00000000000E+00  0.00000000000E+00  0.21434499370E+01  0.21434499370E+01  0.00000000000E+00 0.  1.
         21   -1    0    0  501  502 -0.00000000000E+00 -0.00000000000E+00 -0.31586292283E+03  0.31586292283E+03  0.00000000000E+00 0.  1.
         21    1    1    2  503  502  0.10740616979E+02  0.22355337155E+02 -0.20494319503E+03  0.20643845364E+03  0.00000000000E+00 0.  1.
         21    1    1    2  504  503 -0.10740616979E+02 -0.22355337155E+02 -0.10877627786E+03  0.11156791912E+03  0.00000000000E+00 0.  1.
</event>
<event>
 4    1  0.1602044E+006  0.2516520E+02  0.7546771E-02  0.1466964E+00
         21   -1    0    0  503  501  0.00000000000E+00  0.00000000000E+00  0.44798132801E+02  0.44798132801E+02  0.00000000000E+00 0. -1.
         21   -1    0    0  504  502 -0.00000000000E+00 -0.00000000000E+00 -0.32465924678E+02  0.32465924678E+02  0.00000000000E+00 0.  1.
         21    1    1    2  503  502  0.23123815496E+02 -0.99285693684E+01 -0.22861315687E+02  0.33998927744E+02  0.00000000000E+00 0.  1.
         21    1    1    2  504  501 -0.23123815496E+02  0.99285693684E+01  0.35193523810E+02  0.43265129735E+02  0.00000000000E+00 0. -1.
</event>
<event>
 4    1  0.1602044E+006  0.3891868E+02  0.7546771E-02  0.1354941E+00
         21   -1    0    0  504  501  0.00000000000E+00  0.00000000000E+00  0.71763098905E+02  0.71763098905E+02  0.00000000000E+00 0. -1.
         21   -1    0    0  503  502 -0.00000000000E+00 -0.00000000000E+00 -0.42700778516E+02  0.42700778516E+02  0.00000000000E+00 0.  1.
         21    1    1    2  503  501 -0.35837991764E+02 -0.15175715613E+02 -0.26168468744E+02  0.46898323578E+02  0.00000000000E+00 0.  1.
         21    1    1    2  504  502  0.35837991764E+02  0.15175715613E+02  0.55230789133E+02  0.67565553844E+02  0.00000000000E+00 0. -1.
</event>
<event>
 4    1  0.1602044E+006  0.3057932E+02  0.7546771E-02  0.1414628E+00
         21   -1    0    0  503  501  0.00000000000E+00  0.00000000000E+00  0.23168620840E+02  0.23168620840E+02  0.00000000000E+00 0. -1.
         21   -1    0    0  504  502 -0.00000000000E+00 -0.00000000000E+00 -0.41269276777E+03  0.41269276777E+03  0.00000000000E+00 0. -1.
         21    1    1    2  503  502 -0.13198969065E+02 -0.27584094490E+02 -0.40176208193E+03  0.40292414364E+03  0.00000000000E+00 0. -1.
         21    1    1    2  504  501  0.13198969065E+02  0.27584094490E+02  0.12237934997E+02  0.32937244970E+02  0.00000000000E+00 0. -1.
</event>
<event>
 4    1  0.1602044E+006  0.3133447E+02  0.7546771E-02  0.1408344E+00
         21   -1    0    0  503  501  0.00000000000E+00  0.00000000000E+00  0.64232417664E+01  0.64232417664E+01  0.00000000000E+00 0.  1.
         21   -1    0    0  504  502 -0.00000000000E+00 -0.00000000000E+00 -0.15727392230E+03  0.15727392230E+03  0.00000000000E+00 0.  1.
         21    1    1    2  503  502 -0.20730703652E+02  0.23496533281E+02 -0.61711684656E+02  0.69211134749E+02  0.00000000000E+00 0.  1.
         21    1    1    2  504  501  0.20730703652E+02 -0.23496533281E+02 -0.89138995879E+02  0.94486029319E+02  0.00000000000E+00 0.  1.
</event>
<event>
 4    1  0.1602044E+006  0.2051826E+02  0.7546771E-02  0.1526255E+00
         21   -1    0    0  503  501  0.00000000000E+00  0.00000000000E+00  0.80127304950E+01  0.80127304950E+01  0.00000000000E+00 0.  1.
         21   -1    0    0  504  502 -0.00000000000E+00 -0.00000000000E+00 -0.72129754084E+02  0.72129754084E+02  0.00000000000E+00 0. -1.
         21    1    1    2  503  502 -0.15664993751E+02  0.13251674644E+02 -0.52940707886E+02  0.56777790214E+02  0.00000000000E+00 0. -1.
         21    1    1    2  504  501  0.15664993751E+02 -0.13251674644E+02 -0.11176315703E+02  0.23364694366E+02  0.00000000000E+00 0.  1.
</event>
<event>
 4    1  0.1602044E+006  0.2452571E+02  0.7546771E-02  0.1474180E+00
         21   -1    0    0  503  501  0.00000000000E+00  0.00000000000E+00  0.27970481542E+02  0.27970481542E+02  0.00000000000E+00 0. -1.
         21   -1    0    0  501  502 -0.00000000000E+00 -0.00000000000E+00 -0.84732393124E+02  0.84732393124E+02  0.00000000000E+00 0. -1.
         21    1    1    2  503  504 -0.22550945957E+02 -0.96418464448E+01  0.20296992613E+02  0.31835173559E+02  0.00000000000E+00 0. -1.
         21    1    1    2  504  502  0.22550945957E+02  0.96418464448E+01 -0.77058904196E+02  0.80867701106E+02  0.00000000000E+00 0. -1.
</event>
<event>
 4    1  0.1602044E+006  0.2166503E+02  0.7546771E-02  0.1509978E+00
         21   -1    0    0  503  501  0.00000000000E+00  0.00000000000E+00  0.54720120640E+00  0.54720120640E+00  0.00000000000E+00 0. -1.
         21   -1    0    0  504  502 -0.00000000000E+00 -0.00000000000E+00 -0.11433724744E+04  0.11433724744E+04  0.00000000000E+00 0.  1.
         21    1    1    2  503  502  0.39581235916E+01 -0.21300396399E+02 -0.85727137281E+03  0.85754508935E+03  0.00000000000E+00 0.  1.
         21    1    1    2  504  501 -0.39581235916E+01  0.21300396399E+02 -0.28555390039E+03  0.28637458626E+03  0.00000000000E+00 0. -1.
</event>
<event>
 4    1  0.1602044E+006  0.2628713E+02  0.7546771E-02  0.1454903E+00
         21   -1    0    0  504  501  0.00000000000E+00  0.00000000000E+00  0.20136123377E+03  0.20136123377E+03  0.00000000000E+00 0. -1.
         21   -1    0    0  503  502 -0.00000000000E+00 -0.00000000000E+00 -0.35101590159E+01  0.35101590159E+01  0.00000000000E+00 0. -1.
         21    1    1    2  503  501 -0.59087333293E+01 -0.25614452496E+02  0.11423931767E+03  0.11722472012E+03  0.00000000000E+00 0. -1.
         21    1    1    2  504  502  0.59087333293E+01  0.25614452496E+02  0.83611757090E+02  0.87646672669E+02  0.00000000000E+00 0. -1.
</event>
<event>
 4    1  0.1602044E+006  0.2949697E+02  0.7546771E-02  0.1424019E+00
         21   -1    0    0  503  501  0.00000000000E+00  0.00000000000E+00  0.11389885613E+03  0.11389885613E+03  0.00000000000E+00 0. -1.
         21   -1    0    0  501  502 -0.00000000000E+00 -0.00000000000E+00 -0.53547699326E+02  0.53547699326E+02  0.00000000000E+00 0.  1.
         21    1    1    2  503  504 -0.24745222954E+02  0.16054450993E+02  0.10769729624E+03  0.11166368735E+03  0.00000000000E+00 0. -1.
         21    1    1    2  504  502  0.24745222954E+02 -0.16054450993E+02 -0.47346139429E+02  0.55782868110E+02  0.00000000000E+00 0.  1.
</event>
<event>
 4    1  0.1602044E+006  0.4692017E+02  0.7546771E-02  0.1312108E+00
         21   -1    0    0  504  501  0.00000000000E+00  0.00000000000E+00  0.84692703947E+02  0.84692703947E+02  0.00000000000E+00 0. -1.
         21   -1    0    0  503  502 -0.00000000000E+00 -0.00000000000E+00 -0.27875649747E+02  0.27875649747E+02  0.00000000000E+00 0. -1.
         21    1    1    2  503  501 -0.46284906024E+02  0.76948212248E+01  0.43031723835E+02  0.63664998670E+02  0.00000000000E+00 0. -1.
         21    1    1    2  504  502  0.46284906024E+02 -0.76948212248E+01  0.13785330365E+02  0.48903355024E+02  0.00000000000E+00 0. -1.
</event>
<event>
 4    1  0.1602044E+006  0.2093774E+02  0.7546771E-02  0.1520156E+00
         21   -1    0    0  503  501  0.00000000000E+00  0.00000000000E+00  0.12526032510E+03  0.12526032510E+03  0.00000000000E+00 0. -1.
         21   -1    0    0  501  502 -0.00000000000E+00 -0.00000000000E+00 -0.16199889642E+03  0.16199889642E+03  0.00000000000E+00 0. -1.
         21    1    1    2  503  504 -0.13459005564E+02  0.16038836570E+02  0.12370036672E+03  0.12545983355E+03  0.00000000000E+00 0. -1.
         21    1    1    2  504  502  0.13459005564E+02 -0.16038836570E+02 -0.16043893804E+03  0.16179938797E+03  0.00000000000E+00 0. -1.
</event>
<event>
 4    1  0.1602044E+006  0.2445875E+02  0.7546771E-02  0.1474950E+00
         21   -1    0    0  502  501  0.00000000000E+00  0.00000000000E+00  0.38089570859E+02  0.38089570859E+02  0.00000000000E+00 0. -1.
         21   -1    0    0  504  502 -0.00000000000E+00 -0.00000000000E+00 -0.17605751771E+03  0.17605751771E+03  0.00000000000E+00 0.  1.
         21    1    1    2  503  501 -0.97727439443E+01  0.22421508496E+02  0.33202068946E+02  0.41238428070E+02  0.00000000000E+00 0. -1.
         21    1    1    2  504  503  0.97727439443E+01 -0.22421508496E+02 -0.17117001579E+03  0.17290866049E+03  0.00000000000E+00 0.  1.
</event>
<event>
 4    1  0.1602044E+006  0.2641149E+02  0.7546771E-02  0.1453611E+00
         21   -1    0    0  504  501  0.00000000000E+00  0.00000000000E+00  0.10061891898E+02  0.10061891898E+02  0.00000000000E+00 0. -1.
         21   -1    0    0  503  502 -0.00000000000E+00 -0.00000000000E+00 -0.40811515040E+03  0.40811515040E+03  0.00000000000E+00 0.  1.
         21    1    1    2  503  501  0.25256092378E+02  0.77263591381E+01 -0.85233074226E+01  0.27752722338E+02  0.00000000000E+00 0. -1.
         21    1    1    2  504  502 -0.25256092378E+02 -0.77263591381E+01 -0.38952995108E+03  0.39042431996E+03  0.00000000000E+00 0.  1.
</event>
<event>
 4    1  0.1602044E+006  0.2305074E+02  0.7546771E-02  0.1491862E+00
         21   -1    0    0  503  501  0.00000000000E+00  0.00000000000E+00  0.13466864734E+02  0.13466864734E+02  0.00000000000E+00 0.  1.
         21   -1    0    0  504  502 -0.00000000000E+00 -0.00000000000E+00 -0.39924832946E+02  0.39924832946E+02  0.00000000000E+00 0.  1.
         21    1    1    2  503  502  0.10021704539E+01 -0.23028945859E+02 -0.10333368646E+02  0.25260942194E+02  0.00000000000E+00 0.  1.
         21    1    1    2  504  501 -0.10021704539E+01  0.23028945859E+02 -0.16124599566E+02  0.28130755485E+02  0.00000000000E+00 0.  1.
</event>
<event>
 4    1  0.1602044E+006  0.4712889E+02  0.7546771E-02  0.1311125E+00
         21   -1    0    0  504  501  0.00000000000E+00  0.00000000000E+00  0.14890855482E+03  0.14890855482E+03  0.00000000000E+00 0.  1.
         21   -1    0    0  503  502 -0.00000000000E+00 -0.00000000000E+00 -0.64171846469E+02  0.64171846469E+02  0.00000000000E+00 0.  1.
         21    1    1    2  503  501 -0.46616640758E+02 -0.69297464148E+01  0.13570877693E+03  0.14365933564E+03  0.00000000000E+00 0.  1.
         21    1    1    2  504  502  0.46616640758E+02  0.69297464148E+01 -0.50972068576E+02  0.69421065650E+02  0.00000000000E+00 0.  1.
</event>
<event>
 4    1  0.1602044E+006  0.2524506E+02  0.7546771E-02  0.1466081E+00
         21   -1    0    0  503  501  0.00000000000E+00  0.00000000000E+00  0.54631152783E+02  0.54631152783E+02  0.00000000000E+00 0. -1.
         21   -1    0    0  504  502 -0.00000000000E+00 -0.00000000000E+00 -0.23679065015E+02  0.23679065015E+02  0.00000000000E+00 0.  1.
         21    1    1    2  503  502 -0.24478948074E+02  0.61720262407E+01  0.43365354576E+02  0.50178349756E+02  0.00000000000E+00 0. -1.
         21    1    1    2  504  501  0.24478948074E+02 -0.61720262407E+01 -0.12413266807E+02  0.28131868043E+02  0.00000000000E+00 0.  1.
</event>
<event>
 4    1  0.1602044E+006  0.4007582E+02  0.7546771E-02  0.1348042E+00
         21   -1    0    0  504  501  0.00000000000E+00  0.00000000000E+00  0.16657927381E+03  0.16657927381E+03  0.00000000000E+00 0. -1.
         21   -1    0    0  503  502 -0.00000000000E+00 -0.00000000000E+00 -0.13140863031E+03  0.13140863031E+03  0.00000000000E+00 0.  1.
         21    1    1    2  503  501 -0.19767677760E+02 -0.34861300219E+02  0.16100929861E+03  0.16592186588E+03  0.00000000000E+00 0. -1.
         21    1    1    2  504  502  0.19767677760E+02  0.34861300219E+02 -0.12583865511E+03  0.13206603824E+03  0.00000000000E+00 0.  1.
</event>
<event>
 4    1  0.1602044E+006  0.9146777E+02  0.7546771E-02  0.1179475E+00
         21   -1    0    0  503  501  0.00000000000E+00  0.00000000000E+00  0.24636187548E+03  0.24636187548E+03  0.00000000000E+00 0.  1.
         21   -1    0    0  504  502 -0.00000000000E+00 -0.00000000000E+00 -0.34120571927E+02  0.34120571927E+02  0.00000000000E+00 0.  1.
         21    1    1    2  503  502 -0.70040941985E+02  0.58827034114E+02  0.96488406052E+02  0.13295249527E+03  0.00000000000E+00 0.  1.
         21    1    1    2  504  501  0.70040941985E+02 -0.58827034114E+02  0.11575289750E+03  0.14752995213E+03  0.00000000000E+00 0.  1.
</event>
<event>
 4    1  0.1602044E+006  0.2368428E+02  0.7546771E-02  0.1484080E+00
         21   -1    0    0  504  501  0.00000000000E+00  0.00000000000E+00  0.19492791980E+02  0.19492791980E+02  0.00000000000E+00 0.  1.
         21   -1    0    0  503  502 -0.00000000000E+00 -0.00000000000E+00 -0.42489856830E+02  0.42489856830E+02  0.00000000000E+00 0.  1.
         21    1    1    2  503  501  0.15380063410E+02 -0.18011077769E+02 -0.29104524410E+02  0.37523574111E+02  0.00000000000E+00 0.  1.
         21    1    1    2  504  502 -0.15380063410E+02  0.18011077769E+02  0.61074595597E+01  0.24459074700E+02  0.00000000000E+00 0.  1.
</event>
<event>
 4    1  0.1602044E+006  0.3113117E+02  0.7546771E-02  0.1410015E+00
         21   -1    0    0  504  501  0.00000000000E+00  0.00000000000E+00  0.19364015543E+02  0.19364015543E+02  0.00000000000E+00 0. -1.
         21   -1    0    0  503  502 -0.00000000000E+00 -0.00000000000E+00 -0.50348815020E+02  0.50348815020E+02  0.00000000000E+00 0. -1.
         21    1    1    2  503  501 -0.10027530245E+02  0.29471991768E+02 -0.18182156487E+02  0.36051913626E+02  0.00000000000E+00 0. -1.
         21    1    1    2  504  502  0.10027530245E+02 -0.29471991768E+02 -0.12802642990E+02  0.33660916938E+02  0.00000000000E+00 0. -1.
</event>
<event>
 4    1  0.1602044E+006  0.4329592E+02  0.7546771E-02  0.1330184E+00
         21   -1    0    0  503  501  0.00000000000E+00  0.00000000000E+00  0.10955112687E+02  0.10955112687E+02  0.00000000000E+00 0. -1.
         21   -1    0    0  504  502 -0.00000000000E+00 -0.00000000000E+00 -0.19911660469E+03  0.19911660469E+03  0.00000000000E+00 0.  1.
         21    1    1    2  503  502  0.39851934713E+02 -0.16922172247E+02 -0.54688664665E+02  0.69752323665E+02  0.00000000000E+00 0. -1.
         21    1    1    2  504  501 -0.39851934713E+02  0.16922172247E+02 -0.13347282734E+03  0.14031939371E+03  0.00000000000E+00 0.  1.
</event>
<event>
 4    1  0.1602044E+006  0.2396829E+02  0.7546771E-02  0.1480685E+00
         21   -1    0    0  502  501  0.00000000000E+00  0.00000000000E+00  0.78232803956E+02  0.78232803956E+02  0.00000000000E+00 0. -1.
         21   -1    0    0  504  502 -0.00000000000E+00 -0.00000000000E+00 -0.76039035907E+01  0.76039035907E+01  0.00000000000E+00 0. -1.
         21    1    1    2  503  501 -0.97911929844E+01 -0.21877189205E+02  0.43261409914E+02  0.49457339752E+02  0.00000000000E+00 0. -1.
         21    1    1    2  504  503  0.97911929844E+01  0.21877189205E+02  0.27367490451E+02  0.36379367795E+02  0.00000000000E+00 0. -1.
</event>
<event>
 4    1  0.1602044E+006  0.2234038E+02  0.7546771E-02  0.1500951E+00
         21   -1    0    0  504  501  0.00000000000E+00  0.00000000000E+00  0.11694445624E+03  0.11694445624E+03  0.00000000000E+00 0. -1.
         21   -1    0    0  503  502 -0.00000000000E+00 -0.00000000000E+00 -0.96171126625E+02  0.96171126625E+02  0.00000000000E+00 0.  1.
         21    1    1    2  503  501  0.18452688849E+02  0.12593291126E+02  0.11455327512E+03  0.11671137712E+03  0.00000000000E+00 0. -1.
         21    1    1    2  504  502 -0.18452688849E+02 -0.12593291126E+02 -0.93779945506E+02  0.96404205750E+02  0.00000000000E+00 0.  1.
</event>
<event>
 4    1  0.1602044E+006  0.2310721E+02  0.7546771E-02  0.1491156E+00
         21   -1    0    0  504  501  0.00000000000E+00  0.00000000000E+00  0.61338175100E+02  0.61338175100E+02  0.00000000000E+00 0.  1.
         21   -1    0    0  501  502 -0.00000000000E+00 -0.00000000000E+00 -0.18139406941E+02  0.18139406941E+02  0.00000000000E+00 0.  1.
         21    1    1    2  503  502  0.35873897770E+01  0.22827038169E+02 -0.70597179625E+01  0.24161594622E+02  0.00000000000E+00 0.  1.
         21    1    1    2  504  503 -0.35873897770E+01 -0.22827038169E+02  0.50258486122E+02  0.55315987420E+02  0.00000000000E+00 0.  1.
</event>
<event>
 4    1  0.1602044E+006  0.2753957E+02  0.7546771E-02  0.1442262E+00
         21   -1    0    0  504  501  0.00000000000E+00  0.00000000000E+00  0.25085427281E+02  0.25085427281E+02  0.00000000000E+00 0.  1.
         21   -1    0    0  501  502 -0.00000000000E+00 -0.00000000000E+00 -0.94514221892E+02  0.94514221892E+02  0.00000000000E+00 0. -1.
         21    1    1    2  503  502  0.36392026217E+00  0.27537169539E+02 -0.84030714832E+02  0.88428441010E+02  0.00000000000E+00 0. -1.
         21    1    1    2  504  503 -0.36392026217E+00 -0.27537169539E+02  0.14601920222E+02  0.31171208163E+02  0.00000000000E+00 0.  1.
</event>
<event>
 4    1  0.1602044E+006  0.2247190E+02  0.7546771E-02  0.1499238E+00
         21   -1    0    0  504  501  0.00000000000E+00  0.00000000000E+00  0.35241379734E+01  0.35241379734E+01  0.00000000000E+00 0.  1.
         21   -1    0    0  501  502 -0.00000000000E+00 -0.00000000000E+00 -0.44008998029E+03  0.44008998029E+03  0.00000000000E+00 0.  1.
         21    1    1    2  503  502  0.22223081586E+02 -0.33347865710E+01 -0.40043493509E+03  0.40106498650E+03  0.00000000000E+00 0.  1.
         21    1    1    2  504  503 -0.22223081586E+02  0.33347865710E+01 -0.36130907223E+02  0.42549131758E+02  0.00000000000E+00 0.  1.
</event>
<event>
 4    1  0.1602044E+006  0.2361465E+02  0.7546771E-02  0.1484921E+00
         21   -1    0    0  502  501  0.00000000000E+00  0.00000000000E+00  0.76327895227E+02  0.76327895227E+02  0.00000000000E+00 0.  1.
         21   -1    0    0  503  502 -0.00000000000E+00 -0.00000000000E+00 -0.28887405932E+03  0.28887405932E+03  0.00000000000E+00 0.  1.
         21    1    1    2  503  504 -0.15883159499E+02  0.17475042783E+02 -0.28655016259E+03  0.28752156016E+03  0.00000000000E+00 0.  1.
         21    1    1    2  504  501  0.15883159499E+02 -0.17475042783E+02  0.74003998506E+02  0.77680394378E+02  0.00000000000E+00 0.  1.
</event>
<event>
 4    1  0.1602044E+006  0.2078539E+02  0.7546771E-02  0.1522351E+00
         21   -1    0    0  504  501  0.00000000000E+00  0.00000000000E+00  0.24529002432E+02  0.24529002432E+02  0.00000000000E+00 0.  1.
         21   -1    0    0  503  502 -0.00000000000E+00 -0.00000000000E+00 -0.77183136060E+02  0.77183136060E+02  0.00000000000E+00 0. -1.
         21    1    1    2  503  501  0.14365006167E+02 -0.15022617383E+02  0.18351106913E+02  0.27727162858E+02  0.00000000000E+00 0.  1.
         21    1    1    2  504  502 -0.14365006167E+02  0.15022617383E+02 -0.71005240541E+02  0.73984975634E+02  0.00000000000E+00 0. -1.
</event>
<event>
 4    1  0.1602044E+006  0.2277146E+02  0.7546771E-02  0.1495388E+00
         21   -1    0    0  503  501  0.00000000000E+00  0.00000000000E+00  0.11047838264E+02  0.11047838264E+02  0.00000000000E+00 0. -1.
         21   -1    0    0  504  502 -0.00000000000E+00 -0.00000000000E+00 -0.99445858645E+03  0.99445858645E+03  0.00000000000E+00 0.  1.
         21    1    1    2  503  502  0.60525475228E+01 -0.21952360802E+02 -0.95987238712E+00  0.22791683381E+02  0.00000000000E+00 0. -1.
         21    1    1    2  504  501 -0.60525475228E+01  0.21952360802E+02 -0.98245087580E+03  0.98271474133E+03  0.00000000000E+00 0.  1.
</event>
<event>
 4    1  0.1602044E+006  0.3158690E+02  0.7546771E-02  0.1406290E+00
         21   -1    0    0  503  501  0.00000000000E+00  0.00000000000E+00  0.45332649596E+02  0.45332649596E+02  0.00000000000E+00 0.  1.
         21   -1    0    0  504  502 -0.00000000000E+00 -0.00000000000E+00 -0.29648636707E+02  0.29648636707E+02  0.00000000000E+00 0.  1.
         21    1    1    2  503  502 -0.30288059657E+02  0.89646911450E+01 -0.11188622555E+02  0.33509961501E+02  0.00000000000E+00 0.  1.
         21    1    1    2  504  501  0.30288059657E+02 -0.89646911450E+01  0.26872635444E+02  0.41471324802E+02  0.00000000000E+00 0.  1.
</event>
<event>
 4    1  0.1602044E+006  0.2063678E+02  0.7546771E-02  0.1524514E+00
         21   -1    0    0  504  501  0.00000000000E+00  0.00000000000E+00  0.13013914607E+03  0.13013914607E+03  0.00000000000E+00 0. -1.
         21   -1    0    0  503  502 -0.00000000000E+00 -0.00000000000E+00 -0.34226444848E+01  0.34226444848E+01  0.00000000000E+00 0. -1.
         21    1    1    2  503  501  0.15858797502E+02 -0.13205123463E+02  0.49369911221E+02  0.53509484000E+02  0.00000000000E+00 0. -1.
         21    1    1    2  504  502 -0.15858797502E+02  0.13205123463E+02  0.77346590366E+02  0.80052306557E+02  0.00000000000E+00 0. -1.
</event>
<event>
 4    1  0.1602044E+006  0.5184457E+02  0.7546771E-02  0.1290367E+00
         21   -1    0    0  504  501  0.00000000000E+00  0.00000000000E+00  0.47666037450E+01  0.47666037450E+01  0.00000000000E+00 0. -1.
         21   -1    0    0  501  502 -0.00000000000E+00 -0.00000000000E+00 -0.30460371569E+04  0.30460371569E+04  0.00000000000E+00 0. -1.
         21    1    1    2  503  502 -0.50562549497E+02 -0.11458095376E+02 -0.28976230683E+04  0.28980868354E+04  0.00000000000E+00 0. -1.
         21    1    1    2  504  503  0.50562549497E+02  0.11458095376E+02 -0.14364748479E+03  0.15271692522E+03  0.00000000000E+00 0. -1.
</event>
<event>
 4    1  0.1602044E+006  0.2137448E+02  0.7546771E-02  0.1513985E+00
         21   -1    0    0  504  501  0.00000000000E+00  0.00000000000E+00  0.27385695126E+01  0.27385695126E+01  0.00000000000E+00 0.  1.
         21   -1    0    0  503  502 -0.00000000000E+00 -0.00000000000E+00 -0.56418429305E+03  0.56418429305E+03  0.00000000000E+00 0. -1.
         21    1    1    2  503  501  0.37051991164E+01 -0.21050885367E+02 -0.42834121305E+02  0.47870974747E+02  0.00000000000E+00 0.  1.
         21    1    1    2  504  502 -0.37051991164E+01  0.21050885367E+02 -0.51861160223E+03  0.51905188782E+03  0.00000000000E+00 0. -1.
</event>
<event>
 4    1  0.1602044E+006  0.3150521E+02  0.7546771E-02  0.1406952E+00
         21   -1    0    0  502  501  0.00000000000E+00  0.00000000000E+00  0.43069005943E+02  0.43069005943E+02  0.00000000000E+00 0. -1.
         21   -1    0    0  504  502 -0.00000000000E+00 -0.00000000000E+00 -0.32842794916E+02  0.32842794916E+02  0.00000000000E+00 0. -1.
         21    1    1    2  503  501  0.15246825239E+02 -0.27570142635E+02  0.25842949686E+02  0.40748453875E+02  0.00000000000E+00 0. -1.
         21    1    1    2  504  503 -0.15246825239E+02  0.27570142635E+02 -0.15616738659E+02  0.35163346984E+02  0.00000000000E+00 0. -1.
</event>
<event>
 4    1  0.1602044E+006  0.2716370E+02  0.7546771E-02  0.1445971E+00
         21   -1    0    0  503  501  0.00000000000E+00  0.00000000000E+00  0.62091993157E+02  0.62091993157E+02  0.00000000000E+00 0.  1.
         21   -1    0    0  504  502 -0.00000000000E+00 -0.00000000000E+00 -0.11883498595E+02  0.11883498595E+02  0.00000000000E+00 0.  1.
         21    1    1    2  503  502 -0.10375030291E+02 -0.25104294405E+02  0.25026473483E+02  0.36934959403E+02  0.00000000000E+00 0.  1.
         21    1    1    2  504  501  0.10375030291E+02  0.25104294405E+02  0.25182021079E+02  0.37040532349E+02  0.00000000000E+00 0.  1.
</event>
<event>
 4    1  0.1602044E+006  0.2401570E+02  0.7546771E-02  0.1480123E+00
         21   -1    0    0  503  501  0.00000000000E+00  0.00000000000E+00  0.53295931781E+01  0.53295931781E+01  0.00000000000E+00 0.  1.
         21   -1    0    0  504  502 -0.00000000000E+00 -0.00000000000E+00 -0.25546568528E+03  0.25546568528E+03  0.00000000000E+00 0.  1.
         21    1    1    2  503  502 -0.19869994166E+02 -0.13488405040E+02 -0.22406659658E+03  0.22534993553E+03  0.00000000000E+00 0.  1.
         21    1    1    2  504  501  0.19869994166E+02  0.13488405040E+02 -0.26069495516E+02  0.35445342926E+02  0.00000000000E+00 0.  1.
</event>
<event>
 4    1  0.1602044E+006  0.2040581E+02  0.7546771E-02  0.1527920E+00
         21   -1    0    0  504  501  0.00000000000E+00  0.00000000000E+00  0.10788066601E+04  0.10788066601E+04  0.00000000000E+00 0.  1.
         21   -1    0    0  503  502 -0.00000000000E+00 -0.00000000000E+00 -0.16651384327E+02  0.16651384327E+02  0.00000000000E+00 0. -1.
         21    1    1    2  503  501  0.19581466065E+02  0.57413572764E+01 -0.10265981756E+02  0.22842665738E+02  0.00000000000E+00 0. -1.
         21    1    1    2  504  502 -0.19581466065E+02 -0.57413572764E+01  0.10724212576E+04  0.10726153787E+04  0.00000000000E+00 0.  1.
</event>
<event>
 4    1  0.1602044E+006  0.2921072E+02  0.7546771E-02  0.1426581E+00
         21   -1    0    0  503  501  0.00000000000E+00  0.00000000000E+00  0.53908419141E+01  0.53908419141E+01  0.00000000000E+00 0. -1.
         21   -1    0    0  504  502 -0.00000000000E+00 -0.00000000000E+00 -0.19501629947E+03  0.19501629947E+03  0.00000000000E+00 0. -1.
         21    1    1    2  503  502 -0.13875471154E+02  0.25704810875E+02 -0.51322513274E+02  0.59053080958E+02  0.00000000000E+00 0. -1.
         21    1    1    2  504  501  0.13875471154E+02 -0.25704810875E+02 -0.13830294428E+03  0.14135406043E+03  0.00000000000E+00 0. -1.
</event>
<event>
 4    1  0.1602044E+006  0.2440457E+02  0.7546771E-02  0.1475576E+00
         21   -1    0    0  502  501  0.00000000000E+00  0.00000000000E+00  0.28911922000E+02  0.28911922000E+02  0.00000000000E+00 0. -1.
         21   -1    0    0  504  502 -0.00000000000E+00 -0.00000000000E+00 -0.90498665644E+02  0.90498665644E+02  0.00000000000E+00 0. -1.
         21    1    1    2  503  501 -0.22328734180E+01 -0.24302209014E+02  0.21678488759E+02  0.32642609601E+02  0.00000000000E+00 0. -1.
         21    1    1    2  504  503  0.22328734180E+01  0.24302209014E+02 -0.83265232403E+02  0.86767978044E+02  0.00000000000E+00 0. -1.
</event>
<event>
 4    1  0.1602044E+006  0.2225452E+02  0.7546771E-02  0.1502077E+00
         21   -1    0    0  503  501  0.00000000000E+00  0.00000000000E+00  0.31524757979E+02  0.31524757979E+02  0.00000000000E+00 0.  1.
         21   -1    0    0  504  502 -0.00000000000E+00 -0.00000000000E+00 -0.11595789230E+03  0.11595789230E+03  0.00000000000E+00 0. -1.
         21    1    1    2  503  502  0.19978235959E+02  0.98047833589E+01 -0.11078081833E+03  0.11299404143E+03  0.00000000000E+00 0. -1.
         21    1    1    2  504  501 -0.19978235959E+02 -0.98047833589E+01  0.26347684001E+02  0.34488608858E+02  0.00000000000E+00 0.  1.
</event>
<event>
 4    1  0.1602044E+006  0.3508658E+02  0.7546771E-02  0.1379956E+00
         21   -1    0    0  503  501  0.00000000000E+00  0.00000000000E+00  0.39502485318E+02  0.39502485318E+02  0.00000000000E+00 0.  1.
         21   -1    0    0  504  502 -0.00000000000E+00 -0.00000000000E+00 -0.10825173009E+03  0.10825173009E+03  0.00000000000E+00 0. -1.
         21    1    1    2  503  502  0.34714469742E+02  0.50964239486E+01 -0.96717120287E+02  0.10288473795E+03  0.00000000000E+00 0. -1.
         21    1    1    2  504  501 -0.34714469742E+02 -0.50964239486E+01  0.27967875515E+02  0.44869477458E+02  0.00000000000E+00 0.  1.
</event>
<event>
 4    1  0.1602044E+006  0.2248171E+02  0.7546771E-02  0.1499111E+00
         21   -1    0    0  503  501  0.00000000000E+00  0.00000000000E+00  0.86004073117E+02  0.86004073117E+02  0.00000000000E+00 0.  1.
         21   -1    0    0  501  502 -0.00000000000E+00 -0.00000000000E+00 -0.16935062948E+03  0.16935062948E+03  0.00000000000E+00 0. -1.
         21    1    1    2  503  504  0.15727802744E+02 -0.16064348614E+02  0.83769192957E+02  0.86733527337E+02  0.00000000000E+00 0.  1.
         21    1    1    2  504  502 -0.15727802744E+02  0.16064348614E+02 -0.16711574932E+03  0.16862117527E+03  0.00000000000E+00 0. -1.
</event>
<event>
 4    1  0.1602044E+006  0.2332188E+02  0.7546771E-02  0.1488495E+00
         21   -1    0    0  503  501  0.00000000000E+00  0.00000000000E+00  0.72044653300E+02  0.72044653300E+02  0.00000000000E+00 0.  1.
         21   -1    0    0  504  502 -0.00000000000E+00 -0.00000000000E+00 -0.22190815145E+02  0.22190815145E+02  0.00000000000E+00 0.  1.
         21    1    1    2  503  502  0.44628278593E+01 -0.22890899753E+02 -0.13345504013E+02  0.26870292171E+02  0.00000000000E+00 0.  1.
         21    1    1    2  504  501 -0.44628278593E+01  0.22890899753E+02  0.63199342168E+02  0.67365176274E+02  0.00000000000E+00 0.  1.
</event>
<event>
 4    1  0.1602044E+006  0.2909099E+02  0.7546771E-02  0.1427663E+00
         21   -1    0    0  503  501  0.00000000000E+00  0.00000000000E+00  0.46040591971E+03  0.46040591971E+03  0.00000000000E+00 0. -1.
         21   -1    0    0  501  502 -0.00000000000E+00 -0.00000000000E+00 -0.12388296905E+02  0.12388296905E+02  0.00000000000E+00 0.  1.
         21    1    1    2  503  504  0.19186926834E+02  0.21866591280E+02  0.44216423794E+03  0.44312018605E+03  0.00000000000E+00 0. -1.
         21    1    1    2  504  502 -0.19186926834E+02 -0.21866591280E+02  0.58533848688E+01  0.29674030564E+02  0.00000000000E+00 0.  1.
</event>
<event>
 4    1  0.1602044E+006  0.2129141E+02  0.7546771E-02  0.1515145E+00
         21   -1    0    0  503  501  0.00000000000E+00  0.00000000000E+00  0.19673840026E+03  0.19673840026E+03  0.00000000000E+00 0. -1.
         21   -1    0    0  501  502 -0.00000000000E+00 -0.00000000000E+00 -0.30069403810E+01  0.30069403810E+01  0.00000000000E+00 0. -1.
         21    1    1    2  503  504  0.15072828678E+02 -0.15037745537E+02  0.14514745239E+03  0.14670073923E+03  0.00000000000E+00 0. -1.
         21    1    1    2  504  502 -0.15072828678E+02  0.15037745537E+02  0.48584007487E+02  0.53044601409E+02  0.00000000000E+00 0. -1.
</event>
<event>
 4    1  0.1602044E+006  0.2290625E+02  0.7546771E-02  0.1493679E+00
         21   -1    0    0  504  501  0.00000000000E+00  0.00000000000E+00  0.71603470724E+01  0.71603470724E+01  0.00000000000E+00 0. -1.
         21   -1    0    0  503  502 -0.00000000000E+00 -0.00000000000E+00 -0.98167441518E+02  0.98167441518E+02  0.00000000000E+00 0.  1.
         21    1    1    2  503  501 -0.31557748259E+01 -0.22687828713E+02 -0.18985831465E+02  0.29751609752E+02  0.00000000000E+00 0. -1.
         21    1    1    2  504  502  0.31557748259E+01  0.22687828713E+02 -0.72021262981E+02  0.75576178838E+02  0.00000000000E+00 0.  1.
</event>
<event>
 4    1  0.1602044E+006  0.2150357E+02  0.7546771E-02  0.1512195E+00
         21   -1    0    0  504  501  0.00000000000E+00  0.00000000000E+00  0.10864396294E+04  0.10864396294E+04  0.00000000000E+00 0.  1.
         21   -1    0    0  503  502 -0.00000000000E+00 -0.00000000000E+00 -0.18486073734E+02  0.18486073734E+02  0.00000000000E+00 0.  1.
         21    1    1    2  503  501 -0.46812124408E+01  0.20987849604E+02  0.10800427878E+04  0.10802568338E+04  0.00000000000E+00 0.  1.
         21    1    1    2  504  502  0.46812124408E+01 -0.20987849604E+02 -0.12089232103E+02  0.24668869324E+02  0.00000000000E+00 0.  1.
</event>
<event>
 4    1  0.1602044E+006  0.2357044E+02  0.7546771E-02  0.1485457E+00
         21   -1    0    0  504  501  0.00000000000E+00  0.00000000000E+00  0.30965227042E+02  0.30965227042E+02  0.00000000000E+00 0. -1.
         21   -1    0    0  503  502 -0.00000000000E+00 -0.00000000000E+00 -0.18534770490E+02  0.18534770490E+02  0.00000000000E+00 0. -1.
         21    1    1    2  503  501  0.21780568688E+02 -0.90095733210E+01  0.10642874620E+02  0.25861870852E+02  0.00000000000E+00 0. -1.
         21    1    1    2  504  502 -0.21780568688E+02  0.90095733210E+01  0.17875819315E+01  0.23638126680E+02  0.00000000000E+00 0. -1.
</event>
<event>
 4    1  0.1602044E+006  0.2333571E+02  0.7546771E-02  0.1488325E+00
         21   -1    0    0  503  501  0.00000000000E+00  0.00000000000E+00  0.11024352059E+01  0.11024352059E+01  0.00000000000E+00 0.  1.
         21   -1    0    0  501  502 -0.00000000000E+00 -0.00000000000E+00 -0.15172152477E+04  0.15172152477E+04  0.00000000000E+00 0.  1.
         21    1    1    2  503  504 -0.23256704915E+02  0.19185824469E+01 -0.13460624636E+03  0.13661404335E+03  0.00000000000E+00 0.  1.
         21    1    1    2  504  502  0.23256704915E+02 -0.19185824469E+01 -0.13815065662E+04  0.13817036396E+04  0.00000000000E+00 0.  1.
</event>
<event>
 4    1  0.1602044E+006  0.2052009E+02  0.7546771E-02  0.1526228E+00
         21   -1    0    0  504  501  0.00000000000E+00  0.00000000000E+00  0.45073719604E+00  0.45073719604E+00  0.00000000000E+00 0. -1.
         21   -1    0    0  503  502 -0.00000000000E+00 -0.00000000000E+00 -0.93419985649E+03  0.93419985649E+03  0.00000000000E+00 0. -1.
         21    1    1    2  503  501  0.97230306639E+01 -0.18070329457E+02 -0.46534821798E+03  0.46580042734E+03  0.00000000000E+00 0. -1.
         21    1    1    2  504  502 -0.97230306639E+01  0.18070329457E+02 -0.46840090132E+03  0.46885016635E+03  0.00000000000E+00 0. -1.
</event>
<event>
 4    1  0.1602044E+006  0.2048464E+02  0.7546771E-02  0.1526752E+00
         21   -1    0    0  503  501  0.00000000000E+00  0.00000000000E+00  0.13512992292E+03  0.13512992292E+03  0.00000000000E+00 0.  1.
         21   -1    0    0  504  502 -0.00000000000E+00 -0.00000000000E+00 -0.44480811578E+01  0.44480811578E+01  0.00000000000E+00 0. -1.
         21    1    1    2  503  502 -0.14712217443E+02 -0.14253816298E+02  0.26996581872E+02  0.33888582943E+02  0.00000000000E+00 0. -1.
         21    1    1    2  504  501  0.14712217443E+02  0.14253816298E+02  0.10368525989E+03  0.10568942113E+03  0.00000000000E+00 0.  1.
</event>
<event>
 4    1  0.1602044E+006  0.2232240E+02  0.7546771E-02  0.1501187E+00
         21   -1    0    0  504  501  0.00000000000E+00  0.00000000000E+00  0.82961449628E+02  0.82961449628E+02  0.00000000000E+00 0.  1.
         21   -1    0    0  503  502 -0.00000000000E+00 -0.00000000000E+00 -0.54322385783E+03  0.54322385783E+03  0.00000000000E+00 0.  1.
         21    1    1    2  503  501 -0.12863054837E+02 -0.18243672231E+02  0.81225747678E+02  0.84237235485E+02  0.00000000000E+00 0.  1.
         21    1    1    2  504  502  0.12863054837E+02  0.18243672231E+02 -0.54148815588E+03  0.54194807198E+03  0.00000000000E+00 0.  1.
</event>
<event>
 4    1  0.1602044E+006  0.3985732E+02  0.7546771E-02  0.1349324E+00
         21   -1    0    0  503  501  0.00000000000E+00  0.00000000000E+00  0.15185643955E+03  0.15185643955E+03  0.00000000000E+00 0.  1.
         21   -1    0    0  504  502 -0.00000000000E+00 -0.00000000000E+00 -0.11315246676E+02  0.11315246676E+02  0.00000000000E+00 0.  1.
         21    1    1    2  503  502 -0.17973958633E+02  0.35574465324E+02  0.92684366477E+02  0.10089101824E+03  0.00000000000E+00 0.  1.
         21    1    1    2  504  501  0.17973958633E+02 -0.35574465324E+02  0.47856826397E+02  0.62280667986E+02  0.00000000000E+00 0.  1.
</event>
<event>
 4    1  0.1602044E+006  0.2444422E+02  0.7546771E-02  0.1475118E+00
         21   -1    0    0  503  501  0.00000000000E+00  0.00000000000E+00  0.34648455313E+02  0.34648455313E+02  0.00000000000E+00 0. -1.
         21   -1    0    0  501  502 -0.00000000000E+00 -0.00000000000E+00 -0.81016505913E+02  0.81016505913E+02  0.00000000000E+00 0. -1.
         21    1    1    2  503  504  0.13944796548E+02  0.20076412723E+02  0.28125465691E+02  0.37263407237E+02  0.00000000000E+00 0. -1.
         21    1    1    2  504  502 -0.13944796548E+02 -0.20076412723E+02 -0.74493516291E+02  0.78401553989E+02  0.00000000000E+00 0. -1.
</event>
<event>
 4    1  0.1602044E+006  0.2746129E+02  0.7546771E-02  0.1443029E+00
         21   -1    0    0  504  501  0.00000000000E+00  0.00000000000E+00  0.14332740601E+03  0.14332740601E+03  0.00000000000E+00 0. -1.
         21   -1    0    0  503  502 -0.00000000000E+00 -0.00000000000E+00 -0.81517727542E+01  0.81517727542E+01  0.00000000000E+00 0.  1.
         21    1    1    2  503  501  0.93763839586E+01 -0.25810966340E+02  0.22489171876E+02  0.35494864575E+02  0.00000000000E+00 0.  1.
         21    1    1    2  504  502 -0.93763839586E+01  0.25810966340E+02  0.11268646138E+03  0.11598431419E+03  0.00000000000E+00 0. -1.
</event>
<event>
 4    1  0.1602044E+006  0.2639688E+02  0.7546771E-02  0.1453762E+00
         21   -1    0    0  502  501  0.00000000000E+00  0.00000000000E+00  0.49776085028E+03  0.49776085028E+03  0.00000000000E+00 0. -1.
         21   -1    0    0  504  502 -0.00000000000E+00 -0.00000000000E+00 -0.26356699724E+02  0.26356699724E+02  0.00000000000E+00 0. -1.
         21    1    1    2  503  501 -0.16256113708E+02  0.20797456067E+02  0.49070666005E+03  0.49141613895E+03  0.00000000000E+00 0. -1.
         21    1    1    2  504  503  0.16256113708E+02 -0.20797456067E+02 -0.19302509492E+02  0.32701411047E+02  0.00000000000E+00 0. -1.
</event>
<event>
 4    1  0.1602044E+006  0.2338442E+02  0.7546771E-02  0.1487727E+00
         21   -1    0    0  503  501  0.00000000000E+00  0.00000000000E+00  0.99975151151E+01  0.99975151151E+01  0.00000000000E+00 0. -1.
         21   -1    0    0  501  502 -0.00000000000E+00 -0.00000000000E+00 -0.83175006320E+02  0.83175006320E+02  0.00000000000E+00 0. -1.
         21    1    1    2  503  504  0.23204185890E+02  0.28977289683E+01 -0.93292059723E+01  0.25176678892E+02  0.00000000000E+00 0. -1.
         21    1    1    2  504  502 -0.23204185890E+02 -0.28977289683E+01 -0.63848285233E+02  0.67995842543E+02  0.00000000000E+00 0. -1.
</event>
<event>
 4    1  0.1602044E+006  0.2343505E+02  0.7546771E-02  0.1487106E+00
         21   -1    0    0  504  501  0.00000000000E+00  0.00000000000E+00  0.86380585877E+02  0.86380585877E+02  0.00000000000E+00 0. -1.
         21   -1    0    0  503  502 -0.00000000000E+00 -0.00000000000E+00 -0.45306320744E+02  0.45306320744E+02  0.00000000000E+00 0. -1.
         21    1    1    2  503  501 -0.92582569315E+01  0.21528729186E+02  0.81586051237E+02  0.84885129783E+02  0.00000000000E+00 0. -1.
         21    1    1    2  504  502  0.92582569315E+01 -0.21528729186E+02 -0.40511786104E+02  0.46801776837E+02  0.00000000000E+00 0. -1.
</event>
<event>
 4    1  0.1602044E+006  0.2443506E+02  0.7546771E-02  0.1475224E+00
         21   -1    0    0  504  501  0.00000000000E+00  0.00000000000E+00  0.14767544430E+04  0.14767544430E+04  0.00000000000E+00 0. -1.
         21   -1    0    0  503  502 -0.00000000000E+00 -0.00000000000E+00 -0.70500805471E+00  0.70500805471E+00  0.00000000000E+00 0. -1.
         21    1    1    2  503  501  0.44457801082E+01  0.24027218991E+02  0.12204733662E+04  0.12207179485E+04  0.00000000000E+00 0. -1.
         21    1    1    2  504  502 -0.44457801082E+01 -0.24027218991E+02  0.25557606879E+03  0.25674150259E+03  0.00000000000E+00 0. -1.
</event>
<event>
 4    1  0.1602044E+006  0.2637509E+02  0.7546771E-02  0.1453988E+00
         21   -1    0    0  504  501  0.00000000000E+00  0.00000000000E+00  0.24359915489E+03  0.24359915489E+03  0.00000000000E+00 0.  1.
         21   -1    0    0  503  502 -0.00000000000E+00 -0.00000000000E+00 -0.49398333652E+01  0.49398333652E+01  0.00000000000E+00 0.  1.
         21    1    1    2  503  501 -0.25159423435E+02  0.79150847640E+01  0.20004787426E+03  0.20177908006E+03  0.00000000000E+00 0.  1.
         21    1    1    2  504  502  0.25159423435E+02 -0.79150847640E+01  0.38611447265E+02  0.46759908194E+02  0.00000000000E+00 0.  1.
</event>
<event>
 4    1  0.1602044E+006  0.2428444E+02  0.7546771E-02  0.1476970E+00
         21   -1    0    0  502  501  0.00000000000E+00  0.00000000000E+00  0.91377214414E+01  0.91377214414E+01  0.00000000000E+00 0.  1.
         21   -1    0    0  504  502 -0.00000000000E+00 -0.00000000000E+00 -0.23303307214E+03  0.23303307214E+03  0.00000000000E+00 0. -1.
         21    1    1    2  503  501  0.32400437759E+01 -0.24067322363E+02 -0.89858863657E+01  0.25893629393E+02  0.00000000000E+00 0.  1.
         21    1    1    2  504  503 -0.32400437759E+01  0.24067322363E+02 -0.21490946434E+03  0.21627716419E+03  0.00000000000E+00 0. -1.
</event>
<event>
 4    1  0.1602044E+006  0.2408175E+02  0.7546771E-02  0.1479344E+00
         21   -1    0    0  503  501  0.00000000000E+00  0.00000000000E+00  0.73203007913E+01  0.73203007913E+01  0.00000000000E+00 0. -1.
         21   -1    0    0  504  502 -0.00000000000E+00 -0.00000000000E+00 -0.60521696064E+03  0.60521696064E+03  0.00000000000E+00 0.  1.
         21    1    1    2  503  502 -0.23388786164E+02  0.57354607057E+01 -0.13427594883E+02  0.27572289207E+02  0.00000000000E+00 0. -1.
         21    1    1    2  504  501  0.23388786164E+02 -0.57354607057E+01 -0.58446906497E+03  0.58496497223E+03  0.00000000000E+00 0.  1.
</event>
<event>
 4    1  0.1602044E+006  0.2434738E+02  0.7546771E-02  0.1476238E+00
         21   -1    0    0  502  501  0.00000000000E+00  0.00000000000E+00  0.47082018373E+01  0.47082018373E+01  0.00000000000E+00 0. -1.
         21   -1    0    0  503  502 -0.00000000000E+00 -0.00000000000E+00 -0.13048464298E+04  0.13048464298E+04  0.00000000000E+00 0. -1.
         21    1    1    2  503  504  0.24290805814E+02 -0.16588071101E+01 -0.12724549457E+04  0.12726878579E+04  0.00000000000E+00 0. -1.
         21    1    1    2  504  501 -0.24290805814E+02  0.16588071101E+01 -0.27683282341E+02  0.36866773785E+02  0.00000000000E+00 0. -1.
</event>
<event>
 4    1  0.1602044E+006  0.2029600E+02  0.7546771E-02  0.1529558E+00
         21   -1    0    0  503  501  0.00000000000E+00  0.00000000000E+00  0.69598903375E+03  0.69598903375E+03  0.00000000000E+00 0. -1.
         21   -1    0    0  504  502 -0.00000000000E+00 -0.00000000000E+00 -0.51526056017E+02  0.51526056017E+02  0.00000000000E+00 0. -1.
         21    1    1    2  503  502  0.10823880490E+02 -0.17168897772E+02 -0.49373254726E+02  0.53382073038E+02  0.00000000000E+00 0. -1.
         21    1    1    2  504  501 -0.10823880490E+02  0.17168897772E+02  0.69383623246E+03  0.69413301673E+03  0.00000000000E+00 0. -1.
</event>
<event>
 4    1  0.1602044E+006  0.3082279E+02  0.7546771E-02  0.1412578E+00
         21   -1    0    0  504  501  0.00000000000E+00  0.00000000000E+00  0.84274923805E+02  0.84274923805E+02  0.00000000000E+00 0. -1.
         21   -1    0    0  503  502 -0.00000000000E+00 -0.00000000000E+00 -0.42608938088E+02  0.42608938088E+02  0.00000000000E+00 0. -1.
         21    1    1    2  503  501 -0.29063973063E+02  0.10263039031E+02 -0.33572944286E+02  0.45576167987E+02  0.00000000000E+00 0. -1.
         21    1    1    2  504  502  0.29063973063E+02 -0.10263039031E+02  0.75238930003E+02  0.81307693906E+02  0.00000000000E+00 0. -1.
</event>
<event>
 4    1  0.1602044E+006  0.2789916E+02  0.7546771E-02  0.1438779E+00
         21   -1    0    0  504  501  0.00000000000E+00  0.00000000000E+00  0.44129389278E+03  0.44129389278E+03  0.00000000000E+00 0.  1.
         21   -1    0    0  501  502 -0.00000000000E+00 -0.00000000000E+00 -0.86023623265E+02  0.86023623265E+02  0.00000000000E+00 0.  1.
         21    1    1    2  503  502  0.25742974716E+02 -0.10754633961E+02 -0.83306607349E+02  0.87854161693E+02  0.00000000000E+00 0.  1.
         21    1    1    2  504  503 -0.25742974716E+02  0.10754633961E+02  0.43857687686E+03  0.43946335435E+03  0.00000000000E+00 0.  1.
</event>
<event>
 4    1  0.1602044E+006  0.5622015E+02  0.7546771E-02  0.1273246E+00
         21   -1    0    0  503  501  0.00000000000E+00  0.00000000000E+00  0.99620491099E+02  0.99620491099E+02  0.00000000000E+00 0.  1.
         21   -1    0    0  501  502 -0.00000000000E+00 -0.00000000000E+00 -0.31897898213E+02  0.31897898213E+02  0.00000000000E+00 0.  1.
         21    1    1    2  503  504  0.53490398778E+02 -0.17305551012E+02  0.29054423564E+02  0.63283997866E+02  0.00000000000E+00 0.  1.
         21    1    1    2  504  502 -0.53490398778E+02  0.17305551012E+02  0.38668169321E+02  0.68234391445E+02  0.00000000000E+00 0.  1.
</event>
<event>
 4    1  0.1602044E+006  0.2529519E+02  0.7546771E-02  0.1465528E+00
         21   -1    0    0  503  501  0.00000000000E+00  0.00000000000E+00  0.88452663550E+02  0.88452663550E+02  0.00000000000E+00 0.  1.
         21   -1    0    0  504  502 -0.00000000000E+00 -0.00000000000E+00 -0.73193123101E+01  0.73193123101E+01  0.00000000000E+00 0.  1.
         21    1    1    2  503  502 -0.18097640311E+02  0.17672637566E+02  0.35390010840E+02  0.43500569773E+02  0.00000000000E+00 0.  1.
         21    1    1    2  504  501  0.18097640311E+02 -0.17672637566E+02  0.45743340401E+02  0.52271406087E+02  0.00000000000E+00 0.  1.
</event>
<event>
 4    1  0.1602044E+006  0.2046121E+02  0.7546771E-02  0.1527098E+00
         21   -1    0    0  504  501  0.00000000000E+00  0.00000000000E+00  0.10337431754E+03  0.10337431754E+03  0.00000000000E+00 0.  1.
         21   -1    0    0  501  502 -0.00000000000E+00 -0.00000000000E+00 -0.18816055927E+02  0.18816055927E+02  0.00000000000E+00 0.  1.
         21    1    1    2  503  502 -0.12624308032E+02  0.16102419436E+02 -0.11843095570E+02  0.23641488482E+02  0.00000000000E+00 0.  1.
         21    1    1    2  504  503  0.12624308032E+02 -0.16102419436E+02  0.96401357179E+02  0.98548884981E+02  0.00000000000E+00 0.  1.
</event>
<event>
 4    1  0.1602044E+006  0.2303420E+02  0.7546771E-02  0.1492069E+00
         21   -1    0    0  503  501  0.00000000000E+00  0.00000000000E+00  0.15652711660E+03  0.15652711660E+03  0.00000000000E+00 0.  1.
         21   -1    0    0  504  502 -0.00000000000E+00 -0.00000000000E+00 -0.52933290756E+01  0.52933290756E+01  0.00000000000E+00 0.  1.
         21    1    1    2  503  502 -0.94591397017E+01  0.21002362464E+02  0.27095411378E+02  0.35563125154E+02  0.00000000000E+00 0.  1.
         21    1    1    2  504  501  0.94591397017E+01 -0.21002362464E+02  0.12413837614E+03  0.12625732052E+03  0.00000000000E+00 0.  1.
</event>
<event>
 4    1  0.1602044E+006  0.2642735E+02  0.7546771E-02  0.1453447E+00
         21   -1    0    0  504  501  0.00000000000E+00  0.00000000000E+00  0.23644620863E+02  0.23644620863E+02  0.00000000000E+00 0.  1.
         21   -1    0    0  501  502 -0.00000000000E+00 -0.00000000000E+00 -0.65327836625E+02  0.65327836625E+02  0.00000000000E+00 0.  1.
         21    1    1    2  503  502  0.31028379865E+01 -0.26244560796E+02 -0.53769121415E+02  0.59912627990E+02  0.00000000000E+00 0.  1.
         21    1    1    2  504  503 -0.31028379865E+01  0.26244560796E+02  0.12085905653E+02  0.29059829497E+02  0.00000000000E+00 0.  1.
</event>
<event>
 4    1  0.1602044E+006  0.2336236E+02  0.7546771E-02  0.1487997E+00
         21   -1    0    0  503  501  0.00000000000E+00  0.00000000000E+00  0.79662879845E+01  0.79662879845E+01  0.00000000000E+00 0.  1.
         21   -1    0    0  504  502 -0.00000000000E+00 -0.00000000000E+00 -0.75732489916E+02  0.75732489916E+02  0.00000000000E+00 0.  1.
         21    1    1    2  503  502 -0.19650294897E+02 -0.12635897942E+02 -0.20962590524E+02  0.31388376954E+02  0.00000000000E+00 0.  1.
         21    1    1    2  504  501  0.19650294897E+02  0.12635897942E+02 -0.46803611407E+02  0.52310400946E+02  0.00000000000E+00 0.  1.
</event>
<event>
 4    1  0.1602044E+006  0.2124646E+02  0.7546771E-02  0.1515775E+00
         21   -1    0    0  504  501  0.00000000000E+00  0.00000000000E+00  0.54617188901E+00  0.54617188901E+00  0.00000000000E+00 0.  1.
         21   -1    0    0  503  502 -0.00000000000E+00 -0.00000000000E+00 -0.12260022559E+04  0.12260022559E+04  0.00000000000E+00 0. -1.
         21    1    1    2  503  501  0.20403073428E+02  0.59267627469E+01 -0.26264761003E+03  0.26350555777E+03  0.00000000000E+00 0.  1.
         21    1    1    2  504  502 -0.20403073428E+02 -0.59267627469E+01 -0.96280847396E+03  0.96304287000E+03  0.00000000000E+00 0. -1.
</event>
<event>
 4    1  0.1602044E+006  0.2307779E+02  0.7546771E-02  0.1491524E+00
         21   -1    0    0  503  501  0.00000000000E+00  0.00000000000E+00  0.53081536092E+02  0.53081536092E+02  0.00000000000E+00 0.  1.
         21   -1    0    0  504  502 -0.00000000000E+00 -0.00000000000E+00 -0.60003690579E+03  0.60003690579E+03  0.00000000000E+00 0. -1.
         21    1    1    2  503  502 -0.21788393790E+02 -0.76059321237E+01  0.50339798755E+02  0.55377609610E+02  0.00000000000E+00 0.  1.
         21    1    1    2  504  501  0.21788393790E+02  0.76059321237E+01 -0.59729516845E+03  0.59774083227E+03  0.00000000000E+00 0. -1.
</event>
<event>
 4    1  0.1602044E+006  0.2001932E+02  0.7546771E-02  0.1533740E+00
         21   -1    0    0  504  501  0.00000000000E+00  0.00000000000E+00  0.16283699693E+02  0.16283699693E+02  0.00000000000E+00 0.  1.
         21   -1    0    0  503  502 -0.00000000000E+00 -0.00000000000E+00 -0.35259001346E+02  0.35259001346E+02  0.00000000000E+00 0. -1.
         21    1    1    2  503  501  0.18578674609E+02 -0.74569470100E+01 -0.23649414459E+02  0.30984964308E+02  0.00000000000E+00 0. -1.
         21    1    1    2  504  502 -0.18578674609E+02  0.74569470100E+01  0.46741128057E+01  0.20557736730E+02  0.00000000000E+00 0.  1.
</event>
<event>
 4    1  0.1602044E+006  0.2656029E+02  0.7546771E-02  0.1452076E+00
         21   -1    0    0  503  501  0.00000000000E+00  0.00000000000E+00  0.13900423674E+02  0.13900423674E+02  0.00000000000E+00 0.  1.
         21   -1    0    0  504  502 -0.00000000000E+00 -0.00000000000E+00 -0.79150714816E+02  0.79150714816E+02  0.00000000000E+00 0. -1.
         21    1    1    2  503  502 -0.22456245081E+02  0.14183300060E+02 -0.60494542232E+02  0.66068438635E+02  0.00000000000E+00 0. -1.
         21    1    1    2  504  501  0.22456245081E+02 -0.14183300060E+02 -0.47557489102E+01  0.26982699855E+02  0.00000000000E+00 0.  1.
</event>
<event>
 4    1  0.1602044E+006  0.2352166E+02  0.7546771E-02  0.1486049E+00
         21   -1    0    0  504  501  0.00000000000E+00  0.00000000000E+00  0.17354650721E+03  0.17354650721E+03  0.00000000000E+00 0.  1.
         21   -1    0    0  503  502 -0.00000000000E+00 -0.00000000000E+00 -0.44823174940E+01  0.44823174940E+01  0.00000000000E+00 0.  1.
         21    1    1    2  503  501 -0.23521135763E+02  0.15717724874E+00  0.36699136686E+02  0.43590081048E+02  0.00000000000E+00 0.  1.
         21    1    1    2  504  502  0.23521135763E+02 -0.15717724874E+00  0.13236505303E+03  0.13443874366E+03  0.00000000000E+00 0.  1.
</event>
<event>
 4    1  0.1602044E+006  0.3710858E+02  0.7546771E-02  0.1366316E+00
         21   -1    0    0  504  501  0.00000000000E+00  0.00000000000E+00  0.10234872110E+03  0.10234872110E+03  0.00000000000E+00 0. -1.
         21   -1    0    0  503  502 -0.00000000000E+00 -0.00000000000E+00 -0.24014252171E+02  0.24014252171E+02  0.00000000000E+00 0. -1.
         21    1    1    2  503  501  0.13962101244E+02  0.34381774197E+02  0.81064242863E+02  0.89154125755E+02  0.00000000000E+00 0. -1.
         21    1    1    2  504  502 -0.13962101244E+02 -0.34381774197E+02 -0.27297739300E+01  0.37208847521E+02  0.00000000000E+00 0. -1.
</event>
<event>
 4    1  0.1602044E+006  0.2322052E+02  0.7546771E-02  0.1489747E+00
         21   -1    0    0  504  501  0.00000000000E+00  0.00000000000E+00  0.23564091736E+03  0.23564091736E+03  0.00000000000E+00 0. -1.
         21   -1    0    0  501  502 -0.00000000000E+00 -0.00000000000E+00 -0.10207434403E+02  0.10207434403E+02  0.00000000000E+00 0.  1.
         21    1    1    2  503  502  0.14632722758E+02  0.18029868299E+02  0.44436091626E+01  0.23641877856E+02  0.00000000000E+00 0.  1.
         21    1    1    2  504  503 -0.14632722758E+02 -0.18029868299E+02  0.22098987379E+03  0.22220647390E+03  0.00000000000E+00 0. -1.
</event>
<event>
 4    1  0.1602044E+006  0.2005839E+02  0.7546771E-02  0.1533145E+00
         21   -1    0    0  503  501  0.00000000000E+00  0.00000000000E+00  0.34602266847E+02  0.34602266847E+02  0.00000000000E+00 0.  1.
         21   -1    0    0  501  502 -0.00000000000E+00 -0.00000000000E+00 -0.49898001773E+02  0.49898001773E+02  0.00000000000E+00 0. -1.
         21    1    1    2  503  504  0.13304091704E+02 -0.15011328393E+02  0.29353556227E+02  0.35552357156E+02  0.00000000000E+00 0.  1.
         21    1    1    2  504  502 -0.13304091704E+02  0.15011328393E+02 -0.44649291153E+02  0.48947911464E+02  0.00000000000E+00 0. -1.
</event>
<event>
 4    1  0.1602044E+006  0.2891285E+02  0.7546771E-02  0.1429285E+00
         21   -1    0    0  504  501  0.00000000000E+00  0.00000000000E+00  0.57403208608E+02  0.57403208608E+02  0.00000000000E+00 0. -1.
         21   -1    0    0  503  502 -0.00000000000E+00 -0.00000000000E+00 -0.60614980559E+02  0.60614980559E+02  0.00000000000E+00 0.  1.
         21    1    1    2  503  501 -0.22103535371E+02  0.18638308200E+02  0.49828546639E+02  0.57609347060E+02  0.00000000000E+00 0. -1.
         21    1    1    2  504  502  0.22103535371E+02 -0.18638308200E+02 -0.53040318591E+02  0.60408842107E+02  0.00000000000E+00 0.  1.
</event>
<event>
 4    1  0.1602044E+006  0.2281287E+02  0.7546771E-02  0.1494861E+00
         21   -1    0    0  503  501  0.00000000000E+00  0.00000000000E+00  0.20417213342E+02  0.20417213342E+02  0.00000000000E+00 0.  1.
         21   -1    0    0  504  502 -0.00000000000E+00 -0.00000000000E+00 -0.30184657687E+03  0.30184657687E+03  0.00000000000E+00 0. -1.
         21    1    1    2  503  502  0.22224935304E+02 -0.51457827939E+01  0.13463739821E+02  0.26489603995E+02  0.00000000000E+00 0.  1.
         21    1    1    2  504  501 -0.22224935304E+02  0.51457827939E+01 -0.29489310335E+03  0.29577418621E+03  0.00000000000E+00 0. -1.
</event>
<event>
 4    1  0.1602044E+006  0.2793274E+02  0.7546771E-02  0.1438457E+00
         21   -1    0    0  504  501  0.00000000000E+00  0.00000000000E+00  0.78299161506E+03  0.78299161506E+03  0.00000000000E+00 0. -1.
         21   -1    0    0  503  502 -0.00000000000E+00 -0.00000000000E+00 -0.17368472436E+02  0.17368472436E+02  0.00000000000E+00 0. -1.
         21    1    1    2  503  501 -0.27795861581E+02 -0.27618426385E+01  0.77134227591E+03  0.77184787640E+03  0.00000000000E+00 0. -1.
         21    1    1    2  504  502  0.27795861581E+02  0.27618426385E+01 -0.57191332907E+01  0.28512211092E+02  0.00000000000E+00 0. -1.
</event>
<event>
 4    1  0.1602044E+006  0.3377480E+02  0.7546771E-02  0.1389387E+00
         21   -1    0    0  502  501  0.00000000000E+00  0.00000000000E+00  0.28791086463E+02  0.28791086463E+02  0.00000000000E+00 0.  1.
         21   -1    0    0  503  502 -0.00000000000E+00 -0.00000000000E+00 -0.87297876686E+02  0.87297876686E+02  0.00000000000E+00 0.  1.
         21    1    1    2  503  504  0.18280740449E+02 -0.28399848481E+02 -0.72148937909E+02  0.79663078691E+02  0.00000000000E+00 0.  1.
         21    1    1    2  504  501 -0.18280740449E+02  0.28399848481E+02  0.13642147686E+02  0.36425884459E+02  0.00000000000E+00 0.  1.
</event>
<event>
 4    1  0.1602044E+006  0.3285108E+02  0.7546771E-02  0.1396335E+00
         21   -1    0    0  504  501  0.00000000000E+00  0.00000000000E+00  0.17235782549E+02  0.17235782549E+02  0.00000000000E+00 0. -1.
         21   -1    0    0  503  502 -0.00000000000E+00 -0.00000000000E+00 -0.80513501398E+02  0.80513501398E+02  0.00000000000E+00 0.  1.
         21    1    1    2  503  501  0.91831041726E+01 -0.31541470704E+02 -0.85939510202E+01  0.33956586557E+02  0.00000000000E+00 0. -1.
         21    1    1    2  504  502 -0.91831041726E+01  0.31541470704E+02 -0.54683767828E+02  0.63792697390E+02  0.00000000000E+00 0.  1.
</event>
<event>
 4    1  0.1602044E+006  0.2223449E+02  0.7546771E-02  0.1502341E+00
         21   -1    0    0  503  501  0.00000000000E+00  0.00000000000E+00  0.23513223044E+02  0.23513223044E+02  0.00000000000E+00 0. -1.
         21   -1    0    0  504  502 -0.00000000000E+00 -0.00000000000E+00 -0.30650027471E+02  0.30650027471E+02  0.00000000000E+00 0. -1.
         21    1    1    2  503  502 -0.21837579848E+02 -0.41824111251E+01 -0.18744272933E+02  0.29081269302E+02  0.00000000000E+00 0. -1.
         21    1    1    2  504  501  0.21837579848E+02  0.41824111251E+01  0.11607468507E+02  0.25081981213E+02  0.00000000000E+00 0. -1.
</event>
<event>
 4    1  0.1602044E+006  0.2330205E+02  0.7546771E-02  0.1488740E+00
         21   -1    0    0  503  501  0.00000000000E+00  0.00000000000E+00  0.27641114433E+02  0.27641114433E+02  0.00000000000E+00 0.  1.
         21   -1    0    0  501  502 -0.00000000000E+00 -0.00000000000E+00 -0.14869485077E+03  0.14869485077E+03  0.00000000000E+00 0. -1.
         21    1    1    2  503  504 -0.13820702823E+02 -0.18760967375E+02  0.21610947921E+02  0.31780792838E+02  0.00000000000E+00 0.  1.
         21    1    1    2  504  502  0.13820702823E+02  0.18760967375E+02 -0.14266468426E+03  0.14455517237E+03  0.00000000000E+00 0. -1.
</event>
<event>
 4    1  0.1602044E+006  0.2712885E+02  0.7546771E-02  0.1446318E+00
         21   -1    0    0  503  501  0.00000000000E+00  0.00000000000E+00  0.80691169740E+03  0.80691169740E+03  0.00000000000E+00 0.  1.
         21   -1    0    0  504  502 -0.00000000000E+00 -0.00000000000E+00 -0.24053058823E+01  0.24053058823E+01  0.00000000000E+00 0.  1.
         21    1    1    2  503  502  0.35886443670E+01  0.26890446741E+02  0.72108754268E+03  0.72159768480E+03  0.00000000000E+00 0.  1.
         21    1    1    2  504  501 -0.35886443670E+01 -0.26890446741E+02  0.83418848838E+02  0.87719318487E+02  0.00000000000E+00 0.  1.
</event>
<event>
 4    1  0.1602044E+006  0.2736346E+02  0.7546771E-02  0.1443991E+00
         21   -1    0    0  503  501  0.00000000000E+00  0.00000000000E+00  0.19595476231E+04  0.19595476231E+04  0.00000000000E+00 0. -1.
         21   -1    0    0  504  502 -0.00000000000E+00 -0.00000000000E+00 -0.70104653252E+01  0.70104653252E+01  0.00000000000E+00 0. -1.
         21    1    1    2  503  502  0.27059910082E+02 -0.40644869551E+01  0.19323751822E+04  0.19325689130E+04  0.00000000000E+00 0. -1.
         21    1    1    2  504  501 -0.27059910082E+02  0.40644869551E+01  0.20161975654E+02  0.33989175484E+02  0.00000000000E+00 0. -1.
</event>
<event>
 4    1  0.1602044E+006  0.2087170E+02  0.7546771E-02  0.1521105E+00
         21   -1    0    0  503  501  0.00000000000E+00  0.00000000000E+00  0.34603625889E+01  0.34603625889E+01  0.00000000000E+00 0.  1.
         21   -1    0    0  501  502 -0.00000000000E+00 -0.00000000000E+00 -0.19769714751E+03  0.19769714751E+03  0.00000000000E+00 0. -1.
         21    1    1    2  503  504 -0.20234979650E+02  0.51159982219E+01 -0.36502367810E+02  0.42048194907E+02  0.00000000000E+00 0.  1.
         21    1    1    2  504  502  0.20234979650E+02 -0.51159982219E+01 -0.15773441711E+03  0.15910931519E+03  0.00000000000E+00 0. -1.
</event>
<event>
 4    1  0.1602044E+006  0.2175294E+02  0.7546771E-02  0.1508781E+00
         21   -1    0    0  504  501  0.00000000000E+00  0.00000000000E+00  0.20029186921E+03  0.20029186921E+03  0.00000000000E+00 0. -1.
         21   -1    0    0  501  502 -0.00000000000E+00 -0.00000000000E+00 -0.17805020957E+02  0.17805020957E+02  0.00000000000E+00 0. -1.
         21    1    1    2  503  502  0.20206486951E+02 -0.80553218556E+01 -0.10312971185E+02  0.24073796953E+02  0.00000000000E+00 0. -1.
         21    1    1    2  504  503 -0.20206486951E+02  0.80553218556E+01  0.19279981943E+03  0.19402309321E+03  0.00000000000E+00 0. -1.
</event>
<event>
 4    1  0.1602044E+006  0.2656645E+02  0.7546771E-02  0.1452013E+00
         21   -1    0    0  503  501  0.00000000000E+00  0.00000000000E+00  0.95573369346E+01  0.95573369346E+01  0.00000000000E+00 0. -1.
         21   -1    0    0  504  502 -0.00000000000E+00 -0.00000000000E+00 -0.12635755647E+04  0.12635755647E+04  0.00000000000E+00 0.  1.
         21    1    1    2  503  502 -0.13804061982E+02  0.22698544624E+02 -0.93239515687E+01  0.28155143901E+02  0.00000000000E+00 0. -1.
         21    1    1    2  504  501  0.13804061982E+02 -0.22698544624E+02 -0.12446942762E+04  0.12449777577E+04  0.00000000000E+00 0.  1.
</event>
<event>
 4    1  0.1602044E+006  0.3209963E+02  0.7546771E-02  0.1402187E+00
         21   -1    0    0  503  501  0.00000000000E+00  0.00000000000E+00  0.33596115436E+02  0.33596115436E+02  0.00000000000E+00 0. -1.
         21   -1    0    0  504  502 -0.00000000000E+00 -0.00000000000E+00 -0.36143218814E+02  0.36143218814E+02  0.00000000000E+00 0. -1.
         21    1    1    2  503  502 -0.30116458558E+02 -0.11107894861E+02 -0.14843038324E+02  0.35365268146E+02  0.00000000000E+00 0. -1.
         21    1    1    2  504  501  0.30116458558E+02  0.11107894861E+02  0.12295934946E+02  0.34374066104E+02  0.00000000000E+00 0. -1.
</event>
<event>
 4    1  0.1602044E+006  0.3155898E+02  0.7546771E-02  0.1406516E+00
         21   -1    0    0  504  501  0.00000000000E+00  0.00000000000E+00  0.90801935727E+01  0.90801935727E+01  0.00000000000E+00 0.  1.
         21   -1    0    0  503  502 -0.00000000000E+00 -0.00000000000E+00 -0.11274747273E+03  0.11274747273E+03  0.00000000000E+00 0.  1.
         21    1    1    2  503  501  0.23137838189E+02  0.21461820585E+02 -0.61871336367E+02  0.69455248633E+02  0.00000000000E+00 0.  1.
         21    1    1    2  504  502 -0.23137838189E+02 -0.21461820585E+02 -0.41795942794E+02  0.52372417673E+02  0.00000000000E+00 0.  1.
</event>
<event>
 4    1  0.1602044E+006  0.3267936E+02  0.7546771E-02  0.1397656E+00
         21   -1    0    0  503  501  0.00000000000E+00  0.00000000000E+00  0.16247412839E+03  0.16247412839E+03  0.00000000000E+00 0.  1.
         21   -1    0    0  504  502 -0.00000000000E+00 -0.00000000000E+00 -0.17083159532E+02  0.17083159532E+02  0.00000000000E+00 0.  1.
         21    1    1    2  503  502 -0.16248387509E+02  0.28353661986E+02  0.14311513685E+03  0.14679878283E+03  0.00000000000E+00 0.  1.
         21    1    1    2  504  501  0.16248387509E+02 -0.28353661986E+02  0.22758320097E+01  0.32758505094E+02  0.00000000000E+00 0.  1.
</event>
<event>
 4    1  0.1602044E+006  0.1152137E+03  0.7546771E-02  0.1139777E+00
         21   -1    0    0  503  501  0.00000000000E+00  0.00000000000E+00  0.16689811465E+03  0.16689811465E+03  0.00000000000E+00 0. -1.
         21   -1    0    0  504  502 -0.00000000000E+00 -0.00000000000E+00 -0.13546262946E+03  0.13546262946E+03  0.00000000000E+00 0. -1.
         21    1    1    2  503  502  0.99514873314E+02 -0.58060100318E+02 -0.81422721594E+02  0.14108098685E+03  0.00000000000E+00 0. -1.
         21    1    1    2  504  501 -0.99514873314E+02  0.58060100318E+02  0.11285820679E+03  0.16127975725E+03  0.00000000000E+00 0. -1.
</event>
<event>
 4    1  0.1602044E+006  0.3282764E+02  0.7546771E-02  0.1396514E+00
         21   -1    0    0  504  501  0.00000000000E+00  0.00000000000E+00  0.18529426264E+03  0.18529426264E+03  0.00000000000E+00 0.  1.
         21   -1    0    0  503  502 -0.00000000000E+00 -0.00000000000E+00 -0.95240078518E+01  0.95240078518E+01  0.00000000000E+00 0. -1.
         21    1    1    2  503  501  0.19403195543E+02 -0.26479614731E+02  0.27104434148E+02  0.42571167990E+02  0.00000000000E+00 0. -1.
         21    1    1    2  504  502 -0.19403195543E+02  0.26479614731E+02  0.14866582064E+03  0.15224710250E+03  0.00000000000E+00 0.  1.
</event>
<event>
 4    1  0.1602044E+006  0.2149537E+02  0.7546771E-02  0.1512308E+00
         21   -1    0    0  504  501  0.00000000000E+00  0.00000000000E+00  0.35457421391E+02  0.35457421391E+02  0.00000000000E+00 0.  1.
         21   -1    0    0  503  502 -0.00000000000E+00 -0.00000000000E+00 -0.25294856035E+02  0.25294856035E+02  0.00000000000E+00 0.  1.
         21    1    1    2  503  501  0.78599900760E+01  0.20006786772E+02 -0.16069543453E+02  0.26838054842E+02  0.00000000000E+00 0.  1.
         21    1    1    2  504  502 -0.78599900760E+01 -0.20006786772E+02  0.26232108809E+02  0.33914222584E+02  0.00000000000E+00 0.  1.
</event>
<event>
 4    1  0.1602044E+006  0.2636493E+02  0.7546771E-02  0.1454094E+00
         21   -1    0    0  503  501  0.00000000000E+00  0.00000000000E+00  0.31050762357E+03  0.31050762357E+03  0.00000000000E+00 0.  1.
         21   -1    0    0  501  502 -0.00000000000E+00 -0.00000000000E+00 -0.31033551202E+01  0.31033551202E+01  0.00000000000E+00 0. -1.
         21    1    1    2  503  504  0.16230126762E+02 -0.20777215586E+02  0.23647465143E+03  0.23793984633E+03  0.00000000000E+00 0.  1.
         21    1    1    2  504  502 -0.16230126762E+02  0.20777215586E+02  0.70929617015E+02  0.75671132356E+02  0.00000000000E+00 0. -1.
</event>
<event>
 4    1  0.1602044E+006  0.6297471E+02  0.7546771E-02  0.1250047E+00
         21   -1    0    0  503  501  0.00000000000E+00  0.00000000000E+00  0.22393997393E+03  0.22393997393E+03  0.00000000000E+00 0.  1.
         21   -1    0    0  501  502 -0.00000000000E+00 -0.00000000000E+00 -0.19424174067E+02  0.19424174067E+02  0.00000000000E+00 0.  1.
         21    1    1    2  503  504 -0.61024597113E+02 -0.15550339372E+02  0.13841342283E+03  0.15206607158E+03  0.00000000000E+00 0.  1.
         21    1    1    2  504  502  0.61024597113E+02  0.15550339372E+02  0.66102377033E+02  0.91298076414E+02  0.00000000000E+00 0.  1.
</event>
<event>
 4    1  0.1602044E+006  0.2098714E+02  0.7546771E-02  0.1519448E+00
         21   -1    0    0  504  501  0.00000000000E+00  0.00000000000E+00  0.80637600758E+01  0.80637600758E+01  0.00000000000E+00 0. -1.
         21   -1    0    0  503  502 -0.00000000000E+00 -0.00000000000E+00 -0.10064677271E+03  0.10064677271E+03  0.00000000000E+00 0. -1.
         21    1    1    2  503  501 -0.40820265011E+01  0.20586337863E+02 -0.95347969369E+01  0.23051520548E+02  0.00000000000E+00 0. -1.
         21    1    1    2  504  502  0.40820265011E+01 -0.20586337863E+02 -0.83048215694E+02  0.85659012234E+02  0.00000000000E+00 0. -1.
</event>
<event>
 4    1  0.1602044E+006  0.2207880E+02  0.7546771E-02  0.1504401E+00
         21   -1    0    0  503  501  0.00000000000E+00  0.00000000000E+00  0.41286496453E+02  0.41286496453E+02  0.00000000000E+00 0. -1.
         21   -1    0    0  504  502 -0.00000000000E+00 -0.00000000000E+00 -0.18514044391E+02  0.18514044391E+02  0.00000000000E+00 0.  1.
         21    1    1    2  503  502 -0.21619606577E+02  0.44794877726E+01  0.29382694243E+02  0.36753447732E+02  0.00000000000E+00 0. -1.
         21    1    1    2  504  501  0.21619606577E+02 -0.44794877726E+01 -0.66102421807E+01  0.23047093112E+02  0.00000000000E+00 0.  1.
</event>
<event>
 4    1  0.1602044E+006  0.2449215E+02  0.7546771E-02  0.1474566E+00
         21   -1    0    0  503  501  0.00000000000E+00  0.00000000000E+00  0.47325786153E+02  0.47325786153E+02  0.00000000000E+00 0.  1.
         21   -1    0    0  504  502 -0.00000000000E+00 -0.00000000000E+00 -0.14209834111E+02  0.14209834111E+02  0.00000000000E+00 0.  1.
         21    1    1    2  503  502  0.14180212823E+02  0.19969648903E+02  0.64468389799E+01  0.25326410047E+02  0.00000000000E+00 0.  1.
         21    1    1    2  504  501 -0.14180212823E+02 -0.19969648903E+02  0.26669113062E+02  0.36209210217E+02  0.00000000000E+00 0.  1.
</event>
<event>
 4    1  0.1602044E+006  0.2528826E+02  0.7546771E-02  0.1465604E+00
         21   -1    0    0  504  501  0.00000000000E+00  0.00000000000E+00  0.26498861228E+02  0.26498861228E+02  0.00000000000E+00 0. -1.
         21   -1    0    0  503  502 -0.00000000000E+00 -0.00000000000E+00 -0.34432085465E+02  0.34432085465E+02  0.00000000000E+00 0. -1.
         21    1    1    2  503  501  0.12514805502E+02  0.21974430508E+02 -0.20628585829E+02  0.32634866419E+02  0.00000000000E+00 0. -1.
         21    1    1    2  504  502 -0.12514805502E+02 -0.21974430508E+02  0.12695361593E+02  0.28296080274E+02  0.00000000000E+00 0. -1.
</event>
<event>
 4    1  0.1602044E+006  0.2085800E+02  0.7546771E-02  0.1521302E+00
         21   -1    0    0  502  501  0.00000000000E+00  0.00000000000E+00  0.21324235212E+02  0.21324235212E+02  0.00000000000E+00 0.  1.
         21   -1    0    0  504  502 -0.00000000000E+00 -0.00000000000E+00 -0.35383118410E+02  0.35383118410E+02  0.00000000000E+00 0. -1.
         21    1    1    2  503  501  0.10030423916E+02 -0.18287880844E+02  0.11420040045E+02  0.23779682595E+02  0.00000000000E+00 0.  1.
         21    1    1    2  504  503 -0.10030423916E+02  0.18287880844E+02 -0.25478923243E+02  0.32927671028E+02  0.00000000000E+00 0. -1.
</event>
<event>
 4    1  0.1602044E+006  0.3136310E+02  0.7546771E-02  0.1408110E+00
         21   -1    0    0  503  501  0.00000000000E+00  0.00000000000E+00  0.36194621127E+01  0.36194621127E+01  0.00000000000E+00 0. -1.
         21   -1    0    0  504  502 -0.00000000000E+00 -0.00000000000E+00 -0.27455571621E+03  0.27455571621E+03  0.00000000000E+00 0. -1.
         21    1    1    2  503  502 -0.20991357806E+02 -0.23302502958E+02 -0.12144588294E+03  0.12543024447E+03  0.00000000000E+00 0. -1.
         21    1    1    2  504  501  0.20991357806E+02  0.23302502958E+02 -0.14949037116E+03  0.15274493385E+03  0.00000000000E+00 0. -1.
</event>
<event>
 4    1  0.1602044E+006  0.2655333E+02  0.7546771E-02  0.1452147E+00
         21   -1    0    0  504  501  0.00000000000E+00  0.00000000000E+00  0.25790736550E+02  0.25790736550E+02  0.00000000000E+00 0. -1.
         21   -1    0    0  503  502 -0.00000000000E+00 -0.00000000000E+00 -0.79093365019E+02  0.79093365019E+02  0.00000000000E+00 0. -1.
         21    1    1    2  503  501 -0.23973081903E+00 -0.26552246916E+02 -0.69072749164E+02  0.74000837591E+02  0.00000000000E+00 0. -1.
         21    1    1    2  504  502  0.23973081903E+00  0.26552246916E+02  0.15770120695E+02  0.30883263977E+02  0.00000000000E+00 0. -1.
</event>
<event>
 4    1  0.1602044E+006  0.2434522E+02  0.7546771E-02  0.1476263E+00
         21   -1    0    0  504  501  0.00000000000E+00  0.00000000000E+00  0.28481269588E+03  0.28481269588E+03  0.00000000000E+00 0. -1.
         21   -1    0    0  503  502 -0.00000000000E+00 -0.00000000000E+00 -0.23347786118E+02  0.23347786118E+02  0.00000000000E+00 0. -1.
         21    1    1    2  503  501 -0.62777439806E+01  0.23521895304E+02 -0.16320998582E+02  0.29309804211E+02  0.00000000000E+00 0. -1.
         21    1    1    2  504  502  0.62777439806E+01 -0.23521895304E+02  0.27778590835E+03  0.27885067779E+03  0.00000000000E+00 0. -1.
</event>
<event>
 4    1  0.1602044E+006  0.5773561E+02  0.7546771E-02  0.1267726E+00
         21   -1    0    0  504  501  0.00000000000E+00  0.00000000000E+00  0.78563785049E+02  0.78563785049E+02  0.00000000000E+00 0.  1.
         21   -1    0    0  503  502 -0.00000000000E+00 -0.00000000000E+00 -0.45983177463E+02  0.45983177463E+02  0.00000000000E+00 0.  1.
         21    1    1    2  503  501  0.57635955594E+02 -0.33908241330E+01 -0.10221661732E+01  0.57744661131E+02  0.00000000000E+00 0.  1.
         21    1    1    2  504  502 -0.57635955594E+02  0.33908241330E+01  0.33602773759E+02  0.66802301381E+02  0.00000000000E+00 0.  1.
</event>
<event>
 4    1  0.1602044E+006  0.2077128E+02  0.7546771E-02  0.1522556E+00
         21   -1    0    0  504  501  0.00000000000E+00  0.00000000000E+00  0.47688020179E+02  0.47688020179E+02  0.00000000000E+00 0.  1.
         21   -1    0    0  501  502 -0.00000000000E+00 -0.00000000000E+00 -0.27415127290E+02  0.27415127290E+02  0.00000000000E+00 0.  1.
         21    1    1    2  503  502  0.18477816581E+02 -0.94876849365E+01 -0.20600617953E+02  0.29254595043E+02  0.00000000000E+00 0.  1.
         21    1    1    2  504  503 -0.18477816581E+02  0.94876849365E+01  0.40873510842E+02  0.45848552427E+02  0.00000000000E+00 0.  1.
</event>
<event>
 4    1  0.1602044E+006  0.2691466E+02  0.7546771E-02  0.1448467E+00
         21   -1    0    0  502  501  0.00000000000E+00  0.00000000000E+00  0.37172067709E+02  0.37172067709E+02  0.00000000000E+00 0.  1.
         21   -1    0    0  503  502 -0.00000000000E+00 -0.00000000000E+00 -0.18978246229E+03  0.18978246229E+03  0.00000000000E+00 0.  1.
         21    1    1    2  503  504  0.21260283831E+02  0.16504528562E+02 -0.18379850616E+03  0.18575868755E+03  0.00000000000E+00 0.  1.
         21    1    1    2  504  501 -0.21260283831E+02 -0.16504528562E+02  0.31188111579E+02  0.41195842454E+02  0.00000000000E+00 0.  1.
</event>
<event>
 4    1  0.1602044E+006  0.2775765E+02  0.7546771E-02  0.1440142E+00
         21   -1    0    0  504  501  0.00000000000E+00  0.00000000000E+00  0.29886252871E+02  0.29886252871E+02  0.00000000000E+00 0.  1.
         21   -1    0    0  503  502 -0.00000000000E+00 -0.00000000000E+00 -0.44193267813E+02  0.44193267813E+02  0.00000000000E+00 0.  1.
         21    1    1    2  503  501  0.10946819958E+02  0.25507927539E+02 -0.31061757923E+02  0.41657172729E+02  0.00000000000E+00 0.  1.
         21    1    1    2  504  502 -0.10946819958E+02 -0.25507927539E+02  0.16754742980E+02  0.32422347954E+02  0.00000000000E+00 0.  1.
</event>
<event>
 4    1  0.1602044E+006  0.3372571E+02  0.7546771E-02  0.1389750E+00
         21   -1    0    0  503  501  0.00000000000E+00  0.00000000000E+00  0.39847325739E+03  0.39847325739E+03  0.00000000000E+00 0.  1.
         21   -1    0    0  501  502 -0.00000000000E+00 -0.00000000000E+00 -0.72493509300E+02  0.72493509300E+02  0.00000000000E+00 0.  1.
         21    1    1    2  503  504 -0.31222579070E+02  0.12750455475E+02  0.39379058420E+03  0.39523214414E+03  0.00000000000E+00 0.  1.
         21    1    1    2  504  502  0.31222579070E+02 -0.12750455475E+02 -0.67810836109E+02  0.75734622548E+02  0.00000000000E+00 0.  1.
</event>
<event>
 4    1  0.1602044E+006  0.2598346E+02  0.7546771E-02  0.1458096E+00
         21   -1    0    0  504  501  0.00000000000E+00  0.00000000000E+00  0.29052527399E+03  0.29052527399E+03  0.00000000000E+00 0. -1.
         21   -1    0    0  503  502 -0.00000000000E+00 -0.00000000000E+00 -0.50452951646E+01  0.50452951646E+01  0.00000000000E+00 0.  1.
         21    1    1    2  503  501 -0.76541620465E+01 -0.24830500851E+02  0.34200712318E+02  0.42951469034E+02  0.00000000000E+00 0.  1.
         21    1    1    2  504  502  0.76541620465E+01  0.24830500851E+02  0.25127926651E+03  0.25261910012E+03  0.00000000000E+00 0. -1.
</event>
<event>
 4    1  0.1602044E+006  0.3229468E+02  0.7546771E-02  0.1400650E+00
         21   -1    0    0  504  501  0.00000000000E+00  0.00000000000E+00  0.55316887066E+03  0.55316887066E+03  0.00000000000E+00 0. -1.
         21   -1    0    0  503  502 -0.00000000000E+00 -0.00000000000E+00 -0.59918172270E+01  0.59918172270E+01  0.00000000000E+00 0.  1.
         21    1    1    2  503  501  0.30517218845E+02 -0.10566256635E+02  0.50503934322E+03  0.50607082965E+03  0.00000000000E+00 0. -1.
         21    1    1    2  504  502 -0.30517218845E+02  0.10566256635E+02  0.42137710213E+02  0.53089858234E+02  0.00000000000E+00 0.  1.
</event>
<event>
 4    1  0.1602044E+006  0.2226423E+02  0.7546771E-02  0.1501950E+00
         21   -1    0    0  504  501  0.00000000000E+00  0.00000000000E+00  0.68418858891E+02  0.68418858891E+02  0.00000000000E+00 0. -1.
         21   -1    0    0  503  502 -0.00000000000E+00 -0.00000000000E+00 -0.78474567865E+01  0.78474567865E+01  0.00000000000E+00 0. -1.
         21    1    1    2  503  501 -0.19315498332E+02 -0.11072829578E+02  0.40851294371E+02  0.46524448223E+02  0.00000000000E+00 0. -1.
         21    1    1    2  504  502  0.19315498332E+02  0.11072829578E+02  0.19720107734E+02  0.29741867455E+02  0.00000000000E+00 0. -1.
</event>
<event>
 4    1  0.1602044E+006  0.2060120E+02  0.7546771E-02  0.1525036E+00
         21   -1    0    0  503  501  0.00000000000E+00  0.00000000000E+00  0.26902640529E+01  0.26902640529E+01  0.00000000000E+00 0. -1.
         21   -1    0    0  504  502 -0.00000000000E+00 -0.00000000000E+00 -0.18972842775E+03  0.18972842775E+03  0.00000000000E+00 0. -1.
         21    1    1    2  503  502 -0.18809471496E+02  0.84031619906E+01 -0.54025308270E+02  0.57819921161E+02  0.00000000000E+00 0. -1.
         21    1    1    2  504  501  0.18809471496E+02 -0.84031619906E+01 -0.13301285543E+03  0.13459877064E+03  0.00000000000E+00 0. -1.
</event>
<event>
 4    1  0.1602044E+006  0.2226071E+02  0.7546771E-02  0.1501996E+00
         21   -1    0    0  503  501  0.00000000000E+00  0.00000000000E+00  0.48899728189E+02  0.48899728189E+02  0.00000000000E+00 0.  1.
         21   -1    0    0  504  502 -0.00000000000E+00 -0.00000000000E+00 -0.48816784255E+02  0.48816784255E+02  0.00000000000E+00 0.  1.
         21    1    1    2  503  502  0.13886279177E+02 -0.17398573217E+02  0.43533882163E+02  0.48895173540E+02  0.00000000000E+00 0.  1.
         21    1    1    2  504  501 -0.13886279177E+02  0.17398573217E+02 -0.43450938228E+02  0.48821338903E+02  0.00000000000E+00 0.  1.
</event>
<event>
 4    1  0.1602044E+006  0.3358549E+02  0.7546771E-02  0.1390790E+00
         21   -1    0    0  503  501  0.00000000000E+00  0.00000000000E+00  0.72094692596E+01  0.72094692596E+01  0.00000000000E+00 0.  1.
         21   -1    0    0  504  502 -0.00000000000E+00 -0.00000000000E+00 -0.31056312740E+03  0.31056312740E+03  0.00000000000E+00 0. -1.
         21    1    1    2  503  502  0.48758528167E+01  0.33229669874E+02 -0.39753937909E+02  0.52041910802E+02  0.00000000000E+00 0.  1.
         21    1    1    2  504  501 -0.48758528167E+01 -0.33229669874E+02 -0.26359972023E+03  0.26573068586E+03  0.00000000000E+00 0. -1.
</event>
<event>
 4    1  0.1602044E+006  0.2265459E+02  0.7546771E-02  0.1496882E+00
         21   -1    0    0  503  501  0.00000000000E+00  0.00000000000E+00  0.69174274085E+02  0.69174274085E+02  0.00000000000E+00 0.  1.
         21   -1    0    0  504  502 -0.00000000000E+00 -0.00000000000E+00 -0.12857643397E+02  0.12857643397E+02  0.00000000000E+00 0.  1.
         21    1    1    2  503  502  0.20454104799E+02  0.97396153778E+01  0.14834562580E+01  0.22703108891E+02  0.00000000000E+00 0.  1.
         21    1    1    2  504  501 -0.20454104799E+02 -0.97396153778E+01  0.54833174429E+02  0.59328808591E+02  0.00000000000E+00 0.  1.
</event>
<event>
 4    1  0.1602044E+006  0.2660502E+02  0.7546771E-02  0.1451617E+00
         21   -1    0    0  504  501  0.00000000000E+00  0.00000000000E+00  0.77497189693E+01  0.77497189693E+01  0.00000000000E+00 0. -1.
         21   -1    0    0  501  502 -0.00000000000E+00 -0.00000000000E+00 -0.19184676683E+03  0.19184676683E+03  0.00000000000E+00 0. -1.
         21    1    1    2  503  502  0.97894478518E+01 -0.24738513778E+02 -0.16428427932E+03  0.16642461292E+03  0.00000000000E+00 0. -1.
         21    1    1    2  504  503 -0.97894478518E+01  0.24738513778E+02 -0.19812768539E+02  0.33171872880E+02  0.00000000000E+00 0. -1.
</event>
<event>
 4    1  0.1602044E+006  0.2527648E+02  0.7546771E-02  0.1465734E+00
         21   -1    0    0  503  501  0.00000000000E+00  0.00000000000E+00  0.97728321737E+02  0.97728321737E+02  0.00000000000E+00 0.  1.
         21   -1    0    0  504  502 -0.00000000000E+00 -0.00000000000E+00 -0.15734572434E+02  0.15734572434E+02  0.00000000000E+00 0.  1.
         21    1    1    2  503  502 -0.12170922433E+02  0.22153309303E+02  0.84370009698E+02  0.88074962404E+02  0.00000000000E+00 0.  1.
         21    1    1    2  504  501  0.12170922433E+02 -0.22153309303E+02 -0.23762603946E+01  0.25387931767E+02  0.00000000000E+00 0.  1.
</event>
<event>
 4    1  0.1602044E+006  0.5554466E+02  0.7546771E-02  0.1275771E+00
         21   -1    0    0  504  501  0.00000000000E+00  0.00000000000E+00  0.37202115196E+02  0.37202115196E+02  0.00000000000E+00 0. -1.
         21   -1    0    0  503  502 -0.00000000000E+00 -0.00000000000E+00 -0.78355510397E+03  0.78355510397E+03  0.00000000000E+00 0. -1.
         21    1    1    2  503  501 -0.16464407855E+02 -0.53048401615E+02 -0.76123076962E+03  0.76325454094E+03  0.00000000000E+00 0. -1.
         21    1    1    2  504  502  0.16464407855E+02  0.53048401615E+02  0.14877780853E+02  0.57502678225E+02  0.00000000000E+00 0. -1.
</event>
<event>
 4    1  0.1602044E+006  0.2499159E+02  0.7546771E-02  0.1468897E+00
         21   -1    0    0  503  501  0.00000000000E+00  0.00000000000E+00  0.79874727273E+03  0.79874727273E+03  0.00000000000E+00 0. -1.
         21   -1    0    0  504  502 -0.00000000000E+00 -0.00000000000E+00 -0.30250377257E+02  0.30250377257E+02  0.00000000000E+00 0. -1.
         21    1    1    2  503  502  0.63727178356E+01 -0.24165432838E+02 -0.24858063914E+02  0.35249156280E+02  0.00000000000E+00 0. -1.
         21    1    1    2  504  501 -0.63727178356E+01  0.24165432838E+02  0.79335495938E+03  0.79374849370E+03  0.00000000000E+00 0. -1.
</event>
<event>
 4    1  0.1602044E+006  0.2009189E+02  0.7546771E-02  0.1532636E+00
         21   -1    0    0  504  501  0.00000000000E+00  0.00000000000E+00  0.17984638508E+02  0.17984638508E+02  0.00000000000E+00 0.  1.
         21   -1    0    0  503  502 -0.00000000000E+00 -0.00000000000E+00 -0.46421204903E+02  0.46421204903E+02  0.00000000000E+00 0. -1.
         21    1    1    2  503  501 -0.17676300511E+02  0.95515579639E+01 -0.37361189735E+02  0.42421013162E+02  0.00000000000E+00 0. -1.
         21    1    1    2  504  502  0.17676300511E+02 -0.95515579639E+01  0.89246233404E+01  0.21984830248E+02  0.00000000000E+00 0.  1.
</event>
<event>
 4    1  0.1602044E+006  0.3563207E+02  0.7546771E-02  0.1376173E+00
         21   -1    0    0  503  501  0.00000000000E+00  0.00000000000E+00  0.19732653262E+03  0.19732653262E+03  0.00000000000E+00 0.  1.
         21   -1    0    0  504  502 -0.00000000000E+00 -0.00000000000E+00 -0.10849336838E+02  0.10849336838E+02  0.00000000000E+00 0.  1.
         21    1    1    2  503  502  0.31464843467E+02  0.16721478873E+02  0.26838392899E+02  0.44608783479E+02  0.00000000000E+00 0.  1.
         21    1    1    2  504  501 -0.31464843467E+02 -0.16721478873E+02  0.15963880288E+03  0.16356708598E+03  0.00000000000E+00 0.  1.
</event>
<event>
 4    1  0.1602044E+006  0.2250509E+02  0.7546771E-02  0.1498808E+00
         21   -1    0    0  504  501  0.00000000000E+00  0.00000000000E+00  0.38164660319E+03  0.38164660319E+03  0.00000000000E+00 0. -1.
         21   -1    0    0  501  502 -0.00000000000E+00 -0.00000000000E+00 -0.39982901469E+03  0.39982901469E+03  0.00000000000E+00 0.  1.
         21    1    1    2  503  502 -0.21371120531E+02 -0.70536849978E+01 -0.39918001838E+03  0.39981391464E+03  0.00000000000E+00 0.  1.
         21    1    1    2  504  503  0.21371120531E+02  0.70536849978E+01  0.38099760688E+03  0.38166170324E+03  0.00000000000E+00 0. -1.
</event>
<event>
 4    1  0.1602044E+006  0.3785042E+02  0.7546771E-02  0.1361564E+00
         21   -1    0    0  502  501  0.00000000000E+00  0.00000000000E+00  0.16949581614E+02  0.16949581614E+02  0.00000000000E+00 0.  1.
         21   -1    0    0  503  502 -0.00000000000E+00 -0.00000000000E+00 -0.16688639772E+03  0.16688639772E+03  0.00000000000E+00 0. -1.
         21    1    1    2  503  504  0.11851038532E+02 -0.35947278866E+02 -0.13954176516E+03  0.14458408694E+03  0.00000000000E+00 0. -1.
         21    1    1    2  504  501 -0.11851038532E+02  0.35947278866E+02 -0.10395050940E+02  0.39251892390E+02  0.00000000000E+00 0.  1.
</event>
<event>
 4    1  0.1602044E+006  0.2921877E+02  0.7546771E-02  0.1426509E+00
         21   -1    0    0  502  501  0.00000000000E+00  0.00000000000E+00  0.10782525801E+03  0.10782525801E+03  0.00000000000E+00 0.  1.
         21   -1    0    0  504  502 -0.00000000000E+00 -0.00000000000E+00 -0.30566410746E+02  0.30566410746E+02  0.00000000000E+00 0.  1.
         21    1    1    2  503  501 -0.18593709825E+02  0.22539086421E+02  0.98192719699E+02  0.10244777530E+03  0.00000000000E+00 0.  1.
         21    1    1    2  504  503  0.18593709825E+02 -0.22539086421E+02 -0.20933872435E+02  0.35943893458E+02  0.00000000000E+00 0.  1.
</event>
<event>
 4    1  0.1602044E+006  0.2432843E+02  0.7546771E-02  0.1476458E+00
         21   -1    0    0  504  501  0.00000000000E+00  0.00000000000E+00  0.24925006084E+01  0.24925006084E+01  0.00000000000E+00 0. -1.
         21   -1    0    0  503  502 -0.00000000000E+00 -0.00000000000E+00 -0.49961720190E+03  0.49961720190E+03  0.00000000000E+00 0. -1.
         21    1    1    2  503  501 -0.24326272778E+02 -0.32395939526E+00 -0.66705475006E+02  0.71003470991E+02  0.00000000000E+00 0. -1.
         21    1    1    2  504  502  0.24326272778E+02  0.32395939526E+00 -0.43041922629E+03  0.43110623152E+03  0.00000000000E+00 0. -1.
</event>
<event>
 4    1  0.1602044E+006  0.2045138E+02  0.7546771E-02  0.1527244E+00
         21   -1    0    0  503  501  0.00000000000E+00  0.00000000000E+00  0.55388346207E+02  0.55388346207E+02  0.00000000000E+00 0.  1.
         21   -1    0    0  504  502 -0.00000000000E+00 -0.00000000000E+00 -0.16344871151E+02  0.16344871151E+02  0.00000000000E+00 0. -1.
         21    1    1    2  503  502  0.73295228909E+01  0.19092858140E+02  0.45829258332E+02  0.50185456629E+02  0.00000000000E+00 0.  1.
         21    1    1    2  504  501 -0.73295228909E+01 -0.19092858140E+02 -0.67857832756E+01  0.21547760729E+02  0.00000000000E+00 0. -1.
</event>
<event>
 4    1  0.1602044E+006  0.2776012E+02  0.7546771E-02  0.1440118E+00
         21   -1    0    0  502  501  0.00000000000E+00  0.00000000000E+00  0.18192507305E+03  0.18192507305E+03  0.00000000000E+00 0.  1.
         21   -1    0    0  503  502 -0.00000000000E+00 -0.00000000000E+00 -0.57280531490E+02  0.57280531490E+02  0.00000000000E+00 0. -1.
         21    1    1    2  503  504 -0.19410379515E+02  0.19845946742E+02 -0.52773237082E+02  0.59629178990E+02  0.00000000000E+00 0. -1.
         21    1    1    2  504  501  0.19410379515E+02 -0.19845946742E+02  0.17741777864E+03  0.17957642555E+03  0.00000000000E+00 0.  1.
</event>
<event>
 4    1  0.1602044E+006  0.2157995E+02  0.7546771E-02  0.1511143E+00
         21   -1    0    0  504  501  0.00000000000E+00  0.00000000000E+00  0.19592529687E+03  0.19592529687E+03  0.00000000000E+00 0.  1.
         21   -1    0    0  503  502 -0.00000000000E+00 -0.00000000000E+00 -0.17030106435E+02  0.17030106435E+02  0.00000000000E+00 0.  1.
         21    1    1    2  503  501  0.20284613408E+02 -0.73640039580E+01 -0.93204315405E+01  0.23506691377E+02  0.00000000000E+00 0.  1.
         21    1    1    2  504  502 -0.20284613408E+02  0.73640039580E+01  0.18821562198E+03  0.18944871193E+03  0.00000000000E+00 0.  1.
</event>
<event>
 4    1  0.1602044E+006  0.2414970E+02  0.7546771E-02  0.1478545E+00
         21   -1    0    0  504  501  0.00000000000E+00  0.00000000000E+00  0.10009970612E+02  0.10009970612E+02  0.00000000000E+00 0.  1.
         21   -1    0    0  503  502 -0.00000000000E+00 -0.00000000000E+00 -0.59582176656E+02  0.59582176656E+02  0.00000000000E+00 0.  1.
         21    1    1    2  503  501 -0.21177653652E+02  0.11606678416E+02 -0.29964216275E+02  0.38484571649E+02  0.00000000000E+00 0.  1.
         21    1    1    2  504  502  0.21177653652E+02 -0.11606678416E+02 -0.19607989769E+02  0.31107575618E+02  0.00000000000E+00 0.  1.
</event>
<event>
 4    1  0.1602044E+006  0.2195505E+02  0.7546771E-02  0.1506054E+00
         21   -1    0    0  503  501  0.00000000000E+00  0.00000000000E+00  0.43075859727E+02  0.43075859727E+02  0.00000000000E+00 0.  1.
         21   -1    0    0  504  502 -0.00000000000E+00 -0.00000000000E+00 -0.29042088468E+02  0.29042088468E+02  0.00000000000E+00 0. -1.
         21    1    1    2  503  502 -0.21078084320E+02 -0.61431771284E+01  0.35287968051E+02  0.41560377200E+02  0.00000000000E+00 0.  1.
         21    1    1    2  504  501  0.21078084320E+02  0.61431771284E+01 -0.21254196792E+02  0.30557570995E+02  0.00000000000E+00 0. -1.
</event>
<event>
 4    1  0.1602044E+006  0.2120067E+02  0.7546771E-02  0.1516419E+00
         21   -1    0    0  504  501  0.00000000000E+00  0.00000000000E+00  0.48410353910E+02  0.48410353910E+02  0.00000000000E+00 0.  1.
         21   -1    0    0  501  502 -0.00000000000E+00 -0.00000000000E+00 -0.17170424860E+02  0.17170424860E+02  0.00000000000E+00 0.  1.
         21    1    1    2  503  502  0.47766192005E+01 -0.20655564477E+02 -0.66019230616E+01  0.22204815310E+02  0.00000000000E+00 0.  1.
         21    1    1    2  504  503 -0.47766192005E+01  0.20655564477E+02  0.37841852112E+02  0.43375963460E+02  0.00000000000E+00 0.  1.
</event>
<event>
 4    1  0.1602044E+006  0.2211637E+02  0.7546771E-02  0.1503902E+00
         21   -1    0    0  503  501  0.00000000000E+00  0.00000000000E+00  0.53944970748E+02  0.53944970748E+02  0.00000000000E+00 0.  1.
         21   -1    0    0  501  502 -0.00000000000E+00 -0.00000000000E+00 -0.92103277989E+02  0.92103277989E+02  0.00000000000E+00 0.  1.
         21    1    1    2  503  504  0.15828937904E+02 -0.15445985157E+02  0.50257366243E+02  0.54908438279E+02  0.00000000000E+00 0.  1.
         21    1    1    2  504  502 -0.15828937904E+02  0.15445985157E+02 -0.88415673484E+02  0.91139810458E+02  0.00000000000E+00 0.  1.
</event>
<event>
 4    1  0.1602044E+006  0.2223443E+02  0.7546771E-02  0.1502342E+00
         21   -1    0    0  504  501  0.00000000000E+00  0.00000000000E+00  0.19280121849E+04  0.19280121849E+04  0.00000000000E+00 0. -1.
         21   -1    0    0  501  502 -0.00000000000E+00 -0.00000000000E+00 -0.40407736613E+00  0.40407736613E+00  0.00000000000E+00 0. -1.
         21    1    1    2  503  502  0.14182786754E+02 -0.17123617585E+02  0.38093016289E+03  0.38157850924E+03  0.00000000000E+00 0. -1.
         21    1    1    2  504  503 -0.14182786754E+02  0.17123617585E+02  0.15466779446E+04  0.15468377530E+04  0.00000000000E+00 0. -1.
</event>
<event>
 4    1  0.1602044E+006  0.3233153E+02  0.7546771E-02  0.1400361E+00
         21   -1    0    0  504  501  0.00000000000E+00  0.00000000000E+00  0.16508189101E+04  0.16508189101E+04  0.00000000000E+00 0. -1.
         21   -1    0    0  503  502 -0.00000000000E+00 -0.00000000000E+00 -0.25012684702E+01  0.25012684702E+01  0.00000000000E+00 0. -1.
         21    1    1    2  503  501 -0.70951186659E+01 -0.31543413570E+02  0.15385583528E+04  0.15388980255E+04  0.00000000000E+00 0. -1.
         21    1    1    2  504  502  0.70951186659E+01  0.31543413570E+02  0.10975928880E+03  0.11442215313E+03  0.00000000000E+00 0. -1.
</event>
<event>
 4    1  0.1602044E+006  0.2508889E+02  0.7546771E-02  0.1467811E+00
         21   -1    0    0  502  501  0.00000000000E+00  0.00000000000E+00  0.30918328370E+03  0.30918328370E+03  0.00000000000E+00 0.  1.
         21   -1    0    0  504  502 -0.00000000000E+00 -0.00000000000E+00 -0.62693173597E+02  0.62693173597E+02  0.00000000000E+00 0.  1.
         21    1    1    2  503  501  0.24902312267E+02 -0.30540317859E+01  0.30613935339E+03  0.30716568161E+03  0.00000000000E+00 0.  1.
         21    1    1    2  504  503 -0.24902312267E+02  0.30540317859E+01 -0.59649243282E+02  0.64710775691E+02  0.00000000000E+00 0.  1.
</event>
<event>
 4    1  0.1602044E+006  0.3799657E+02  0.7546771E-02  0.1360643E+00
         21   -1    0    0  504  501  0.00000000000E+00  0.00000000000E+00  0.21684392936E+03  0.21684392936E+03  0.00000000000E+00 0. -1.
         21   -1    0    0  503  502 -0.00000000000E+00 -0.00000000000E+00 -0.73511595962E+01  0.73511595962E+01  0.00000000000E+00 0. -1.
         21    1    1    2  503  501 -0.89169999821E+01  0.36935438287E+02  0.70323642088E+02  0.79932184548E+02  0.00000000000E+00 0. -1.
         21    1    1    2  504  502  0.89169999821E+01 -0.36935438287E+02  0.13916912767E+03  0.14426290440E+03  0.00000000000E+00 0. -1.
</event>
<event>
 4    1  0.1602044E+006  0.2054958E+02  0.7546771E-02  0.1525794E+00
         21   -1    0    0  502  501  0.00000000000E+00  0.00000000000E+00  0.54228360921E+03  0.54228360921E+03  0.00000000000E+00 0. -1.
         21   -1    0    0  503  502 -0.00000000000E+00 -0.00000000000E+00 -0.11361442367E+03  0.11361442367E+03  0.00000000000E+00 0.  1.
         21    1    1    2  503  504 -0.16928997786E+02 -0.11648794268E+02 -0.11248860482E+03  0.11435021464E+03  0.00000000000E+00 0.  1.
         21    1    1    2  504  501  0.16928997786E+02  0.11648794268E+02  0.54115779036E+03  0.54154781824E+03  0.00000000000E+00 0. -1.
</event>
<event>
 4    1  0.1602044E+006  0.2871606E+02  0.7546771E-02  0.1431092E+00
         21   -1    0    0  502  501  0.00000000000E+00  0.00000000000E+00  0.11218032790E+03  0.11218032790E+03  0.00000000000E+00 0.  1.
         21   -1    0    0  504  502 -0.00000000000E+00 -0.00000000000E+00 -0.24468463060E+02  0.24468463060E+02  0.00000000000E+00 0.  1.
         21    1    1    2  503  501 -0.19671690311E+02 -0.20919770032E+02  0.10100314155E+03  0.10500593688E+03  0.00000000000E+00 0.  1.
         21    1    1    2  504  503  0.19671690311E+02  0.20919770032E+02 -0.13291276706E+02  0.31642854080E+02  0.00000000000E+00 0.  1.
</event>
<event>
 4    1  0.1602044E+006  0.2215233E+02  0.7546771E-02  0.1503426E+00
         21   -1    0    0  504  501  0.00000000000E+00  0.00000000000E+00  0.20669283145E+02  0.20669283145E+02  0.00000000000E+00 0. -1.
         21   -1    0    0  503  502 -0.00000000000E+00 -0.00000000000E+00 -0.65871661622E+02  0.65871661622E+02  0.00000000000E+00 0.  1.
         21    1    1    2  503  501 -0.21629813113E+02  0.47830000017E+01  0.12003692063E+02  0.25195525941E+02  0.00000000000E+00 0. -1.
         21    1    1    2  504  502  0.21629813113E+02 -0.47830000017E+01 -0.57206070539E+02  0.61345418825E+02  0.00000000000E+00 0.  1.
</event>
<event>
 4    1  0.1602044E+006  0.2026036E+02  0.7546771E-02  0.1530092E+00
         21   -1    0    0  503  501  0.00000000000E+00  0.00000000000E+00  0.26214046137E+02  0.26214046137E+02  0.00000000000E+00 0. -1.
         21   -1    0    0  504  502 -0.00000000000E+00 -0.00000000000E+00 -0.10407861116E+04  0.10407861116E+04  0.00000000000E+00 0. -1.
         21    1    1    2  503  502  0.27134096888E+01 -0.20077841926E+02  0.22185519688E+02  0.30044627013E+02  0.00000000000E+00 0. -1.
         21    1    1    2  504  501 -0.27134096888E+01  0.20077841926E+02 -0.10367575851E+04  0.10369555307E+04  0.00000000000E+00 0. -1.
</event>
<event>
 4    1  0.1602044E+006  0.2477854E+02  0.7546771E-02  0.1471296E+00
         21   -1    0    0  503  501  0.00000000000E+00  0.00000000000E+00  0.83631514185E+02  0.83631514185E+02  0.00000000000E+00 0.  1.
         21   -1    0    0  504  502 -0.00000000000E+00 -0.00000000000E+00 -0.85444072843E+01  0.85444072843E+01  0.00000000000E+00 0.  1.
         21    1    1    2  503  502 -0.24642977332E+02 -0.25883438707E+01  0.54836666768E+02  0.60175043647E+02  0.00000000000E+00 0.  1.
         21    1    1    2  504  501  0.24642977332E+02  0.25883438707E+01  0.20250440133E+02  0.32000877822E+02  0.00000000000E+00 0.  1.
</event>
<event>
 4    1  0.1602044E+006  0.2305565E+02  0.7546771E-02  0.1491801E+00
         21   -1    0    0  503  501  0.00000000000E+00  0.00000000000E+00  0.20388630163E+03  0.20388630163E+03  0.00000000000E+00 0.  1.
         21   -1    0    0  504  502 -0.00000000000E+00 -0.00000000000E+00 -0.65928045779E+01  0.65928045779E+01  0.00000000000E+00 0.  1.
         21    1    1    2  503  502 -0.19506150669E+02  0.12291182223E+02  0.18047315542E+03  0.18193988816E+03  0.00000000000E+00 0.  1.
         21    1    1    2  504  501  0.19506150669E+02 -0.12291182223E+02  0.16820341626E+02  0.28539218047E+02  0.00000000000E+00 0.  1.
</event>
<event>
 4    1  0.1602044E+006  0.2062101E+02  0.7546771E-02  0.1524745E+00
         21   -1    0    0  504  501  0.00000000000E+00  0.00000000000E+00  0.57191452748E+02  0.57191452748E+02  0.00000000000E+00 0.  1.
         21   -1    0    0  503  502 -0.00000000000E+00 -0.00000000000E+00 -0.10313554126E+02  0.10313554126E+02  0.00000000000E+00 0.  1.
         21    1    1    2  503  501 -0.47643550813E+00  0.20615502442E+02  0.56078077896E+01  0.21369919044E+02  0.00000000000E+00 0.  1.
         21    1    1    2  504  502  0.47643550813E+00 -0.20615502442E+02  0.41270090833E+02  0.46135087830E+02  0.00000000000E+00 0.  1.
</event>
<event>
 4    1  0.1602044E+006  0.2586368E+02  0.7546771E-02  0.1459369E+00
         21   -1    0    0  504  501  0.00000000000E+00  0.00000000000E+00  0.54305414817E+03  0.54305414817E+03  0.00000000000E+00 0. -1.
         21   -1    0    0  503  502 -0.00000000000E+00 -0.00000000000E+00 -0.13588118047E+01  0.13588118047E+01  0.00000000000E+00 0. -1.
         21    1    1    2  503  501  0.25536152458E+02 -0.41030253414E+01  0.35407271936E+03  0.35501608484E+03  0.00000000000E+00 0. -1.
         21    1    1    2  504  502 -0.25536152458E+02  0.41030253414E+01  0.18762261700E+03  0.18939687513E+03  0.00000000000E+00 0. -1.
</event>
<event>
 4    1  0.1602044E+006  0.2837808E+02  0.7546771E-02  0.1434235E+00
         21   -1    0    0  502  501  0.00000000000E+00  0.00000000000E+00  0.63760734558E+03  0.63760734558E+03  0.00000000000E+00 0.  1.
         21   -1    0    0  503  502 -0.00000000000E+00 -0.00000000000E+00 -0.44007372500E+01  0.44007372500E+01  0.00000000000E+00 0. -1.
         21    1    1    2  503  504  0.23207326564E+02 -0.16332033408E+02  0.45550318397E+02  0.53666999427E+02  0.00000000000E+00 0. -1.
         21    1    1    2  504  501 -0.23207326564E+02  0.16332033408E+02  0.58765628993E+03  0.58834108340E+03  0.00000000000E+00 0.  1.
</event>
<event>
 4    1  0.1602044E+006  0.3393309E+02  0.7546771E-02  0.1388223E+00
         21   -1    0    0  504  501  0.00000000000E+00  0.00000000000E+00  0.77597636075E+01  0.77597636075E+01  0.00000000000E+00 0.  1.
         21   -1    0    0  503  502 -0.00000000000E+00 -0.00000000000E+00 -0.17643632527E+03  0.17643632527E+03  0.00000000000E+00 0.  1.
         21    1    1    2  503  501  0.33150483695E+02  0.72456728742E+01 -0.47617548948E+02  0.58471234915E+02  0.00000000000E+00 0.  1.
         21    1    1    2  504  502 -0.33150483695E+02 -0.72456728742E+01 -0.12105901271E+03  0.12572485396E+03  0.00000000000E+00 0.  1.
</event>
<event>
 4    1  0.1602044E+006  0.2028001E+02  0.7546771E-02  0.1529797E+00
         21   -1    0    0  503  501  0.00000000000E+00  0.00000000000E+00  0.24404452710E+02  0.24404452710E+02  0.00000000000E+00 0. -1.
         21   -1    0    0  504  502 -0.00000000000E+00 -0.00000000000E+00 -0.22712210447E+02  0.22712210447E+02  0.00000000000E+00 0. -1.
         21    1    1    2  503  502  0.58284863038E+01  0.19424406744E+02  0.12812112047E+02  0.23988102156E+02  0.00000000000E+00 0. -1.
         21    1    1    2  504  501 -0.58284863038E+01 -0.19424406744E+02 -0.11119869784E+02  0.23128561000E+02  0.00000000000E+00 0. -1.
</event>
<event>
 4    1  0.1602044E+006  0.2740750E+02  0.7546771E-02  0.1443557E+00
         21   -1    0    0  503  501  0.00000000000E+00  0.00000000000E+00  0.29583451250E+02  0.29583451250E+02  0.00000000000E+00 0. -1.
         21   -1    0    0  504  502 -0.00000000000E+00 -0.00000000000E+00 -0.14566829245E+03  0.14566829245E+03  0.00000000000E+00 0. -1.
         21    1    1    2  503  502 -0.11066437353E+01  0.27385149367E+02 -0.13766579549E+03  0.14036752586E+03  0.00000000000E+00 0. -1.
         21    1    1    2  504  501  0.11066437353E+01 -0.27385149367E+02  0.21580954294E+02  0.34884217842E+02  0.00000000000E+00 0. -1.
</event>
<event>
 4    1  0.1602044E+006  0.2273906E+02  0.7546771E-02  0.1495801E+00
         21   -1    0    0  503  501  0.00000000000E+00  0.00000000000E+00  0.23380663798E+03  0.23380663798E+03  0.00000000000E+00 0.  1.
         21   -1    0    0  504  502 -0.00000000000E+00 -0.00000000000E+00 -0.22384075058E+01  0.22384075058E+01  0.00000000000E+00 0.  1.
         21    1    1    2  503  502  0.18559413516E+02  0.13138234581E+02  0.12872234323E+03  0.13071536515E+03  0.00000000000E+00 0.  1.
         21    1    1    2  504  501 -0.18559413516E+02 -0.13138234581E+02  0.10284588724E+03  0.10532968034E+03  0.00000000000E+00 0.  1.
</event>
<event>
 4    1  0.1602044E+006  0.2361911E+02  0.7546771E-02  0.1484867E+00
         21   -1    0    0  504  501  0.00000000000E+00  0.00000000000E+00  0.83133197475E+01  0.83133197475E+01  0.00000000000E+00 0.  1.
         21   -1    0    0  503  502 -0.00000000000E+00 -0.00000000000E+00 -0.33172441584E+03  0.33172441584E+03  0.00000000000E+00 0. -1.
         21    1    1    2  503  501 -0.20465156628E+02 -0.11791513051E+02 -0.98538891241E+01  0.25592216526E+02  0.00000000000E+00 0.  1.
         21    1    1    2  504  502  0.20465156628E+02  0.11791513051E+02 -0.31355720696E+03  0.31444551906E+03  0.00000000000E+00 0. -1.
</event>
<event>
 4    1  0.1602044E+006  0.3303056E+02  0.7546771E-02  0.1394964E+00
         21   -1    0    0  503  501  0.00000000000E+00  0.00000000000E+00  0.77922342764E+02  0.77922342764E+02  0.00000000000E+00 0.  1.
         21   -1    0    0  504  502 -0.00000000000E+00 -0.00000000000E+00 -0.10445884633E+03  0.10445884633E+03  0.00000000000E+00 0.  1.
         21    1    1    2  503  502 -0.18518841698E+02  0.27350871458E+02 -0.98127606774E+02  0.10353764957E+03  0.00000000000E+00 0.  1.
         21    1    1    2  504  501  0.18518841698E+02 -0.27350871458E+02  0.71591103204E+02  0.78843539528E+02  0.00000000000E+00 0.  1.
</event>
<event>
 4    1  0.1602044E+006  0.2554566E+02  0.7546771E-02  0.1462791E+00
         21   -1    0    0  504  501  0.00000000000E+00  0.00000000000E+00  0.21931704024E+03  0.21931704024E+03  0.00000000000E+00 0.  1.
         21   -1    0    0  501  502 -0.00000000000E+00 -0.00000000000E+00 -0.60829500653E+01  0.60829500653E+01  0.00000000000E+00 0.  1.
         21    1    1    2  503  502  0.17154539179E+02 -0.18928886132E+02  0.26066614566E+02  0.36497251123E+02  0.00000000000E+00 0.  1.
         21    1    1    2  504  503 -0.17154539179E+02  0.18928886132E+02  0.18716747560E+03  0.18890273918E+03  0.00000000000E+00 0.  1.
</event>
<event>
 4    1  0.1602044E+006  0.2269226E+02  0.7546771E-02  0.1496399E+00
         21   -1    0    0  504  501  0.00000000000E+00  0.00000000000E+00  0.23946764613E+03  0.23946764613E+03  0.00000000000E+00 0.  1.
         21   -1    0    0  501  502 -0.00000000000E+00 -0.00000000000E+00 -0.25286335300E+01  0.25286335300E+01  0.00000000000E+00 0.  1.
         21    1    1    2  503  502 -0.89284056160E+01 -0.20861977807E+02  0.71669473100E+02  0.75176139295E+02  0.00000000000E+00 0.  1.
         21    1    1    2  504  503  0.89284056160E+01  0.20861977807E+02  0.16526953950E+03  0.16682014036E+03  0.00000000000E+00 0.  1.
</event>
<event>
 4    1  0.1602044E+006  0.3564021E+02  0.7546771E-02  0.1376117E+00
         21   -1    0    0  504  501  0.00000000000E+00  0.00000000000E+00  0.26678542714E+03  0.26678542714E+03  0.00000000000E+00 0.  1.
         21   -1    0    0  503  502 -0.00000000000E+00 -0.00000000000E+00 -0.13420111243E+02  0.13420111243E+02  0.00000000000E+00 0.  1.
         21    1    1    2  503  501 -0.40199803607E+01  0.35412774435E+02  0.23922079870E+03  0.24186114894E+03  0.00000000000E+00 0.  1.
         21    1    1    2  504  502  0.40199803607E+01 -0.35412774435E+02  0.14144517200E+02  0.38344389448E+02  0.00000000000E+00 0.  1.
</event>
<event>
 4    1  0.1602044E+006  0.2751583E+02  0.7546771E-02  0.1442494E+00
         21   -1    0    0  503  501  0.00000000000E+00  0.00000000000E+00  0.51719105087E+03  0.51719105087E+03  0.00000000000E+00 0.  1.
         21   -1    0    0  504  502 -0.00000000000E+00 -0.00000000000E+00 -0.17057101464E+01  0.17057101464E+01  0.00000000000E+00 0.  1.
         21    1    1    2  503  502 -0.19031984776E+02 -0.19872204934E+02  0.16005788284E+03  0.16240580911E+03  0.00000000000E+00 0.  1.
         21    1    1    2  504  501  0.19031984776E+02  0.19872204934E+02  0.35542745789E+03  0.35649095191E+03  0.00000000000E+00 0.  1.
</event>
<event>
 4    1  0.1602044E+006  0.2847839E+02  0.7546771E-02  0.1433297E+00
         21   -1    0    0  503  501  0.00000000000E+00  0.00000000000E+00  0.30958100944E+03  0.30958100944E+03  0.00000000000E+00 0.  1.
         21   -1    0    0  504  502 -0.00000000000E+00 -0.00000000000E+00 -0.36103252020E+01  0.36103252020E+01  0.00000000000E+00 0. -1.
         21    1    1    2  503  502  0.25061137387E+02  0.13526200793E+02  0.23501193070E+03  0.23673112657E+03  0.00000000000E+00 0.  1.
         21    1    1    2  504  501 -0.25061137387E+02 -0.13526200793E+02  0.70958753539E+02  0.76460208075E+02  0.00000000000E+00 0. -1.
</event>
<event>
 4    1  0.1602044E+006  0.2036441E+02  0.7546771E-02  0.1528536E+00
         21   -1    0    0  504  501  0.00000000000E+00  0.00000000000E+00  0.17878673274E+02  0.17878673274E+02  0.00000000000E+00 0.  1.
         21   -1    0    0  501  502 -0.00000000000E+00 -0.00000000000E+00 -0.20565576294E+03  0.20565576294E+03  0.00000000000E+00 0. -1.
         21    1    1    2  503  502 -0.14839103197E+00  0.20363864476E+02 -0.19916417896E+03  0.20020259533E+03  0.00000000000E+00 0. -1.
         21    1    1    2  504  503  0.14839103197E+00 -0.20363864476E+02  0.11387089296E+02  0.23331840882E+02  0.00000000000E+00 0.  1.
</event>
<event>
 4    1  0.1602044E+006  0.2339525E+02  0.7546771E-02  0.1487594E+00
         21   -1    0    0  504  501  0.00000000000E+00  0.00000000000E+00  0.12652709558E+03  0.12652709558E+03  0.00000000000E+00 0.  1.
         21   -1    0    0  501  502 -0.00000000000E+00 -0.00000000000E+00 -0.38754242623E+02  0.38754242623E+02  0.00000000000E+00 0. -1.
         21    1    1    2  503  502  0.22624682002E+02 -0.59549725037E+01 -0.34005516393E+02  0.41276059385E+02  0.00000000000E+00 0. -1.
         21    1    1    2  504  503 -0.22624682002E+02  0.59549725037E+01  0.12177836935E+03  0.12400527882E+03  0.00000000000E+00 0.  1.
</event>
<event>
 4    1  0.1602044E+006  0.2038764E+02  0.7546771E-02  0.1528190E+00
         21   -1    0    0  502  501  0.00000000000E+00  0.00000000000E+00  0.24396379337E+02  0.24396379337E+02  0.00000000000E+00 0.  1.
         21   -1    0    0  503  502 -0.00000000000E+00 -0.00000000000E+00 -0.31917877747E+03  0.31917877747E+03  0.00000000000E+00 0.  1.
         21    1    1    2  503  504  0.16424162749E+02  0.12079026549E+02 -0.31453093262E+03  0.31519099540E+03  0.00000000000E+00 0.  1.
         21    1    1    2  504  501 -0.16424162749E+02 -0.12079026549E+02  0.19748534489E+02  0.28384161408E+02  0.00000000000E+00 0.  1.
</event>
<event>
 4    1  0.1602044E+006  0.2239051E+02  0.7546771E-02  0.1500297E+00
         21   -1    0    0  503  501  0.00000000000E+00  0.00000000000E+00  0.27891480988E+03  0.27891480988E+03  0.00000000000E+00 0.  1.
         21   -1    0    0  504  502 -0.00000000000E+00 -0.00000000000E+00 -0.13194815217E+02  0.13194815217E+02  0.00000000000E+00 0. -1.
         21    1    1    2  503  502  0.17545348125E+01 -0.22321664468E+02  0.26860269325E+03  0.26953430564E+03  0.00000000000E+00 0.  1.
         21    1    1    2  504  501 -0.17545348125E+01  0.22321664468E+02 -0.28826985927E+01  0.22575319449E+02  0.00000000000E+00 0. -1.
</event>
<event>
 4    1  0.1602044E+006  0.2315282E+02  0.7546771E-02  0.1490588E+00
         21   -1    0    0  503  501  0.00000000000E+00  0.00000000000E+00  0.21774172463E+01  0.21774172463E+01  0.00000000000E+00 0.  1.
         21   -1    0    0  504  502 -0.00000000000E+00 -0.00000000000E+00 -0.24633093042E+03  0.24633093042E+03  0.00000000000E+00 0.  1.
         21    1    1    2  503  502  0.21082536779E+02  0.95697224790E+01 -0.11907865465E+03  0.12130861032E+03  0.00000000000E+00 0.  1.
         21    1    1    2  504  501 -0.21082536779E+02 -0.95697224790E+01 -0.12507485852E+03  0.12719973734E+03  0.00000000000E+00 0.  1.
</event>
<event>
 4    1  0.1602044E+006  0.3560410E+02  0.7546771E-02  0.1376365E+00
         21   -1    0    0  503  501  0.00000000000E+00  0.00000000000E+00  0.15164880823E+02  0.15164880823E+02  0.00000000000E+00 0. -1.
         21   -1    0    0  504  502 -0.00000000000E+00 -0.00000000000E+00 -0.73412682136E+03  0.73412682136E+03  0.00000000000E+00 0. -1.
         21    1    1    2  503  502  0.35381414073E+02  0.39758377630E+01 -0.68090379616E+01  0.36249341314E+02  0.00000000000E+00 0. -1.
         21    1    1    2  504  501 -0.35381414073E+02 -0.39758377630E+01 -0.71215290257E+03  0.71304236087E+03  0.00000000000E+00 0. -1.
</event>
<event>
 4    1  0.1602044E+006  0.3770956E+02  0.7546771E-02  0.1362457E+00
         21   -1    0    0  503  501  0.00000000000E+00  0.00000000000E+00  0.39082409478E+02  0.39082409478E+02  0.00000000000E+00 0.  1.
         21   -1    0    0  504  502 -0.00000000000E+00 -0.00000000000E+00 -0.33534151748E+03  0.33534151748E+03  0.00000000000E+00 0. -1.
         21    1    1    2  503  502  0.17493744185E+02  0.33406282079E+02  0.28634518439E+02  0.47349196552E+02  0.00000000000E+00 0.  1.
         21    1    1    2  504  501 -0.17493744185E+02 -0.33406282079E+02 -0.32489362644E+03  0.32707473041E+03  0.00000000000E+00 0. -1.
</event>
<event>
 4    1  0.1602044E+006  0.2785812E+02  0.7546771E-02  0.1439173E+00
         21   -1    0    0  504  501  0.00000000000E+00  0.00000000000E+00  0.62043766782E+02  0.62043766782E+02  0.00000000000E+00 0. -1.
         21   -1    0    0  503  502 -0.00000000000E+00 -0.00000000000E+00 -0.31283450541E+02  0.31283450541E+02  0.00000000000E+00 0. -1.
         21    1    1    2  503  501  0.20979868951E+02  0.18328114635E+02 -0.20770012752E+02  0.34748641944E+02  0.00000000000E+00 0. -1.
         21    1    1    2  504  502 -0.20979868951E+02 -0.18328114635E+02  0.51530328993E+02  0.58578575378E+02  0.00000000000E+00 0. -1.
</event>
<event>
 4    1  0.1602044E+006  0.2128605E+02  0.7546771E-02  0.1515220E+00
         21   -1    0    0  503  501  0.00000000000E+00  0.00000000000E+00  0.11531566105E+04  0.11531566105E+04  0.00000000000E+00 0.  1.
         21   -1    0    0  504  502 -0.00000000000E+00 -0.00000000000E+00 -0.34223443347E+01  0.34223443347E+01  0.00000000000E+00 0. -1.
         21    1    1    2  503  502 -0.15398564688E+02 -0.14696262926E+02  0.11189482328E+04  0.11191506796E+04  0.00000000000E+00 0.  1.
         21    1    1    2  504  501  0.15398564688E+02  0.14696262926E+02  0.30786033438E+02  0.37428275318E+02  0.00000000000E+00 0. -1.
</event>
<event>
 4    1  0.1602044E+006  0.2891419E+02  0.7546771E-02  0.1429273E+00
         21   -1    0    0  503  501  0.00000000000E+00  0.00000000000E+00  0.14894502216E+03  0.14894502216E+03  0.00000000000E+00 0.  1.
         21   -1    0    0  504  502 -0.00000000000E+00 -0.00000000000E+00 -0.11809885670E+03  0.11809885670E+03  0.00000000000E+00 0.  1.
         21    1    1    2  503  502 -0.28051120989E+02 -0.70117874771E+01  0.14573337464E+03  0.14857404563E+03  0.00000000000E+00 0.  1.
         21    1    1    2  504  501  0.28051120989E+02  0.70117874771E+01 -0.11488720918E+03  0.11846983323E+03  0.00000000000E+00 0.  1.
</event>
<event>
 4    1  0.1602044E+006  0.2401958E+02  0.7546771E-02  0.1480077E+00
         21   -1    0    0  503  501  0.00000000000E+00  0.00000000000E+00  0.92139554178E+01  0.92139554178E+01  0.00000000000E+00 0. -1.
         21   -1    0    0  501  502 -0.00000000000E+00 -0.00000000000E+00 -0.23443391964E+03  0.23443391964E+03  0.00000000000E+00 0. -1.
         21    1    1    2  503  504  0.12607334666E+02  0.20444932969E+02 -0.83165992992E+01  0.25418615135E+02  0.00000000000E+00 0. -1.
         21    1    1    2  504  502 -0.12607334666E+02 -0.20444932969E+02 -0.21690336492E+03  0.21822925992E+03  0.00000000000E+00 0. -1.
</event>
<event>
 4    1  0.1602044E+006  0.2212954E+02  0.7546771E-02  0.1503728E+00
         21   -1    0    0  504  501  0.00000000000E+00  0.00000000000E+00  0.11866903733E+03  0.11866903733E+03  0.00000000000E+00 0. -1.
         21   -1    0    0  501  502 -0.00000000000E+00 -0.00000000000E+00 -0.89452928969E+01  0.89452928969E+01  0.00000000000E+00 0. -1.
         21    1    1    2  503  502 -0.10414136952E+02 -0.19525943414E+02  0.80312086953E+01  0.23541814453E+02  0.00000000000E+00 0. -1.
         21    1    1    2  504  503  0.10414136952E+02  0.19525943414E+02  0.10169253574E+03  0.10407251578E+03  0.00000000000E+00 0. -1.
</event>
<event>
 4    1  0.1602044E+006  0.2617254E+02  0.7546771E-02  0.1456102E+00
         21   -1    0    0  503  501  0.00000000000E+00  0.00000000000E+00  0.21727743614E+02  0.21727743614E+02  0.00000000000E+00 0. -1.
         21   -1    0    0  504  502 -0.00000000000E+00 -0.00000000000E+00 -0.31703692966E+02  0.31703692966E+02  0.00000000000E+00 0. -1.
         21    1    1    2  503  502  0.16654111704E+02 -0.20190150891E+02 -0.69847390277E+01  0.27088525411E+02  0.00000000000E+00 0. -1.
         21    1    1    2  504  501 -0.16654111704E+02  0.20190150891E+02 -0.29912103243E+01  0.26342911169E+02  0.00000000000E+00 0. -1.
</event>
<event>
 4    1  0.1602044E+006  0.3158946E+02  0.7546771E-02  0.1406269E+00
         21   -1    0    0  502  501  0.00000000000E+00  0.00000000000E+00  0.10041753886E+03  0.10041753886E+03  0.00000000000E+00 0. -1.
         21   -1    0    0  503  502 -0.00000000000E+00 -0.00000000000E+00 -0.11408467406E+03  0.11408467406E+03  0.00000000000E+00 0. -1.
         21    1    1    2  503  504 -0.10075665653E+02  0.29939519823E+02 -0.10930716572E+03  0.11378027230E+03  0.00000000000E+00 0. -1.
         21    1    1    2  504  501  0.10075665653E+02 -0.29939519823E+02  0.95640030519E+02  0.10072194062E+03  0.00000000000E+00 0. -1.
</event>
<event>
 4    1  0.1602044E+006  0.2150425E+02  0.7546771E-02  0.1512186E+00
         21   -1    0    0  504  501  0.00000000000E+00  0.00000000000E+00  0.77485317732E+02  0.77485317732E+02  0.00000000000E+00 0. -1.
         21   -1    0    0  503  502 -0.00000000000E+00 -0.00000000000E+00 -0.20697728975E+03  0.20697728975E+03  0.00000000000E+00 0. -1.
         21    1    1    2  503  501  0.49399297343E+01  0.20929162483E+02 -0.20491173510E+03  0.20603701592E+03  0.00000000000E+00 0. -1.
         21    1    1    2  504  502 -0.49399297343E+01 -0.20929162483E+02  0.75419763083E+02  0.78425591560E+02  0.00000000000E+00 0. -1.
</event>
<event>
 4    1  0.1602044E+006  0.2000811E+02  0.7546771E-02  0.1533912E+00
         21   -1    0    0  504  501  0.00000000000E+00  0.00000000000E+00  0.23773457849E+02  0.23773457849E+02  0.00000000000E+00 0. -1.
         21   -1    0    0  503  502 -0.00000000000E+00 -0.00000000000E+00 -0.20610349373E+02  0.20610349373E+02  0.00000000000E+00 0. -1.
         21    1    1    2  503  501 -0.16332670414E+02  0.11557176908E+02  0.11074314290E+02  0.22868425786E+02  0.00000000000E+00 0. -1.
         21    1    1    2  504  502  0.16332670414E+02 -0.11557176908E+02 -0.79112058143E+01  0.21515381437E+02  0.00000000000E+00 0. -1.
</event>
<event>
 4    1  0.1602044E+006  0.3104028E+02  0.7546771E-02  0.1410767E+00
         21   -1    0    0  503  501  0.00000000000E+00  0.00000000000E+00  0.37255431165E+03  0.37255431165E+03  0.00000000000E+00 0.  1.
         21   -1    0    0  504  502 -0.00000000000E+00 -0.00000000000E+00 -0.67252816817E+02  0.67252816817E+02  0.00000000000E+00 0.  1.
         21    1    1    2  503  502  0.25617170100E+02 -0.17528819065E+02 -0.62983187866E+02  0.70216670781E+02  0.00000000000E+00 0.  1.
         21    1    1    2  504  501 -0.25617170100E+02  0.17528819065E+02  0.36828468270E+03  0.36959045768E+03  0.00000000000E+00 0.  1.
</event>
<event>
 4    1  0.1602044E+006  0.2451633E+02  0.7546771E-02  0.1474288E+00
         21   -1    0    0  504  501  0.00000000000E+00  0.00000000000E+00  0.54281647985E+01  0.54281647985E+01  0.00000000000E+00 0.  1.
         21   -1    0    0  503  502 -0.00000000000E+00 -0.00000000000E+00 -0.11517858047E+03  0.11517858047E+03  0.00000000000E+00 0.  1.
         21    1    1    2  503  501  0.14775581502E+02  0.19563551069E+02 -0.43021355587E+02  0.49516536386E+02  0.00000000000E+00 0.  1.
         21    1    1    2  504  502 -0.14775581502E+02 -0.19563551069E+02 -0.66729060083E+02  0.71090208881E+02  0.00000000000E+00 0.  1.
</event>
<event>
 4    1  0.1602044E+006  0.3213351E+02  0.7546771E-02  0.1401919E+00
         21   -1    0    0  504  501  0.00000000000E+00  0.00000000000E+00  0.14551169489E+02  0.14551169489E+02  0.00000000000E+00 0.  1.
         21   -1    0    0  501  502 -0.00000000000E+00 -0.00000000000E+00 -0.87631208212E+02  0.87631208212E+02  0.00000000000E+00 0.  1.
         21    1    1    2  503  502  0.11501145675E+02  0.30004767851E+02 -0.58823852057E+02  0.67028412010E+02  0.00000000000E+00 0.  1.
         21    1    1    2  504  503 -0.11501145675E+02 -0.30004767851E+02 -0.14256186665E+02  0.35153965692E+02  0.00000000000E+00 0.  1.
</event>
<event>
 4    1  0.1602044E+006  0.3268364E+02  0.7546771E-02  0.1397623E+00
         21   -1    0    0  503  501  0.00000000000E+00  0.00000000000E+00  0.33430499639E+02  0.33430499639E+02  0.00000000000E+00 0. -1.
         21   -1    0    0  504  502 -0.00000000000E+00 -0.00000000000E+00 -0.37091642906E+03  0.37091642906E+03  0.00000000000E+00 0.  1.
         21    1    1    2  503  502 -0.30604443059E+02 -0.11471195723E+02 -0.36201198404E+03  0.36348438323E+03  0.00000000000E+00 0.  1.
         21    1    1    2  504  501  0.30604443059E+02  0.11471195723E+02  0.24526054622E+02  0.40862545462E+02  0.00000000000E+00 0. -1.
</event>
<event>
 4    1  0.1602044E+006  0.2187180E+02  0.7546771E-02  0.1507173E+00
         21   -1    0    0  503  501  0.00000000000E+00  0.00000000000E+00  0.18604942873E+03  0.18604942873E+03  0.00000000000E+00 0.  1.
         21   -1    0    0  501  502 -0.00000000000E+00 -0.00000000000E+00 -0.12091544830E+02  0.12091544830E+02  0.00000000000E+00 0.  1.
         21    1    1    2  503  504  0.13229957647E+02 -0.17416775269E+02  0.17488707582E+03  0.17624944009E+03  0.00000000000E+00 0.  1.
         21    1    1    2  504  502 -0.13229957647E+02  0.17416775269E+02 -0.92919192673E+00  0.21891533472E+02  0.00000000000E+00 0.  1.
</event>
<event>
 4    1  0.1602044E+006  0.2003850E+02  0.7546771E-02  0.1533448E+00
         21   -1    0    0  502  501  0.00000000000E+00  0.00000000000E+00  0.22830436597E+02  0.22830436597E+02  0.00000000000E+00 0. -1.
         21   -1    0    0  503  502 -0.00000000000E+00 -0.00000000000E+00 -0.21566562808E+03  0.21566562808E+03  0.00000000000E+00 0.  1.
         21    1    1    2  503  504 -0.17469565306E+02  0.98160968023E+01 -0.21069976618E+03  0.21165049713E+03  0.00000000000E+00 0.  1.
         21    1    1    2  504  501  0.17469565306E+02 -0.98160968023E+01  0.17864574688E+02  0.26845567552E+02  0.00000000000E+00 0. -1.
</event>
<event>
 4    1  0.1602044E+006  0.2009661E+02  0.7546771E-02  0.1532564E+00
         21   -1    0    0  503  501  0.00000000000E+00  0.00000000000E+00  0.38476817145E+02  0.38476817145E+02  0.00000000000E+00 0.  1.
         21   -1    0    0  501  502 -0.00000000000E+00 -0.00000000000E+00 -0.30554342421E+02  0.30554342421E+02  0.00000000000E+00 0.  1.
         21    1    1    2  503  504  0.16509959988E+01 -0.20028682039E+02  0.31926586931E+02  0.37725069186E+02  0.00000000000E+00 0.  1.
         21    1    1    2  504  502 -0.16509959988E+01  0.20028682039E+02 -0.24004112207E+02  0.31306090380E+02  0.00000000000E+00 0.  1.
</event>
<event>
 4    1  0.1602044E+006  0.2350428E+02  0.7546771E-02  0.1486261E+00
         21   -1    0    0  502  501  0.00000000000E+00  0.00000000000E+00  0.27846158458E+03  0.27846158458E+03  0.00000000000E+00 0. -1.
         21   -1    0    0  503  502 -0.00000000000E+00 -0.00000000000E+00 -0.15184642081E+03  0.15184642081E+03  0.00000000000E+00 0.  1.
         21    1    1    2  503  504  0.18497061205E+02 -0.14502070747E+02 -0.15043625828E+03  0.15226135141E+03  0.00000000000E+00 0.  1.
         21    1    1    2  504  501 -0.18497061205E+02  0.14502070747E+02  0.27705142205E+03  0.27804665398E+03  0.00000000000E+00 0. -1.
</event>
<event>
 4    1  0.1602044E+006  0.2163706E+02  0.7546771E-02  0.1510360E+00
         21   -1    0    0  504  501  0.00000000000E+00  0.00000000000E+00  0.21343388205E+02  0.21343388205E+02  0.00000000000E+00 0.  1.
         21   -1    0    0  501  502 -0.00000000000E+00 -0.00000000000E+00 -0.19472820523E+03  0.19472820523E+03  0.00000000000E+00 0.  1.
         21    1    1    2  503  502  0.15666366661E+01 -0.21580272107E+02 -0.18846172485E+03  0.18969972121E+03  0.00000000000E+00 0.  1.
         21    1    1    2  504  503 -0.15666366661E+01  0.21580272107E+02  0.15076907828E+02  0.26371872219E+02  0.00000000000E+00 0.  1.
</event>
<event>
 4    1  0.1602044E+006  0.2252407E+02  0.7546771E-02  0.1498562E+00
         21   -1    0    0  503  501  0.00000000000E+00  0.00000000000E+00  0.11482029298E+02  0.11482029298E+02  0.00000000000E+00 0. -1.
         21   -1    0    0  504  502 -0.00000000000E+00 -0.00000000000E+00 -0.37196805750E+03  0.37196805750E+03  0.00000000000E+00 0. -1.
         21    1    1    2  503  502 -0.20713714139E+02 -0.88473582411E+01 -0.36022094666E+03  0.36092445763E+03  0.00000000000E+00 0. -1.
         21    1    1    2  504  501  0.20713714139E+02  0.88473582411E+01 -0.26508154259E+00  0.22525629170E+02  0.00000000000E+00 0. -1.
</event>
<event>
 4    1  0.1602044E+006  0.2354410E+02  0.7546771E-02  0.1485777E+00
         21   -1    0    0  504  501  0.00000000000E+00  0.00000000000E+00  0.12152770956E+01  0.12152770956E+01  0.00000000000E+00 0. -1.
         21   -1    0    0  503  502 -0.00000000000E+00 -0.00000000000E+00 -0.12712376444E+04  0.12712376444E+04  0.00000000000E+00 0. -1.
         21    1    1    2  503  501 -0.12500053066E+02 -0.19951773406E+02 -0.12555623639E+03  0.12774464015E+03  0.00000000000E+00 0. -1.
         21    1    1    2  504  502  0.12500053066E+02  0.19951773406E+02 -0.11444661309E+04  0.11447082814E+04  0.00000000000E+00 0. -1.
</event>
<event>
 4    1  0.1602044E+006  0.2324519E+02  0.7546771E-02  0.1489442E+00
         21   -1    0    0  504  501  0.00000000000E+00  0.00000000000E+00  0.50217941833E+01  0.50217941833E+01  0.00000000000E+00 0. -1.
         21   -1    0    0  501  502 -0.00000000000E+00 -0.00000000000E+00 -0.29535670189E+03  0.29535670189E+03  0.00000000000E+00 0. -1.
         21    1    1    2  503  502 -0.12620033461E+01  0.23210909510E+02 -0.26491442920E+03  0.26593231050E+03  0.00000000000E+00 0. -1.
         21    1    1    2  504  503  0.12620033461E+01 -0.23210909510E+02 -0.25420478512E+02  0.34446185572E+02  0.00000000000E+00 0. -1.
</event>
<event>
 4    1  0.1602044E+006  0.2046256E+02  0.7546771E-02  0.1527078E+00
         21   -1    0    0  503  501  0.00000000000E+00  0.00000000000E+00  0.18626447236E+02  0.18626447236E+02  0.00000000000E+00 0. -1.
         21   -1    0    0  504  502 -0.00000000000E+00 -0.00000000000E+00 -0.91234379382E+02  0.91234379382E+02  0.00000000000E+00 0.  1.
         21    1    1    2  503  502 -0.72708930052E+01 -0.19127217455E+02  0.11381369178E+02  0.23414779458E+02  0.00000000000E+00 0. -1.
         21    1    1    2  504  501  0.72708930052E+01  0.19127217455E+02 -0.83989301324E+02  0.86446047160E+02  0.00000000000E+00 0.  1.
</event>
<event>
 4    1  0.1602044E+006  0.2512324E+02  0.7546771E-02  0.1467429E+00
         21   -1    0    0  503  501  0.00000000000E+00  0.00000000000E+00  0.16922777344E+02  0.16922777344E+02  0.00000000000E+00 0. -1.
         21   -1    0    0  504  502 -0.00000000000E+00 -0.00000000000E+00 -0.49585487558E+02  0.49585487558E+02  0.00000000000E+00 0.  1.
         21    1    1    2  503  502  0.24903579906E+02  0.33149398023E+01  0.22287117200E+00  0.25124227144E+02  0.00000000000E+00 0. -1.
         21    1    1    2  504  501 -0.24903579906E+02 -0.33149398023E+01 -0.32885581386E+02  0.41384037758E+02  0.00000000000E+00 0.  1.
</event>
<event>
 4    1  0.1602044E+006  0.2194691E+02  0.7546771E-02  0.1506163E+00
         21   -1    0    0  503  501  0.00000000000E+00  0.00000000000E+00  0.20933316598E+02  0.20933316598E+02  0.00000000000E+00 0. -1.
         21   -1    0    0  501  502 -0.00000000000E+00 -0.00000000000E+00 -0.23041698088E+02  0.23041698088E+02  0.00000000000E+00 0.  1.
         21    1    1    2  503  504 -0.52440001736E+01  0.21311199512E+02 -0.18751339626E+01  0.22026867454E+02  0.00000000000E+00 0. -1.
         21    1    1    2  504  502  0.52440001736E+01 -0.21311199512E+02 -0.23324752752E+00  0.21948147231E+02  0.00000000000E+00 0.  1.
</event>
<event>
 4    1  0.1602044E+006  0.2254071E+02  0.7546771E-02  0.1498347E+00
         21   -1    0    0  504  501  0.00000000000E+00  0.00000000000E+00  0.25872607579E+01  0.25872607579E+01  0.00000000000E+00 0. -1.
         21   -1    0    0  503  502 -0.00000000000E+00 -0.00000000000E+00 -0.59847031445E+03  0.59847031445E+03  0.00000000000E+00 0. -1.
         21    1    1    2  503  501  0.99003868231E+01  0.20250083388E+02 -0.51605944491E+02  0.56313915183E+02  0.00000000000E+00 0. -1.
         21    1    1    2  504  502 -0.99003868231E+01 -0.20250083388E+02 -0.54427710920E+03  0.54474366002E+03  0.00000000000E+00 0. -1.
</event>
<event>
 4    1  0.1602044E+006  0.3958143E+02  0.7546771E-02  0.1350956E+00
         21   -1    0    0  503  501  0.00000000000E+00  0.00000000000E+00  0.29352742209E+03  0.29352742209E+03  0.00000000000E+00 0. -1.
         21   -1    0    0  501  502 -0.00000000000E+00 -0.00000000000E+00 -0.42326487953E+02  0.42326487953E+02  0.00000000000E+00 0. -1.
         21    1    1    2  503  504 -0.37281310612E+02 -0.13296381760E+02  0.28258279856E+03  0.28534142344E+03  0.00000000000E+00 0. -1.
         21    1    1    2  504  502  0.37281310612E+02  0.13296381760E+02 -0.31381864419E+02  0.50512486607E+02  0.00000000000E+00 0. -1.
</event>
<event>
 4    1  0.1602044E+006  0.2020759E+02  0.7546771E-02  0.1530886E+00
         21   -1    0    0  503  501  0.00000000000E+00  0.00000000000E+00  0.10494210622E+01  0.10494210622E+01  0.00000000000E+00 0. -1.
         21   -1    0    0  501  502 -0.00000000000E+00 -0.00000000000E+00 -0.49980596898E+03  0.49980596898E+03  0.00000000000E+00 0.  1.
         21    1    1    2  503  504 -0.29981421114E+01 -0.19983934861E+02 -0.13152658730E+03  0.13306986765E+03  0.00000000000E+00 0. -1.
         21    1    1    2  504  502  0.29981421114E+01  0.19983934861E+02 -0.36722996061E+03  0.36778552239E+03  0.00000000000E+00 0.  1.
</event>
<event>
 4    1  0.1602044E+006  0.2888140E+02  0.7546771E-02  0.1429573E+00
         21   -1    0    0  504  501  0.00000000000E+00  0.00000000000E+00  0.69801797035E+03  0.69801797035E+03  0.00000000000E+00 0. -1.
         21   -1    0    0  503  502 -0.00000000000E+00 -0.00000000000E+00 -0.12118825071E+01  0.12118825071E+01  0.00000000000E+00 0. -1.
         21    1    1    2  503  501  0.27344412106E+02  0.92961340650E+01  0.30714453405E+03  0.30849943238E+03  0.00000000000E+00 0. -1.
         21    1    1    2  504  502 -0.27344412106E+02 -0.92961340650E+01  0.38966155380E+03  0.39073042048E+03  0.00000000000E+00 0. -1.
</event>
<event>
 4    1  0.1602044E+006  0.3119674E+02  0.7546771E-02  0.1409474E+00
         21   -1    0    0  503  501  0.00000000000E+00  0.00000000000E+00  0.15020734073E+03  0.15020734073E+03  0.00000000000E+00 0.  1.
         21   -1    0    0  504  502 -0.00000000000E+00 -0.00000000000E+00 -0.71196528329E+01  0.71196528329E+01  0.00000000000E+00 0. -1.
         21    1    1    2  503  502  0.51943856990E+01 -0.30761260394E+02  0.95135433683E+02  0.10011986579E+03  0.00000000000E+00 0.  1.
         21    1    1    2  504  501 -0.51943856990E+01  0.30761260394E+02  0.47952254219E+02  0.57207127777E+02  0.00000000000E+00 0. -1.
</event>
<event>
 4    1  0.1602044E+006  0.2001902E+02  0.7546771E-02  0.1533745E+00
         21   -1    0    0  504  501  0.00000000000E+00  0.00000000000E+00  0.76567046733E+01  0.76567046733E+01  0.00000000000E+00 0. -1.
         21   -1    0    0  503  502 -0.00000000000E+00 -0.00000000000E+00 -0.23575640869E+03  0.23575640869E+03  0.00000000000E+00 0.  1.
         21    1    1    2  503  501 -0.15711753776E+02 -0.12405721534E+02 -0.22139931853E+03  0.22230254020E+03  0.00000000000E+00 0.  1.
         21    1    1    2  504  502  0.15711753776E+02  0.12405721534E+02 -0.67003854816E+01  0.21110573159E+02  0.00000000000E+00 0. -1.
</event>
<event>
 4    1  0.1602044E+006  0.4057539E+02  0.7546771E-02  0.1345147E+00
         21   -1    0    0  503  501  0.00000000000E+00  0.00000000000E+00  0.10432280720E+02  0.10432280720E+02  0.00000000000E+00 0. -1.
         21   -1    0    0  504  502 -0.00000000000E+00 -0.00000000000E+00 -0.20063879713E+03  0.20063879713E+03  0.00000000000E+00 0. -1.
         21    1    1    2  503  502  0.19804046760E+02  0.35414147785E+02 -0.46346157686E+02  0.61598120618E+02  0.00000000000E+00 0. -1.
         21    1    1    2  504  501 -0.19804046760E+02 -0.35414147785E+02 -0.14386035872E+03  0.14947295723E+03  0.00000000000E+00 0. -1.
</event>
<event>
 4    1  0.1602044E+006  0.2144540E+02  0.7546771E-02  0.1513000E+00
         21   -1    0    0  504  501  0.00000000000E+00  0.00000000000E+00  0.25587644265E+01  0.25587644265E+01  0.00000000000E+00 0.  1.
         21   -1    0    0  503  502 -0.00000000000E+00 -0.00000000000E+00 -0.22326863525E+03  0.22326863525E+03  0.00000000000E+00 0.  1.
         21    1    1    2  503  501  0.11192585996E+02 -0.18292926247E+02 -0.60496997272E+02  0.64185604390E+02  0.00000000000E+00 0.  1.
         21    1    1    2  504  502 -0.11192585996E+02  0.18292926247E+02 -0.16021287355E+03  0.16164179529E+03  0.00000000000E+00 0.  1.
</event>
<event>
 4    1  0.1602044E+006  0.2318282E+02  0.7546771E-02  0.1490215E+00
         21   -1    0    0  504  501  0.00000000000E+00  0.00000000000E+00  0.94190560682E+02  0.94190560682E+02  0.00000000000E+00 0.  1.
         21   -1    0    0  503  502 -0.00000000000E+00 -0.00000000000E+00 -0.14804699332E+02  0.14804699332E+02  0.00000000000E+00 0.  1.
         21    1    1    2  503  501  0.15049336921E+02  0.17634072801E+02 -0.30308398350E+01  0.23380099559E+02  0.00000000000E+00 0.  1.
         21    1    1    2  504  502 -0.15049336921E+02 -0.17634072801E+02  0.82416701186E+02  0.85615160454E+02  0.00000000000E+00 0.  1.
</event>
<event>
 4    1  0.1602044E+006  0.2116010E+02  0.7546771E-02  0.1516991E+00
         21   -1    0    0  504  501  0.00000000000E+00  0.00000000000E+00  0.47621508883E+01  0.47621508883E+01  0.00000000000E+00 0.  1.
         21   -1    0    0  503  502 -0.00000000000E+00 -0.00000000000E+00 -0.18690930818E+03  0.18690930818E+03  0.00000000000E+00 0. -1.
         21    1    1    2  503  501  0.21015274382E+02 -0.24714916682E+01 -0.23513730285E+02  0.31632981844E+02  0.00000000000E+00 0.  1.
         21    1    1    2  504  502 -0.21015274382E+02  0.24714916682E+01 -0.15863342701E+03  0.16003847723E+03  0.00000000000E+00 0. -1.
</event>
<event>
 4    1  0.1602044E+006  0.2343958E+02  0.7546771E-02  0.1487051E+00
         21   -1    0    0  503  501  0.00000000000E+00  0.00000000000E+00  0.53232302405E+02  0.53232302405E+02  0.00000000000E+00 0.  1.
         21   -1    0    0  504  502 -0.00000000000E+00 -0.00000000000E+00 -0.70175356056E+02  0.70175356056E+02  0.00000000000E+00 0. -1.
         21    1    1    2  503  502  0.10105871965E+02  0.21149114463E+02  0.48514381394E+02  0.53880041693E+02  0.00000000000E+00 0.  1.
         21    1    1    2  504  501 -0.10105871965E+02 -0.21149114463E+02 -0.65457435045E+02  0.69527616768E+02  0.00000000000E+00 0. -1.
</event>
<event>
 4    1  0.1602044E+006  0.2984513E+02  0.7546771E-02  0.1420947E+00
         21   -1    0    0  504  501  0.00000000000E+00  0.00000000000E+00  0.34552283680E+03  0.34552283680E+03  0.00000000000E+00 0. -1.
         21   -1    0    0  503  502 -0.00000000000E+00 -0.00000000000E+00 -0.22660732818E+02  0.22660732818E+02  0.00000000000E+00 0.  1.
         21    1    1    2  503  501 -0.29666638595E+02  0.32592063411E+01 -0.11873373146E+02  0.32120225113E+02  0.00000000000E+00 0.  1.
         21    1    1    2  504  502  0.29666638595E+02 -0.32592063411E+01  0.33473547713E+03  0.33606334451E+03  0.00000000000E+00 0. -1.
</event>
<event>
 4    1  0.1602044E+006  0.2912101E+02  0.7546771E-02  0.1427392E+00
         21   -1    0    0  503  501  0.00000000000E+00  0.00000000000E+00  0.27444929968E+03  0.27444929968E+03  0.00000000000E+00 0.  1.
         21   -1    0    0  501  502 -0.00000000000E+00 -0.00000000000E+00 -0.36278985188E+02  0.36278985188E+02  0.00000000000E+00 0.  1.
         21    1    1    2  503  504 -0.20654072668E+02  0.20529068248E+02  0.26768575990E+03  0.26926510990E+03  0.00000000000E+00 0.  1.
         21    1    1    2  504  502  0.20654072668E+02 -0.20529068248E+02 -0.29515445402E+02  0.41463174965E+02  0.00000000000E+00 0.  1.
</event>
<event>
 4    1  0.1602044E+006  0.2308662E+02  0.7546771E-02  0.1491413E+00
         21   -1    0    0  504  501  0.00000000000E+00  0.00000000000E+00  0.21176671671E+03  0.21176671671E+03  0.00000000000E+00 0. -1.
         21   -1    0    0  503  502 -0.00000000000E+00 -0.00000000000E+00 -0.11374844381E+02  0.11374844381E+02  0.00000000000E+00 0. -1.
         21    1    1    2  503  501 -0.19661293506E+02  0.12100641876E+02  0.19865249143E+03  0.19998951060E+03  0.00000000000E+00 0. -1.
         21    1    1    2  504  502  0.19661293506E+02 -0.12100641876E+02  0.17393808948E+01  0.23152050493E+02  0.00000000000E+00 0. -1.
</event>
<event>
 4    1  0.1602044E+006  0.2006956E+02  0.7546771E-02  0.1532975E+00
         21   -1    0    0  504  501  0.00000000000E+00  0.00000000000E+00  0.26561991617E+03  0.26561991617E+03  0.00000000000E+00 0. -1.
         21   -1    0    0  503  502 -0.00000000000E+00 -0.00000000000E+00 -0.15405595934E+01  0.15405595934E+01  0.00000000000E+00 0. -1.
         21    1    1    2  503  501 -0.12843631239E+02  0.15421680433E+02  0.14876645437E+03  0.15011410672E+03  0.00000000000E+00 0. -1.
         21    1    1    2  504  502  0.12843631239E+02 -0.15421680433E+02  0.11531290221E+03  0.11704636905E+03  0.00000000000E+00 0. -1.
</event>
<event>
 4    1  0.1602044E+006  0.2219146E+02  0.7546771E-02  0.1502908E+00
         21   -1    0    0  503  501  0.00000000000E+00  0.00000000000E+00  0.16524696998E+03  0.16524696998E+03  0.00000000000E+00 0.  1.
         21   -1    0    0  504  502 -0.00000000000E+00 -0.00000000000E+00 -0.87603487592E+01  0.87603487592E+01  0.00000000000E+00 0. -1.
         21    1    1    2  503  502  0.14019627318E+02 -0.17202060990E+02  0.75711797747E+01  0.23447465015E+02  0.00000000000E+00 0. -1.
         21    1    1    2  504  501 -0.14019627318E+02  0.17202060990E+02  0.14891544145E+03  0.15055985373E+03  0.00000000000E+00 0.  1.
</event>
<event>
 4    1  0.1602044E+006  0.3348983E+02  0.7546771E-02  0.1391503E+00
         21   -1    0    0  503  501  0.00000000000E+00  0.00000000000E+00  0.14621453363E+02  0.14621453363E+02  0.00000000000E+00 0. -1.
         21   -1    0    0  504  502 -0.00000000000E+00 -0.00000000000E+00 -0.26197604480E+03  0.26197604480E+03  0.00000000000E+00 0. -1.
         21    1    1    2  503  502  0.33441929558E+02 -0.17905675778E+01 -0.73748585935E+01  0.34292234166E+02  0.00000000000E+00 0. -1.
         21    1    1    2  504  501 -0.33441929558E+02  0.17905675778E+01 -0.23997973284E+03  0.24230526399E+03  0.00000000000E+00 0. -1.
</event>
<event>
 4    1  0.1602044E+006  0.2988479E+02  0.7546771E-02  0.1420600E+00
         21   -1    0    0  504  501  0.00000000000E+00  0.00000000000E+00  0.18525827980E+02  0.18525827980E+02  0.00000000000E+00 0.  1.
         21   -1    0    0  503  502 -0.00000000000E+00 -0.00000000000E+00 -0.48505343914E+02  0.48505343914E+02  0.00000000000E+00 0.  1.
         21    1    1    2  503  501  0.29109228260E+02  0.67641472292E+01 -0.12367495687E+02  0.32342786015E+02  0.00000000000E+00 0.  1.
         21    1    1    2  504  502 -0.29109228260E+02 -0.67641472292E+01 -0.17612020247E+02  0.34688385878E+02  0.00000000000E+00 0.  1.
</event>
<event>
 4    1  0.1602044E+006  0.4190008E+02  0.7546771E-02  0.1337697E+00
         21   -1    0    0  503  501  0.00000000000E+00  0.00000000000E+00  0.29919389430E+02  0.29919389430E+02  0.00000000000E+00 0.  1.
         21   -1    0    0  504  502 -0.00000000000E+00 -0.00000000000E+00 -0.13119741300E+03  0.13119741300E+03  0.00000000000E+00 0.  1.
         21    1    1    2  503  502 -0.16022863918E+02  0.38715435100E+02 -0.11053181320E+03  0.11820701677E+03  0.00000000000E+00 0.  1.
         21    1    1    2  504  501  0.16022863918E+02 -0.38715435100E+02  0.92537896311E+01  0.42909785663E+02  0.00000000000E+00 0.  1.
</event>
<event>
 4    1  0.1602044E+006  0.2320707E+02  0.7546771E-02  0.1489914E+00
         21   -1    0    0  503  501  0.00000000000E+00  0.00000000000E+00  0.12407110288E+04  0.12407110288E+04  0.00000000000E+00 0. -1.
         21   -1    0    0  501  502 -0.00000000000E+00 -0.00000000000E+00 -0.43785183252E+00  0.43785183252E+00  0.00000000000E+00 0. -1.
         21    1    1    2  503  504  0.13200061307E+02  0.19087333497E+02  0.67773400606E+03  0.67813121952E+03  0.00000000000E+00 0. -1.
         21    1    1    2  504  502 -0.13200061307E+02 -0.19087333497E+02  0.56253917093E+03  0.56301766113E+03  0.00000000000E+00 0. -1.
</event>
<event>
 4    1  0.1602044E+006  0.2014905E+02  0.7546771E-02  0.1531769E+00
         21   -1    0    0  502  501  0.00000000000E+00  0.00000000000E+00  0.17456996346E+03  0.17456996346E+03  0.00000000000E+00 0. -1.
         21   -1    0    0  504  502 -0.00000000000E+00 -0.00000000000E+00 -0.40455147761E+01  0.40455147761E+01  0.00000000000E+00 0. -1.
         21    1    1    2  503  501  0.70034890482E+01  0.18892737852E+02  0.14349297810E+03  0.14490072176E+03  0.00000000000E+00 0. -1.
         21    1    1    2  504  503 -0.70034890482E+01 -0.18892737852E+02  0.27031470586E+02  0.33714756478E+02  0.00000000000E+00 0. -1.
</event>
<event>
 4    1  0.1602044E+006  0.4545553E+02  0.7546771E-02  0.1319177E+00
         21   -1    0    0  503  501  0.00000000000E+00  0.00000000000E+00  0.17212455953E+02  0.17212455953E+02  0.00000000000E+00 0.  1.
         21   -1    0    0  504  502 -0.00000000000E+00 -0.00000000000E+00 -0.12056690407E+03  0.12056690407E+03  0.00000000000E+00 0.  1.
         21    1    1    2  503  502 -0.45127603463E+02 -0.54502005500E+01 -0.47128633167E+02  0.65477578945E+02  0.00000000000E+00 0.  1.
         21    1    1    2  504  501  0.45127603463E+02  0.54502005500E+01 -0.56225814952E+02  0.72301781081E+02  0.00000000000E+00 0.  1.
</event>
<event>
 4    1  0.1602044E+006  0.2144687E+02  0.7546771E-02  0.1512979E+00
         21   -1    0    0  503  501  0.00000000000E+00  0.00000000000E+00  0.12283726546E+02  0.12283726546E+02  0.00000000000E+00 0. -1.
         21   -1    0    0  504  502 -0.00000000000E+00 -0.00000000000E+00 -0.37622940531E+03  0.37622940531E+03  0.00000000000E+00 0.  1.
         21    1    1    2  503  502  0.22525693810E+01  0.21328248560E+02  0.23634451878E+01  0.21576703376E+02  0.00000000000E+00 0. -1.
         21    1    1    2  504  501 -0.22525693810E+01 -0.21328248560E+02 -0.36630912395E+03  0.36693642848E+03  0.00000000000E+00 0.  1.
</event>
<event>
 4    1  0.1602044E+006  0.2506006E+02  0.7546771E-02  0.1468133E+00
         21   -1    0    0  504  501  0.00000000000E+00  0.00000000000E+00  0.12738044208E+03  0.12738044208E+03  0.00000000000E+00 0.  1.
         21   -1    0    0  501  502 -0.00000000000E+00 -0.00000000000E+00 -0.97678838022E+01  0.97678838022E+01  0.00000000000E+00 0. -1.
         21    1    1    2  503  502  0.21227764337E+02  0.13318732606E+02  0.10547028251E+02  0.27189086449E+02  0.00000000000E+00 0. -1.
         21    1    1    2  504  503 -0.21227764337E+02 -0.13318732606E+02  0.10706553003E+03  0.10995923943E+03  0.00000000000E+00 0.  1.
</event>
<event>
 4    1  0.1602044E+006  0.2820092E+02  0.7546771E-02  0.1435904E+00
         21   -1    0    0  503  501  0.00000000000E+00  0.00000000000E+00  0.28211863007E+02  0.28211863007E+02  0.00000000000E+00 0.  1.
         21   -1    0    0  504  502 -0.00000000000E+00 -0.00000000000E+00 -0.30612826475E+02  0.30612826475E+02  0.00000000000E+00 0.  1.
         21    1    1    2  503  502  0.26466513047E+02 -0.97373192419E+01  0.70740108905E+01  0.29074616575E+02  0.00000000000E+00 0.  1.
         21    1    1    2  504  501 -0.26466513047E+02  0.97373192419E+01 -0.94749743582E+01  0.29750072907E+02  0.00000000000E+00 0.  1.
</event>
<event>
 4    1  0.1602044E+006  0.2150161E+02  0.7546771E-02  0.1512222E+00
         21   -1    0    0  504  501  0.00000000000E+00  0.00000000000E+00  0.28184754477E+03  0.28184754477E+03  0.00000000000E+00 0. -1.
         21   -1    0    0  501  502 -0.00000000000E+00 -0.00000000000E+00 -0.16470286086E+01  0.16470286086E+01  0.00000000000E+00 0. -1.
         21    1    1    2  503  502 -0.13569898523E+02 -0.16678645551E+02  0.13105184507E+03  0.13280401146E+03  0.00000000000E+00 0. -1.
         21    1    1    2  504  503  0.13569898523E+02  0.16678645551E+02  0.14914867108E+03  0.15069056191E+03  0.00000000000E+00 0. -1.
</event>
<event>
 4    1  0.1602044E+006  0.2132822E+02  0.7546771E-02  0.1514630E+00
         21   -1    0    0  502  501  0.00000000000E+00  0.00000000000E+00  0.71809699703E+03  0.71809699703E+03  0.00000000000E+00 0.  1.
         21   -1    0    0  504  502 -0.00000000000E+00 -0.00000000000E+00 -0.15277469899E+01  0.15277469899E+01  0.00000000000E+00 0. -1.
         21    1    1    2  503  501  0.19084904315E+02 -0.95215139710E+01  0.63357209040E+03  0.63393097932E+03  0.00000000000E+00 0.  1.
         21    1    1    2  504  503 -0.19084904315E+02  0.95215139710E+01  0.82997159640E+02  0.85693764705E+02  0.00000000000E+00 0. -1.
</event>
<event>
 4    1  0.1602044E+006  0.2448204E+02  0.7546771E-02  0.1474682E+00
         21   -1    0    0  504  501  0.00000000000E+00  0.00000000000E+00  0.68844546568E+02  0.68844546568E+02  0.00000000000E+00 0. -1.
         21   -1    0    0  501  502 -0.00000000000E+00 -0.00000000000E+00 -0.18201937890E+02  0.18201937890E+02  0.00000000000E+00 0. -1.
         21    1    1    2  503  502 -0.81897698448E+01  0.23071581809E+02 -0.61147602117E+01  0.25234114008E+02  0.00000000000E+00 0. -1.
         21    1    1    2  504  503  0.81897698448E+01 -0.23071581809E+02  0.56757368890E+02  0.61812370450E+02  0.00000000000E+00 0. -1.
</event>
<event>
 4    1  0.1602044E+006  0.3372780E+02  0.7546771E-02  0.1389735E+00
         21   -1    0    0  503  501  0.00000000000E+00  0.00000000000E+00  0.47834989108E+02  0.47834989108E+02  0.00000000000E+00 0. -1.
         21   -1    0    0  504  502 -0.00000000000E+00 -0.00000000000E+00 -0.23787732313E+02  0.23787732313E+02  0.00000000000E+00 0. -1.
         21    1    1    2  503  502 -0.23729153365E+02  0.23968551945E+02  0.12625781152E+02  0.36013532893E+02  0.00000000000E+00 0. -1.
         21    1    1    2  504  501  0.23729153365E+02 -0.23968551945E+02  0.11421475643E+02  0.35609188528E+02  0.00000000000E+00 0. -1.
</event>
<event>
 4    1  0.1602044E+006  0.2733186E+02  0.7546771E-02  0.1444303E+00
         21   -1    0    0  503  501  0.00000000000E+00  0.00000000000E+00  0.24548427494E+03  0.24548427494E+03  0.00000000000E+00 0.  1.
         21   -1    0    0  504  502 -0.00000000000E+00 -0.00000000000E+00 -0.37566713494E+01  0.37566713494E+01  0.00000000000E+00 0.  1.
         21    1    1    2  503  502 -0.33890910328E+01  0.27120929544E+02  0.17517751829E+03  0.17729690824E+03  0.00000000000E+00 0.  1.
         21    1    1    2  504  501  0.33890910328E+01 -0.27120929544E+02  0.66550085306E+02  0.71944038055E+02  0.00000000000E+00 0.  1.
</event>
<event>
 4    1  0.1602044E+006  0.2410198E+02  0.7546771E-02  0.1479106E+00
         21   -1    0    0  503  501  0.00000000000E+00  0.00000000000E+00  0.48998016218E+02  0.48998016218E+02  0.00000000000E+00 0.  1.
         21   -1    0    0  501  502 -0.00000000000E+00 -0.00000000000E+00 -0.20633141312E+03  0.20633141312E+03  0.00000000000E+00 0. -1.
         21    1    1    2  503  504  0.11391157262E+02 -0.21240216310E+02  0.45275986796E+02  0.51291522039E+02  0.00000000000E+00 0.  1.
         21    1    1    2  504  502 -0.11391157262E+02  0.21240216310E+02 -0.20260938370E+03  0.20403790730E+03  0.00000000000E+00 0. -1.
</event>
<event>
 4    1  0.1602044E+006  0.2091088E+02  0.7546771E-02  0.1520541E+00
         21   -1    0    0  503  501  0.00000000000E+00  0.00000000000E+00  0.12983814223E+03  0.12983814223E+03  0.00000000000E+00 0.  1.
         21   -1    0    0  501  502 -0.00000000000E+00 -0.00000000000E+00 -0.62607313160E+01  0.62607313160E+01  0.00000000000E+00 0.  1.
         21    1    1    2  503  504  0.17875937554E+02  0.10849681411E+02  0.10804634539E+03  0.11005124934E+03  0.00000000000E+00 0.  1.
         21    1    1    2  504  502 -0.17875937554E+02 -0.10849681411E+02  0.15531065520E+02  0.26047624198E+02  0.00000000000E+00 0.  1.
</event>
<event>
 4    1  0.1602044E+006  0.3168539E+02  0.7546771E-02  0.1405495E+00
         21   -1    0    0  503  501  0.00000000000E+00  0.00000000000E+00  0.12387206679E+02  0.12387206679E+02  0.00000000000E+00 0. -1.
         21   -1    0    0  504  502 -0.00000000000E+00 -0.00000000000E+00 -0.36807327953E+03  0.36807327953E+03  0.00000000000E+00 0. -1.
         21    1    1    2  503  502  0.26880042693E+02  0.16775785399E+02 -0.34582867918E+03  0.34727717894E+03  0.00000000000E+00 0. -1.
         21    1    1    2  504  501 -0.26880042693E+02 -0.16775785399E+02 -0.98573936666E+01  0.33183307262E+02  0.00000000000E+00 0. -1.
</event>
<event>
 4    1  0.1602044E+006  0.2198780E+02  0.7546771E-02  0.1505615E+00
         21   -1    0    0  502  501  0.00000000000E+00  0.00000000000E+00  0.22520986639E+02  0.22520986639E+02  0.00000000000E+00 0.  1.
         21   -1    0    0  504  502 -0.00000000000E+00 -0.00000000000E+00 -0.32773569969E+02  0.32773569969E+02  0.00000000000E+00 0.  1.
         21    1    1    2  503  501  0.21983048272E+02  0.45725038417E+00  0.11112409217E+02  0.24636337549E+02  0.00000000000E+00 0.  1.
         21    1    1    2  504  503 -0.21983048272E+02 -0.45725038417E+00 -0.21364992547E+02  0.30658219058E+02  0.00000000000E+00 0.  1.
</event>
<event>
 4    1  0.1602044E+006  0.2187364E+02  0.7546771E-02  0.1507148E+00
         21   -1    0    0  504  501  0.00000000000E+00  0.00000000000E+00  0.48872288420E+02  0.48872288420E+02  0.00000000000E+00 0. -1.
         21   -1    0    0  503  502 -0.00000000000E+00 -0.00000000000E+00 -0.14178427083E+03  0.14178427083E+03  0.00000000000E+00 0.  1.
         21    1    1    2  503  501 -0.12870356272E+02 -0.17686437343E+02  0.45522311058E+02  0.50504820963E+02  0.00000000000E+00 0. -1.
         21    1    1    2  504  502  0.12870356272E+02  0.17686437343E+02 -0.13843429347E+03  0.14015173828E+03  0.00000000000E+00 0.  1.
</event>
<event>
 4    1  0.1602044E+006  0.2362868E+02  0.7546771E-02  0.1484751E+00
         21   -1    0    0  502  501  0.00000000000E+00  0.00000000000E+00  0.43452419156E+02  0.43452419156E+02  0.00000000000E+00 0.  1.
         21   -1    0    0  504  502 -0.00000000000E+00 -0.00000000000E+00 -0.80174907589E+02  0.80174907589E+02  0.00000000000E+00 0.  1.
         21    1    1    2  503  501  0.22257969892E+02 -0.79307749910E+01  0.38283129765E+02  0.44987914380E+02  0.00000000000E+00 0.  1.
         21    1    1    2  504  503 -0.22257969892E+02  0.79307749910E+01 -0.75005618198E+02  0.78639412364E+02  0.00000000000E+00 0.  1.
</event>
<event>
 4    1  0.1602044E+006  0.2117095E+02  0.7546771E-02  0.1516838E+00
         21   -1    0    0  504  501  0.00000000000E+00  0.00000000000E+00  0.16093710798E+01  0.16093710798E+01  0.00000000000E+00 0.  1.
         21   -1    0    0  501  502 -0.00000000000E+00 -0.00000000000E+00 -0.77352220964E+03  0.77352220964E+03  0.00000000000E+00 0.  1.
         21    1    1    2  503  502  0.17639874633E+02 -0.11706573168E+02 -0.69599918744E+03  0.69632110262E+03  0.00000000000E+00 0.  1.
         21    1    1    2  504  503 -0.17639874633E+02  0.11706573168E+02 -0.75913651117E+02  0.78810478099E+02  0.00000000000E+00 0.  1.
</event>
<event>
 4    1  0.1602044E+006  0.2640506E+02  0.7546771E-02  0.1453678E+00
         21   -1    0    0  503  501  0.00000000000E+00  0.00000000000E+00  0.70714400419E+02  0.70714400419E+02  0.00000000000E+00 0. -1.
         21   -1    0    0  504  502 -0.00000000000E+00 -0.00000000000E+00 -0.11605674527E+03  0.11605674527E+03  0.00000000000E+00 0. -1.
         21    1    1    2  503  502  0.25677742961E+02  0.61547288739E+01  0.66659516499E+02  0.71698802717E+02  0.00000000000E+00 0. -1.
         21    1    1    2  504  501 -0.25677742961E+02 -0.61547288739E+01 -0.11200186135E+03  0.11507234297E+03  0.00000000000E+00 0. -1.
</event>
<event>
 4    1  0.1602044E+006  0.5965335E+02  0.7546771E-02  0.1261015E+00
         21   -1    0    0  504  501  0.00000000000E+00  0.00000000000E+00  0.44219938349E+02  0.44219938349E+02  0.00000000000E+00 0. -1.
         21   -1    0    0  503  502 -0.00000000000E+00 -0.00000000000E+00 -0.80863623564E+02  0.80863623564E+02  0.00000000000E+00 0. -1.
         21    1    1    2  503  501 -0.11375537521E+02 -0.58558678611E+02 -0.13976343941E+02  0.61268751289E+02  0.00000000000E+00 0. -1.
         21    1    1    2  504  502  0.11375537521E+02  0.58558678611E+02 -0.22667341273E+02  0.63814810624E+02  0.00000000000E+00 0. -1.
</event>
<event>
 4    1  0.1602044E+006  0.2332224E+02  0.7546771E-02  0.1488491E+00
         21   -1    0    0  503  501  0.00000000000E+00  0.00000000000E+00  0.82860337458E+03  0.82860337458E+03  0.00000000000E+00 0.  1.
         21   -1    0    0  504  502 -0.00000000000E+00 -0.00000000000E+00 -0.65903548230E+00  0.65903548230E+00  0.00000000000E+00 0. -1.
         21    1    1    2  503  502  0.21198632852E+02 -0.97234141479E+01  0.44000229546E+03  0.44061995736E+03  0.00000000000E+00 0.  1.
         21    1    1    2  504  501 -0.21198632852E+02  0.97234141479E+01  0.38794204364E+03  0.38864245270E+03  0.00000000000E+00 0. -1.
</event>
<event>
 4    1  0.1602044E+006  0.2961324E+02  0.7546771E-02  0.1422988E+00
         21   -1    0    0  504  501  0.00000000000E+00  0.00000000000E+00  0.62650160348E+03  0.62650160348E+03  0.00000000000E+00 0. -1.
         21   -1    0    0  503  502 -0.00000000000E+00 -0.00000000000E+00 -0.14151433446E+01  0.14151433446E+01  0.00000000000E+00 0. -1.
         21    1    1    2  503  501  0.13980840808E+02 -0.26105170953E+02  0.27979574455E+03  0.28135849468E+03  0.00000000000E+00 0. -1.
         21    1    1    2  504  502 -0.13980840808E+02  0.26105170953E+02  0.34529071559E+03  0.34655825215E+03  0.00000000000E+00 0. -1.
</event>
<event>
 4    1  0.1602044E+006  0.2121787E+02  0.7546771E-02  0.1516177E+00
         21   -1    0    0  504  501  0.00000000000E+00  0.00000000000E+00  0.10870135044E+03  0.10870135044E+03  0.00000000000E+00 0. -1.
         21   -1    0    0  503  502 -0.00000000000E+00 -0.00000000000E+00 -0.15566947713E+02  0.15566947713E+02  0.00000000000E+00 0. -1.
         21    1    1    2  503  501  0.13309171973E+02 -0.16524652020E+02  0.99798028864E+02  0.10202864670E+03  0.00000000000E+00 0. -1.
         21    1    1    2  504  502 -0.13309171973E+02  0.16524652020E+02 -0.66636261420E+01  0.22239651444E+02  0.00000000000E+00 0. -1.
</event>
<event>
 4    1  0.1602044E+006  0.2366087E+02  0.7546771E-02  0.1484362E+00
         21   -1    0    0  503  501  0.00000000000E+00  0.00000000000E+00  0.90484510153E+02  0.90484510153E+02  0.00000000000E+00 0.  1.
         21   -1    0    0  501  502 -0.00000000000E+00 -0.00000000000E+00 -0.20372376844E+02  0.20372376844E+02  0.00000000000E+00 0.  1.
         21    1    1    2  503  504  0.22829397635E+02  0.62173255073E+01  0.81308093724E+02  0.84680828042E+02  0.00000000000E+00 0.  1.
         21    1    1    2  504  502 -0.22829397635E+02 -0.62173255073E+01 -0.11195960414E+02  0.26176058955E+02  0.00000000000E+00 0.  1.
</event>
<event>
 4    1  0.1602044E+006  0.2363844E+02  0.7546771E-02  0.1484633E+00
         21   -1    0    0  503  501  0.00000000000E+00  0.00000000000E+00  0.12697208640E+02  0.12697208640E+02  0.00000000000E+00 0.  1.
         21   -1    0    0  501  502 -0.00000000000E+00 -0.00000000000E+00 -0.71744626260E+02  0.71744626260E+02  0.00000000000E+00 0. -1.
         21    1    1    2  503  504  0.20924646484E+02  0.10997036762E+02 -0.32717501204E+01  0.23863780020E+02  0.00000000000E+00 0.  1.
         21    1    1    2  504  502 -0.20924646484E+02 -0.10997036762E+02 -0.55775667499E+02  0.60578054879E+02  0.00000000000E+00 0. -1.
</event>
<event>
 4    1  0.1602044E+006  0.2095054E+02  0.7546771E-02  0.1519972E+00
         21   -1    0    0  502  501  0.00000000000E+00  0.00000000000E+00  0.25209518156E+03  0.25209518156E+03  0.00000000000E+00 0.  1.
         21   -1    0    0  503  502 -0.00000000000E+00 -0.00000000000E+00 -0.11311377053E+02  0.11311377053E+02  0.00000000000E+00 0.  1.
         21    1    1    2  503  504 -0.16996756103E+02  0.12248891632E+02 -0.75181934769E+00  0.20964023864E+02  0.00000000000E+00 0.  1.
         21    1    1    2  504  501  0.16996756103E+02 -0.12248891632E+02  0.24153562386E+03  0.24244253475E+03  0.00000000000E+00 0.  1.
</event>
<event>
 4    1  0.1602044E+006  0.3048715E+02  0.7546771E-02  0.1415409E+00
         21   -1    0    0  502  501  0.00000000000E+00  0.00000000000E+00  0.23342423562E+02  0.23342423562E+02  0.00000000000E+00 0.  1.
         21   -1    0    0  504  502 -0.00000000000E+00 -0.00000000000E+00 -0.43211403498E+02  0.43211403498E+02  0.00000000000E+00 0.  1.
         21    1    1    2  503  501  0.78058069075E+01 -0.29470934488E+02 -0.61027433792E+00  0.30493262139E+02  0.00000000000E+00 0.  1.
         21    1    1    2  504  503 -0.78058069075E+01  0.29470934488E+02 -0.19258705598E+02  0.36060564921E+02  0.00000000000E+00 0.  1.
</event>
<event>
 4    1  0.1602044E+006  0.3693998E+02  0.7546771E-02  0.1367415E+00
         21   -1    0    0  502  501  0.00000000000E+00  0.00000000000E+00  0.16818271182E+03  0.16818271182E+03  0.00000000000E+00 0.  1.
         21   -1    0    0  503  502 -0.00000000000E+00 -0.00000000000E+00 -0.30202947797E+02  0.30202947797E+02  0.00000000000E+00 0. -1.
         21    1    1    2  503  504 -0.33067491211E+02 -0.16465203579E+02 -0.15839709025E+02  0.40192764099E+02  0.00000000000E+00 0. -1.
         21    1    1    2  504  501  0.33067491211E+02  0.16465203579E+02  0.15381947305E+03  0.15819289552E+03  0.00000000000E+00 0.  1.
</event>
<event>
 4    1  0.1602044E+006  0.2833079E+02  0.7546771E-02  0.1434679E+00
         21   -1    0    0  503  501  0.00000000000E+00  0.00000000000E+00  0.95631075125E+02  0.95631075125E+02  0.00000000000E+00 0.  1.
         21   -1    0    0  501  502 -0.00000000000E+00 -0.00000000000E+00 -0.14065403965E+02  0.14065403965E+02  0.00000000000E+00 0. -1.
         21    1    1    2  503  504  0.18454157795E+02  0.21495995644E+02  0.75614104876E+02  0.80747301038E+02  0.00000000000E+00 0.  1.
         21    1    1    2  504  502 -0.18454157795E+02 -0.21495995644E+02  0.59515662833E+01  0.28949178052E+02  0.00000000000E+00 0. -1.
</event>
<event>
 4    1  0.1602044E+006  0.3025039E+02  0.7546771E-02  0.1417433E+00
         21   -1    0    0  503  501  0.00000000000E+00  0.00000000000E+00  0.52582842024E+02  0.52582842024E+02  0.00000000000E+00 0. -1.
         21   -1    0    0  501  502 -0.00000000000E+00 -0.00000000000E+00 -0.23298925524E+03  0.23298925524E+03  0.00000000000E+00 0. -1.
         21    1    1    2  503  504 -0.19086824382E+02  0.23468683446E+02  0.47146778508E+02  0.56017003591E+02  0.00000000000E+00 0. -1.
         21    1    1    2  504  502  0.19086824382E+02 -0.23468683446E+02 -0.22755319172E+03  0.22955509367E+03  0.00000000000E+00 0. -1.
</event>
<event>
 4    1  0.1602044E+006  0.2211533E+02  0.7546771E-02  0.1503916E+00
         21   -1    0    0  504  501  0.00000000000E+00  0.00000000000E+00  0.31062841090E+03  0.31062841090E+03  0.00000000000E+00 0.  1.
         21   -1    0    0  503  502 -0.00000000000E+00 -0.00000000000E+00 -0.98192167563E+01  0.98192167563E+01  0.00000000000E+00 0. -1.
         21    1    1    2  503  501  0.12234498733E+02  0.18422948804E+02  0.29722155091E+03  0.29804318199E+03  0.00000000000E+00 0.  1.
         21    1    1    2  504  502 -0.12234498733E+02 -0.18422948804E+02  0.35876432335E+01  0.22404445672E+02  0.00000000000E+00 0. -1.
</event>
<event>
 4    1  0.1602044E+006  0.4736385E+02  0.7546771E-02  0.1310025E+00
         21   -1    0    0  504  501  0.00000000000E+00  0.00000000000E+00  0.44282955397E+03  0.44282955397E+03  0.00000000000E+00 0. -1.
         21   -1    0    0  501  502 -0.00000000000E+00 -0.00000000000E+00 -0.14801889848E+03  0.14801889848E+03  0.00000000000E+00 0.  1.
         21    1    1    2  503  502 -0.37632707934E+02  0.28759580509E+02 -0.14291947780E+03  0.15056331330E+03  0.00000000000E+00 0.  1.
         21    1    1    2  504  503  0.37632707934E+02 -0.28759580509E+02  0.43773013329E+03  0.44028513916E+03  0.00000000000E+00 0. -1.
</event>
<event>
 4    1  0.1602044E+006  0.2117847E+02  0.7546771E-02  0.1516732E+00
         21   -1    0    0  504  501  0.00000000000E+00  0.00000000000E+00  0.14819926699E+03  0.14819926699E+03  0.00000000000E+00 0. -1.
         21   -1    0    0  503  502 -0.00000000000E+00 -0.00000000000E+00 -0.84853406997E+01  0.84853406997E+01  0.00000000000E+00 0. -1.
         21    1    1    2  503  501  0.19848910674E+02  0.73856770505E+01  0.70205678519E+01  0.22311787320E+02  0.00000000000E+00 0. -1.
         21    1    1    2  504  502 -0.19848910674E+02 -0.73856770505E+01  0.13269335844E+03  0.13437282037E+03  0.00000000000E+00 0. -1.
</event>
<event>
 4    1  0.1602044E+006  0.3391661E+02  0.7546771E-02  0.1388344E+00
         21   -1    0    0  502  501  0.00000000000E+00  0.00000000000E+00  0.52181022463E+01  0.52181022463E+01  0.00000000000E+00 0. -1.
         21   -1    0    0  503  502 -0.00000000000E+00 -0.00000000000E+00 -0.30784501876E+03  0.30784501876E+03  0.00000000000E+00 0. -1.
         21    1    1    2  503  504  0.33230696147E+02  0.67865569002E+01 -0.23471544367E+03  0.23715327537E+03  0.00000000000E+00 0. -1.
         21    1    1    2  504  501 -0.33230696147E+02 -0.67865569002E+01 -0.67911472847E+02  0.75909845640E+02  0.00000000000E+00 0. -1.
</event>
<event>
 4    1  0.1602044E+006  0.2861465E+02  0.7546771E-02  0.1432030E+00
         21   -1    0    0  504  501  0.00000000000E+00  0.00000000000E+00  0.46210611872E+01  0.46210611872E+01  0.00000000000E+00 0.  1.
         21   -1    0    0  503  502 -0.00000000000E+00 -0.00000000000E+00 -0.91295274157E+03  0.91295274157E+03  0.00000000000E+00 0. -1.
         21    1    1    2  503  501 -0.27396832453E+02  0.82590315092E+01 -0.42299542699E+02  0.51069064437E+02  0.00000000000E+00 0.  1.
         21    1    1    2  504  502  0.27396832453E+02 -0.82590315092E+01 -0.86603213768E+03  0.86650473832E+03  0.00000000000E+00 0. -1.
</event>
<event>
 4    1  0.1602044E+006  0.3090322E+02  0.7546771E-02  0.1411906E+00
         21   -1    0    0  502  501  0.00000000000E+00  0.00000000000E+00  0.17847764329E+03  0.17847764329E+03  0.00000000000E+00 0. -1.
         21   -1    0    0  503  502 -0.00000000000E+00 -0.00000000000E+00 -0.21067344673E+03  0.21067344673E+03  0.00000000000E+00 0.  1.
         21    1    1    2  503  504 -0.24204688456E+02 -0.19213072951E+02 -0.20818655751E+03  0.21046769786E+03  0.00000000000E+00 0.  1.
         21    1    1    2  504  501  0.24204688456E+02  0.19213072951E+02  0.17599075407E+03  0.17868339216E+03  0.00000000000E+00 0. -1.
</event>
<event>
 4    1  0.1602044E+006  0.3125653E+02  0.7546771E-02  0.1408983E+00
         21   -1    0    0  504  501  0.00000000000E+00  0.00000000000E+00  0.23662229866E+04  0.23662229866E+04  0.00000000000E+00 0.  1.
         21   -1    0    0  503  502 -0.00000000000E+00 -0.00000000000E+00 -0.77591371676E+00  0.77591371676E+00  0.00000000000E+00 0.  1.
         21    1    1    2  503  501  0.49857139475E+01 -0.30856336395E+02  0.19922548279E+04  0.19925000050E+04  0.00000000000E+00 0.  1.
         21    1    1    2  504  502 -0.49857139475E+01  0.30856336395E+02  0.37319224497E+03  0.37449889525E+03  0.00000000000E+00 0.  1.
</event>
<event>
 4    1  0.1602044E+006  0.2295025E+02  0.7546771E-02  0.1493124E+00
         21   -1    0    0  502  501  0.00000000000E+00  0.00000000000E+00  0.62065659915E+03  0.62065659915E+03  0.00000000000E+00 0.  1.
         21   -1    0    0  503  502 -0.00000000000E+00 -0.00000000000E+00 -0.21310396545E+01  0.21310396545E+01  0.00000000000E+00 0.  1.
         21    1    1    2  503  504  0.20590538122E+02 -0.10136260383E+02  0.67702283053E+02  0.71486454418E+02  0.00000000000E+00 0.  1.
         21    1    1    2  504  501 -0.20590538122E+02  0.10136260383E+02  0.55082327644E+03  0.55130118439E+03  0.00000000000E+00 0.  1.
</event>
<event>
 4    1  0.1602044E+006  0.3694054E+02  0.7546771E-02  0.1367411E+00
         21   -1    0    0  503  501  0.00000000000E+00  0.00000000000E+00  0.60605249196E+02  0.60605249196E+02  0.00000000000E+00 0.  1.
         21   -1    0    0  504  502 -0.00000000000E+00 -0.00000000000E+00 -0.12158475761E+03  0.12158475761E+03  0.00000000000E+00 0.  1.
         21    1    1    2  503  502 -0.21324110930E+02  0.30164312411E+02  0.51738824130E+02  0.63572866638E+02  0.00000000000E+00 0.  1.
         21    1    1    2  504  501  0.21324110930E+02 -0.30164312411E+02 -0.11271833254E+03  0.11861714016E+03  0.00000000000E+00 0.  1.
</event>
<event>
 4    1  0.1602044E+006  0.2210206E+02  0.7546771E-02  0.1504092E+00
         21   -1    0    0  504  501  0.00000000000E+00  0.00000000000E+00  0.11775479256E+04  0.11775479256E+04  0.00000000000E+00 0. -1.
         21   -1    0    0  503  502 -0.00000000000E+00 -0.00000000000E+00 -0.71881423341E+01  0.71881423341E+01  0.00000000000E+00 0. -1.
         21    1    1    2  503  501 -0.98756918663E+01  0.19773004422E+02  0.11602003815E+04  0.11604108868E+04  0.00000000000E+00 0. -1.
         21    1    1    2  504  502  0.98756918663E+01 -0.19773004422E+02  0.10159401809E+02  0.24325181167E+02  0.00000000000E+00 0. -1.
</event>
<event>
 4    1  0.1602044E+006  0.2376398E+02  0.7546771E-02  0.1483121E+00
         21   -1    0    0  503  501  0.00000000000E+00  0.00000000000E+00  0.41630948247E+02  0.41630948247E+02  0.00000000000E+00 0.  1.
         21   -1    0    0  504  502 -0.00000000000E+00 -0.00000000000E+00 -0.33305193358E+02  0.33305193358E+02  0.00000000000E+00 0.  1.
         21    1    1    2  503  502 -0.69238924633E+01 -0.22732939556E+02 -0.24682767736E+02  0.34263185066E+02  0.00000000000E+00 0.  1.
         21    1    1    2  504  501  0.69238924633E+01  0.22732939556E+02  0.33008522625E+02  0.40672956539E+02  0.00000000000E+00 0.  1.
</event>
<event>
 4    1  0.1602044E+006  0.2151776E+02  0.7546771E-02  0.1511999E+00
         21   -1    0    0  503  501  0.00000000000E+00  0.00000000000E+00  0.71490316268E+02  0.71490316268E+02  0.00000000000E+00 0.  1.
         21   -1    0    0  504  502 -0.00000000000E+00 -0.00000000000E+00 -0.18256320186E+03  0.18256320186E+03  0.00000000000E+00 0. -1.
         21    1    1    2  503  502 -0.10449369343E+01 -0.21492370393E+02 -0.18028966085E+03  0.18156920358E+03  0.00000000000E+00 0. -1.
         21    1    1    2  504  501  0.10449369343E+01  0.21492370393E+02  0.69216775260E+02  0.72484314549E+02  0.00000000000E+00 0.  1.
</event>
<event>
 4    1  0.1602044E+006  0.3229524E+02  0.7546771E-02  0.1400646E+00
         21   -1    0    0  503  501  0.00000000000E+00  0.00000000000E+00  0.18802368375E+02  0.18802368375E+02  0.00000000000E+00 0. -1.
         21   -1    0    0  504  502 -0.00000000000E+00 -0.00000000000E+00 -0.16277449566E+04  0.16277449566E+04  0.00000000000E+00 0. -1.
         21    1    1    2  503  502 -0.49697124793E+01  0.31910566143E+02  0.46528895754E+01  0.32628693738E+02  0.00000000000E+00 0. -1.
         21    1    1    2  504  501  0.49697124793E+01 -0.31910566143E+02 -0.16135954778E+04  0.16139186313E+04  0.00000000000E+00 0. -1.
</event>
<event>
 4    1  0.1602044E+006  0.3624058E+02  0.7546771E-02  0.1372045E+00
         21   -1    0    0  503  501  0.00000000000E+00  0.00000000000E+00  0.79577512687E+03  0.79577512687E+03  0.00000000000E+00 0.  1.
         21   -1    0    0  504  502 -0.00000000000E+00 -0.00000000000E+00 -0.56708285663E+01  0.56708285663E+01  0.00000000000E+00 0.  1.
         21    1    1    2  503  502  0.34308922630E+02 -0.11673781690E+02  0.57644453157E+02  0.68090104499E+02  0.00000000000E+00 0.  1.
         21    1    1    2  504  501 -0.34308922630E+02  0.11673781690E+02  0.73245984515E+03  0.73335585094E+03  0.00000000000E+00 0.  1.
</event>
<event>
 4    1  0.1602044E+006  0.2113167E+02  0.7546771E-02  0.1517393E+00
         21   -1    0    0  503  501  0.00000000000E+00  0.00000000000E+00  0.25182983127E+02  0.25182983127E+02  0.00000000000E+00 0.  1.
         21   -1    0    0  504  502 -0.00000000000E+00 -0.00000000000E+00 -0.17879077298E+02  0.17879077298E+02  0.00000000000E+00 0.  1.
         21    1    1    2  503  502  0.84567226405E+01  0.19365724848E+02  0.56040475414E+01  0.21862131771E+02  0.00000000000E+00 0.  1.
         21    1    1    2  504  501 -0.84567226405E+01 -0.19365724848E+02  0.16998582875E+01  0.21199928654E+02  0.00000000000E+00 0.  1.
</event>
<event>
 4    1  0.1602044E+006  0.2105601E+02  0.7546771E-02  0.1518467E+00
         21   -1    0    0  504  501  0.00000000000E+00  0.00000000000E+00  0.21765109198E+02  0.21765109198E+02  0.00000000000E+00 0.  1.
         21   -1    0    0  503  502 -0.00000000000E+00 -0.00000000000E+00 -0.21394246893E+02  0.21394246893E+02  0.00000000000E+00 0.  1.
         21    1    1    2  503  501  0.11263062757E+02 -0.17790417430E+02 -0.45362455584E+01  0.21539105338E+02  0.00000000000E+00 0.  1.
         21    1    1    2  504  502 -0.11263062757E+02  0.17790417430E+02  0.49071078632E+01  0.21620250752E+02  0.00000000000E+00 0.  1.
</event>
<event>
 4    1  0.1602044E+006  0.2179273E+02  0.7546771E-02  0.1508241E+00
         21   -1    0    0  503  501  0.00000000000E+00  0.00000000000E+00  0.10166520066E+02  0.10166520066E+02  0.00000000000E+00 0. -1.
         21   -1    0    0  501  502 -0.00000000000E+00 -0.00000000000E+00 -0.13679634165E+03  0.13679634165E+03  0.00000000000E+00 0. -1.
         21    1    1    2  503  504  0.18447814525E+02  0.11601771867E+02 -0.36856793650E+01  0.22102199067E+02  0.00000000000E+00 0. -1.
         21    1    1    2  504  502 -0.18447814525E+02 -0.11601771867E+02 -0.12294414222E+03  0.12486066265E+03  0.00000000000E+00 0. -1.
</event>
<event>
 4    1  0.1602044E+006  0.2169902E+02  0.7546771E-02  0.1509514E+00
         21   -1    0    0  503  501  0.00000000000E+00  0.00000000000E+00  0.13175050863E+03  0.13175050863E+03  0.00000000000E+00 0.  1.
         21   -1    0    0  504  502 -0.00000000000E+00 -0.00000000000E+00 -0.35875802447E+01  0.35875802447E+01  0.00000000000E+00 0.  1.
         21    1    1    2  503  502  0.19493748192E+02  0.95310589157E+01  0.68278437621E+02  0.71643508754E+02  0.00000000000E+00 0.  1.
         21    1    1    2  504  501 -0.19493748192E+02 -0.95310589157E+01  0.59884490762E+02  0.63694580118E+02  0.00000000000E+00 0.  1.
</event>
<event>
 4    1  0.1602044E+006  0.2756967E+02  0.7546771E-02  0.1441968E+00
         21   -1    0    0  503  501  0.00000000000E+00  0.00000000000E+00  0.19929880435E+03  0.19929880435E+03  0.00000000000E+00 0. -1.
         21   -1    0    0  504  502 -0.00000000000E+00 -0.00000000000E+00 -0.42289593619E+01  0.42289593619E+01  0.00000000000E+00 0. -1.
         21    1    1    2  503  502 -0.12127591551E+02  0.24758997982E+02  0.12941963813E+03  0.13232357761E+03  0.00000000000E+00 0. -1.
         21    1    1    2  504  501  0.12127591551E+02 -0.24758997982E+02  0.65650206857E+02  0.71204186101E+02  0.00000000000E+00 0. -1.
</event>
<event>
 4    1  0.1602044E+006  0.2025377E+02  0.7546771E-02  0.1530191E+00
         21   -1    0    0  503  501  0.00000000000E+00  0.00000000000E+00  0.61447768689E+01  0.61447768689E+01  0.00000000000E+00 0.  1.
         21   -1    0    0  504  502 -0.00000000000E+00 -0.00000000000E+00 -0.92481389251E+02  0.92481389251E+02  0.00000000000E+00 0.  1.
         21    1    1    2  503  502 -0.60168011566E+01  0.19339420463E+02 -0.69175664423E+02  0.72079731051E+02  0.00000000000E+00 0.  1.
         21    1    1    2  504  501  0.60168011566E+01 -0.19339420463E+02 -0.17160947959E+02  0.26546435069E+02  0.00000000000E+00 0.  1.
</event>
<event>
 4    1  0.1602044E+006  0.2023929E+02  0.7546771E-02  0.1530409E+00
         21   -1    0    0  504  501  0.00000000000E+00  0.00000000000E+00  0.16858882053E+02  0.16858882053E+02  0.00000000000E+00 0.  1.
         21   -1    0    0  503  502 -0.00000000000E+00 -0.00000000000E+00 -0.28706608154E+02  0.28706608154E+02  0.00000000000E+00 0. -1.
         21    1    1    2  503  501  0.19043343251E+02  0.68541995468E+01 -0.14852592192E+02  0.25104351583E+02  0.00000000000E+00 0. -1.
         21    1    1    2  504  502 -0.19043343251E+02 -0.68541995468E+01  0.30048660902E+01  0.20461138624E+02  0.00000000000E+00 0.  1.
</event>
<event>
 4    1  0.1602044E+006  0.2769560E+02  0.7546771E-02  0.1440743E+00
         21   -1    0    0  503  501  0.00000000000E+00  0.00000000000E+00  0.70163323489E+03  0.70163323489E+03  0.00000000000E+00 0.  1.
         21   -1    0    0  501  502 -0.00000000000E+00 -0.00000000000E+00 -0.30222936991E+01  0.30222936991E+01  0.00000000000E+00 0.  1.
         21    1    1    2  503  504  0.14297609297E+02  0.23719708409E+02  0.63078827421E+03  0.63139598754E+03  0.00000000000E+00 0.  1.
         21    1    1    2  504  502 -0.14297609297E+02 -0.23719708409E+02  0.67822666983E+02  0.73259541053E+02  0.00000000000E+00 0.  1.
</event>
<event>
 4    1  0.1602044E+006  0.2090948E+02  0.7546771E-02  0.1520561E+00
         21   -1    0    0  503  501  0.00000000000E+00  0.00000000000E+00  0.14790330193E+03  0.14790330193E+03  0.00000000000E+00 0. -1.
         21   -1    0    0  504  502 -0.00000000000E+00 -0.00000000000E+00 -0.10890607431E+03  0.10890607431E+03  0.00000000000E+00 0. -1.
         21    1    1    2  503  502 -0.11504633343E+02  0.17459946698E+02  0.14614867492E+03  0.14763685687E+03  0.00000000000E+00 0. -1.
         21    1    1    2  504  501  0.11504633343E+02 -0.17459946698E+02 -0.10715144730E+03  0.10917251937E+03  0.00000000000E+00 0. -1.
</event>
<event>
 4    1  0.1602044E+006  0.2098550E+02  0.7546771E-02  0.1519472E+00
         21   -1    0    0  503  501  0.00000000000E+00  0.00000000000E+00  0.25529743264E+03  0.25529743264E+03  0.00000000000E+00 0.  1.
         21   -1    0    0  504  502 -0.00000000000E+00 -0.00000000000E+00 -0.17258366210E+01  0.17258366210E+01  0.00000000000E+00 0.  1.
         21    1    1    2  503  502  0.14607861849E+02  0.15066571806E+02  0.12397720782E+03  0.12574076218E+03  0.00000000000E+00 0.  1.
         21    1    1    2  504  501 -0.14607861849E+02 -0.15066571806E+02  0.12959438819E+03  0.13128250708E+03  0.00000000000E+00 0.  1.
</event>
<event>
 4    1  0.1602044E+006  0.4533038E+02  0.7546771E-02  0.1319796E+00
         21   -1    0    0  503  501  0.00000000000E+00  0.00000000000E+00  0.11839384773E+03  0.11839384773E+03  0.00000000000E+00 0. -1.
         21   -1    0    0  501  502 -0.00000000000E+00 -0.00000000000E+00 -0.14114065964E+03  0.14114065964E+03  0.00000000000E+00 0.  1.
         21    1    1    2  503  504  0.32952710682E+02  0.31128163770E+02  0.11015350367E+03  0.11911606983E+03  0.00000000000E+00 0. -1.
         21    1    1    2  504  502 -0.32952710682E+02 -0.31128163770E+02 -0.13290031558E+03  0.14041843754E+03  0.00000000000E+00 0.  1.
</event>
<event>
 4    1  0.1602044E+006  0.2428849E+02  0.7546771E-02  0.1476923E+00
         21   -1    0    0  504  501  0.00000000000E+00  0.00000000000E+00  0.61288480207E+03  0.61288480207E+03  0.00000000000E+00 0. -1.
         21   -1    0    0  503  502 -0.00000000000E+00 -0.00000000000E+00 -0.13731863337E+01  0.13731863337E+01  0.00000000000E+00 0.  1.
         21    1    1    2  503  501  0.22412121828E+02 -0.93609592069E+01  0.47370815051E+03  0.47433041503E+03  0.00000000000E+00 0. -1.
         21    1    1    2  504  502 -0.22412121828E+02  0.93609592069E+01  0.13780346522E+03  0.13992757337E+03  0.00000000000E+00 0.  1.
</event>
<event>
 4    1  0.1602044E+006  0.2085091E+02  0.7546771E-02  0.1521404E+00
         21   -1    0    0  504  501  0.00000000000E+00  0.00000000000E+00  0.42720104124E+03  0.42720104124E+03  0.00000000000E+00 0. -1.
         21   -1    0    0  503  502 -0.00000000000E+00 -0.00000000000E+00 -0.44178293247E+01  0.44178293247E+01  0.00000000000E+00 0.  1.
         21    1    1    2  503  501 -0.20849095795E+02 -0.27527657628E+00  0.40071922246E+03  0.40126133108E+03  0.00000000000E+00 0. -1.
         21    1    1    2  504  502  0.20849095795E+02  0.27527657628E+00  0.22063989448E+02  0.30357539476E+02  0.00000000000E+00 0.  1.
</event>
<event>
 4    1  0.1602044E+006  0.2691353E+02  0.7546771E-02  0.1448479E+00
         21   -1    0    0  502  501  0.00000000000E+00  0.00000000000E+00  0.12705582227E+03  0.12705582227E+03  0.00000000000E+00 0. -1.
         21   -1    0    0  504  502 -0.00000000000E+00 -0.00000000000E+00 -0.60299634346E+01  0.60299634346E+01  0.00000000000E+00 0. -1.
         21    1    1    2  503  501 -0.21103642715E+02  0.16702518748E+02  0.76056702958E+02  0.80678125494E+02  0.00000000000E+00 0. -1.
         21    1    1    2  504  503  0.21103642715E+02 -0.16702518748E+02  0.44969155873E+02  0.52407660206E+02  0.00000000000E+00 0. -1.
</event>
<event>
 4    1  0.1602044E+006  0.4698343E+02  0.7546771E-02  0.1311809E+00
         21   -1    0    0  503  501  0.00000000000E+00  0.00000000000E+00  0.11124927944E+03  0.11124927944E+03  0.00000000000E+00 0. -1.
         21   -1    0    0  504  502 -0.00000000000E+00 -0.00000000000E+00 -0.23382461690E+02  0.23382461690E+02  0.00000000000E+00 0. -1.
         21    1    1    2  503  502  0.42240271934E+02 -0.20571880918E+02  0.17740532437E+02  0.50221204174E+02  0.00000000000E+00 0. -1.
         21    1    1    2  504  501 -0.42240271934E+02  0.20571880918E+02  0.70126285312E+02  0.84410536956E+02  0.00000000000E+00 0. -1.
</event>
<event>
 4    1  0.1602044E+006  0.2130330E+02  0.7546771E-02  0.1514978E+00
         21   -1    0    0  504  501  0.00000000000E+00  0.00000000000E+00  0.12356858458E+01  0.12356858458E+01  0.00000000000E+00 0.  1.
         21   -1    0    0  503  502 -0.00000000000E+00 -0.00000000000E+00 -0.75251588110E+03  0.75251588110E+03  0.00000000000E+00 0. -1.
         21    1    1    2  503  501  0.19387819785E+02 -0.88285449726E+01 -0.10598464458E+03  0.10810446637E+03  0.00000000000E+00 0.  1.
         21    1    1    2  504  502 -0.19387819785E+02  0.88285449726E+01 -0.64529555068E+03  0.64564710058E+03  0.00000000000E+00 0. -1.
</event>
<event>
 4    1  0.1602044E+006  0.3101654E+02  0.7546771E-02  0.1410963E+00
         21   -1    0    0  504  501  0.00000000000E+00  0.00000000000E+00  0.36921635796E+01  0.36921635796E+01  0.00000000000E+00 0. -1.
         21   -1    0    0  501  502 -0.00000000000E+00 -0.00000000000E+00 -0.11388446871E+04  0.11388446871E+04  0.00000000000E+00 0.  1.
         21    1    1    2  503  502 -0.30529831387E+02  0.54731476210E+01 -0.10692552443E+04  0.10697050077E+04  0.00000000000E+00 0.  1.
         21    1    1    2  504  503  0.30529831387E+02 -0.54731476210E+01 -0.65897279249E+02  0.72831843048E+02  0.00000000000E+00 0. -1.
</event>
<event>
 4    1  0.1602044E+006  0.2429904E+02  0.7546771E-02  0.1476800E+00
         21   -1    0    0  503  501  0.00000000000E+00  0.00000000000E+00  0.48572045533E+01  0.48572045533E+01  0.00000000000E+00 0. -1.
         21   -1    0    0  501  502 -0.00000000000E+00 -0.00000000000E+00 -0.23501898676E+03  0.23501898676E+03  0.00000000000E+00 0.  1.
         21    1    1    2  503  504  0.16432169495E+02 -0.17900479508E+02 -0.31746454468E+02  0.39978503376E+02  0.00000000000E+00 0. -1.
         21    1    1    2  504  502 -0.16432169495E+02  0.17900479508E+02 -0.19841532774E+03  0.19989768794E+03  0.00000000000E+00 0.  1.
</event>
<event>
 4    1  0.1602044E+006  0.2413248E+02  0.7546771E-02  0.1478747E+00
         21   -1    0    0  502  501  0.00000000000E+00  0.00000000000E+00  0.50353885403E+03  0.50353885403E+03  0.00000000000E+00 0. -1.
         21   -1    0    0  504  502 -0.00000000000E+00 -0.00000000000E+00 -0.28282959743E+03  0.28282959743E+03  0.00000000000E+00 0. -1.
         21    1    1    2  503  501  0.23233018757E+02 -0.65271299937E+01  0.50273411174E+03  0.50331298781E+03  0.00000000000E+00 0. -1.
         21    1    1    2  504  503 -0.23233018757E+02  0.65271299937E+01 -0.28202485514E+03  0.28305546365E+03  0.00000000000E+00 0. -1.
</event>
<event>
 4    1  0.1602044E+006  0.2052752E+02  0.7546771E-02  0.1526119E+00
         21   -1    0    0  504  501  0.00000000000E+00  0.00000000000E+00  0.86901933342E+03  0.86901933342E+03  0.00000000000E+00 0. -1.
         21   -1    0    0  501  502 -0.00000000000E+00 -0.00000000000E+00 -0.19326525295E+01  0.19326525295E+01  0.00000000000E+00 0. -1.
         21    1    1    2  503  502  0.18395185603E+02  0.91102182401E+01  0.56634807745E+02  0.60240189060E+02  0.00000000000E+00 0. -1.
         21    1    1    2  504  503 -0.18395185603E+02 -0.91102182401E+01  0.81045187315E+03  0.81071179689E+03  0.00000000000E+00 0. -1.
</event>
<event>
 4    1  0.1602044E+006  0.3710806E+02  0.7546771E-02  0.1366320E+00
         21   -1    0    0  503  501  0.00000000000E+00  0.00000000000E+00  0.49236002462E+03  0.49236002462E+03  0.00000000000E+00 0.  1.
         21   -1    0    0  504  502 -0.00000000000E+00 -0.00000000000E+00 -0.24472103884E+02  0.24472103884E+02  0.00000000000E+00 0.  1.
         21    1    1    2  503  502 -0.26860669043E+02  0.25602978525E+02  0.47714585240E+03  0.47858664055E+03  0.00000000000E+00 0.  1.
         21    1    1    2  504  501  0.26860669043E+02 -0.25602978525E+02 -0.92579316563E+01  0.38245487961E+02  0.00000000000E+00 0.  1.
</event>
<event>
 4    1  0.1602044E+006  0.3033266E+02  0.7546771E-02  0.1416727E+00
         21   -1    0    0  504  501  0.00000000000E+00  0.00000000000E+00  0.11551754804E+03  0.11551754804E+03  0.00000000000E+00 0.  1.
         21   -1    0    0  503  502 -0.00000000000E+00 -0.00000000000E+00 -0.36134881808E+02  0.36134881808E+02  0.00000000000E+00 0.  1.
         21    1    1    2  503  501  0.10182838005E+01 -0.30315558931E+02 -0.27258637289E+02  0.40781163814E+02  0.00000000000E+00 0.  1.
         21    1    1    2  504  502 -0.10182838005E+01  0.30315558931E+02  0.10664130352E+03  0.11087126603E+03  0.00000000000E+00 0.  1.
</event>
<event>
 4    1  0.1602044E+006  0.2192202E+02  0.7546771E-02  0.1506497E+00
         21   -1    0    0  503  501  0.00000000000E+00  0.00000000000E+00  0.41921961509E+02  0.41921961509E+02  0.00000000000E+00 0.  1.
         21   -1    0    0  504  502 -0.00000000000E+00 -0.00000000000E+00 -0.32882330065E+02  0.32882330065E+02  0.00000000000E+00 0.  1.
         21    1    1    2  503  502  0.17546959096E+02 -0.13140748961E+02  0.34706294642E+02  0.41049993234E+02  0.00000000000E+00 0.  1.
         21    1    1    2  504  501 -0.17546959096E+02  0.13140748961E+02 -0.25666663197E+02  0.33754298340E+02  0.00000000000E+00 0.  1.
</event>
<event>
 4    1  0.1602044E+006  0.2853342E+02  0.7546771E-02  0.1432784E+00
         21   -1    0    0  503  501  0.00000000000E+00  0.00000000000E+00  0.80938261521E+01  0.80938261521E+01  0.00000000000E+00 0. -1.
         21   -1    0    0  504  502 -0.00000000000E+00 -0.00000000000E+00 -0.38216621529E+03  0.38216621529E+03  0.00000000000E+00 0.  1.
         21    1    1    2  503  502  0.26609282944E+02 -0.10300584490E+02 -0.19543403949E+02  0.34584687617E+02  0.00000000000E+00 0. -1.
         21    1    1    2  504  501 -0.26609282944E+02  0.10300584490E+02 -0.35452898518E+03  0.35567535382E+03  0.00000000000E+00 0.  1.
</event>
<event>
 4    1  0.1602044E+006  0.3883466E+02  0.7546771E-02  0.1355453E+00
         21   -1    0    0  503  501  0.00000000000E+00  0.00000000000E+00  0.63507380356E+02  0.63507380356E+02  0.00000000000E+00 0. -1.
         21   -1    0    0  504  502 -0.00000000000E+00 -0.00000000000E+00 -0.23972767780E+02  0.23972767780E+02  0.00000000000E+00 0. -1.
         21    1    1    2  503  502  0.35103963110E+01  0.38675675686E+02  0.24008938086E+02  0.45656980628E+02  0.00000000000E+00 0. -1.
         21    1    1    2  504  501 -0.35103963110E+01 -0.38675675686E+02  0.15525674489E+02  0.41823167508E+02  0.00000000000E+00 0. -1.
</event>
<event>
 4    1  0.1602044E+006  0.2589797E+02  0.7546771E-02  0.1459004E+00
         21   -1    0    0  503  501  0.00000000000E+00  0.00000000000E+00  0.19314059157E+02  0.19314059157E+02  0.00000000000E+00 0. -1.
         21   -1    0    0  504  502 -0.00000000000E+00 -0.00000000000E+00 -0.30928562350E+03  0.30928562350E+03  0.00000000000E+00 0.  1.
         21    1    1    2  503  502 -0.24983423628E+02 -0.68215282959E+01 -0.29978737351E+03  0.30090392822E+03  0.00000000000E+00 0.  1.
         21    1    1    2  504  501  0.24983423628E+02  0.68215282959E+01  0.98158091618E+01  0.27695754439E+02  0.00000000000E+00 0. -1.
</event>
<event>
 4    1  0.1602044E+006  0.2779362E+02  0.7546771E-02  0.1439795E+00
         21   -1    0    0  504  501  0.00000000000E+00  0.00000000000E+00  0.65286922194E+01  0.65286922194E+01  0.00000000000E+00 0.  1.
         21   -1    0    0  501  502 -0.00000000000E+00 -0.00000000000E+00 -0.15001029384E+04  0.15001029384E+04  0.00000000000E+00 0. -1.
         21    1    1    2  503  502 -0.21150929162E+02 -0.18031185432E+02 -0.14697836523E+04  0.14700464176E+04  0.00000000000E+00 0. -1.
         21    1    1    2  504  503  0.21150929162E+02  0.18031185432E+02 -0.23790593922E+02  0.36585213019E+02  0.00000000000E+00 0.  1.
</event>
<event>
 4    1  0.1602044E+006  0.3446664E+02  0.7546771E-02  0.1384352E+00
         21   -1    0    0  504  501  0.00000000000E+00  0.00000000000E+00  0.24801191700E+01  0.24801191700E+01  0.00000000000E+00 0.  1.
         21   -1    0    0  503  502 -0.00000000000E+00 -0.00000000000E+00 -0.60796403620E+03  0.60796403620E+03  0.00000000000E+00 0.  1.
         21    1    1    2  503  501  0.27217302203E+02  0.21146345649E+02 -0.44332406650E+03  0.44466186863E+03  0.00000000000E+00 0.  1.
         21    1    1    2  504  502 -0.27217302203E+02 -0.21146345649E+02 -0.16215985052E+03  0.16578228674E+03  0.00000000000E+00 0.  1.
</event>
<event>
 4    1  0.1602044E+006  0.2125818E+02  0.7546771E-02  0.1515611E+00
         21   -1    0    0  504  501  0.00000000000E+00  0.00000000000E+00  0.10018474636E+03  0.10018474636E+03  0.00000000000E+00 0.  1.
         21   -1    0    0  503  502 -0.00000000000E+00 -0.00000000000E+00 -0.54322192925E+02  0.54322192925E+02  0.00000000000E+00 0.  1.
         21    1    1    2  503  501 -0.77745815872E+01 -0.19785497049E+02 -0.51045232759E+02  0.55294898497E+02  0.00000000000E+00 0.  1.
         21    1    1    2  504  502  0.77745815872E+01  0.19785497049E+02  0.96907786193E+02  0.99212040787E+02  0.00000000000E+00 0.  1.
</event>
<event>
 4    1  0.1602044E+006  0.2281912E+02  0.7546771E-02  0.1494782E+00
         21   -1    0    0  504  501  0.00000000000E+00  0.00000000000E+00  0.21957467174E+03  0.21957467174E+03  0.00000000000E+00 0. -1.
         21   -1    0    0  503  502 -0.00000000000E+00 -0.00000000000E+00 -0.76493016400E+03  0.76493016400E+03  0.00000000000E+00 0.  1.
         21    1    1    2  503  501 -0.18871849364E+02  0.12828315029E+02 -0.76416652391E+03  0.76450715407E+03  0.00000000000E+00 0.  1.
         21    1    1    2  504  502  0.18871849364E+02 -0.12828315029E+02  0.21881103165E+03  0.21999768167E+03  0.00000000000E+00 0. -1.
</event>
<event>
 4    1  0.1602044E+006  0.5331622E+02  0.7546771E-02  0.1284401E+00
         21   -1    0    0  504  501  0.00000000000E+00  0.00000000000E+00  0.32340100166E+02  0.32340100166E+02  0.00000000000E+00 0. -1.
         21   -1    0    0  503  502 -0.00000000000E+00 -0.00000000000E+00 -0.12749469381E+03  0.12749469381E+03  0.00000000000E+00 0. -1.
         21    1    1    2  503  501 -0.38188528613E+02  0.37205588111E+02 -0.92114868914E+02  0.10643199039E+03  0.00000000000E+00 0. -1.
         21    1    1    2  504  502  0.38188528613E+02 -0.37205588111E+02 -0.30397247325E+01  0.53402803585E+02  0.00000000000E+00 0. -1.
</event>
<event>
 4    1  0.1602044E+006  0.2335139E+02  0.7546771E-02  0.1488132E+00
         21   -1    0    0  502  501  0.00000000000E+00  0.00000000000E+00  0.30245141363E+01  0.30245141363E+01  0.00000000000E+00 0. -1.
         21   -1    0    0  503  502 -0.00000000000E+00 -0.00000000000E+00 -0.25012134280E+03  0.25012134280E+03  0.00000000000E+00 0. -1.
         21    1    1    2  503  504  0.55586089960E+01 -0.22680150106E+02 -0.19042791547E+03  0.19185431538E+03  0.00000000000E+00 0. -1.
         21    1    1    2  504  501 -0.55586089960E+01  0.22680150106E+02 -0.56668913194E+02  0.61291541549E+02  0.00000000000E+00 0. -1.
</event>
<event>
 4    1  0.1602044E+006  0.2065796E+02  0.7546771E-02  0.1524205E+00
         21   -1    0    0  504  501  0.00000000000E+00  0.00000000000E+00  0.36037384790E+02  0.36037384790E+02  0.00000000000E+00 0.  1.
         21   -1    0    0  503  502 -0.00000000000E+00 -0.00000000000E+00 -0.12407945489E+02  0.12407945489E+02  0.00000000000E+00 0.  1.
         21    1    1    2  503  501 -0.19187503771E+02  0.76544796614E+01  0.66410944723E+01  0.21699204954E+02  0.00000000000E+00 0.  1.
         21    1    1    2  504  502  0.19187503771E+02 -0.76544796614E+01  0.16988344829E+02  0.26746125325E+02  0.00000000000E+00 0.  1.
</event>
<event>
 4    1  0.1602044E+006  0.2431374E+02  0.7546771E-02  0.1476629E+00
         21   -1    0    0  503  501  0.00000000000E+00  0.00000000000E+00  0.10980259726E+04  0.10980259726E+04  0.00000000000E+00 0.  1.
         21   -1    0    0  504  502 -0.00000000000E+00 -0.00000000000E+00 -0.90947754640E+02  0.90947754640E+02  0.00000000000E+00 0. -1.
         21    1    1    2  503  502  0.16747313339E+02 -0.17626266627E+02  0.10962637724E+04  0.10965333632E+04  0.00000000000E+00 0.  1.
         21    1    1    2  504  501 -0.16747313339E+02  0.17626266627E+02 -0.89185554487E+02  0.92440364064E+02  0.00000000000E+00 0. -1.
</event>
<event>
 4    1  0.1602044E+006  0.2121214E+02  0.7546771E-02  0.1516257E+00
         21   -1    0    0  503  501  0.00000000000E+00  0.00000000000E+00  0.91493309250E+02  0.91493309250E+02  0.00000000000E+00 0.  1.
         21   -1    0    0  504  502 -0.00000000000E+00 -0.00000000000E+00 -0.86904232462E+01  0.86904232462E+01  0.00000000000E+00 0.  1.
         21    1    1    2  503  502  0.21206854382E+02  0.47369938084E+00  0.83977426023E+01  0.22813968192E+02  0.00000000000E+00 0.  1.
         21    1    1    2  504  501 -0.21206854382E+02 -0.47369938084E+00  0.74405143402E+02  0.77369764304E+02  0.00000000000E+00 0.  1.
</event>
<event>
 4    1  0.1602044E+006  0.2108401E+02  0.7546771E-02  0.1518069E+00
         21   -1    0    0  502  501  0.00000000000E+00  0.00000000000E+00  0.70933489542E+02  0.70933489542E+02  0.00000000000E+00 0. -1.
         21   -1    0    0  504  502 -0.00000000000E+00 -0.00000000000E+00 -0.25126631837E+02  0.25126631837E+02  0.00000000000E+00 0.  1.
         21    1    1    2  503  501  0.18396962938E+01  0.21003598717E+02  0.64514925746E+02  0.67872758051E+02  0.00000000000E+00 0. -1.
         21    1    1    2  504  503 -0.18396962938E+01 -0.21003598717E+02 -0.18708068042E+02  0.28187363327E+02  0.00000000000E+00 0.  1.
</event>
<event>
 4    1  0.1602044E+006  0.4956712E+02  0.7546771E-02  0.1300060E+00
         21   -1    0    0  502  501  0.00000000000E+00  0.00000000000E+00  0.12999289039E+02  0.12999289039E+02  0.00000000000E+00 0.  1.
         21   -1    0    0  503  502 -0.00000000000E+00 -0.00000000000E+00 -0.62665613570E+03  0.62665613570E+03  0.00000000000E+00 0. -1.
         21    1    1    2  503  504  0.14527704479E+02  0.47390353456E+02 -0.57410853869E+03  0.57624431797E+03  0.00000000000E+00 0. -1.
         21    1    1    2  504  501 -0.14527704479E+02 -0.47390353456E+02 -0.39548307971E+02  0.63411106767E+02  0.00000000000E+00 0.  1.
</event>
<event>
 4    1  0.1602044E+006  0.2065224E+02  0.7546771E-02  0.1524288E+00
         21   -1    0    0  503  501  0.00000000000E+00  0.00000000000E+00  0.35233896310E+03  0.35233896310E+03  0.00000000000E+00 0. -1.
         21   -1    0    0  504  502 -0.00000000000E+00 -0.00000000000E+00 -0.12684910916E+01  0.12684910916E+01  0.00000000000E+00 0.  1.
         21    1    1    2  503  502 -0.16887300486E+02 -0.11888394877E+02  0.21333052021E+03  0.21432784631E+03  0.00000000000E+00 0. -1.
         21    1    1    2  504  501  0.16887300486E+02  0.11888394877E+02  0.13773995180E+03  0.13927960788E+03  0.00000000000E+00 0.  1.
</event>
<event>
 4    1  0.1602044E+006  0.2008153E+02  0.7546771E-02  0.1532793E+00
         21   -1    0    0  504  501  0.00000000000E+00  0.00000000000E+00  0.21404413546E+01  0.21404413546E+01  0.00000000000E+00 0.  1.
         21   -1    0    0  503  502 -0.00000000000E+00 -0.00000000000E+00 -0.19626388240E+03  0.19626388240E+03  0.00000000000E+00 0. -1.
         21    1    1    2  503  501  0.43363918170E+01  0.19607741684E+02 -0.77209573452E+02  0.79778355841E+02  0.00000000000E+00 0.  1.
         21    1    1    2  504  502 -0.43363918170E+01 -0.19607741684E+02 -0.11691386759E+03  0.11862596792E+03  0.00000000000E+00 0. -1.
</event>
<event>
 4    1  0.1602044E+006  0.2310753E+02  0.7546771E-02  0.1491152E+00
         21   -1    0    0  504  501  0.00000000000E+00  0.00000000000E+00  0.71904091258E+02  0.71904091258E+02  0.00000000000E+00 0. -1.
         21   -1    0    0  503  502 -0.00000000000E+00 -0.00000000000E+00 -0.87141930671E+01  0.87141930671E+01  0.00000000000E+00 0. -1.
         21    1    1    2  503  501 -0.18434274126E+02  0.13933251029E+02  0.16096624686E+02  0.28161308085E+02  0.00000000000E+00 0. -1.
         21    1    1    2  504  502  0.18434274126E+02 -0.13933251029E+02  0.47093273505E+02  0.52456976240E+02  0.00000000000E+00 0. -1.
</event>
<event>
 4    1  0.1602044E+006  0.2235204E+02  0.7546771E-02  0.1500799E+00
         21   -1    0    0  502  501  0.00000000000E+00  0.00000000000E+00  0.39643860825E+02  0.39643860825E+02  0.00000000000E+00 0.  1.
         21   -1    0    0  504  502 -0.00000000000E+00 -0.00000000000E+00 -0.18168634961E+02  0.18168634961E+02  0.00000000000E+00 0.  1.
         21    1    1    2  503  501  0.17378301847E+02  0.14057316736E+02  0.26737086553E+02  0.34849466657E+02  0.00000000000E+00 0.  1.
         21    1    1    2  504  503 -0.17378301847E+02 -0.14057316736E+02 -0.52618606888E+01  0.22963029129E+02  0.00000000000E+00 0.  1.
</event>
<event>
 4    1  0.1602044E+006  0.2098783E+02  0.7546771E-02  0.1519439E+00
         21   -1    0    0  504  501  0.00000000000E+00  0.00000000000E+00  0.18988615218E+02  0.18988615218E+02  0.00000000000E+00 0. -1.
         21   -1    0    0  503  502 -0.00000000000E+00 -0.00000000000E+00 -0.25806911379E+02  0.25806911379E+02  0.00000000000E+00 0. -1.
         21    1    1    2  503  501  0.19984875148E+02 -0.64104481821E+01 -0.10531196721E+02  0.23481805402E+02  0.00000000000E+00 0. -1.
         21    1    1    2  504  502 -0.19984875148E+02  0.64104481821E+01  0.37129005606E+01  0.21313721194E+02  0.00000000000E+00 0. -1.
</event>
<event>
 4    1  0.1602044E+006  0.2073544E+02  0.7546771E-02  0.1523076E+00
         21   -1    0    0  504  501  0.00000000000E+00  0.00000000000E+00  0.59696209116E+02  0.59696209116E+02  0.00000000000E+00 0.  1.
         21   -1    0    0  501  502 -0.00000000000E+00 -0.00000000000E+00 -0.15030338305E+02  0.15030338305E+02  0.00000000000E+00 0.  1.
         21    1    1    2  503  502  0.12798409981E+02 -0.16314386436E+02 -0.46309868712E+01  0.21246283021E+02  0.00000000000E+00 0.  1.
         21    1    1    2  504  503 -0.12798409981E+02  0.16314386436E+02  0.49296857683E+02  0.53480264399E+02  0.00000000000E+00 0.  1.
</event>
<event>
 4    1  0.1602044E+006  0.5780455E+02  0.7546771E-02  0.1267480E+00
         21   -1    0    0  503  501  0.00000000000E+00  0.00000000000E+00  0.36567378527E+03  0.36567378527E+03  0.00000000000E+00 0. -1.
         21   -1    0    0  501  502 -0.00000000000E+00 -0.00000000000E+00 -0.12833127140E+02  0.12833127140E+02  0.00000000000E+00 0. -1.
         21    1    1    2  503  504 -0.34453277020E+02  0.46414847082E+02  0.27797925320E+03  0.28392575004E+03  0.00000000000E+00 0. -1.
         21    1    1    2  504  502  0.34453277020E+02 -0.46414847082E+02  0.74861404930E+02  0.94581162369E+02  0.00000000000E+00 0. -1.
</event>
<event>
 4    1  0.1602044E+006  0.2282993E+02  0.7546771E-02  0.1494645E+00
         21   -1    0    0  503  501  0.00000000000E+00  0.00000000000E+00  0.14244589748E+03  0.14244589748E+03  0.00000000000E+00 0. -1.
         21   -1    0    0  501  502 -0.00000000000E+00 -0.00000000000E+00 -0.47195654019E+01  0.47195654019E+01  0.00000000000E+00 0. -1.
         21    1    1    2  503  504  0.22068726691E+02  0.58461288643E+01  0.10374496135E+03  0.10622722309E+03  0.00000000000E+00 0. -1.
         21    1    1    2  504  502 -0.22068726691E+02 -0.58461288643E+01  0.33981370727E+02  0.40938239788E+02  0.00000000000E+00 0. -1.
</event>
<event>
 4    1  0.1602044E+006  0.2011973E+02  0.7546771E-02  0.1532213E+00
         21   -1    0    0  503  501  0.00000000000E+00  0.00000000000E+00  0.32615904464E+02  0.32615904464E+02  0.00000000000E+00 0.  1.
         21   -1    0    0  501  502 -0.00000000000E+00 -0.00000000000E+00 -0.13697897555E+03  0.13697897555E+03  0.00000000000E+00 0.  1.
         21    1    1    2  503  504  0.19664484240E+02  0.42557736495E+01  0.28683090703E+02  0.35036027773E+02  0.00000000000E+00 0.  1.
         21    1    1    2  504  502 -0.19664484240E+02 -0.42557736495E+01 -0.13304616179E+03  0.13455885224E+03  0.00000000000E+00 0.  1.
</event>
<event>
 4    1  0.1602044E+006  0.2241830E+02  0.7546771E-02  0.1499935E+00
         21   -1    0    0  504  501  0.00000000000E+00  0.00000000000E+00  0.72910675004E+02  0.72910675004E+02  0.00000000000E+00 0. -1.
         21   -1    0    0  503  502 -0.00000000000E+00 -0.00000000000E+00 -0.77294404706E+01  0.77294404706E+01  0.00000000000E+00 0.  1.
         21    1    1    2  503  501 -0.21347068320E+02 -0.68471023826E+01  0.45853570233E+02  0.51040474527E+02  0.00000000000E+00 0. -1.
         21    1    1    2  504  502  0.21347068320E+02  0.68471023826E+01  0.19327664301E+02  0.29599640947E+02  0.00000000000E+00 0.  1.
</event>
<event>
 4    1  0.1602044E+006  0.2284480E+02  0.7546771E-02  0.1494456E+00
         21   -1    0    0  502  501  0.00000000000E+00  0.00000000000E+00  0.30779195999E+03  0.30779195999E+03  0.00000000000E+00 0.  1.
         21   -1    0    0  503  502 -0.00000000000E+00 -0.00000000000E+00 -0.82149219281E+02  0.82149219281E+02  0.00000000000E+00 0. -1.
         21    1    1    2  503  504  0.15825811926E+02  0.16475086921E+02 -0.80126611915E+02  0.83319618033E+02  0.00000000000E+00 0. -1.
         21    1    1    2  504  501 -0.15825811926E+02 -0.16475086921E+02  0.30576935263E+03  0.30662156124E+03  0.00000000000E+00 0.  1.
</event>
<event>
 4    1  0.1602044E+006  0.2486613E+02  0.7546771E-02  0.1470307E+00
         21   -1    0    0  502  501  0.00000000000E+00  0.00000000000E+00  0.52173093857E+02  0.52173093857E+02  0.00000000000E+00 0.  1.
         21   -1    0    0  503  502 -0.00000000000E+00 -0.00000000000E+00 -0.14529633467E+03  0.14529633467E+03  0.00000000000E+00 0. -1.
         21    1    1    2  503  504 -0.11544153617E+00 -0.24865862276E+02 -0.14118393862E+03  0.14335699828E+03  0.00000000000E+00 0. -1.
         21    1    1    2  504  501  0.11544153617E+00  0.24865862276E+02  0.48060697804E+02  0.54112430243E+02  0.00000000000E+00 0.  1.
</event>
<event>
 4    1  0.1602044E+006  0.2144987E+02  0.7546771E-02  0.1512938E+00
         21   -1    0    0  504  501  0.00000000000E+00  0.00000000000E+00  0.71123284465E+02  0.71123284465E+02  0.00000000000E+00 0. -1.
         21   -1    0    0  501  502 -0.00000000000E+00 -0.00000000000E+00 -0.26994035332E+02  0.26994035332E+02  0.00000000000E+00 0.  1.
         21    1    1    2  503  502  0.43431001989E+01 -0.21005580785E+02 -0.20713689980E+02  0.29818683674E+02  0.00000000000E+00 0.  1.
         21    1    1    2  504  503 -0.43431001989E+01  0.21005580785E+02  0.64842939113E+02  0.68298636123E+02  0.00000000000E+00 0. -1.
</event>
<event>
 4    1  0.1602044E+006  0.2267766E+02  0.7546771E-02  0.1496586E+00
         21   -1    0    0  503  501  0.00000000000E+00  0.00000000000E+00  0.13301874596E+02  0.13301874596E+02  0.00000000000E+00 0.  1.
         21   -1    0    0  501  502 -0.00000000000E+00 -0.00000000000E+00 -0.10305991225E+03  0.10305991225E+03  0.00000000000E+00 0. -1.
         21    1    1    2  503  504  0.17170584070E+02 -0.14813748990E+02  0.11118526365E+01  0.22704896669E+02  0.00000000000E+00 0.  1.
         21    1    1    2  504  502 -0.17170584070E+02  0.14813748990E+02 -0.90869890292E+02  0.93656890180E+02  0.00000000000E+00 0. -1.
</event>
<event>
 4    1  0.1602044E+006  0.5673220E+02  0.7546771E-02  0.1271359E+00
         21   -1    0    0  503  501  0.00000000000E+00  0.00000000000E+00  0.52426520163E+02  0.52426520163E+02  0.00000000000E+00 0. -1.
         21   -1    0    0  504  502 -0.00000000000E+00 -0.00000000000E+00 -0.17592537114E+03  0.17592537114E+03  0.00000000000E+00 0. -1.
         21    1    1    2  503  502  0.15448451403E+02  0.54588344879E+02 -0.15387439842E+03  0.16399961139E+03  0.00000000000E+00 0. -1.
         21    1    1    2  504  501 -0.15448451403E+02 -0.54588344879E+02  0.30375547443E+02  0.64352279912E+02  0.00000000000E+00 0. -1.
</event>
<event>
 4    1  0.1602044E+006  0.2524001E+02  0.7546771E-02  0.1466136E+00
         21   -1    0    0  503  501  0.00000000000E+00  0.00000000000E+00  0.49314732024E+02  0.49314732024E+02  0.00000000000E+00 0.  1.
         21   -1    0    0  504  502 -0.00000000000E+00 -0.00000000000E+00 -0.20179030728E+02  0.20179030728E+02  0.00000000000E+00 0. -1.
         21    1    1    2  503  502  0.23962782565E+02 -0.79273606130E+01  0.35410771537E+02  0.43485408304E+02  0.00000000000E+00 0.  1.
         21    1    1    2  504  501 -0.23962782565E+02  0.79273606130E+01 -0.62750702418E+01  0.26008354448E+02  0.00000000000E+00 0. -1.
</event>
<event>
 4    1  0.1602044E+006  0.2065572E+02  0.7546771E-02  0.1524237E+00
         21   -1    0    0  504  501  0.00000000000E+00  0.00000000000E+00  0.34398896715E+02  0.34398896715E+02  0.00000000000E+00 0. -1.
         21   -1    0    0  503  502 -0.00000000000E+00 -0.00000000000E+00 -0.12531289760E+02  0.12531289760E+02  0.00000000000E+00 0. -1.
         21    1    1    2  503  501 -0.24616566424E+01  0.20508514199E+02  0.85621144012E+01  0.22359980123E+02  0.00000000000E+00 0. -1.
         21    1    1    2  504  502  0.24616566424E+01 -0.20508514199E+02  0.13305492554E+02  0.24570206352E+02  0.00000000000E+00 0. -1.
</event>
<event>
 4    1  0.1602044E+006  0.4564791E+02  0.7546771E-02  0.1318231E+00
         21   -1    0    0  504  501  0.00000000000E+00  0.00000000000E+00  0.29098969527E+03  0.29098969527E+03  0.00000000000E+00 0.  1.
         21   -1    0    0  503  502 -0.00000000000E+00 -0.00000000000E+00 -0.71735865450E+01  0.71735865450E+01  0.00000000000E+00 0.  1.
         21    1    1    2  503  501  0.16434145153E+02 -0.42586974491E+02  0.14819154647E+03  0.15506278073E+03  0.00000000000E+00 0.  1.
         21    1    1    2  504  502 -0.16434145153E+02  0.42586974491E+02  0.13562456225E+03  0.14310050108E+03  0.00000000000E+00 0.  1.
</event>
<event>
 4    1  0.1602044E+006  0.2553054E+02  0.7546771E-02  0.1462955E+00
         21   -1    0    0  503  501  0.00000000000E+00  0.00000000000E+00  0.47768856917E+01  0.47768856917E+01  0.00000000000E+00 0. -1.
         21   -1    0    0  504  502 -0.00000000000E+00 -0.00000000000E+00 -0.56229344760E+03  0.56229344760E+03  0.00000000000E+00 0.  1.
         21    1    1    2  503  502 -0.25411853303E+02 -0.24589250011E+01 -0.52550428777E+03  0.52612409664E+03  0.00000000000E+00 0.  1.
         21    1    1    2  504  501  0.25411853303E+02  0.24589250011E+01 -0.32012274140E+02  0.40946236654E+02  0.00000000000E+00 0. -1.
</event>
<event>
 4    1  0.1602044E+006  0.2145816E+02  0.7546771E-02  0.1512823E+00
         21   -1    0    0  502  501  0.00000000000E+00  0.00000000000E+00  0.59645534383E+02  0.59645534383E+02  0.00000000000E+00 0.  1.
         21   -1    0    0  503  502 -0.00000000000E+00 -0.00000000000E+00 -0.21071528172E+02  0.21071528172E+02  0.00000000000E+00 0.  1.
         21    1    1    2  503  504 -0.17995808578E+02  0.11687747033E+02 -0.12838934794E+02  0.25005815398E+02  0.00000000000E+00 0.  1.
         21    1    1    2  504  501  0.17995808578E+02 -0.11687747033E+02  0.51412941004E+02  0.55711247157E+02  0.00000000000E+00 0.  1.
</event>
<event>
 4    1  0.1602044E+006  0.2020219E+02  0.7546771E-02  0.1530967E+00
         21   -1    0    0  504  501  0.00000000000E+00  0.00000000000E+00  0.17790463949E+03  0.17790463949E+03  0.00000000000E+00 0.  1.
         21   -1    0    0  503  502 -0.00000000000E+00 -0.00000000000E+00 -0.96122423514E+01  0.96122423514E+01  0.00000000000E+00 0.  1.
         21    1    1    2  503  501 -0.14479550404E+02  0.14087975146E+02  0.16595478391E+03  0.16717989929E+03  0.00000000000E+00 0.  1.
         21    1    1    2  504  502  0.14479550404E+02 -0.14087975146E+02  0.23376132256E+01  0.20336982549E+02  0.00000000000E+00 0.  1.
</event>
<event>
 4    1  0.1602044E+006  0.3185743E+02  0.7546771E-02  0.1404114E+00
         21   -1    0    0  504  501  0.00000000000E+00  0.00000000000E+00  0.98472488910E+02  0.98472488910E+02  0.00000000000E+00 0. -1.
         21   -1    0    0  501  502 -0.00000000000E+00 -0.00000000000E+00 -0.18559663182E+02  0.18559663182E+02  0.00000000000E+00 0.  1.
         21    1    1    2  503  502 -0.89283644046E+01  0.30580719829E+02  0.93498147709E+00  0.31871151635E+02  0.00000000000E+00 0.  1.
         21    1    1    2  504  503  0.89283644046E+01 -0.30580719829E+02  0.78977844252E+02  0.85161000457E+02  0.00000000000E+00 0. -1.
</event>
<event>
 4    1  0.1602044E+006  0.2168114E+02  0.7546771E-02  0.1509758E+00
         21   -1    0    0  504  501  0.00000000000E+00  0.00000000000E+00  0.15875773502E+03  0.15875773502E+03  0.00000000000E+00 0. -1.
         21   -1    0    0  503  502 -0.00000000000E+00 -0.00000000000E+00 -0.52701194875E+01  0.52701194875E+01  0.00000000000E+00 0.  1.
         21    1    1    2  503  501 -0.37134763534E+01 -0.21360753447E+02  0.22455478048E+02  0.31214102403E+02  0.00000000000E+00 0.  1.
         21    1    1    2  504  502  0.37134763534E+01  0.21360753447E+02  0.13103213749E+03  0.13281375211E+03  0.00000000000E+00 0. -1.
</event>
<event>
 4    1  0.1602044E+006  0.3140232E+02  0.7546771E-02  0.1407789E+00
         21   -1    0    0  502  501  0.00000000000E+00  0.00000000000E+00  0.58230308341E+01  0.58230308341E+01  0.00000000000E+00 0. -1.
         21   -1    0    0  503  502 -0.00000000000E+00 -0.00000000000E+00 -0.61587663204E+03  0.61587663204E+03  0.00000000000E+00 0. -1.
         21    1    1    2  503  504  0.10030834750E+02  0.29757156075E+02 -0.56971189490E+03  0.57057668124E+03  0.00000000000E+00 0. -1.
         21    1    1    2  504  501 -0.10030834750E+02 -0.29757156075E+02 -0.40341706301E+02  0.51122981630E+02  0.00000000000E+00 0. -1.
</event>
<event>
 4    1  0.1602044E+006  0.2356140E+02  0.7546771E-02  0.1485566E+00
         21   -1    0    0  503  501  0.00000000000E+00  0.00000000000E+00  0.17164713195E+02  0.17164713195E+02  0.00000000000E+00 0.  1.
         21   -1    0    0  504  502 -0.00000000000E+00 -0.00000000000E+00 -0.11169607107E+03  0.11169607107E+03  0.00000000000E+00 0.  1.
         21    1    1    2  503  502  0.23538387270E+02 -0.10409948560E+01 -0.10157279249E+03  0.10426970567E+03  0.00000000000E+00 0.  1.
         21    1    1    2  504  501 -0.23538387270E+02  0.10409948560E+01  0.70414346089E+01  0.24591078604E+02  0.00000000000E+00 0.  1.
</event>
<event>
 4    1  0.1602044E+006  0.2422478E+02  0.7546771E-02  0.1477666E+00
         21   -1    0    0  502  501  0.00000000000E+00  0.00000000000E+00  0.20946613634E+02  0.20946613634E+02  0.00000000000E+00 0.  1.
         21   -1    0    0  504  502 -0.00000000000E+00 -0.00000000000E+00 -0.33378315541E+02  0.33378315541E+02  0.00000000000E+00 0. -1.
         21    1    1    2  503  501 -0.22697654604E+02  0.84650027486E+01  0.46712982743E+01  0.24671052341E+02  0.00000000000E+00 0.  1.
         21    1    1    2  504  503  0.22697654604E+02 -0.84650027486E+01 -0.17103000181E+02  0.29653876833E+02  0.00000000000E+00 0. -1.
</event>
<event>
 4    1  0.1602044E+006  0.2018783E+02  0.7546771E-02  0.1531184E+00
         21   -1    0    0  503  501  0.00000000000E+00  0.00000000000E+00  0.34322167896E+01  0.34322167896E+01  0.00000000000E+00 0. -1.
         21   -1    0    0  504  502 -0.00000000000E+00 -0.00000000000E+00 -0.12154111105E+03  0.12154111105E+03  0.00000000000E+00 0.  1.
         21    1    1    2  503  502 -0.14733766786E+02  0.13800890874E+02 -0.49571756435E+02  0.53524830767E+02  0.00000000000E+00 0. -1.
         21    1    1    2  504  501  0.14733766786E+02 -0.13800890874E+02 -0.68537137830E+02  0.71448497077E+02  0.00000000000E+00 0.  1.
</event>
<event>
 4    1  0.1602044E+006  0.2247426E+02  0.7546771E-02  0.1499208E+00
         21   -1    0    0  503  501  0.00000000000E+00  0.00000000000E+00  0.33231270508E+01  0.33231270508E+01  0.00000000000E+00 0. -1.
         21   -1    0    0  504  502 -0.00000000000E+00 -0.00000000000E+00 -0.35708953792E+03  0.35708953792E+03  0.00000000000E+00 0.  1.
         21    1    1    2  503  502 -0.21301094292E+02  0.71662957092E+01 -0.31345484844E+03  0.31425950173E+03  0.00000000000E+00 0.  1.
         21    1    1    2  504  501  0.21301094292E+02 -0.71662957092E+01 -0.40311562420E+02  0.46153163239E+02  0.00000000000E+00 0. -1.
</event>
<event>
 4    1  0.1602044E+006  0.2712255E+02  0.7546771E-02  0.1446381E+00
         21   -1    0    0  504  501  0.00000000000E+00  0.00000000000E+00  0.30008636126E+01  0.30008636126E+01  0.00000000000E+00 0. -1.
         21   -1    0    0  503  502 -0.00000000000E+00 -0.00000000000E+00 -0.31491011170E+03  0.31491011170E+03  0.00000000000E+00 0. -1.
         21    1    1    2  503  501 -0.73947622601E+01  0.26095017874E+02 -0.81134892959E+02  0.85548251427E+02  0.00000000000E+00 0. -1.
         21    1    1    2  504  502  0.73947622601E+01 -0.26095017874E+02 -0.23077435513E+03  0.23236272389E+03  0.00000000000E+00 0. -1.
</event>
<event>
 4    1  0.1602044E+006  0.2318936E+02  0.7546771E-02  0.1490134E+00
         21   -1    0    0  504  501  0.00000000000E+00  0.00000000000E+00  0.46981023407E+02  0.46981023407E+02  0.00000000000E+00 0. -1.
         21   -1    0    0  503  502 -0.00000000000E+00 -0.00000000000E+00 -0.22415596439E+03  0.22415596439E+03  0.00000000000E+00 0.  1.
         21    1    1    2  503  501  0.21317827204E+02  0.91267101480E+01 -0.22064935795E+03  0.22186456625E+03  0.00000000000E+00 0.  1.
         21    1    1    2  504  502 -0.21317827204E+02 -0.91267101480E+01  0.43474416964E+02  0.49272421548E+02  0.00000000000E+00 0. -1.
</event>
<event>
 4    1  0.1602044E+006  0.2201526E+02  0.7546771E-02  0.1505248E+00
         21   -1    0    0  502  501  0.00000000000E+00  0.00000000000E+00  0.32146988974E+03  0.32146988974E+03  0.00000000000E+00 0.  1.
         21   -1    0    0  504  502 -0.00000000000E+00 -0.00000000000E+00 -0.81313647618E+01  0.81313647618E+01  0.00000000000E+00 0.  1.
         21    1    1    2  503  501  0.18757686050E+02 -0.11524803261E+02  0.30540904927E+03  0.30620150106E+03  0.00000000000E+00 0.  1.
         21    1    1    2  504  503 -0.18757686050E+02  0.11524803261E+02  0.79294757108E+01  0.23399753443E+02  0.00000000000E+00 0.  1.
</event>
<event>
 4    1  0.1602044E+006  0.2403854E+02  0.7546771E-02  0.1479853E+00
         21   -1    0    0  502  501  0.00000000000E+00  0.00000000000E+00  0.20788500244E+02  0.20788500244E+02  0.00000000000E+00 0.  1.
         21   -1    0    0  504  502 -0.00000000000E+00 -0.00000000000E+00 -0.28852782799E+03  0.28852782799E+03  0.00000000000E+00 0.  1.
         21    1    1    2  503  501 -0.18759117650E+02 -0.15031531842E+02  0.13150008128E+02  0.27400258362E+02  0.00000000000E+00 0.  1.
         21    1    1    2  504  503  0.18759117650E+02  0.15031531842E+02 -0.28088933587E+03  0.28191606987E+03  0.00000000000E+00 0.  1.
</event>
<event>
 4    1  0.1602044E+006  0.2069535E+02  0.7546771E-02  0.1523659E+00
         21   -1    0    0  503  501  0.00000000000E+00  0.00000000000E+00  0.17929621445E+03  0.17929621445E+03  0.00000000000E+00 0. -1.
         21   -1    0    0  501  502 -0.00000000000E+00 -0.00000000000E+00 -0.12221946767E+03  0.12221946767E+03  0.00000000000E+00 0. -1.
         21    1    1    2  503  504 -0.14620138666E+02  0.14647486610E+02  0.17781566967E+03  0.17901594817E+03  0.00000000000E+00 0. -1.
         21    1    1    2  504  502  0.14620138666E+02 -0.14647486610E+02 -0.12073892288E+03  0.12249973395E+03  0.00000000000E+00 0. -1.
</event>
<event>
 4    1  0.1602044E+006  0.2433115E+02  0.7546771E-02  0.1476427E+00
         21   -1    0    0  504  501  0.00000000000E+00  0.00000000000E+00  0.73588502829E+02  0.73588502829E+02  0.00000000000E+00 0. -1.
         21   -1    0    0  501  502 -0.00000000000E+00 -0.00000000000E+00 -0.88361560764E+01  0.88361560764E+01  0.00000000000E+00 0. -1.
         21    1    1    2  503  502 -0.10456453737E+02 -0.21969695069E+02  0.20042827029E+02  0.31523322183E+02  0.00000000000E+00 0. -1.
         21    1    1    2  504  503  0.10456453737E+02  0.21969695069E+02  0.44709519724E+02  0.50901336722E+02  0.00000000000E+00 0. -1.
</event>
<event>
 4    1  0.1602044E+006  0.2125443E+02  0.7546771E-02  0.1515663E+00
         21   -1    0    0  503  501  0.00000000000E+00  0.00000000000E+00  0.13630039281E+03  0.13630039281E+03  0.00000000000E+00 0.  1.
         21   -1    0    0  504  502 -0.00000000000E+00 -0.00000000000E+00 -0.34335751353E+01  0.34335751353E+01  0.00000000000E+00 0.  1.
         21    1    1    2  503  502 -0.59104971738E+01  0.20416094265E+02  0.79451086635E+02  0.82244915036E+02  0.00000000000E+00 0.  1.
         21    1    1    2  504  501  0.59104971738E+01 -0.20416094265E+02  0.53415731044E+02  0.57489052913E+02  0.00000000000E+00 0.  1.
</event>
<event>
 4    1  0.1602044E+006  0.2024711E+02  0.7546771E-02  0.1530291E+00
         21   -1    0    0  503  501  0.00000000000E+00  0.00000000000E+00  0.19454627397E+04  0.19454627397E+04  0.00000000000E+00 0.  1.
         21   -1    0    0  504  502 -0.00000000000E+00 -0.00000000000E+00 -0.22167937269E+00  0.22167937269E+00  0.00000000000E+00 0.  1.
         21    1    1    2  503  502  0.15913391729E+02  0.12518365117E+02  0.75630030594E+03  0.75657127771E+03  0.00000000000E+00 0.  1.
         21    1    1    2  504  501 -0.15913391729E+02 -0.12518365117E+02  0.11889407544E+04  0.11891131414E+04  0.00000000000E+00 0.  1.
</event>
<event>
 4    1  0.1602044E+006  0.2091533E+02  0.7546771E-02  0.1520477E+00
         21   -1    0    0  503  501  0.00000000000E+00  0.00000000000E+00  0.54112337935E+03  0.54112337935E+03  0.00000000000E+00 0. -1.
         21   -1    0    0  504  502 -0.00000000000E+00 -0.00000000000E+00 -0.49987425883E+02  0.49987425883E+02  0.00000000000E+00 0. -1.
         21    1    1    2  503  502  0.77009149989E+01 -0.19445996834E+02  0.53872373010E+03  0.53912958392E+03  0.00000000000E+00 0. -1.
         21    1    1    2  504  501 -0.77009149989E+01  0.19445996834E+02 -0.47587776631E+02  0.51981221314E+02  0.00000000000E+00 0. -1.
</event>
<event>
 4    1  0.1602044E+006  0.4604142E+02  0.7546771E-02  0.1316313E+00
         21   -1    0    0  503  501  0.00000000000E+00  0.00000000000E+00  0.12196549244E+02  0.12196549244E+02  0.00000000000E+00 0.  1.
         21   -1    0    0  504  502 -0.00000000000E+00 -0.00000000000E+00 -0.30521107806E+03  0.30521107806E+03  0.00000000000E+00 0. -1.
         21    1    1    2  503  502 -0.21400168443E+01 -0.45991661730E+02 -0.42372410693E+02  0.62571829195E+02  0.00000000000E+00 0.  1.
         21    1    1    2  504  501  0.21400168443E+01  0.45991661730E+02 -0.25064211813E+03  0.25483579811E+03  0.00000000000E+00 0. -1.
</event>
<event>
 4    1  0.1602044E+006  0.2072606E+02  0.7546771E-02  0.1523212E+00
         21   -1    0    0  503  501  0.00000000000E+00  0.00000000000E+00  0.42839518338E+03  0.42839518338E+03  0.00000000000E+00 0.  1.
         21   -1    0    0  504  502 -0.00000000000E+00 -0.00000000000E+00 -0.15981067201E+01  0.15981067201E+01  0.00000000000E+00 0. -1.
         21    1    1    2  503  502 -0.69660441684E+01  0.19520344506E+02  0.82172344939E+02  0.84745878329E+02  0.00000000000E+00 0. -1.
         21    1    1    2  504  501  0.69660441684E+01 -0.19520344506E+02  0.34462473172E+03  0.34524741177E+03  0.00000000000E+00 0.  1.
</event>
<event>
 4    1  0.1602044E+006  0.2221384E+02  0.7546771E-02  0.1502613E+00
         21   -1    0    0  503  501  0.00000000000E+00  0.00000000000E+00  0.47607980318E+02  0.47607980318E+02  0.00000000000E+00 0. -1.
         21   -1    0    0  501  502 -0.00000000000E+00 -0.00000000000E+00 -0.18789539171E+02  0.18789539171E+02  0.00000000000E+00 0. -1.
         21    1    1    2  503  504  0.13248509221E+02  0.17830641130E+02  0.36639142179E+02  0.42847187764E+02  0.00000000000E+00 0. -1.
         21    1    1    2  504  502 -0.13248509221E+02 -0.17830641130E+02 -0.78207010316E+01  0.23550331724E+02  0.00000000000E+00 0. -1.
</event>
<event>
 4    1  0.1602044E+006  0.2148530E+02  0.7546771E-02  0.1512448E+00
         21   -1    0    0  503  501  0.00000000000E+00  0.00000000000E+00  0.86038836802E+02  0.86038836802E+02  0.00000000000E+00 0.  1.
         21   -1    0    0  504  502 -0.00000000000E+00 -0.00000000000E+00 -0.57212061908E+01  0.57212061908E+01  0.00000000000E+00 0.  1.
         21    1    1    2  503  502 -0.11266494943E+02 -0.18294378363E+02  0.28714494912E+02  0.35862799752E+02  0.00000000000E+00 0.  1.
         21    1    1    2  504  501  0.11266494943E+02  0.18294378363E+02  0.51603135699E+02  0.55897243241E+02  0.00000000000E+00 0.  1.
</event>
<event>
 4    1  0.1602044E+006  0.4417900E+02  0.7546771E-02  0.1325596E+00
         21   -1    0    0  503  501  0.00000000000E+00  0.00000000000E+00  0.37959209671E+03  0.37959209671E+03  0.00000000000E+00 0.  1.
         21   -1    0    0  504  502 -0.00000000000E+00 -0.00000000000E+00 -0.57315456378E+01  0.57315456378E+01  0.00000000000E+00 0. -1.
         21    1    1    2  503  502 -0.35554710233E+01 -0.44035694024E+02  0.24873120194E+03  0.25262421606E+03  0.00000000000E+00 0.  1.
         21    1    1    2  504  501  0.35554710233E+01  0.44035694024E+02  0.12512934913E+03  0.13269942629E+03  0.00000000000E+00 0. -1.
</event>
<event>
 4    1  0.1602044E+006  0.2012609E+02  0.7546771E-02  0.1532117E+00
         21   -1    0    0  504  501  0.00000000000E+00  0.00000000000E+00  0.12901114410E+02  0.12901114410E+02  0.00000000000E+00 0.  1.
         21   -1    0    0  501  502 -0.00000000000E+00 -0.00000000000E+00 -0.33806862553E+02  0.33806862553E+02  0.00000000000E+00 0.  1.
         21    1    1    2  503  502  0.15766933239E+02  0.12508530383E+02 -0.16687813296E+02  0.26144648185E+02  0.00000000000E+00 0.  1.
         21    1    1    2  504  503 -0.15766933239E+02 -0.12508530383E+02 -0.42179348469E+01  0.20563328779E+02  0.00000000000E+00 0.  1.
</event>
<event>
 4    1  0.1602044E+006  0.2532500E+02  0.7546771E-02  0.1465200E+00
         21   -1    0    0  503  501  0.00000000000E+00  0.00000000000E+00  0.77337528066E+01  0.77337528066E+01  0.00000000000E+00 0. -1.
         21   -1    0    0  504  502 -0.00000000000E+00 -0.00000000000E+00 -0.11280227166E+03  0.11280227166E+03  0.00000000000E+00 0.  1.
         21    1    1    2  503  502  0.25318963687E+02 -0.55279280150E+00 -0.83548875589E+02  0.87302749752E+02  0.00000000000E+00 0.  1.
         21    1    1    2  504  501 -0.25318963687E+02  0.55279280150E+00 -0.21519643266E+02  0.33233274716E+02  0.00000000000E+00 0. -1.
</event>
<event>
 4    1  0.1602044E+006  0.2784262E+02  0.7546771E-02  0.1439323E+00
         21   -1    0    0  502  501  0.00000000000E+00  0.00000000000E+00  0.16455461381E+03  0.16455461381E+03  0.00000000000E+00 0.  1.
         21   -1    0    0  503  502 -0.00000000000E+00 -0.00000000000E+00 -0.26840688517E+02  0.26840688517E+02  0.00000000000E+00 0.  1.
         21    1    1    2  503  504  0.16977273124E+02 -0.22067710746E+02 -0.18037561355E+02  0.33174768725E+02  0.00000000000E+00 0.  1.
         21    1    1    2  504  501 -0.16977273124E+02  0.22067710746E+02  0.15575148665E+03  0.15822053360E+03  0.00000000000E+00 0.  1.
</event>
<event>
 4    1  0.1602044E+006  0.4704894E+02  0.7546771E-02  0.1311501E+00
         21   -1    0    0  502  501  0.00000000000E+00  0.00000000000E+00  0.10683312675E+02  0.10683312675E+02  0.00000000000E+00 0. -1.
         21   -1    0    0  503  502 -0.00000000000E+00 -0.00000000000E+00 -0.25567829169E+03  0.25567829169E+03  0.00000000000E+00 0. -1.
         21    1    1    2  503  504 -0.20247814272E+02 -0.42469145923E+02 -0.18048840789E+03  0.18651988559E+03  0.00000000000E+00 0. -1.
         21    1    1    2  504  501  0.20247814272E+02  0.42469145923E+02 -0.64506571122E+02  0.79841718771E+02  0.00000000000E+00 0. -1.
</event>
<event>
 4    1  0.1602044E+006  0.2126341E+02  0.7546771E-02  0.1515537E+00
         21   -1    0    0  504  501  0.00000000000E+00  0.00000000000E+00  0.40787125473E+03  0.40787125473E+03  0.00000000000E+00 0. -1.
         21   -1    0    0  503  502 -0.00000000000E+00 -0.00000000000E+00 -0.11360334869E+01  0.11360334869E+01  0.00000000000E+00 0.  1.
         21    1    1    2  503  501 -0.19651185200E+01 -0.21172409455E+02  0.23519451275E+03  0.23615374534E+03  0.00000000000E+00 0. -1.
         21    1    1    2  504  502  0.19651185200E+01  0.21172409455E+02  0.17154070850E+03  0.17285354288E+03  0.00000000000E+00 0.  1.
</event>
<event>
 4    1  0.1602044E+006  0.2181438E+02  0.7546771E-02  0.1507948E+00
         21   -1    0    0  503  501  0.00000000000E+00  0.00000000000E+00  0.33652070284E+03  0.33652070284E+03  0.00000000000E+00 0. -1.
         21   -1    0    0  504  502 -0.00000000000E+00 -0.00000000000E+00 -0.16208608311E+01  0.16208608311E+01  0.00000000000E+00 0. -1.
         21    1    1    2  503  502  0.19023248229E+02 -0.10676301594E+02  0.10706197864E+03  0.10926177126E+03  0.00000000000E+00 0. -1.
         21    1    1    2  504  501 -0.19023248229E+02  0.10676301594E+02  0.22783786337E+03  0.22887979241E+03  0.00000000000E+00 0. -1.
</event>
<event>
 4    1  0.1602044E+006  0.3278196E+02  0.7546771E-02  0.1396865E+00
         21   -1    0    0  504  501  0.00000000000E+00  0.00000000000E+00  0.54734347708E+02  0.54734347708E+02  0.00000000000E+00 0.  1.
         21   -1    0    0  503  502 -0.00000000000E+00 -0.00000000000E+00 -0.38007830428E+02  0.38007830428E+02  0.00000000000E+00 0.  1.
         21    1    1    2  503  501 -0.15064110335E+02 -0.29115795438E+02 -0.23877852996E+02  0.40556242773E+02  0.00000000000E+00 0.  1.
         21    1    1    2  504  502  0.15064110335E+02  0.29115795438E+02  0.40604370276E+02  0.52185935363E+02  0.00000000000E+00 0.  1.
</event>
<event>
 4    1  0.1602044E+006  0.2429705E+02  0.7546771E-02  0.1476823E+00
         21   -1    0    0  503  501  0.00000000000E+00  0.00000000000E+00  0.11656014121E+03  0.11656014121E+03  0.00000000000E+00 0. -1.
         21   -1    0    0  504  502 -0.00000000000E+00 -0.00000000000E+00 -0.97532731941E+01  0.97532731941E+01  0.00000000000E+00 0.  1.
         21    1    1    2  503  502  0.13123187026E+02  0.20448194183E+02  0.97192212688E+02  0.10018319665E+03  0.00000000000E+00 0. -1.
         21    1    1    2  504  501 -0.13123187026E+02 -0.20448194183E+02  0.96146553308E+01  0.26130217761E+02  0.00000000000E+00 0.  1.
</event>
<event>
 4    1  0.1602044E+006  0.2648537E+02  0.7546771E-02  0.1452847E+00
         21   -1    0    0  502  501  0.00000000000E+00  0.00000000000E+00  0.28395907643E+02  0.28395907643E+02  0.00000000000E+00 0. -1.
         21   -1    0    0  503  502 -0.00000000000E+00 -0.00000000000E+00 -0.76789105504E+02  0.76789105504E+02  0.00000000000E+00 0. -1.
         21    1    1    2  503  504 -0.26055128220E+02  0.47544920558E+01 -0.67511110737E+02  0.72520514161E+02  0.00000000000E+00 0. -1.
         21    1    1    2  504  501  0.26055128220E+02 -0.47544920558E+01  0.19117912876E+02  0.32664498986E+02  0.00000000000E+00 0. -1.
</event>
<event>
 4    1  0.1602044E+006  0.3187577E+02  0.7546771E-02  0.1403967E+00
         21   -1    0    0  502  501  0.00000000000E+00  0.00000000000E+00  0.33865592838E+03  0.33865592838E+03  0.00000000000E+00 0.  1.
         21   -1    0    0  504  502 -0.00000000000E+00 -0.00000000000E+00 -0.10104136699E+02  0.10104136699E+02  0.00000000000E+00 0.  1.
         21    1    1    2  503  501  0.31408475737E+02 -0.54380475546E+01  0.31049161149E+03  0.31212354207E+03  0.00000000000E+00 0.  1.
         21    1    1    2  504  503 -0.31408475737E+02  0.54380475546E+01  0.18060180184E+02  0.36636523001E+02  0.00000000000E+00 0.  1.
</event>
<event>
 4    1  0.1602044E+006  0.2026914E+02  0.7546771E-02  0.1529961E+00
         21   -1    0    0  503  501  0.00000000000E+00  0.00000000000E+00  0.22984349421E+02  0.22984349421E+02  0.00000000000E+00 0.  1.
         21   -1    0    0  504  502 -0.00000000000E+00 -0.00000000000E+00 -0.18076195865E+02  0.18076195865E+02  0.00000000000E+00 0.  1.
         21    1    1    2  503  502 -0.19844482452E+02 -0.41272692108E+01  0.28638044336E+00  0.20271158050E+02  0.00000000000E+00 0.  1.
         21    1    1    2  504  501  0.19844482452E+02  0.41272692108E+01  0.46217731131E+01  0.20789387236E+02  0.00000000000E+00 0.  1.
</event>
<event>
 4    1  0.1602044E+006  0.2242009E+02  0.7546771E-02  0.1499911E+00
         21   -1    0    0  504  501  0.00000000000E+00  0.00000000000E+00  0.30812970936E+03  0.30812970936E+03  0.00000000000E+00 0. -1.
         21   -1    0    0  503  502 -0.00000000000E+00 -0.00000000000E+00 -0.18003715485E+03  0.18003715485E+03  0.00000000000E+00 0. -1.
         21    1    1    2  503  501 -0.19439467149E+02  0.11169942977E+02 -0.17892881102E+03  0.18032797875E+03  0.00000000000E+00 0. -1.
         21    1    1    2  504  502  0.19439467149E+02 -0.11169942977E+02  0.30702136552E+03  0.30783888545E+03  0.00000000000E+00 0. -1.
</event>
<event>
 4    1  0.1602044E+006  0.5353722E+02  0.7546771E-02  0.1283524E+00
         21   -1    0    0  503  501  0.00000000000E+00  0.00000000000E+00  0.24405186671E+03  0.24405186671E+03  0.00000000000E+00 0. -1.
         21   -1    0    0  504  502 -0.00000000000E+00 -0.00000000000E+00 -0.91427140580E+02  0.91427140580E+02  0.00000000000E+00 0.  1.
         21    1    1    2  503  502 -0.41545155851E+02  0.33767346201E+02  0.23290812991E+03  0.23898207176E+03  0.00000000000E+00 0. -1.
         21    1    1    2  504  501  0.41545155851E+02 -0.33767346201E+02 -0.80283403780E+02  0.96496935530E+02  0.00000000000E+00 0.  1.
</event>
<event>
 4    1  0.1602044E+006  0.3326155E+02  0.7546771E-02  0.1393215E+00
         21   -1    0    0  504  501  0.00000000000E+00  0.00000000000E+00  0.29212611662E+02  0.29212611662E+02  0.00000000000E+00 0. -1.
         21   -1    0    0  503  502 -0.00000000000E+00 -0.00000000000E+00 -0.54829136759E+02  0.54829136759E+02  0.00000000000E+00 0. -1.
         21    1    1    2  503  501 -0.28574002272E+02  0.17025189868E+02  0.10560716097E+02  0.34897842632E+02  0.00000000000E+00 0. -1.
         21    1    1    2  504  502  0.28574002272E+02 -0.17025189868E+02 -0.36177241193E+02  0.49143905789E+02  0.00000000000E+00 0. -1.
</event>
<event>
 4    1  0.1602044E+006  0.6199226E+02  0.7546771E-02  0.1253210E+00
         21   -1    0    0  504  501  0.00000000000E+00  0.00000000000E+00  0.21431141436E+02  0.21431141436E+02  0.00000000000E+00 0. -1.
         21   -1    0    0  503  502 -0.00000000000E+00 -0.00000000000E+00 -0.26565017127E+03  0.26565017127E+03  0.00000000000E+00 0. -1.
         21    1    1    2  503  501  0.16281528688E+02  0.59815985106E+02 -0.20393719597E+03  0.21315116737E+03  0.00000000000E+00 0. -1.
         21    1    1    2  504  502 -0.16281528688E+02 -0.59815985106E+02 -0.40281833869E+02  0.73930145343E+02  0.00000000000E+00 0. -1.
</event>
<event>
 4    1  0.1602044E+006  0.2287656E+02  0.7546771E-02  0.1494054E+00
         21   -1    0    0  503  501  0.00000000000E+00  0.00000000000E+00  0.37329926374E+03  0.37329926374E+03  0.00000000000E+00 0. -1.
         21   -1    0    0  504  502 -0.00000000000E+00 -0.00000000000E+00 -0.37006423748E+01  0.37006423748E+01  0.00000000000E+00 0. -1.
         21    1    1    2  503  502 -0.19496671553E+02  0.11967329277E+02  0.36234628663E+02  0.42851901778E+02  0.00000000000E+00 0. -1.
         21    1    1    2  504  501  0.19496671553E+02 -0.11967329277E+02  0.33336399270E+03  0.33414800434E+03  0.00000000000E+00 0. -1.
</event>
<event>
 4    1  0.1602044E+006  0.2442438E+02  0.7546771E-02  0.1475347E+00
         21   -1    0    0  503  501  0.00000000000E+00  0.00000000000E+00  0.73613422574E+01  0.73613422574E+01  0.00000000000E+00 0.  1.
         21   -1    0    0  504  502 -0.00000000000E+00 -0.00000000000E+00 -0.40355865760E+03  0.40355865760E+03  0.00000000000E+00 0.  1.
         21    1    1    2  503  502  0.12226049721E+02  0.21144128797E+02 -0.38177470833E+03  0.38255519654E+03  0.00000000000E+00 0.  1.
         21    1    1    2  504  501 -0.12226049721E+02 -0.21144128797E+02 -0.14422607006E+02  0.28364803317E+02  0.00000000000E+00 0.  1.
</event>
<event>
 4    1  0.1602044E+006  0.3417712E+02  0.7546771E-02  0.1386442E+00
         21   -1    0    0  503  501  0.00000000000E+00  0.00000000000E+00  0.57305261961E+03  0.57305261961E+03  0.00000000000E+00 0. -1.
         21   -1    0    0  501  502 -0.00000000000E+00 -0.00000000000E+00 -0.36410120056E+02  0.36410120056E+02  0.00000000000E+00 0. -1.
         21    1    1    2  503  504 -0.31376466844E+01  0.34032792808E+02  0.56439992127E+03  0.56543376883E+03  0.00000000000E+00 0. -1.
         21    1    1    2  504  502  0.31376466844E+01 -0.34032792808E+02 -0.27757421708E+02  0.44028970836E+02  0.00000000000E+00 0. -1.
</event>
<event>
 4    1  0.1602044E+006  0.3198667E+02  0.7546771E-02  0.1403083E+00
         21   -1    0    0  504  501  0.00000000000E+00  0.00000000000E+00  0.11369515120E+01  0.11369515120E+01  0.00000000000E+00 0. -1.
         21   -1    0    0  503  502 -0.00000000000E+00 -0.00000000000E+00 -0.22044011922E+04  0.22044011922E+04  0.00000000000E+00 0.  1.
         21    1    1    2  503  501  0.41830446227E+01  0.31711972540E+02 -0.19499543645E+04  0.19502166984E+04  0.00000000000E+00 0.  1.
         21    1    1    2  504  502 -0.41830446227E+01 -0.31711972540E+02 -0.25330987622E+03  0.25532144534E+03  0.00000000000E+00 0. -1.
</event>
<event>
 4    1  0.1602044E+006  0.2753482E+02  0.7546771E-02  0.1442308E+00
         21   -1    0    0  504  501  0.00000000000E+00  0.00000000000E+00  0.53329624481E+01  0.53329624481E+01  0.00000000000E+00 0. -1.
         21   -1    0    0  503  502 -0.00000000000E+00 -0.00000000000E+00 -0.14251984552E+03  0.14251984552E+03  0.00000000000E+00 0. -1.
         21    1    1    2  503  501 -0.21322033371E+02 -0.17422324593E+02 -0.72276461652E+02  0.77343735430E+02  0.00000000000E+00 0. -1.
         21    1    1    2  504  502  0.21322033371E+02  0.17422324593E+02 -0.64910421422E+02  0.70509072541E+02  0.00000000000E+00 0. -1.
</event>
<event>
 4    1  0.1602044E+006  0.2592729E+02  0.7546771E-02  0.1458692E+00
         21   -1    0    0  504  501  0.00000000000E+00  0.00000000000E+00  0.77037052637E+02  0.77037052637E+02  0.00000000000E+00 0. -1.
         21   -1    0    0  503  502 -0.00000000000E+00 -0.00000000000E+00 -0.21532424714E+03  0.21532424714E+03  0.00000000000E+00 0.  1.
         21    1    1    2  503  501  0.18113155547E+02 -0.18550953728E+02 -0.21233163909E+03  0.21390874046E+03  0.00000000000E+00 0.  1.
         21    1    1    2  504  502 -0.18113155547E+02  0.18550953728E+02  0.74044444589E+02  0.78452559312E+02  0.00000000000E+00 0. -1.
</event>
<event>
 4    1  0.1602044E+006  0.6229621E+02  0.7546771E-02  0.1252224E+00
         21   -1    0    0  502  501  0.00000000000E+00  0.00000000000E+00  0.74486016667E+01  0.74486016667E+01  0.00000000000E+00 0. -1.
         21   -1    0    0  503  502 -0.00000000000E+00 -0.00000000000E+00 -0.12638366968E+04  0.12638366968E+04  0.00000000000E+00 0. -1.
         21    1    1    2  503  504  0.54966481750E+01  0.62053243333E+02 -0.11155097764E+04  0.11172479042E+04  0.00000000000E+00 0. -1.
         21    1    1    2  504  501 -0.54966481750E+01 -0.62053243333E+02 -0.14087831872E+03  0.15403739427E+03  0.00000000000E+00 0. -1.
</event>
<event>
 4    1  0.1602044E+006  0.2001636E+02  0.7546771E-02  0.1533786E+00
         21   -1    0    0  504  501  0.00000000000E+00  0.00000000000E+00  0.67144230603E+01  0.67144230603E+01  0.00000000000E+00 0. -1.
         21   -1    0    0  503  502 -0.00000000000E+00 -0.00000000000E+00 -0.10180877497E+03  0.10180877497E+03  0.00000000000E+00 0.  1.
         21    1    1    2  503  501 -0.19320640662E+02 -0.52314134713E+01 -0.12638214422E+02  0.23672332084E+02  0.00000000000E+00 0. -1.
         21    1    1    2  504  502  0.19320640662E+02  0.52314134713E+01 -0.82456137489E+02  0.84850865948E+02  0.00000000000E+00 0.  1.
</event>
<event>
 4    1  0.1602044E+006  0.3667092E+02  0.7546771E-02  0.1369182E+00
         21   -1    0    0  503  501  0.00000000000E+00  0.00000000000E+00  0.46664215744E+02  0.46664215744E+02  0.00000000000E+00 0.  1.
         21   -1    0    0  504  502 -0.00000000000E+00 -0.00000000000E+00 -0.88606336763E+02  0.88606336763E+02  0.00000000000E+00 0.  1.
         21    1    1    2  503  502 -0.24829140252E+02  0.26986478825E+02  0.34587391243E+02  0.50408767868E+02  0.00000000000E+00 0.  1.
         21    1    1    2  504  501  0.24829140252E+02 -0.26986478825E+02 -0.76529512262E+02  0.84861784639E+02  0.00000000000E+00 0.  1.
</event>
<event>
 4    1  0.1602044E+006  0.5131242E+02  0.7546771E-02  0.1292580E+00
         21   -1    0    0  504  501  0.00000000000E+00  0.00000000000E+00  0.74192761879E+02  0.74192761879E+02  0.00000000000E+00 0. -1.
         21   -1    0    0  503  502 -0.00000000000E+00 -0.00000000000E+00 -0.35557713352E+02  0.35557713352E+02  0.00000000000E+00 0. -1.
         21    1    1    2  503  501  0.28969156844E+02  0.42352719213E+02  0.21744454159E+02  0.55729580652E+02  0.00000000000E+00 0. -1.
         21    1    1    2  504  502 -0.28969156844E+02 -0.42352719213E+02  0.16890594368E+02  0.54020894579E+02  0.00000000000E+00 0. -1.
</event>
<event>
 4    1  0.1602044E+006  0.2188562E+02  0.7546771E-02  0.1506986E+00
         21   -1    0    0  502  501  0.00000000000E+00  0.00000000000E+00  0.26482991565E+02  0.26482991565E+02  0.00000000000E+00 0.  1.
         21   -1    0    0  503  502 -0.00000000000E+00 -0.00000000000E+00 -0.27492014423E+03  0.27492014423E+03  0.00000000000E+00 0.  1.
         21    1    1    2  503  504 -0.18313357336E+02  0.11983374830E+02 -0.26987866950E+03  0.27076461472E+03  0.00000000000E+00 0.  1.
         21    1    1    2  504  501  0.18313357336E+02 -0.11983374830E+02  0.21441516842E+02  0.30638521076E+02  0.00000000000E+00 0.  1.
</event>
<event>
 4    1  0.1602044E+006  0.5867115E+02  0.7546771E-02  0.1264416E+00
         21   -1    0    0  504  501  0.00000000000E+00  0.00000000000E+00  0.29020444061E+01  0.29020444061E+01  0.00000000000E+00 0. -1.
         21   -1    0    0  503  502 -0.00000000000E+00 -0.00000000000E+00 -0.14132531261E+04  0.14132531261E+04  0.00000000000E+00 0. -1.
         21    1    1    2  503  501 -0.49118311010E+02  0.32088875347E+02 -0.42133933824E+03  0.42540468069E+03  0.00000000000E+00 0. -1.
         21    1    1    2  504  502  0.49118311010E+02 -0.32088875347E+02 -0.98901174349E+03  0.99075048986E+03  0.00000000000E+00 0. -1.
</event>
<event>
 4    1  0.1602044E+006  0.7817705E+02  0.7546771E-02  0.1208144E+00
         21   -1    0    0  503  501  0.00000000000E+00  0.00000000000E+00  0.52093313330E+03  0.52093313330E+03  0.00000000000E+00 0. -1.
         21   -1    0    0  504  502 -0.00000000000E+00 -0.00000000000E+00 -0.12416711072E+02  0.12416711072E+02  0.00000000000E+00 0. -1.
         21    1    1    2  503  502 -0.76185109293E+02  0.17535094286E+02  0.31687550209E+03  0.32637667538E+03  0.00000000000E+00 0. -1.
         21    1    1    2  504  501  0.76185109293E+02 -0.17535094286E+02  0.19164092014E+03  0.20697316899E+03  0.00000000000E+00 0. -1.
</event>
<event>
 4    1  0.1602044E+006  0.2360193E+02  0.7546771E-02  0.1485075E+00
         21   -1    0    0  504  501  0.00000000000E+00  0.00000000000E+00  0.12647562085E+03  0.12647562085E+03  0.00000000000E+00 0. -1.
         21   -1    0    0  503  502 -0.00000000000E+00 -0.00000000000E+00 -0.45431615159E+01  0.45431615159E+01  0.00000000000E+00 0. -1.
         21    1    1    2  503  501  0.23954821775E+01 -0.23480048675E+02  0.49518041285E+02  0.54855149561E+02  0.00000000000E+00 0. -1.
         21    1    1    2  504  502 -0.23954821775E+01  0.23480048675E+02  0.72414418046E+02  0.76163632802E+02  0.00000000000E+00 0. -1.
</event>
<event>
 4    1  0.1602044E+006  0.2155110E+02  0.7546771E-02  0.1511540E+00
         21   -1    0    0  504  501  0.00000000000E+00  0.00000000000E+00  0.25686502084E+03  0.25686502084E+03  0.00000000000E+00 0. -1.
         21   -1    0    0  503  502 -0.00000000000E+00 -0.00000000000E+00 -0.30094440669E+01  0.30094440669E+01  0.00000000000E+00 0. -1.
         21    1    1    2  503  501  0.90007873714E+00 -0.21532296232E+02  0.20902256735E+03  0.21013063457E+03  0.00000000000E+00 0. -1.
         21    1    1    2  504  502 -0.90007873714E+00  0.21532296232E+02  0.44833009424E+02  0.49743830339E+02  0.00000000000E+00 0. -1.
</event>
<event>
 4    1  0.1602044E+006  0.2232215E+02  0.7546771E-02  0.1501190E+00
         21   -1    0    0  503  501  0.00000000000E+00  0.00000000000E+00  0.63379754399E+02  0.63379754399E+02  0.00000000000E+00 0. -1.
         21   -1    0    0  504  502 -0.00000000000E+00 -0.00000000000E+00 -0.37682791495E+02  0.37682791495E+02  0.00000000000E+00 0. -1.
         21    1    1    2  503  502 -0.19939287717E+02  0.10035093469E+02  0.57800564365E+02  0.61961145378E+02  0.00000000000E+00 0. -1.
         21    1    1    2  504  501  0.19939287717E+02 -0.10035093469E+02 -0.32103601461E+02  0.39101400516E+02  0.00000000000E+00 0. -1.
</event>
<event>
 4    1  0.1602044E+006  0.2000685E+02  0.7546771E-02  0.1533931E+00
         21   -1    0    0  503  501  0.00000000000E+00  0.00000000000E+00  0.71237815471E+02  0.71237815471E+02  0.00000000000E+00 0.  1.
         21   -1    0    0  504  502 -0.00000000000E+00 -0.00000000000E+00 -0.56198823157E+01  0.56198823157E+01  0.00000000000E+00 0.  1.
         21    1    1    2  503  502 -0.19385653404E+02  0.49467723658E+01  0.32286418065E+02  0.37982718521E+02  0.00000000000E+00 0.  1.
         21    1    1    2  504  501  0.19385653404E+02 -0.49467723658E+01  0.33331515089E+02  0.38874979266E+02  0.00000000000E+00 0.  1.
</event>
<event>
 4    1  0.1602044E+006  0.2349619E+02  0.7546771E-02  0.1486360E+00
         21   -1    0    0  504  501  0.00000000000E+00  0.00000000000E+00  0.28586321191E+02  0.28586321191E+02  0.00000000000E+00 0. -1.
         21   -1    0    0  501  502 -0.00000000000E+00 -0.00000000000E+00 -0.21698576593E+03  0.21698576593E+03  0.00000000000E+00 0.  1.
         21    1    1    2  503  502  0.20508577452E+02  0.11466006453E+02 -0.21139427869E+03  0.21269605571E+03  0.00000000000E+00 0.  1.
         21    1    1    2  504  503 -0.20508577452E+02 -0.11466006453E+02  0.22994833948E+02  0.32876031412E+02  0.00000000000E+00 0. -1.
</event>
<event>
 4    1  0.1602044E+006  0.2124870E+02  0.7546771E-02  0.1515744E+00
         21   -1    0    0  504  501  0.00000000000E+00  0.00000000000E+00  0.20698771492E+01  0.20698771492E+01  0.00000000000E+00 0.  1.
         21   -1    0    0  501  502 -0.00000000000E+00 -0.00000000000E+00 -0.45072741336E+03  0.45072741336E+03  0.00000000000E+00 0.  1.
         21    1    1    2  503  502 -0.20332378586E+02 -0.61726434671E+01 -0.38696492115E+03  0.38754787749E+03  0.00000000000E+00 0.  1.
         21    1    1    2  504  503  0.20332378586E+02  0.61726434671E+01 -0.61692615064E+02  0.65249413022E+02  0.00000000000E+00 0.  1.
</event>
<event>
 4    1  0.1602044E+006  0.2150312E+02  0.7546771E-02  0.1512201E+00
         21   -1    0    0  503  501  0.00000000000E+00  0.00000000000E+00  0.12704687454E+02  0.12704687454E+02  0.00000000000E+00 0.  1.
         21   -1    0    0  504  502 -0.00000000000E+00 -0.00000000000E+00 -0.16267846374E+03  0.16267846374E+03  0.00000000000E+00 0. -1.
         21    1    1    2  503  502 -0.13884830578E+02  0.16419370357E+02  0.22752053155E+01  0.21623154311E+02  0.00000000000E+00 0.  1.
         21    1    1    2  504  501  0.13884830578E+02 -0.16419370357E+02 -0.15224898160E+03  0.15375999688E+03  0.00000000000E+00 0. -1.
</event>
<event>
 4    1  0.1602044E+006  0.3400142E+02  0.7546771E-02  0.1387723E+00
         21   -1    0    0  504  501  0.00000000000E+00  0.00000000000E+00  0.65531964351E+02  0.65531964351E+02  0.00000000000E+00 0.  1.
         21   -1    0    0  503  502 -0.00000000000E+00 -0.00000000000E+00 -0.20920800622E+02  0.20920800622E+02  0.00000000000E+00 0.  1.
         21    1    1    2  503  501  0.65175200787E+01 -0.33370922797E+02  0.39418962065E+02  0.52057190920E+02  0.00000000000E+00 0.  1.
         21    1    1    2  504  502 -0.65175200787E+01  0.33370922797E+02  0.51922016651E+01  0.34395574053E+02  0.00000000000E+00 0.  1.
</event>
<event>
 4    1  0.1602044E+006  0.3258296E+02  0.7546771E-02  0.1398401E+00
         21   -1    0    0  504  501  0.00000000000E+00  0.00000000000E+00  0.19987612540E+02  0.19987612540E+02  0.00000000000E+00 0. -1.
         21   -1    0    0  503  502 -0.00000000000E+00 -0.00000000000E+00 -0.14675344365E+03  0.14675344365E+03  0.00000000000E+00 0. -1.
         21    1    1    2  503  501  0.28634464202E+02  0.15547246054E+02  0.32125472540E+01  0.32740950809E+02  0.00000000000E+00 0. -1.
         21    1    1    2  504  502 -0.28634464202E+02 -0.15547246054E+02 -0.12997837837E+03  0.13400010538E+03  0.00000000000E+00 0. -1.
</event>
<event>
 4    1  0.1602044E+006  0.2647610E+02  0.7546771E-02  0.1452943E+00
         21   -1    0    0  502  501  0.00000000000E+00  0.00000000000E+00  0.19079751947E+02  0.19079751947E+02  0.00000000000E+00 0.  1.
         21   -1    0    0  504  502 -0.00000000000E+00 -0.00000000000E+00 -0.38906140349E+02  0.38906140349E+02  0.00000000000E+00 0.  1.
         21    1    1    2  503  501 -0.21753075088E+02  0.15092628003E+02 -0.30715553595E+01  0.26653670445E+02  0.00000000000E+00 0.  1.
         21    1    1    2  504  503  0.21753075088E+02 -0.15092628003E+02 -0.16754833042E+02  0.31332221851E+02  0.00000000000E+00 0.  1.
</event>
<event>
 4    1  0.1602044E+006  0.3013447E+02  0.7546771E-02  0.1418431E+00
         21   -1    0    0  503  501  0.00000000000E+00  0.00000000000E+00  0.61619106046E+01  0.61619106046E+01  0.00000000000E+00 0. -1.
         21   -1    0    0  504  502 -0.00000000000E+00 -0.00000000000E+00 -0.36502384635E+03  0.36502384635E+03  0.00000000000E+00 0. -1.
         21    1    1    2  503  502  0.11369767485E+02  0.27907246756E+02 -0.32274311714E+03  0.32414688907E+03  0.00000000000E+00 0. -1.
         21    1    1    2  504  501 -0.11369767485E+02 -0.27907246756E+02 -0.36118818606E+02  0.47038867883E+02  0.00000000000E+00 0. -1.
</event>
<event>
 4    1  0.1602044E+006  0.3415178E+02  0.7546771E-02  0.1386626E+00
         21   -1    0    0  504  501  0.00000000000E+00  0.00000000000E+00  0.10825238546E+02  0.10825238546E+02  0.00000000000E+00 0.  1.
         21   -1    0    0  503  502 -0.00000000000E+00 -0.00000000000E+00 -0.16054752448E+03  0.16054752448E+03  0.00000000000E+00 0.  1.
         21    1    1    2  503  501 -0.95238044556E+01 -0.32796971328E+02 -0.25719986423E+02  0.42753501391E+02  0.00000000000E+00 0.  1.
         21    1    1    2  504  502  0.95238044556E+01  0.32796971328E+02 -0.12400229952E+03  0.12861926164E+03  0.00000000000E+00 0.  1.
</event>
<event>
 4    1  0.1602044E+006  0.3298669E+02  0.7546771E-02  0.1395298E+00
         21   -1    0    0  503  501  0.00000000000E+00  0.00000000000E+00  0.10896423131E+02  0.10896423131E+02  0.00000000000E+00 0. -1.
         21   -1    0    0  504  502 -0.00000000000E+00 -0.00000000000E+00 -0.24366011334E+03  0.24366011334E+03  0.00000000000E+00 0. -1.
         21    1    1    2  503  502 -0.32827544017E+02 -0.32363364474E+01 -0.21415981110E+03  0.21668536224E+03  0.00000000000E+00 0. -1.
         21    1    1    2  504  501  0.32827544017E+02  0.32363364474E+01 -0.18603879114E+02  0.37871174234E+02  0.00000000000E+00 0. -1.
</event>
<event>
 4    1  0.1602044E+006  0.2111141E+02  0.7546771E-02  0.1517680E+00
         21   -1    0    0  504  501  0.00000000000E+00  0.00000000000E+00  0.23719765322E+03  0.23719765322E+03  0.00000000000E+00 0.  1.
         21   -1    0    0  503  502 -0.00000000000E+00 -0.00000000000E+00 -0.19075745558E+01  0.19075745558E+01  0.00000000000E+00 0.  1.
         21    1    1    2  503  501 -0.90502315663E+01 -0.19073144216E+02  0.10300979602E+03  0.10515088967E+03  0.00000000000E+00 0.  1.
         21    1    1    2  504  502  0.90502315663E+01  0.19073144216E+02  0.13228028264E+03  0.13395433810E+03  0.00000000000E+00 0.  1.
</event>
<event>
 4    1  0.1602044E+006  0.2027129E+02  0.7546771E-02  0.1529928E+00
         21   -1    0    0  502  501  0.00000000000E+00  0.00000000000E+00  0.10009546917E+03  0.10009546917E+03  0.00000000000E+00 0.  1.
         21   -1    0    0  503  502 -0.00000000000E+00 -0.00000000000E+00 -0.12890807497E+02  0.12890807497E+02  0.00000000000E+00 0. -1.
         21    1    1    2  503  504  0.19900295794E+02 -0.38605172858E+01 -0.30354866203E+01  0.20497305809E+02  0.00000000000E+00 0. -1.
         21    1    1    2  504  501 -0.19900295794E+02  0.38605172858E+01  0.90240148295E+02  0.92488970860E+02  0.00000000000E+00 0.  1.
</event>
<event>
 4    1  0.1602044E+006  0.2056960E+02  0.7546771E-02  0.1525499E+00
         21   -1    0    0  504  501  0.00000000000E+00  0.00000000000E+00  0.35641321925E+03  0.35641321925E+03  0.00000000000E+00 0. -1.
         21   -1    0    0  501  502 -0.00000000000E+00 -0.00000000000E+00 -0.14626173497E+01  0.14626173497E+01  0.00000000000E+00 0. -1.
         21    1    1    2  503  502 -0.16993095153E+02  0.11590644684E+02  0.99816809164E+02  0.10191419783E+03  0.00000000000E+00 0. -1.
         21    1    1    2  504  503  0.16993095153E+02 -0.11590644684E+02  0.25513379274E+03  0.25596163878E+03  0.00000000000E+00 0. -1.
</event>
<event>
 4    1  0.1602044E+006  0.2394906E+02  0.7546771E-02  0.1480913E+00
         21   -1    0    0  503  501  0.00000000000E+00  0.00000000000E+00  0.69981553111E+01  0.69981553111E+01  0.00000000000E+00 0. -1.
         21   -1    0    0  504  502 -0.00000000000E+00 -0.00000000000E+00 -0.12102345011E+03  0.12102345011E+03  0.00000000000E+00 0. -1.
         21    1    1    2  503  502  0.23902904484E+02  0.14861606712E+01 -0.93380091313E+02  0.96402276788E+02  0.00000000000E+00 0. -1.
         21    1    1    2  504  501 -0.23902904484E+02 -0.14861606712E+01 -0.20645203489E+02  0.31619328636E+02  0.00000000000E+00 0. -1.
</event>
<event>
 4    1  0.1602044E+006  0.3058656E+02  0.7546771E-02  0.1414566E+00
         21   -1    0    0  504  501  0.00000000000E+00  0.00000000000E+00  0.22170703359E+03  0.22170703359E+03  0.00000000000E+00 0. -1.
         21   -1    0    0  503  502 -0.00000000000E+00 -0.00000000000E+00 -0.47689649323E+01  0.47689649323E+01  0.00000000000E+00 0. -1.
         21    1    1    2  503  501  0.26156418469E+02 -0.15854944732E+02  0.70039026686E+02  0.76426453265E+02  0.00000000000E+00 0. -1.
         21    1    1    2  504  502 -0.26156418469E+02  0.15854944732E+02  0.14689904197E+03  0.15004954525E+03  0.00000000000E+00 0. -1.
</event>
<event>
 4    1  0.1602044E+006  0.2251459E+02  0.7546771E-02  0.1498685E+00
         21   -1    0    0  504  501  0.00000000000E+00  0.00000000000E+00  0.60886485916E+01  0.60886485916E+01  0.00000000000E+00 0. -1.
         21   -1    0    0  501  502 -0.00000000000E+00 -0.00000000000E+00 -0.13945820499E+03  0.13945820499E+03  0.00000000000E+00 0. -1.
         21    1    1    2  503  502  0.22512211340E+02  0.32738492286E+00 -0.11288388876E+03  0.11510725078E+03  0.00000000000E+00 0. -1.
         21    1    1    2  504  503 -0.22512211340E+02 -0.32738492286E+00 -0.20485667644E+02  0.30439602808E+02  0.00000000000E+00 0. -1.
</event>
<event>
 4    1  0.1602044E+006  0.2246720E+02  0.7546771E-02  0.1499299E+00
         21   -1    0    0  503  501  0.00000000000E+00  0.00000000000E+00  0.95815094065E+01  0.95815094065E+01  0.00000000000E+00 0.  1.
         21   -1    0    0  504  502 -0.00000000000E+00 -0.00000000000E+00 -0.99215963305E+02  0.99215963305E+02  0.00000000000E+00 0.  1.
         21    1    1    2  503  502  0.20847783416E+02  0.83752551981E+01 -0.82072018148E+02  0.85091663139E+02  0.00000000000E+00 0.  1.
         21    1    1    2  504  501 -0.20847783416E+02 -0.83752551981E+01 -0.75624357510E+01  0.23705809572E+02  0.00000000000E+00 0.  1.
</event>
<event>
 4    1  0.1602044E+006  0.2133922E+02  0.7546771E-02  0.1514476E+00
         21   -1    0    0  502  501  0.00000000000E+00  0.00000000000E+00  0.33384870182E+01  0.33384870182E+01  0.00000000000E+00 0.  1.
         21   -1    0    0  503  502 -0.00000000000E+00 -0.00000000000E+00 -0.13950290855E+03  0.13950290855E+03  0.00000000000E+00 0.  1.
         21    1    1    2  503  504  0.11437539399E+02  0.18015133495E+02 -0.78737607940E+02  0.81578019383E+02  0.00000000000E+00 0.  1.
         21    1    1    2  504  501 -0.11437539399E+02 -0.18015133495E+02 -0.57426813597E+02  0.61263376190E+02  0.00000000000E+00 0.  1.
</event>
<event>
 4    1  0.1602044E+006  0.2760590E+02  0.7546771E-02  0.1441615E+00
         21   -1    0    0  502  501  0.00000000000E+00  0.00000000000E+00  0.49912326965E+02  0.49912326965E+02  0.00000000000E+00 0.  1.
         21   -1    0    0  503  502 -0.00000000000E+00 -0.00000000000E+00 -0.58437180815E+02  0.58437180815E+02  0.00000000000E+00 0.  1.
         21    1    1    2  503  504 -0.24014888725E+02 -0.13615100481E+02 -0.50824977342E+02  0.57838258647E+02  0.00000000000E+00 0.  1.
         21    1    1    2  504  501  0.24014888725E+02  0.13615100481E+02  0.42300123492E+02  0.50511249133E+02  0.00000000000E+00 0.  1.
</event>
<event>
 4    1  0.1602044E+006  0.2545070E+02  0.7546771E-02  0.1463824E+00
         21   -1    0    0  503  501  0.00000000000E+00  0.00000000000E+00  0.82795782113E+02  0.82795782113E+02  0.00000000000E+00 0. -1.
         21   -1    0    0  501  502 -0.00000000000E+00 -0.00000000000E+00 -0.19958327523E+02  0.19958327523E+02  0.00000000000E+00 0. -1.
         21    1    1    2  503  504  0.22331853446E+02  0.12207646579E+02  0.71480214477E+02  0.75875947276E+02  0.00000000000E+00 0. -1.
         21    1    1    2  504  502 -0.22331853446E+02 -0.12207646579E+02 -0.86427598875E+01  0.26878162359E+02  0.00000000000E+00 0. -1.
</event>
<event>
 4    1  0.1602044E+006  0.2053231E+02  0.7546771E-02  0.1526048E+00
         21   -1    0    0  504  501  0.00000000000E+00  0.00000000000E+00  0.57469286356E+01  0.57469286356E+01  0.00000000000E+00 0.  1.
         21   -1    0    0  501  502 -0.00000000000E+00 -0.00000000000E+00 -0.85600437350E+02  0.85600437350E+02  0.00000000000E+00 0.  1.
         21    1    1    2  503  502 -0.18453077127E+02 -0.90033097889E+01 -0.22653057960E+02  0.30573463617E+02  0.00000000000E+00 0.  1.
         21    1    1    2  504  503  0.18453077127E+02  0.90033097889E+01 -0.57200450754E+02  0.60773902369E+02  0.00000000000E+00 0.  1.
</event>
<event>
 4    1  0.1602044E+006  0.5125429E+02  0.7546771E-02  0.1292824E+00
         21   -1    0    0  503  501  0.00000000000E+00  0.00000000000E+00  0.98064580548E+02  0.98064580548E+02  0.00000000000E+00 0.  1.
         21   -1    0    0  501  502 -0.00000000000E+00 -0.00000000000E+00 -0.39902358132E+02  0.39902358132E+02  0.00000000000E+00 0.  1.
         21    1    1    2  503  504 -0.30979553043E+02 -0.40832211822E+02  0.68627890907E+02  0.85655061960E+02  0.00000000000E+00 0.  1.
         21    1    1    2  504  502  0.30979553043E+02  0.40832211822E+02 -0.10465668490E+02  0.52311876720E+02  0.00000000000E+00 0.  1.
</event>
<event>
 4    1  0.1602044E+006  0.2482833E+02  0.7546771E-02  0.1470733E+00
         21   -1    0    0  502  501  0.00000000000E+00  0.00000000000E+00  0.92268872171E+01  0.92268872171E+01  0.00000000000E+00 0. -1.
         21   -1    0    0  504  502 -0.00000000000E+00 -0.00000000000E+00 -0.22525134081E+03  0.22525134081E+03  0.00000000000E+00 0. -1.
         21    1    1    2  503  501  0.10855468484E+02  0.22329460995E+02 -0.96850809400E+01  0.26650456228E+02  0.00000000000E+00 0. -1.
         21    1    1    2  504  503 -0.10855468484E+02 -0.22329460995E+02 -0.20633937266E+03  0.20782777180E+03  0.00000000000E+00 0. -1.
</event>
<event>
 4    1  0.1602044E+006  0.2207655E+02  0.7546771E-02  0.1504431E+00
         21   -1    0    0  503  501  0.00000000000E+00  0.00000000000E+00  0.28079341288E+03  0.28079341288E+03  0.00000000000E+00 0. -1.
         21   -1    0    0  501  502 -0.00000000000E+00 -0.00000000000E+00 -0.97981688849E+02  0.97981688849E+02  0.00000000000E+00 0. -1.
         21    1    1    2  503  504 -0.37056005314E+01  0.21763335870E+02  0.27910845741E+03  0.27998018727E+03  0.00000000000E+00 0. -1.
         21    1    1    2  504  502  0.37056005314E+01 -0.21763335870E+02 -0.96296733382E+02  0.98794914462E+02  0.00000000000E+00 0. -1.
</event>
<event>
 4    1  0.1602044E+006  0.3045751E+02  0.7546771E-02  0.1415662E+00
         21   -1    0    0  504  501  0.00000000000E+00  0.00000000000E+00  0.31961981369E+03  0.31961981369E+03  0.00000000000E+00 0.  1.
         21   -1    0    0  503  502 -0.00000000000E+00 -0.00000000000E+00 -0.20297508319E+02  0.20297508319E+02  0.00000000000E+00 0.  1.
         21    1    1    2  503  501  0.22447677059E+02  0.20585466680E+02  0.30699990325E+03  0.30850705055E+03  0.00000000000E+00 0.  1.
         21    1    1    2  504  502 -0.22447677059E+02 -0.20585466680E+02 -0.76775978816E+01  0.31410271457E+02  0.00000000000E+00 0.  1.
</event>
<event>
 4    1  0.1602044E+006  0.5345443E+02  0.7546771E-02  0.1283852E+00
         21   -1    0    0  503  501  0.00000000000E+00  0.00000000000E+00  0.93020932847E+02  0.93020932847E+02  0.00000000000E+00 0. -1.
         21   -1    0    0  504  502 -0.00000000000E+00 -0.00000000000E+00 -0.42937146248E+03  0.42937146248E+03  0.00000000000E+00 0. -1.
         21    1    1    2  503  502  0.11375568820E+02 -0.52229992894E+02  0.83504485433E+02  0.99148246637E+02  0.00000000000E+00 0. -1.
         21    1    1    2  504  501 -0.11375568820E+02  0.52229992894E+02 -0.41985501507E+03  0.42324414869E+03  0.00000000000E+00 0. -1.
</event>
<event>
 4    1  0.1602044E+006  0.2118066E+02  0.7546771E-02  0.1516701E+00
         21   -1    0    0  504  501  0.00000000000E+00  0.00000000000E+00  0.98117777288E+02  0.98117777288E+02  0.00000000000E+00 0.  1.
         21   -1    0    0  503  502 -0.00000000000E+00 -0.00000000000E+00 -0.13469046567E+03  0.13469046567E+03  0.00000000000E+00 0. -1.
         21    1    1    2  503  501 -0.30609464054E+01  0.20958313899E+02  0.96124965635E+02  0.98430835274E+02  0.00000000000E+00 0.  1.
         21    1    1    2  504  502  0.30609464054E+01 -0.20958313899E+02 -0.13269765402E+03  0.13437740769E+03  0.00000000000E+00 0. -1.
</event>
<event>
 4    1  0.1602044E+006  0.3629018E+02  0.7546771E-02  0.1371713E+00
         21   -1    0    0  503  501  0.00000000000E+00  0.00000000000E+00  0.15744328886E+01  0.15744328886E+01  0.00000000000E+00 0.  1.
         21   -1    0    0  501  502 -0.00000000000E+00 -0.00000000000E+00 -0.10357765650E+04  0.10357765650E+04  0.00000000000E+00 0.  1.
         21    1    1    2  503  504 -0.42447726234E+01 -0.36041079714E+02 -0.28958323555E+03  0.29184829592E+03  0.00000000000E+00 0.  1.
         21    1    1    2  504  502  0.42447726234E+01  0.36041079714E+02 -0.74461889656E+03  0.74550270196E+03  0.00000000000E+00 0.  1.
</event>
<event>
 4    1  0.1602044E+006  0.2761639E+02  0.7546771E-02  0.1441513E+00
         21   -1    0    0  504  501  0.00000000000E+00  0.00000000000E+00  0.16600470410E+03  0.16600470410E+03  0.00000000000E+00 0. -1.
         21   -1    0    0  503  502 -0.00000000000E+00 -0.00000000000E+00 -0.48867421611E+01  0.48867421611E+01  0.00000000000E+00 0. -1.
         21    1    1    2  503  501 -0.50156193860E+01  0.27157111079E+02  0.10146381097E+03  0.10515498114E+03  0.00000000000E+00 0. -1.
         21    1    1    2  504  502  0.50156193860E+01 -0.27157111079E+02  0.59654150959E+02  0.65736465121E+02  0.00000000000E+00 0. -1.
</event>
<event>
 4    1  0.1602044E+006  0.2246441E+02  0.7546771E-02  0.1499335E+00
         21   -1    0    0  502  501  0.00000000000E+00  0.00000000000E+00  0.54385918483E+01  0.54385918483E+01  0.00000000000E+00 0.  1.
         21   -1    0    0  504  502 -0.00000000000E+00 -0.00000000000E+00 -0.23914260957E+03  0.23914260957E+03  0.00000000000E+00 0.  1.
         21    1    1    2  503  501  0.22346215226E+02 -0.23013543049E+01 -0.21184577294E+02  0.30877757070E+02  0.00000000000E+00 0.  1.
         21    1    1    2  504  503 -0.22346215226E+02  0.23013543049E+01 -0.21251944043E+03  0.21370344435E+03  0.00000000000E+00 0.  1.
</event>
<event>
 4    1  0.1602044E+006  0.2540544E+02  0.7546771E-02  0.1464318E+00
         21   -1    0    0  504  501  0.00000000000E+00  0.00000000000E+00  0.36540391106E+03  0.36540391106E+03  0.00000000000E+00 0.  1.
         21   -1    0    0  503  502 -0.00000000000E+00 -0.00000000000E+00 -0.27572284376E+01  0.27572284376E+01  0.00000000000E+00 0.  1.
         21    1    1    2  503  501  0.14162135492E+02  0.21091952355E+02  0.70971759434E+02  0.75381875627E+02  0.00000000000E+00 0.  1.
         21    1    1    2  504  502 -0.14162135492E+02 -0.21091952355E+02  0.29167492319E+03  0.29277926387E+03  0.00000000000E+00 0.  1.
</event>
<event>
 4    1  0.1602044E+006  0.2196142E+02  0.7546771E-02  0.1505968E+00
         21   -1    0    0  503  501  0.00000000000E+00  0.00000000000E+00  0.31792460144E+02  0.31792460144E+02  0.00000000000E+00 0. -1.
         21   -1    0    0  501  502 -0.00000000000E+00 -0.00000000000E+00 -0.86366711352E+03  0.86366711352E+03  0.00000000000E+00 0.  1.
         21    1    1    2  503  504  0.20141839188E+02  0.87527209727E+01  0.27842834285E+02  0.35461630410E+02  0.00000000000E+00 0. -1.
         21    1    1    2  504  502 -0.20141839188E+02 -0.87527209727E+01 -0.85971748766E+03  0.85999794325E+03  0.00000000000E+00 0.  1.
</event>
<event>
 4    1  0.1602044E+006  0.2121099E+02  0.7546771E-02  0.1516274E+00
         21   -1    0    0  502  501  0.00000000000E+00  0.00000000000E+00  0.52110203864E+03  0.52110203864E+03  0.00000000000E+00 0.  1.
         21   -1    0    0  503  502 -0.00000000000E+00 -0.00000000000E+00 -0.74804983115E+01  0.74804983115E+01  0.00000000000E+00 0. -1.
         21    1    1    2  503  504  0.14547114817E+02 -0.15436566716E+02  0.82387822460E+01  0.22754860456E+02  0.00000000000E+00 0. -1.
         21    1    1    2  504  501 -0.14547114817E+02  0.15436566716E+02  0.50538275808E+03  0.50582767650E+03  0.00000000000E+00 0.  1.
</event>
<event>
 4    1  0.1602044E+006  0.2132417E+02  0.7546771E-02  0.1514687E+00
         21   -1    0    0  504  501  0.00000000000E+00  0.00000000000E+00  0.27668389252E+02  0.27668389252E+02  0.00000000000E+00 0. -1.
         21   -1    0    0  501  502 -0.00000000000E+00 -0.00000000000E+00 -0.19150959194E+02  0.19150959194E+02  0.00000000000E+00 0. -1.
         21    1    1    2  503  502  0.20652647559E+02 -0.53092716131E+01 -0.45576574295E+01  0.21805789541E+02  0.00000000000E+00 0. -1.
         21    1    1    2  504  503 -0.20652647559E+02  0.53092716131E+01  0.13075087487E+02  0.25013558905E+02  0.00000000000E+00 0. -1.
</event>
<event>
 4    1  0.1602044E+006  0.2000277E+02  0.7546771E-02  0.1533993E+00
         21   -1    0    0  503  501  0.00000000000E+00  0.00000000000E+00  0.42899157542E+01  0.42899157542E+01  0.00000000000E+00 0. -1.
         21   -1    0    0  504  502 -0.00000000000E+00 -0.00000000000E+00 -0.13712139491E+03  0.13712139491E+03  0.00000000000E+00 0. -1.
         21    1    1    2  503  502  0.86062368504E+01 -0.18056678512E+02 -0.26430085734E+02  0.33146046273E+02  0.00000000000E+00 0. -1.
         21    1    1    2  504  501 -0.86062368504E+01  0.18056678512E+02 -0.10640139342E+03  0.10826526439E+03  0.00000000000E+00 0. -1.
</event>
<event>
 4    1  0.1602044E+006  0.2812376E+02  0.7546771E-02  0.1436635E+00
         21   -1    0    0  502  501  0.00000000000E+00  0.00000000000E+00  0.19896163405E+03  0.19896163405E+03  0.00000000000E+00 0.  1.
         21   -1    0    0  504  502 -0.00000000000E+00 -0.00000000000E+00 -0.74918440186E+01  0.74918440186E+01  0.00000000000E+00 0. -1.
         21    1    1    2  503  501 -0.20530402477E+02  0.19221037418E+02  0.16645642981E+03  0.16881554648E+03  0.00000000000E+00 0.  1.
         21    1    1    2  504  503  0.20530402477E+02 -0.19221037418E+02  0.25013360218E+02  0.37637931594E+02  0.00000000000E+00 0. -1.
</event>
<event>
 4    1  0.1602044E+006  0.4985179E+02  0.7546771E-02  0.1298816E+00
         21   -1    0    0  504  501  0.00000000000E+00  0.00000000000E+00  0.12286065952E+04  0.12286065952E+04  0.00000000000E+00 0.  1.
         21   -1    0    0  503  502 -0.00000000000E+00 -0.00000000000E+00 -0.15366423609E+02  0.15366423609E+02  0.00000000000E+00 0. -1.
         21    1    1    2  503  501 -0.98543512945E+01  0.48868119800E+02  0.11862246204E+04  0.11872716839E+04  0.00000000000E+00 0.  1.
         21    1    1    2  504  502  0.98543512945E+01 -0.48868119800E+02  0.27015551178E+02  0.56701334885E+02  0.00000000000E+00 0. -1.
</event>
<event>
 4    1  0.1602044E+006  0.2282878E+02  0.7546771E-02  0.1494659E+00
         21   -1    0    0  504  501  0.00000000000E+00  0.00000000000E+00  0.13750732000E+01  0.13750732000E+01  0.00000000000E+00 0.  1.
         21   -1    0    0  503  502 -0.00000000000E+00 -0.00000000000E+00 -0.38180440868E+03  0.38180440868E+03  0.00000000000E+00 0.  1.
         21    1    1    2  503  501  0.17323283597E+02 -0.14867992156E+02 -0.20663335770E+03  0.20789059108E+03  0.00000000000E+00 0.  1.
         21    1    1    2  504  502 -0.17323283597E+02  0.14867992156E+02 -0.17379597778E+03  0.17528889080E+03  0.00000000000E+00 0.  1.
</event>
<event>
 4    1  0.1602044E+006  0.2005649E+02  0.7546771E-02  0.1533174E+00
         21   -1    0    0  504  501  0.00000000000E+00  0.00000000000E+00  0.56123077400E+02  0.56123077400E+02  0.00000000000E+00 0.  1.
         21   -1    0    0  503  502 -0.00000000000E+00 -0.00000000000E+00 -0.71737230469E+01  0.71737230469E+01  0.00000000000E+00 0.  1.
         21    1    1    2  503  501 -0.15220679223E+02  0.13061159941E+02  0.25405724964E+02  0.32368407992E+02  0.00000000000E+00 0.  1.
         21    1    1    2  504  502  0.15220679223E+02 -0.13061159941E+02  0.23543629389E+02  0.30928392454E+02  0.00000000000E+00 0.  1.
</event>
<event>
 4    1  0.1602044E+006  0.2728905E+02  0.7546771E-02  0.1444726E+00
         21   -1    0    0  504  501  0.00000000000E+00  0.00000000000E+00  0.89976443241E+03  0.89976443241E+03  0.00000000000E+00 0.  1.
         21   -1    0    0  503  502 -0.00000000000E+00 -0.00000000000E+00 -0.54313273967E+02  0.54313273967E+02  0.00000000000E+00 0.  1.
         21    1    1    2  503  501 -0.19778172249E+02  0.18802029739E+02 -0.50664643168E+02  0.57546489790E+02  0.00000000000E+00 0.  1.
         21    1    1    2  504  502  0.19778172249E+02 -0.18802029739E+02  0.89611580161E+03  0.89653121659E+03  0.00000000000E+00 0.  1.
</event>
<event>
 4    1  0.1602044E+006  0.2101370E+02  0.7546771E-02  0.1519069E+00
         21   -1    0    0  502  501  0.00000000000E+00  0.00000000000E+00  0.13877475516E+02  0.13877475516E+02  0.00000000000E+00 0. -1.
         21   -1    0    0  503  502 -0.00000000000E+00 -0.00000000000E+00 -0.31864554663E+02  0.31864554663E+02  0.00000000000E+00 0. -1.
         21    1    1    2  503  504 -0.17877391293E+02  0.11044197297E+02 -0.81342776688E+01  0.22533128646E+02  0.00000000000E+00 0. -1.
         21    1    1    2  504  501  0.17877391293E+02 -0.11044197297E+02 -0.98528014780E+01  0.23208901532E+02  0.00000000000E+00 0. -1.
</event>
<event>
 4    1  0.1602044E+006  0.2885859E+02  0.7546771E-02  0.1429781E+00
         21   -1    0    0  504  501  0.00000000000E+00  0.00000000000E+00  0.60689829804E+02  0.60689829804E+02  0.00000000000E+00 0.  1.
         21   -1    0    0  503  502 -0.00000000000E+00 -0.00000000000E+00 -0.13742224500E+02  0.13742224500E+02  0.00000000000E+00 0.  1.
         21    1    1    2  503  501 -0.17729972182E+02  0.22769855377E+02  0.24882554487E+02  0.38104589556E+02  0.00000000000E+00 0.  1.
         21    1    1    2  504  502  0.17729972182E+02 -0.22769855377E+02  0.22065050816E+02  0.36327464748E+02  0.00000000000E+00 0.  1.
</event>
<event>
 4    1  0.1602044E+006  0.2214474E+02  0.7546771E-02  0.1503526E+00
         21   -1    0    0  504  501  0.00000000000E+00  0.00000000000E+00  0.17217338293E+03  0.17217338293E+03  0.00000000000E+00 0.  1.
         21   -1    0    0  503  502 -0.00000000000E+00 -0.00000000000E+00 -0.33824252755E+01  0.33824252755E+01  0.00000000000E+00 0.  1.
         21    1    1    2  503  501  0.11915606005E+02 -0.18665689197E+02  0.49511935608E+02  0.54238559968E+02  0.00000000000E+00 0.  1.
         21    1    1    2  504  502 -0.11915606005E+02  0.18665689197E+02  0.11927902205E+03  0.12131724824E+03  0.00000000000E+00 0.  1.
</event>
<event>
 4    1  0.1602044E+006  0.2414121E+02  0.7546771E-02  0.1478644E+00
         21   -1    0    0  502  501  0.00000000000E+00  0.00000000000E+00  0.18206285872E+03  0.18206285872E+03  0.00000000000E+00 0.  1.
         21   -1    0    0  504  502 -0.00000000000E+00 -0.00000000000E+00 -0.12271524862E+02  0.12271524862E+02  0.00000000000E+00 0.  1.
         21    1    1    2  503  501  0.75971259926E+00 -0.24129251411E+02  0.16843377941E+03  0.17015503514E+03  0.00000000000E+00 0.  1.
         21    1    1    2  504  503 -0.75971259926E+00  0.24129251411E+02  0.13575544456E+01  0.24179348440E+02  0.00000000000E+00 0.  1.
</event>
<event>
 4    1  0.1602044E+006  0.2030642E+02  0.7546771E-02  0.1529402E+00
         21   -1    0    0  504  501  0.00000000000E+00  0.00000000000E+00  0.42082622559E+02  0.42082622559E+02  0.00000000000E+00 0. -1.
         21   -1    0    0  503  502 -0.00000000000E+00 -0.00000000000E+00 -0.40460190107E+02  0.40460190107E+02  0.00000000000E+00 0. -1.
         21    1    1    2  503  501 -0.61746017173E+01 -0.19344891759E+02  0.36739186754E+02  0.41977593867E+02  0.00000000000E+00 0. -1.
         21    1    1    2  504  502  0.61746017173E+01  0.19344891759E+02 -0.35116754301E+02  0.40565218799E+02  0.00000000000E+00 0. -1.
</event>
<event>
 4    1  0.1602044E+006  0.2730539E+02  0.7546771E-02  0.1444564E+00
         21   -1    0    0  504  501  0.00000000000E+00  0.00000000000E+00  0.11058413612E+03  0.11058413612E+03  0.00000000000E+00 0. -1.
         21   -1    0    0  503  502 -0.00000000000E+00 -0.00000000000E+00 -0.12436791299E+03  0.12436791299E+03  0.00000000000E+00 0.  1.
         21    1    1    2  503  501  0.24360613821E+02 -0.12334707807E+02  0.10735546099E+03  0.11077355067E+03  0.00000000000E+00 0. -1.
         21    1    1    2  504  502 -0.24360613821E+02  0.12334707807E+02 -0.12113923787E+03  0.12417849844E+03  0.00000000000E+00 0.  1.
</event>
<event>
 4    1  0.1602044E+006  0.2077105E+02  0.7546771E-02  0.1522559E+00
         21   -1    0    0  503  501  0.00000000000E+00  0.00000000000E+00  0.45145045056E+01  0.45145045056E+01  0.00000000000E+00 0. -1.
         21   -1    0    0  504  502 -0.00000000000E+00 -0.00000000000E+00 -0.13200742123E+03  0.13200742123E+03  0.00000000000E+00 0. -1.
         21    1    1    2  503  502  0.15317145111E+02  0.14029309524E+02 -0.27881816033E+02  0.34768263192E+02  0.00000000000E+00 0. -1.
         21    1    1    2  504  501 -0.15317145111E+02 -0.14029309524E+02 -0.99611100691E+02  0.10175366254E+03  0.00000000000E+00 0. -1.
</event>
<event>
 4    1  0.1602044E+006  0.2624648E+02  0.7546771E-02  0.1455328E+00
         21   -1    0    0  504  501  0.00000000000E+00  0.00000000000E+00  0.35640310790E+03  0.35640310790E+03  0.00000000000E+00 0.  1.
         21   -1    0    0  503  502 -0.00000000000E+00 -0.00000000000E+00 -0.15498066226E+02  0.15498066226E+02  0.00000000000E+00 0.  1.
         21    1    1    2  503  501 -0.13099143795E+02  0.22744008807E+02 -0.35165280753E+01  0.26481002143E+02  0.00000000000E+00 0.  1.
         21    1    1    2  504  502  0.13099143795E+02 -0.22744008807E+02  0.34442156975E+03  0.34542017198E+03  0.00000000000E+00 0.  1.
</event>
<event>
 4    1  0.1602044E+006  0.2927431E+02  0.7546771E-02  0.1426009E+00
         21   -1    0    0  503  501  0.00000000000E+00  0.00000000000E+00  0.66834711357E+02  0.66834711357E+02  0.00000000000E+00 0. -1.
         21   -1    0    0  504  502 -0.00000000000E+00 -0.00000000000E+00 -0.12847808248E+02  0.12847808248E+02  0.00000000000E+00 0. -1.
         21    1    1    2  503  502  0.88388344663E+01 -0.27908062728E+02  0.25223544040E+02  0.38642103125E+02  0.00000000000E+00 0. -1.
         21    1    1    2  504  501 -0.88388344663E+01  0.27908062728E+02  0.28763359069E+02  0.41040416481E+02  0.00000000000E+00 0. -1.
</event>
<event>
 4    1  0.1602044E+006  0.3304701E+02  0.7546771E-02  0.1394839E+00
         21   -1    0    0  504  501  0.00000000000E+00  0.00000000000E+00  0.10085706390E+03  0.10085706390E+03  0.00000000000E+00 0. -1.
         21   -1    0    0  503  502 -0.00000000000E+00 -0.00000000000E+00 -0.36332208310E+02  0.36332208310E+02  0.00000000000E+00 0.  1.
         21    1    1    2  503  501 -0.26041790446E+02  0.20345270421E+02  0.89733342090E+02  0.95625193128E+02  0.00000000000E+00 0. -1.
         21    1    1    2  504  502  0.26041790446E+02 -0.20345270421E+02 -0.25208486502E+02  0.41564079081E+02  0.00000000000E+00 0.  1.
</event>
<event>
 4    1  0.1602044E+006  0.2958981E+02  0.7546771E-02  0.1423195E+00
         21   -1    0    0  503  501  0.00000000000E+00  0.00000000000E+00  0.46650011010E+01  0.46650011010E+01  0.00000000000E+00 0.  1.
         21   -1    0    0  504  502 -0.00000000000E+00 -0.00000000000E+00 -0.22179197182E+03  0.22179197182E+03  0.00000000000E+00 0.  1.
         21    1    1    2  503  502  0.21142751001E+02 -0.20701233297E+02 -0.15296480160E+03  0.15580047339E+03  0.00000000000E+00 0.  1.
         21    1    1    2  504  501 -0.21142751001E+02  0.20701233297E+02 -0.64162169116E+02  0.70656499528E+02  0.00000000000E+00 0.  1.
</event>
<event>
 4    1  0.1602044E+006  0.2142141E+02  0.7546771E-02  0.1513333E+00
         21   -1    0    0  503  501  0.00000000000E+00  0.00000000000E+00  0.40273802235E+00  0.40273802235E+00  0.00000000000E+00 0. -1.
         21   -1    0    0  504  502 -0.00000000000E+00 -0.00000000000E+00 -0.15598337553E+04  0.15598337553E+04  0.00000000000E+00 0. -1.
         21    1    1    2  503  502  0.24909734483E+01 -0.21276084818E+02 -0.37469792861E+03  0.37530975798E+03  0.00000000000E+00 0. -1.
         21    1    1    2  504  501 -0.24909734483E+01  0.21276084818E+02 -0.11847330887E+04  0.11849267354E+04  0.00000000000E+00 0. -1.
</event>
<event>
 4    1  0.1602044E+006  0.2136448E+02  0.7546771E-02  0.1514124E+00
         21   -1    0    0  503  501  0.00000000000E+00  0.00000000000E+00  0.79993687363E+02  0.79993687363E+02  0.00000000000E+00 0.  1.
         21   -1    0    0  504  502 -0.00000000000E+00 -0.00000000000E+00 -0.78585728955E+01  0.78585728955E+01  0.00000000000E+00 0.  1.
         21    1    1    2  503  502  0.17769241959E+02  0.11861493842E+02  0.13077831101E+02  0.25049364508E+02  0.00000000000E+00 0.  1.
         21    1    1    2  504  501 -0.17769241959E+02 -0.11861493842E+02  0.59057283366E+02  0.62802895750E+02  0.00000000000E+00 0.  1.
</event>
<event>
 4    1  0.1602044E+006  0.2008456E+02  0.7546771E-02  0.1532747E+00
         21   -1    0    0  503  501  0.00000000000E+00  0.00000000000E+00  0.28307666168E+01  0.28307666168E+01  0.00000000000E+00 0. -1.
         21   -1    0    0  504  502 -0.00000000000E+00 -0.00000000000E+00 -0.15222795826E+03  0.15222795826E+03  0.00000000000E+00 0.  1.
         21    1    1    2  503  502 -0.84558169561E+01 -0.18217814715E+02 -0.94295501278E+02  0.96410742009E+02  0.00000000000E+00 0.  1.
         21    1    1    2  504  501  0.84558169561E+01  0.18217814715E+02 -0.55101690363E+02  0.58647982866E+02  0.00000000000E+00 0. -1.
</event>
<event>
 4    1  0.1602044E+006  0.2133335E+02  0.7546771E-02  0.1514558E+00
         21   -1    0    0  504  501  0.00000000000E+00  0.00000000000E+00  0.32897144507E+01  0.32897144507E+01  0.00000000000E+00 0.  1.
         21   -1    0    0  503  502 -0.00000000000E+00 -0.00000000000E+00 -0.43664777246E+03  0.43664777246E+03  0.00000000000E+00 0.  1.
         21    1    1    2  503  501 -0.16931401795E+02 -0.12978416372E+02 -0.39849199619E+03  0.39906263003E+03  0.00000000000E+00 0.  1.
         21    1    1    2  504  502  0.16931401795E+02  0.12978416372E+02 -0.34866061815E+02  0.40874856877E+02  0.00000000000E+00 0.  1.
</event>
<event>
 4    1  0.1602044E+006  0.2101014E+02  0.7546771E-02  0.1519120E+00
         21   -1    0    0  502  501  0.00000000000E+00  0.00000000000E+00  0.30218245876E+03  0.30218245876E+03  0.00000000000E+00 0.  1.
         21   -1    0    0  504  502 -0.00000000000E+00 -0.00000000000E+00 -0.10488388905E+02  0.10488388905E+02  0.00000000000E+00 0. -1.
         21    1    1    2  503  501  0.15185299884E+02  0.14520073560E+02  0.29088746260E+03  0.29164523272E+03  0.00000000000E+00 0.  1.
         21    1    1    2  504  503 -0.15185299884E+02 -0.14520073560E+02  0.80660725636E+00  0.21025614950E+02  0.00000000000E+00 0. -1.
</event>
<event>
 4    1  0.1602044E+006  0.2179336E+02  0.7546771E-02  0.1508232E+00
         21   -1    0    0  504  501  0.00000000000E+00  0.00000000000E+00  0.10479451370E+02  0.10479451370E+02  0.00000000000E+00 0.  1.
         21   -1    0    0  503  502 -0.00000000000E+00 -0.00000000000E+00 -0.55928084995E+02  0.55928084995E+02  0.00000000000E+00 0.  1.
         21    1    1    2  503  501 -0.10741577546E+02 -0.18962309287E+02 -0.37183643213E+02  0.43099582182E+02  0.00000000000E+00 0.  1.
         21    1    1    2  504  502  0.10741577546E+02  0.18962309287E+02 -0.82649904120E+01  0.23307954183E+02  0.00000000000E+00 0.  1.
</event>
<event>
 4    1  0.1602044E+006  0.3235592E+02  0.7546771E-02  0.1400170E+00
         21   -1    0    0  504  501  0.00000000000E+00  0.00000000000E+00  0.25007993011E+02  0.25007993011E+02  0.00000000000E+00 0.  1.
         21   -1    0    0  503  502 -0.00000000000E+00 -0.00000000000E+00 -0.45271091470E+02  0.45271091470E+02  0.00000000000E+00 0.  1.
         21    1    1    2  503  501 -0.26487405636E-02  0.32355922163E+02 -0.48990309314E+00  0.32359630886E+02  0.00000000000E+00 0.  1.
         21    1    1    2  504  502  0.26487405636E-02 -0.32355922163E+02 -0.19773195365E+02  0.37919453595E+02  0.00000000000E+00 0.  1.
</event>
<event>
 4    1  0.1602044E+006  0.2370212E+02  0.7546771E-02  0.1483865E+00
         21   -1    0    0  504  501  0.00000000000E+00  0.00000000000E+00  0.24424786969E+03  0.24424786969E+03  0.00000000000E+00 0. -1.
         21   -1    0    0  503  502 -0.00000000000E+00 -0.00000000000E+00 -0.23292478512E+01  0.23292478512E+01  0.00000000000E+00 0. -1.
         21    1    1    2  503  501  0.60900551860E+01 -0.22906367407E+02  0.10716364205E+03  0.10975352668E+03  0.00000000000E+00 0. -1.
         21    1    1    2  504  502 -0.60900551860E+01  0.22906367407E+02  0.13475497978E+03  0.13682359086E+03  0.00000000000E+00 0. -1.
</event>
<event>
 4    1  0.1602044E+006  0.2450753E+02  0.7546771E-02  0.1474389E+00
         21   -1    0    0  502  501  0.00000000000E+00  0.00000000000E+00  0.16592491149E+03  0.16592491149E+03  0.00000000000E+00 0. -1.
         21   -1    0    0  504  502 -0.00000000000E+00 -0.00000000000E+00 -0.50775308076E+01  0.50775308076E+01  0.00000000000E+00 0. -1.
         21    1    1    2  503  501 -0.13258184175E+02 -0.20611633620E+02  0.12623589630E+03  0.12859284740E+03  0.00000000000E+00 0. -1.
         21    1    1    2  504  503  0.13258184175E+02  0.20611633620E+02  0.34611484383E+02  0.42409594897E+02  0.00000000000E+00 0. -1.
</event>
<event>
 4    1  0.1602044E+006  0.2305599E+02  0.7546771E-02  0.1491796E+00
         21   -1    0    0  502  501  0.00000000000E+00  0.00000000000E+00  0.20529160709E+03  0.20529160709E+03  0.00000000000E+00 0. -1.
         21   -1    0    0  504  502 -0.00000000000E+00 -0.00000000000E+00 -0.42291567742E+01  0.42291567742E+01  0.00000000000E+00 0. -1.
         21    1    1    2  503  501 -0.22765146829E+02  0.36505955519E+01  0.16576342810E+03  0.16735917320E+03  0.00000000000E+00 0. -1.
         21    1    1    2  504  503  0.22765146829E+02 -0.36505955519E+01  0.35299022209E+02  0.42161590659E+02  0.00000000000E+00 0. -1.
</event>
<event>
 4    1  0.1602044E+006  0.5145490E+02  0.7546771E-02  0.1291985E+00
         21   -1    0    0  504  501  0.00000000000E+00  0.00000000000E+00  0.17682033512E+03  0.17682033512E+03  0.00000000000E+00 0.  1.
         21   -1    0    0  503  502 -0.00000000000E+00 -0.00000000000E+00 -0.79362628619E+02  0.79362628619E+02  0.00000000000E+00 0. -1.
         21    1    1    2  503  501 -0.35655259166E+02  0.37098646159E+02 -0.66648012027E+02  0.84199552019E+02  0.00000000000E+00 0. -1.
         21    1    1    2  504  502  0.35655259166E+02 -0.37098646159E+02  0.16410571853E+03  0.17198341172E+03  0.00000000000E+00 0.  1.
</event>
<event>
 4    1  0.1602044E+006  0.5223112E+02  0.7546771E-02  0.1288778E+00
         21   -1    0    0  504  501  0.00000000000E+00  0.00000000000E+00  0.46179758258E+01  0.46179758258E+01  0.00000000000E+00 0. -1.
         21   -1    0    0  501  502 -0.00000000000E+00 -0.00000000000E+00 -0.12287385995E+04  0.12287385995E+04  0.00000000000E+00 0. -1.
         21    1    1    2  503  502 -0.26354029915E+02 -0.45094954383E+02 -0.10564191772E+04  0.10577095857E+04  0.00000000000E+00 0. -1.
         21    1    1    2  504  503  0.26354029915E+02  0.45094954383E+02 -0.16770144656E+03  0.17564698968E+03  0.00000000000E+00 0. -1.
</event>
<event>
 4    1  0.1602044E+006  0.2064537E+02  0.7546771E-02  0.1524389E+00
         21   -1    0    0  503  501  0.00000000000E+00  0.00000000000E+00  0.39527647551E+01  0.39527647551E+01  0.00000000000E+00 0.  1.
         21   -1    0    0  501  502 -0.00000000000E+00 -0.00000000000E+00 -0.28411985372E+03  0.28411985372E+03  0.00000000000E+00 0.  1.
         21    1    1    2  503  504  0.19420152004E+02 -0.70063536812E+01 -0.26625995814E+02  0.33692357425E+02  0.00000000000E+00 0.  1.
         21    1    1    2  504  502 -0.19420152004E+02  0.70063536812E+01 -0.25354109315E+03  0.25438026105E+03  0.00000000000E+00 0.  1.
</event>
<event>
 4    1  0.1602044E+006  0.2266574E+02  0.7546771E-02  0.1496739E+00
         21   -1    0    0  503  501  0.00000000000E+00  0.00000000000E+00  0.10677972074E+03  0.10677972074E+03  0.00000000000E+00 0. -1.
         21   -1    0    0  504  502 -0.00000000000E+00 -0.00000000000E+00 -0.49792839370E+01  0.49792839370E+01  0.00000000000E+00 0. -1.
         21    1    1    2  503  502 -0.13323444049E+02  0.18336342998E+02  0.61167795148E+02  0.65232160773E+02  0.00000000000E+00 0. -1.
         21    1    1    2  504  501  0.13323444049E+02 -0.18336342998E+02  0.40632641660E+02  0.46526843909E+02  0.00000000000E+00 0. -1.
</event>
<event>
 4    1  0.1602044E+006  0.2732268E+02  0.7546771E-02  0.1444393E+00
         21   -1    0    0  504  501  0.00000000000E+00  0.00000000000E+00  0.67113458940E+01  0.67113458940E+01  0.00000000000E+00 0. -1.
         21   -1    0    0  503  502 -0.00000000000E+00 -0.00000000000E+00 -0.11758364762E+04  0.11758364762E+04  0.00000000000E+00 0.  1.
         21    1    1    2  503  501  0.10254894711E+02  0.25325208312E+02 -0.11471745938E+04  0.11474999250E+04  0.00000000000E+00 0.  1.
         21    1    1    2  504  502 -0.10254894711E+02 -0.25325208312E+02 -0.21950536447E+02  0.35047897111E+02  0.00000000000E+00 0. -1.
</event>
<event>
 4    1  0.1602044E+006  0.2468304E+02  0.7546771E-02  0.1472381E+00
         21   -1    0    0  503  501  0.00000000000E+00  0.00000000000E+00  0.16841166381E+03  0.16841166381E+03  0.00000000000E+00 0. -1.
         21   -1    0    0  504  502 -0.00000000000E+00 -0.00000000000E+00 -0.33135434217E+02  0.33135434217E+02  0.00000000000E+00 0. -1.
         21    1    1    2  503  502 -0.21307584401E+02  0.12459515247E+02  0.16275161745E+03  0.16461270198E+03  0.00000000000E+00 0. -1.
         21    1    1    2  504  501  0.21307584401E+02 -0.12459515247E+02 -0.27475387854E+02  0.36934396041E+02  0.00000000000E+00 0. -1.
</event>
<event>
 4    1  0.1602044E+006  0.2140611E+02  0.7546771E-02  0.1513545E+00
         21   -1    0    0  504  501  0.00000000000E+00  0.00000000000E+00  0.55261245491E+02  0.55261245491E+02  0.00000000000E+00 0. -1.
         21   -1    0    0  503  502 -0.00000000000E+00 -0.00000000000E+00 -0.13763990462E+02  0.13763990462E+02  0.00000000000E+00 0. -1.
         21    1    1    2  503  501  0.15262984001E+02 -0.15008755419E+02 -0.10125231275E+01  0.21430040199E+02  0.00000000000E+00 0. -1.
         21    1    1    2  504  502 -0.15262984001E+02  0.15008755419E+02  0.42509778157E+02  0.47595195753E+02  0.00000000000E+00 0. -1.
</event>
<event>
 4    1  0.1602044E+006  0.2300016E+02  0.7546771E-02  0.1492496E+00
         21   -1    0    0  503  501  0.00000000000E+00  0.00000000000E+00  0.10069940244E+03  0.10069940244E+03  0.00000000000E+00 0. -1.
         21   -1    0    0  504  502 -0.00000000000E+00 -0.00000000000E+00 -0.15318011137E+02  0.15318011137E+02  0.00000000000E+00 0.  1.
         21    1    1    2  503  502 -0.12843002447E+02  0.19080480040E+02 -0.43303142249E+01  0.23404252855E+02  0.00000000000E+00 0.  1.
         21    1    1    2  504  501  0.12843002447E+02 -0.19080480040E+02  0.89711705527E+02  0.92613160723E+02  0.00000000000E+00 0. -1.
</event>
<event>
 4    1  0.1602044E+006  0.2445484E+02  0.7546771E-02  0.1474995E+00
         21   -1    0    0  503  501  0.00000000000E+00  0.00000000000E+00  0.45461499584E+02  0.45461499584E+02  0.00000000000E+00 0.  1.
         21   -1    0    0  504  502 -0.00000000000E+00 -0.00000000000E+00 -0.13797730692E+02  0.13797730692E+02  0.00000000000E+00 0.  1.
         21    1    1    2  503  502  0.16856038466E+02  0.17717601164E+02  0.94362186010E+01  0.26212242278E+02  0.00000000000E+00 0.  1.
         21    1    1    2  504  501 -0.16856038466E+02 -0.17717601164E+02  0.22227550291E+02  0.33046987997E+02  0.00000000000E+00 0.  1.
</event>
<event>
 4    1  0.1602044E+006  0.9072296E+02  0.7546771E-02  0.1180933E+00
         21   -1    0    0  503  501  0.00000000000E+00  0.00000000000E+00  0.82999447932E+01  0.82999447932E+01  0.00000000000E+00 0.  1.
         21   -1    0    0  501  502 -0.00000000000E+00 -0.00000000000E+00 -0.10423531981E+04  0.10423531981E+04  0.00000000000E+00 0.  1.
         21    1    1    2  503  504 -0.82451192893E+02  0.37847796056E+02 -0.40116702034E+03  0.41129749949E+03  0.00000000000E+00 0.  1.
         21    1    1    2  504  502  0.82451192893E+02 -0.37847796056E+02 -0.63288623294E+03  0.63935564338E+03  0.00000000000E+00 0.  1.
</event>
<event>
 4    1  0.1602044E+006  0.3182308E+02  0.7546771E-02  0.1404389E+00
         21   -1    0    0  503  501  0.00000000000E+00  0.00000000000E+00  0.73784705264E+01  0.73784705264E+01  0.00000000000E+00 0.  1.
         21   -1    0    0  501  502 -0.00000000000E+00 -0.00000000000E+00 -0.20309583118E+03  0.20309583118E+03  0.00000000000E+00 0.  1.
         21    1    1    2  503  504 -0.28767977800E+02  0.13605583463E+02 -0.37937998814E+02  0.49517675653E+02  0.00000000000E+00 0.  1.
         21    1    1    2  504  502  0.28767977800E+02 -0.13605583463E+02 -0.15777936184E+03  0.16095662605E+03  0.00000000000E+00 0.  1.
</event>
<event>
 4    1  0.1602044E+006  0.2282542E+02  0.7546771E-02  0.1494702E+00
         21   -1    0    0  503  501  0.00000000000E+00  0.00000000000E+00  0.51476590593E+01  0.51476590593E+01  0.00000000000E+00 0. -1.
         21   -1    0    0  504  502 -0.00000000000E+00 -0.00000000000E+00 -0.35213424726E+03  0.35213424726E+03  0.00000000000E+00 0. -1.
         21    1    1    2  503  502 -0.15811491469E+02 -0.16461974367E+02 -0.22694690272E+02  0.32187712393E+02  0.00000000000E+00 0. -1.
         21    1    1    2  504  501  0.15811491469E+02  0.16461974367E+02 -0.32429189793E+03  0.32509419393E+03  0.00000000000E+00 0. -1.
</event>
<event>
 4    1  0.1602044E+006  0.4115216E+02  0.7546771E-02  0.1341863E+00
         21   -1    0    0  503  501  0.00000000000E+00  0.00000000000E+00  0.37721483494E+03  0.37721483494E+03  0.00000000000E+00 0. -1.
         21   -1    0    0  504  502 -0.00000000000E+00 -0.00000000000E+00 -0.94421038958E+01  0.94421038958E+01  0.00000000000E+00 0. -1.
         21    1    1    2  503  502  0.29504464261E+02 -0.28687753800E+02  0.32390274614E+03  0.32650649241E+03  0.00000000000E+00 0. -1.
         21    1    1    2  504  501 -0.29504464261E+02  0.28687753800E+02  0.43869984898E+02  0.60150446418E+02  0.00000000000E+00 0. -1.
</event>
<event>
 4    1  0.1602044E+006  0.2758390E+02  0.7546771E-02  0.1441829E+00
         21   -1    0    0  503  501  0.00000000000E+00  0.00000000000E+00  0.15166467714E+02  0.15166467714E+02  0.00000000000E+00 0. -1.
         21   -1    0    0  501  502 -0.00000000000E+00 -0.00000000000E+00 -0.56792690293E+03  0.56792690293E+03  0.00000000000E+00 0.  1.
         21    1    1    2  503  504  0.28069665371E+01  0.27440712766E+02  0.19918551033E+01  0.27655727526E+02  0.00000000000E+00 0. -1.
         21    1    1    2  504  502 -0.28069665371E+01 -0.27440712766E+02 -0.55475229032E+03  0.55543764312E+03  0.00000000000E+00 0.  1.
</event>
<event>
 4    1  0.1602044E+006  0.3322860E+02  0.7546771E-02  0.1393463E+00
         21   -1    0    0  504  501  0.00000000000E+00  0.00000000000E+00  0.37526383531E+02  0.37526383531E+02  0.00000000000E+00 0.  1.
         21   -1    0    0  503  502 -0.00000000000E+00 -0.00000000000E+00 -0.57042234795E+02  0.57042234795E+02  0.00000000000E+00 0.  1.
         21    1    1    2  503  501  0.29793482529E+02  0.14713545896E+02  0.23144229153E+02  0.40494386983E+02  0.00000000000E+00 0.  1.
         21    1    1    2  504  502 -0.29793482529E+02 -0.14713545896E+02 -0.42660080417E+02  0.54074231342E+02  0.00000000000E+00 0.  1.
</event>
<event>
 4    1  0.1602044E+006  0.2254845E+02  0.7546771E-02  0.1498248E+00
         21   -1    0    0  502  501  0.00000000000E+00  0.00000000000E+00  0.13022771254E+03  0.13022771254E+03  0.00000000000E+00 0.  1.
         21   -1    0    0  503  502 -0.00000000000E+00 -0.00000000000E+00 -0.70390046576E+01  0.70390046576E+01  0.00000000000E+00 0. -1.
         21    1    1    2  503  504  0.21374420296E+02  0.71809879036E+01  0.15792163011E+02  0.27528618615E+02  0.00000000000E+00 0. -1.
         21    1    1    2  504  501 -0.21374420296E+02 -0.71809879036E+01  0.10739654487E+03  0.10973809858E+03  0.00000000000E+00 0.  1.
</event>
<event>
 4    1  0.1602044E+006  0.2302945E+02  0.7546771E-02  0.1492129E+00
         21   -1    0    0  503  501  0.00000000000E+00  0.00000000000E+00  0.25043550960E+02  0.25043550960E+02  0.00000000000E+00 0.  1.
         21   -1    0    0  504  502 -0.00000000000E+00 -0.00000000000E+00 -0.23331499917E+02  0.23331499917E+02  0.00000000000E+00 0.  1.
         21    1    1    2  503  502  0.37855176405E+01 -0.22716194215E+02  0.82055588608E+01  0.24447634234E+02  0.00000000000E+00 0.  1.
         21    1    1    2  504  501 -0.37855176405E+01  0.22716194215E+02 -0.64935078180E+01  0.23927416643E+02  0.00000000000E+00 0.  1.
</event>
<event>
 4    1  0.1602044E+006  0.2500876E+02  0.7546771E-02  0.1468705E+00
         21   -1    0    0  502  501  0.00000000000E+00  0.00000000000E+00  0.11487873324E+02  0.11487873324E+02  0.00000000000E+00 0. -1.
         21   -1    0    0  503  502 -0.00000000000E+00 -0.00000000000E+00 -0.45834072638E+03  0.45834072638E+03  0.00000000000E+00 0. -1.
         21    1    1    2  503  504 -0.20077556776E+02  0.14910732392E+02 -0.44394783099E+03  0.44465167813E+03  0.00000000000E+00 0. -1.
         21    1    1    2  504  501  0.20077556776E+02 -0.14910732392E+02 -0.29050220658E+01  0.25176921570E+02  0.00000000000E+00 0. -1.
</event>
<event>
 4    1  0.1602044E+006  0.3944935E+02  0.7546771E-02  0.1351743E+00
         21   -1    0    0  504  501  0.00000000000E+00  0.00000000000E+00  0.10652395481E+04  0.10652395481E+04  0.00000000000E+00 0.  1.
         21   -1    0    0  503  502 -0.00000000000E+00 -0.00000000000E+00 -0.20382737229E+01  0.20382737229E+01  0.00000000000E+00 0.  1.
         21    1    1    2  503  501 -0.41814143284E+01 -0.39227123615E+02  0.24759329835E+03  0.25071635934E+03  0.00000000000E+00 0.  1.
         21    1    1    2  504  502  0.41814143284E+01  0.39227123615E+02  0.81560797605E+03  0.81656146251E+03  0.00000000000E+00 0.  1.
</event>
<event>
 4    1  0.1602044E+006  0.2062090E+02  0.7546771E-02  0.1524747E+00
         21   -1    0    0  503  501  0.00000000000E+00  0.00000000000E+00  0.91183188845E+01  0.91183188845E+01  0.00000000000E+00 0. -1.
         21   -1    0    0  501  502 -0.00000000000E+00 -0.00000000000E+00 -0.68988656215E+02  0.68988656215E+02  0.00000000000E+00 0. -1.
         21    1    1    2  503  504 -0.13068296027E+02  0.15951212087E+02 -0.77042569716E+01  0.22013112083E+02  0.00000000000E+00 0. -1.
         21    1    1    2  504  502  0.13068296027E+02 -0.15951212087E+02 -0.52166080359E+02  0.56093863016E+02  0.00000000000E+00 0. -1.
</event>
<event>
 4    1  0.1602044E+006  0.2064385E+02  0.7546771E-02  0.1524411E+00
         21   -1    0    0  503  501  0.00000000000E+00  0.00000000000E+00  0.39732958472E+01  0.39732958472E+01  0.00000000000E+00 0.  1.
         21   -1    0    0  504  502 -0.00000000000E+00 -0.00000000000E+00 -0.10829171210E+03  0.10829171210E+03  0.00000000000E+00 0.  1.
         21    1    1    2  503  502 -0.18338378781E+02  0.94800973646E+01 -0.46675377723E+02  0.51036842261E+02  0.00000000000E+00 0.  1.
         21    1    1    2  504  501  0.18338378781E+02 -0.94800973646E+01 -0.57643038526E+02  0.61228165682E+02  0.00000000000E+00 0.  1.
</event>
<event>
 4    1  0.1602044E+006  0.4518551E+02  0.7546771E-02  0.1320514E+00
         21   -1    0    0  504  501  0.00000000000E+00  0.00000000000E+00  0.13697283729E+02  0.13697283729E+02  0.00000000000E+00 0.  1.
         21   -1    0    0  503  502 -0.00000000000E+00 -0.00000000000E+00 -0.20887725101E+03  0.20887725101E+03  0.00000000000E+00 0.  1.
         21    1    1    2  503  501  0.77092400614E+00  0.45178935144E+02 -0.15714379801E+03  0.16351117319E+03  0.00000000000E+00 0.  1.
         21    1    1    2  504  502 -0.77092400614E+00 -0.45178935144E+02 -0.38036169267E+02  0.59063361546E+02  0.00000000000E+00 0.  1.
</event>
<event>
 4    1  0.1602044E+006  0.3375235E+02  0.7546771E-02  0.1389553E+00
         21   -1    0    0  504  501  0.00000000000E+00  0.00000000000E+00  0.49444992164E+02  0.49444992164E+02  0.00000000000E+00 0. -1.
         21   -1    0    0  501  502 -0.00000000000E+00 -0.00000000000E+00 -0.46073639826E+02  0.46073639826E+02  0.00000000000E+00 0. -1.
         21    1    1    2  503  502  0.33223643962E+02  0.59506612625E+01 -0.32082806447E+02  0.46567449545E+02  0.00000000000E+00 0. -1.
         21    1    1    2  504  503 -0.33223643962E+02 -0.59506612625E+01  0.35454158785E+02  0.48951182445E+02  0.00000000000E+00 0. -1.
</event>
<event>
 4    1  0.1602044E+006  0.3704111E+02  0.7546771E-02  0.1366755E+00
         21   -1    0    0  502  501  0.00000000000E+00  0.00000000000E+00  0.38320119939E+03  0.38320119939E+03  0.00000000000E+00 0. -1.
         21   -1    0    0  504  502 -0.00000000000E+00 -0.00000000000E+00 -0.29525254182E+02  0.29525254182E+02  0.00000000000E+00 0.  1.
         21    1    1    2  503  501  0.62724565516E+01  0.36506165348E+02  0.37028427995E+03  0.37213235790E+03  0.00000000000E+00 0. -1.
         21    1    1    2  504  503 -0.62724565516E+01 -0.36506165348E+02 -0.16608334749E+02  0.40594095664E+02  0.00000000000E+00 0.  1.
</event>
<event>
 4    1  0.1602044E+006  0.2946826E+02  0.7546771E-02  0.1424274E+00
         21   -1    0    0  503  501  0.00000000000E+00  0.00000000000E+00  0.14705470154E+02  0.14705470154E+02  0.00000000000E+00 0. -1.
         21   -1    0    0  504  502 -0.00000000000E+00 -0.00000000000E+00 -0.61725204735E+02  0.61725204735E+02  0.00000000000E+00 0. -1.
         21    1    1    2  503  502  0.28128139100E+02  0.87855518209E+01 -0.31463652706E+02  0.43108462877E+02  0.00000000000E+00 0. -1.
         21    1    1    2  504  501 -0.28128139100E+02 -0.87855518209E+01 -0.15556081875E+02  0.33322212011E+02  0.00000000000E+00 0. -1.
</event>
<event>
 4    1  0.1602044E+006  0.2018805E+02  0.7546771E-02  0.1531180E+00
         21   -1    0    0  503  501  0.00000000000E+00  0.00000000000E+00  0.15772029190E+02  0.15772029190E+02  0.00000000000E+00 0. -1.
         21   -1    0    0  504  502 -0.00000000000E+00 -0.00000000000E+00 -0.28195273638E+02  0.28195273638E+02  0.00000000000E+00 0. -1.
         21    1    1    2  503  502  0.20181345817E+02 -0.52020563728E+00  0.14146783227E+00  0.20188544921E+02  0.00000000000E+00 0. -1.
         21    1    1    2  504  501 -0.20181345817E+02  0.52020563728E+00 -0.12564712280E+02  0.23778757907E+02  0.00000000000E+00 0. -1.
</event>
<event>
 4    1  0.1602044E+006  0.3338471E+02  0.7546771E-02  0.1392289E+00
         21   -1    0    0  504  501  0.00000000000E+00  0.00000000000E+00  0.39855737226E+01  0.39855737226E+01  0.00000000000E+00 0.  1.
         21   -1    0    0  501  502 -0.00000000000E+00 -0.00000000000E+00 -0.32397691446E+03  0.32397691446E+03  0.00000000000E+00 0.  1.
         21    1    1    2  503  502  0.24017898600E+02  0.23187916527E+02 -0.22065586383E+03  0.22316708800E+03  0.00000000000E+00 0.  1.
         21    1    1    2  504  503 -0.24017898600E+02 -0.23187916527E+02 -0.99335476911E+02  0.10479540018E+03  0.00000000000E+00 0.  1.
</event>
<event>
 4    1  0.1602044E+006  0.2335726E+02  0.7546771E-02  0.1488060E+00
         21   -1    0    0  504  501  0.00000000000E+00  0.00000000000E+00  0.22950469522E+03  0.22950469522E+03  0.00000000000E+00 0.  1.
         21   -1    0    0  501  502 -0.00000000000E+00 -0.00000000000E+00 -0.28577692812E+01  0.28577692812E+01  0.00000000000E+00 0.  1.
         21    1    1    2  503  502 -0.21449782549E+02 -0.92449155086E+01  0.65676664520E+02  0.69706426508E+02  0.00000000000E+00 0.  1.
         21    1    1    2  504  503  0.21449782549E+02  0.92449155086E+01  0.16097026142E+03  0.16265603799E+03  0.00000000000E+00 0.  1.
</event>
<event>
 4    1  0.1602044E+006  0.2093121E+02  0.7546771E-02  0.1520249E+00
         21   -1    0    0  502  501  0.00000000000E+00  0.00000000000E+00  0.18716622603E+02  0.18716622603E+02  0.00000000000E+00 0. -1.
         21   -1    0    0  504  502 -0.00000000000E+00 -0.00000000000E+00 -0.15301584282E+03  0.15301584282E+03  0.00000000000E+00 0.  1.
         21    1    1    2  503  501 -0.19642578780E+02 -0.72308020238E+01  0.11876416535E+02  0.24065840288E+02  0.00000000000E+00 0. -1.
         21    1    1    2  504  503  0.19642578780E+02  0.72308020238E+01 -0.14617563675E+03  0.14766662513E+03  0.00000000000E+00 0.  1.
</event>
<event>
 4    1  0.1602044E+006  0.2562246E+02  0.7546771E-02  0.1461959E+00
         21   -1    0    0  504  501  0.00000000000E+00  0.00000000000E+00  0.41800499762E+03  0.41800499762E+03  0.00000000000E+00 0. -1.
         21   -1    0    0  503  502 -0.00000000000E+00 -0.00000000000E+00 -0.99795461284E+01  0.99795461284E+01  0.00000000000E+00 0.  1.
         21    1    1    2  503  501 -0.19515384524E+02  0.16603015194E+02  0.75799323871E+01  0.26720137007E+02  0.00000000000E+00 0.  1.
         21    1    1    2  504  502  0.19515384524E+02 -0.16603015194E+02  0.40044551911E+03  0.40126440674E+03  0.00000000000E+00 0. -1.
</event>
<event>
 4    1  0.1602044E+006  0.2014047E+02  0.7546771E-02  0.1531899E+00
         21   -1    0    0  504  501  0.00000000000E+00  0.00000000000E+00  0.36041819039E+01  0.36041819039E+01  0.00000000000E+00 0.  1.
         21   -1    0    0  503  502 -0.00000000000E+00 -0.00000000000E+00 -0.24738250698E+03  0.24738250698E+03  0.00000000000E+00 0.  1.
         21    1    1    2  503  501 -0.11398450593E+02 -0.16604627794E+02 -0.21453779559E+03  0.21548109912E+03  0.00000000000E+00 0.  1.
         21    1    1    2  504  502  0.11398450593E+02  0.16604627794E+02 -0.29240529487E+02  0.35505589768E+02  0.00000000000E+00 0.  1.
</event>
<event>
 4    1  0.1602044E+006  0.2105183E+02  0.7546771E-02  0.1518526E+00
         21   -1    0    0  503  501  0.00000000000E+00  0.00000000000E+00  0.83272847287E+01  0.83272847287E+01  0.00000000000E+00 0. -1.
         21   -1    0    0  501  502 -0.00000000000E+00 -0.00000000000E+00 -0.55805667735E+02  0.55805667735E+02  0.00000000000E+00 0.  1.
         21    1    1    2  503  504  0.19911592545E+02  0.68343400789E+01 -0.30641303710E+02  0.37176191508E+02  0.00000000000E+00 0.  1.
         21    1    1    2  504  502 -0.19911592545E+02 -0.68343400789E+01 -0.16837079296E+02  0.26956760955E+02  0.00000000000E+00 0. -1.
</event>
<event>
 4    1  0.1602044E+006  0.2358440E+02  0.7546771E-02  0.1485287E+00
         21   -1    0    0  503  501  0.00000000000E+00  0.00000000000E+00  0.22059418943E+02  0.22059418943E+02  0.00000000000E+00 0. -1.
         21   -1    0    0  501  502 -0.00000000000E+00 -0.00000000000E+00 -0.34933668533E+02  0.34933668533E+02  0.00000000000E+00 0. -1.
         21    1    1    2  503  504 -0.18044238924E+02 -0.15186483004E+02  0.85935319733E+01  0.25101247303E+02  0.00000000000E+00 0. -1.
         21    1    1    2  504  502  0.18044238924E+02  0.15186483004E+02 -0.21467781563E+02  0.31891840173E+02  0.00000000000E+00 0. -1.
</event>
<event>
 4    1  0.1602044E+006  0.2137638E+02  0.7546771E-02  0.1513958E+00
         21   -1    0    0  504  501  0.00000000000E+00  0.00000000000E+00  0.27787000181E+03  0.27787000181E+03  0.00000000000E+00 0.  1.
         21   -1    0    0  503  502 -0.00000000000E+00 -0.00000000000E+00 -0.97893421245E+01  0.97893421245E+01  0.00000000000E+00 0. -1.
         21    1    1    2  503  501 -0.19526012230E+02 -0.86996749644E+01  0.28463784805E+01  0.21565049699E+02  0.00000000000E+00 0. -1.
         21    1    1    2  504  502  0.19526012230E+02  0.86996749644E+01  0.26523428120E+03  0.26609429423E+03  0.00000000000E+00 0.  1.
</event>
<event>
 4    1  0.1602044E+006  0.2374141E+02  0.7546771E-02  0.1483392E+00
         21   -1    0    0  504  501  0.00000000000E+00  0.00000000000E+00  0.11054083163E+04  0.11054083163E+04  0.00000000000E+00 0. -1.
         21   -1    0    0  501  502 -0.00000000000E+00 -0.00000000000E+00 -0.92771673306E+01  0.92771673306E+01  0.00000000000E+00 0.  1.
         21    1    1    2  503  502 -0.10149647254E+02 -0.21462508965E+02  0.62560638847E+01  0.24551842411E+02  0.00000000000E+00 0.  1.
         21    1    1    2  504  503  0.10149647254E+02  0.21462508965E+02  0.10898750850E+04  0.10901336412E+04  0.00000000000E+00 0. -1.
</event>
<event>
 4    1  0.1602044E+006  0.2230817E+02  0.7546771E-02  0.1501373E+00
         21   -1    0    0  504  501  0.00000000000E+00  0.00000000000E+00  0.39488454503E+02  0.39488454503E+02  0.00000000000E+00 0.  1.
         21   -1    0    0  503  502 -0.00000000000E+00 -0.00000000000E+00 -0.15189938909E+02  0.15189938909E+02  0.00000000000E+00 0.  1.
         21    1    1    2  503  501  0.22275714201E+02  0.12030020164E+01  0.86586275027E+00  0.22324972012E+02  0.00000000000E+00 0.  1.
         21    1    1    2  504  502 -0.22275714201E+02 -0.12030020164E+01  0.23432652844E+02  0.32353421401E+02  0.00000000000E+00 0.  1.
</event>
<event>
 4    1  0.1602044E+006  0.2413911E+02  0.7546771E-02  0.1478669E+00
         21   -1    0    0  502  501  0.00000000000E+00  0.00000000000E+00  0.38307710871E+02  0.38307710871E+02  0.00000000000E+00 0. -1.
         21   -1    0    0  503  502 -0.00000000000E+00 -0.00000000000E+00 -0.26280079123E+02  0.26280079123E+02  0.00000000000E+00 0. -1.
         21    1    1    2  503  504  0.20868595198E+02  0.12132543072E+02 -0.14944854286E+02  0.28390941101E+02  0.00000000000E+00 0. -1.
         21    1    1    2  504  501 -0.20868595198E+02 -0.12132543072E+02  0.26972486034E+02  0.36196848893E+02  0.00000000000E+00 0. -1.
</event>
<event>
 4    1  0.1602044E+006  0.2773601E+02  0.7546771E-02  0.1440352E+00
         21   -1    0    0  502  501  0.00000000000E+00  0.00000000000E+00  0.15061924082E+03  0.15061924082E+03  0.00000000000E+00 0. -1.
         21   -1    0    0  503  502 -0.00000000000E+00 -0.00000000000E+00 -0.62508394498E+01  0.62508394498E+01  0.00000000000E+00 0. -1.
         21    1    1    2  503  504 -0.10822311155E+02  0.25537500422E+02  0.38639003946E+02  0.47563210284E+02  0.00000000000E+00 0. -1.
         21    1    1    2  504  501  0.10822311155E+02 -0.25537500422E+02  0.10572939743E+03  0.10930686999E+03  0.00000000000E+00 0. -1.
</event>
<event>
 4    1  0.1602044E+006  0.3141432E+02  0.7546771E-02  0.1407692E+00
         21   -1    0    0  504  501  0.00000000000E+00  0.00000000000E+00  0.39501188484E+02  0.39501188484E+02  0.00000000000E+00 0. -1.
         21   -1    0    0  503  502 -0.00000000000E+00 -0.00000000000E+00 -0.28886177795E+02  0.28886177795E+02  0.00000000000E+00 0.  1.
         21    1    1    2  503  501  0.15122147807E+02 -0.27535067839E+02  0.17876728247E+02  0.36144663894E+02  0.00000000000E+00 0. -1.
         21    1    1    2  504  502 -0.15122147807E+02  0.27535067839E+02 -0.72617175575E+01  0.32242702385E+02  0.00000000000E+00 0.  1.
</event>
<event>
 4    1  0.1602044E+006  0.2089500E+02  0.7546771E-02  0.1520769E+00
         21   -1    0    0  503  501  0.00000000000E+00  0.00000000000E+00  0.60598907177E+02  0.60598907177E+02  0.00000000000E+00 0. -1.
         21   -1    0    0  504  502 -0.00000000000E+00 -0.00000000000E+00 -0.27376847873E+03  0.27376847873E+03  0.00000000000E+00 0.  1.
         21    1    1    2  503  502 -0.14221198509E+02 -0.15308778365E+02  0.58384351809E+02  0.62010754859E+02  0.00000000000E+00 0. -1.
         21    1    1    2  504  501  0.14221198509E+02  0.15308778365E+02 -0.27155392336E+03  0.27235663104E+03  0.00000000000E+00 0.  1.
</event>
<event>
 4    1  0.1602044E+006  0.2482432E+02  0.7546771E-02  0.1470778E+00
         21   -1    0    0  502  501  0.00000000000E+00  0.00000000000E+00  0.26880560936E+02  0.26880560936E+02  0.00000000000E+00 0.  1.
         21   -1    0    0  503  502 -0.00000000000E+00 -0.00000000000E+00 -0.13473536889E+03  0.13473536889E+03  0.00000000000E+00 0.  1.
         21    1    1    2  503  504 -0.17180743584E+02  0.17918398029E+02 -0.12754026100E+03  0.12993369507E+03  0.00000000000E+00 0.  1.
         21    1    1    2  504  501  0.17180743584E+02 -0.17918398029E+02  0.19685453043E+02  0.31682234762E+02  0.00000000000E+00 0.  1.
</event>
<event>
 4    1  0.1602044E+006  0.3751334E+02  0.7546771E-02  0.1363708E+00
         21   -1    0    0  504  501  0.00000000000E+00  0.00000000000E+00  0.10712395017E+04  0.10712395017E+04  0.00000000000E+00 0.  1.
         21   -1    0    0  503  502 -0.00000000000E+00 -0.00000000000E+00 -0.17950669985E+02  0.17950669985E+02  0.00000000000E+00 0.  1.
         21    1    1    2  503  501 -0.51165896313E+01 -0.37162769541E+02  0.10509336585E+04  0.10516029695E+04  0.00000000000E+00 0.  1.
         21    1    1    2  504  502  0.51165896313E+01  0.37162769541E+02  0.23551732658E+01  0.37587202217E+02  0.00000000000E+00 0.  1.
</event>
<event>
 4    1  0.1602044E+006  0.2730842E+02  0.7546771E-02  0.1444534E+00
         21   -1    0    0  503  501  0.00000000000E+00  0.00000000000E+00  0.12973843363E+02  0.12973843363E+02  0.00000000000E+00 0.  1.
         21   -1    0    0  504  502 -0.00000000000E+00 -0.00000000000E+00 -0.10933000271E+04  0.10933000271E+04  0.00000000000E+00 0.  1.
         21    1    1    2  503  502 -0.25368413762E+02  0.10109087864E+02 -0.17632639805E+01  0.27365291412E+02  0.00000000000E+00 0.  1.
         21    1    1    2  504  501  0.25368413762E+02 -0.10109087864E+02 -0.10785629198E+04  0.10789085791E+04  0.00000000000E+00 0.  1.
</event>
<event>
 4    1  0.1602044E+006  0.2371008E+02  0.7546771E-02  0.1483769E+00
         21   -1    0    0  504  501  0.00000000000E+00  0.00000000000E+00  0.25921428676E+02  0.25921428676E+02  0.00000000000E+00 0.  1.
         21   -1    0    0  501  502 -0.00000000000E+00 -0.00000000000E+00 -0.17077094248E+03  0.17077094248E+03  0.00000000000E+00 0.  1.
         21    1    1    2  503  502  0.77104031635E+01  0.22421368675E+02 -0.16431415387E+03  0.16601599095E+03  0.00000000000E+00 0.  1.
         21    1    1    2  504  503 -0.77104031635E+01 -0.22421368675E+02  0.19464640059E+02  0.30676380211E+02  0.00000000000E+00 0.  1.
</event>
<event>
 4    1  0.1602044E+006  0.2194305E+02  0.7546771E-02  0.1506215E+00
         21   -1    0    0  502  501  0.00000000000E+00  0.00000000000E+00  0.12162479665E+03  0.12162479665E+03  0.00000000000E+00 0. -1.
         21   -1    0    0  504  502 -0.00000000000E+00 -0.00000000000E+00 -0.56269538669E+01  0.56269538669E+01  0.00000000000E+00 0.  1.
         21    1    1    2  503  501  0.16260962084E+02 -0.14733588602E+02  0.92641101681E+02  0.95204365665E+02  0.00000000000E+00 0. -1.
         21    1    1    2  504  503 -0.16260962084E+02  0.14733588602E+02  0.23356741103E+02  0.32047384853E+02  0.00000000000E+00 0.  1.
</event>
<event>
 4    1  0.1602044E+006  0.2469846E+02  0.7546771E-02  0.1472205E+00
         21   -1    0    0  503  501  0.00000000000E+00  0.00000000000E+00  0.32351279269E+03  0.32351279269E+03  0.00000000000E+00 0. -1.
         21   -1    0    0  504  502 -0.00000000000E+00 -0.00000000000E+00 -0.78609217550E+01  0.78609217550E+01  0.00000000000E+00 0.  1.
         21    1    1    2  503  502 -0.16746278170E+02  0.18154223961E+02  0.30228080979E+03  0.30328814953E+03  0.00000000000E+00 0. -1.
         21    1    1    2  504  501  0.16746278170E+02 -0.18154223961E+02  0.13371061142E+02  0.28085564908E+02  0.00000000000E+00 0.  1.
</event>
<event>
 4    1  0.1602044E+006  0.2039071E+02  0.7546771E-02  0.1528144E+00
         21   -1    0    0  502  501  0.00000000000E+00  0.00000000000E+00  0.23751321033E+03  0.23751321033E+03  0.00000000000E+00 0. -1.
         21   -1    0    0  504  502 -0.00000000000E+00 -0.00000000000E+00 -0.30663759484E+01  0.30663759484E+01  0.00000000000E+00 0.  1.
         21    1    1    2  503  501  0.17319662967E+02 -0.10761526450E+02  0.19602113066E+03  0.19707882900E+03  0.00000000000E+00 0. -1.
         21    1    1    2  504  503 -0.17319662967E+02  0.10761526450E+02  0.38425703723E+02  0.43500757275E+02  0.00000000000E+00 0.  1.
</event>
<event>
 4    1  0.1602044E+006  0.2295558E+02  0.7546771E-02  0.1493057E+00
         21   -1    0    0  503  501  0.00000000000E+00  0.00000000000E+00  0.67399274987E+02  0.67399274987E+02  0.00000000000E+00 0.  1.
         21   -1    0    0  501  502 -0.00000000000E+00 -0.00000000000E+00 -0.78402058282E+01  0.78402058282E+01  0.00000000000E+00 0. -1.
         21    1    1    2  503  504 -0.22517563462E+02 -0.44629470015E+01  0.31760771347E+02  0.39188074165E+02  0.00000000000E+00 0.  1.
         21    1    1    2  504  502  0.22517563462E+02  0.44629470015E+01  0.27798297812E+02  0.36051406651E+02  0.00000000000E+00 0. -1.
</event>
<event>
 4    1  0.1602044E+006  0.2232603E+02  0.7546771E-02  0.1501139E+00
         21   -1    0    0  504  501  0.00000000000E+00  0.00000000000E+00  0.21413376588E+02  0.21413376588E+02  0.00000000000E+00 0. -1.
         21   -1    0    0  503  502 -0.00000000000E+00 -0.00000000000E+00 -0.23941975153E+02  0.23941975153E+02  0.00000000000E+00 0. -1.
         21    1    1    2  503  501 -0.21661275490E+02  0.54074542917E+01 -0.50420592506E+01  0.22888289130E+02  0.00000000000E+00 0. -1.
         21    1    1    2  504  502  0.21661275490E+02 -0.54074542917E+01  0.25134606858E+01  0.22467062612E+02  0.00000000000E+00 0. -1.
</event>
<event>
 4    1  0.1602044E+006  0.2028621E+02  0.7546771E-02  0.1529704E+00
         21   -1    0    0  502  501  0.00000000000E+00  0.00000000000E+00  0.33107313842E+02  0.33107313842E+02  0.00000000000E+00 0. -1.
         21   -1    0    0  504  502 -0.00000000000E+00 -0.00000000000E+00 -0.17774296690E+02  0.17774296690E+02  0.00000000000E+00 0. -1.
         21    1    1    2  503  501 -0.16868838145E+02  0.11268217900E+02  0.21616434916E+02  0.29644572749E+02  0.00000000000E+00 0. -1.
         21    1    1    2  504  503  0.16868838145E+02 -0.11268217900E+02 -0.62834177649E+01  0.21237037783E+02  0.00000000000E+00 0. -1.
</event>
<event>
 4    1  0.1602044E+006  0.3146108E+02  0.7546771E-02  0.1407311E+00
         21   -1    0    0  503  501  0.00000000000E+00  0.00000000000E+00  0.73914064571E+02  0.73914064571E+02  0.00000000000E+00 0.  1.
         21   -1    0    0  504  502 -0.00000000000E+00 -0.00000000000E+00 -0.15845811484E+02  0.15845811484E+02  0.00000000000E+00 0.  1.
         21    1    1    2  503  502  0.31453271109E+02 -0.70092173683E+00  0.11370309738E+02  0.33452705395E+02  0.00000000000E+00 0.  1.
         21    1    1    2  504  501 -0.31453271109E+02  0.70092173683E+00  0.46697943348E+02  0.56307170660E+02  0.00000000000E+00 0.  1.
</event>
<event>
 4    1  0.1602044E+006  0.2547533E+02  0.7546771E-02  0.1463555E+00
         21   -1    0    0  502  501  0.00000000000E+00  0.00000000000E+00  0.63239397380E+02  0.63239397380E+02  0.00000000000E+00 0. -1.
         21   -1    0    0  504  502 -0.00000000000E+00 -0.00000000000E+00 -0.19114178672E+03  0.19114178672E+03  0.00000000000E+00 0.  1.
         21    1    1    2  503  501 -0.16453196637E+02  0.19449548206E+02  0.59777838432E+02  0.64979862824E+02  0.00000000000E+00 0. -1.
         21    1    1    2  504  503  0.16453196637E+02 -0.19449548206E+02 -0.18768022778E+03  0.18940132128E+03  0.00000000000E+00 0.  1.
</event>
<event>
 4    1  0.1602044E+006  0.4818323E+02  0.7546771E-02  0.1306247E+00
         21   -1    0    0  502  501  0.00000000000E+00  0.00000000000E+00  0.26802486474E+03  0.26802486474E+03  0.00000000000E+00 0. -1.
         21   -1    0    0  503  502 -0.00000000000E+00 -0.00000000000E+00 -0.29641780739E+03  0.29641780739E+03  0.00000000000E+00 0. -1.
         21    1    1    2  503  504 -0.42277097909E+02 -0.23114294687E+02 -0.29226367448E+03  0.29620884364E+03  0.00000000000E+00 0. -1.
         21    1    1    2  504  501  0.42277097909E+02  0.23114294687E+02  0.26387073184E+03  0.26823382849E+03  0.00000000000E+00 0. -1.
</event>
<event>
 4    1  0.1602044E+006  0.2760202E+02  0.7546771E-02  0.1441653E+00
         21   -1    0    0  502  501  0.00000000000E+00  0.00000000000E+00  0.62048292237E+02  0.62048292237E+02  0.00000000000E+00 0.  1.
         21   -1    0    0  503  502 -0.00000000000E+00 -0.00000000000E+00 -0.67892807543E+02  0.67892807543E+02  0.00000000000E+00 0.  1.
         21    1    1    2  503  504 -0.26485928512E+02  0.77696345116E+01 -0.61724947253E+02  0.67615388359E+02  0.00000000000E+00 0.  1.
         21    1    1    2  504  501  0.26485928512E+02 -0.77696345116E+01  0.55880431947E+02  0.62325711421E+02  0.00000000000E+00 0.  1.
</event>
<event>
 4    1  0.1602044E+006  0.4032475E+02  0.7546771E-02  0.1346593E+00
         21   -1    0    0  503  501  0.00000000000E+00  0.00000000000E+00  0.72147769312E+02  0.72147769312E+02  0.00000000000E+00 0. -1.
         21   -1    0    0  504  502 -0.00000000000E+00 -0.00000000000E+00 -0.54574965603E+02  0.54574965603E+02  0.00000000000E+00 0.  1.
         21    1    1    2  503  502  0.19988948494E+02  0.35021810307E+02  0.57332208779E+02  0.70093276586E+02  0.00000000000E+00 0. -1.
         21    1    1    2  504  501 -0.19988948494E+02 -0.35021810307E+02 -0.39759405071E+02  0.56629458329E+02  0.00000000000E+00 0.  1.
</event>
<event>
 4    1  0.1602044E+006  0.2350054E+02  0.7546771E-02  0.1486307E+00
         21   -1    0    0  504  501  0.00000000000E+00  0.00000000000E+00  0.16895477650E+02  0.16895477650E+02  0.00000000000E+00 0. -1.
         21   -1    0    0  503  502 -0.00000000000E+00 -0.00000000000E+00 -0.11906653986E+04  0.11906653986E+04  0.00000000000E+00 0.  1.
         21    1    1    2  503  501 -0.69449141545E+01  0.22450912051E+02 -0.11823198226E+04  0.11825533554E+04  0.00000000000E+00 0.  1.
         21    1    1    2  504  502  0.69449141545E+01 -0.22450912051E+02  0.85499016491E+01  0.25007520923E+02  0.00000000000E+00 0. -1.
</event>
<event>
 4    1  0.1602044E+006  0.2133817E+02  0.7546771E-02  0.1514491E+00
         21   -1    0    0  503  501  0.00000000000E+00  0.00000000000E+00  0.13395671820E+02  0.13395671820E+02  0.00000000000E+00 0.  1.
         21   -1    0    0  504  502 -0.00000000000E+00 -0.00000000000E+00 -0.15513033296E+03  0.15513033296E+03  0.00000000000E+00 0. -1.
         21    1    1    2  503  502  0.85766974781E+01  0.19538625794E+02 -0.14532905946E+03  0.14688721238E+03  0.00000000000E+00 0. -1.
         21    1    1    2  504  501 -0.85766974781E+01 -0.19538625794E+02  0.35943983127E+01  0.21638792406E+02  0.00000000000E+00 0.  1.
</event>
<event>
 4    1  0.1602044E+006  0.2465093E+02  0.7546771E-02  0.1472746E+00
         21   -1    0    0  503  501  0.00000000000E+00  0.00000000000E+00  0.42811777677E+02  0.42811777677E+02  0.00000000000E+00 0. -1.
         21   -1    0    0  501  502 -0.00000000000E+00 -0.00000000000E+00 -0.98671751073E+02  0.98671751073E+02  0.00000000000E+00 0.  1.
         21    1    1    2  503  504 -0.23208743645E+02 -0.83079822203E+01  0.37526209355E+02  0.44898605087E+02  0.00000000000E+00 0. -1.
         21    1    1    2  504  502  0.23208743645E+02  0.83079822203E+01 -0.93386182751E+02  0.96584923663E+02  0.00000000000E+00 0.  1.
</event>
<event>
 4    1  0.1602044E+006  0.2011398E+02  0.7546771E-02  0.1532300E+00
         21   -1    0    0  504  501  0.00000000000E+00  0.00000000000E+00  0.55179365587E+03  0.55179365587E+03  0.00000000000E+00 0. -1.
         21   -1    0    0  501  502 -0.00000000000E+00 -0.00000000000E+00 -0.18593789926E+02  0.18593789926E+02  0.00000000000E+00 0.  1.
         21    1    1    2  503  502  0.16381316580E+02  0.11671532396E+02 -0.12914325090E+02  0.23902970399E+02  0.00000000000E+00 0.  1.
         21    1    1    2  504  503 -0.16381316580E+02 -0.11671532396E+02  0.54611419104E+03  0.54648447540E+03  0.00000000000E+00 0. -1.
</event>
<event>
 4    1  0.1602044E+006  0.2091526E+02  0.7546771E-02  0.1520478E+00
         21   -1    0    0  502  501  0.00000000000E+00  0.00000000000E+00  0.11392326827E+02  0.11392326827E+02  0.00000000000E+00 0.  1.
         21   -1    0    0  504  502 -0.00000000000E+00 -0.00000000000E+00 -0.38398528977E+02  0.38398528977E+02  0.00000000000E+00 0.  1.
         21    1    1    2  503  501  0.41585243924E+01 -0.20497673844E+02 -0.13533063008E+02  0.24911679039E+02  0.00000000000E+00 0.  1.
         21    1    1    2  504  503 -0.41585243924E+01  0.20497673844E+02 -0.13473139143E+02  0.24879176765E+02  0.00000000000E+00 0.  1.
</event>
<event>
 4    1  0.1602044E+006  0.2589467E+02  0.7546771E-02  0.1459039E+00
         21   -1    0    0  504  501  0.00000000000E+00  0.00000000000E+00  0.36251227024E+03  0.36251227024E+03  0.00000000000E+00 0.  1.
         21   -1    0    0  503  502 -0.00000000000E+00 -0.00000000000E+00 -0.90628450142E+01  0.90628450142E+01  0.00000000000E+00 0.  1.
         21    1    1    2  503  501  0.62033661545E+01 -0.25140651609E+02  0.10977176245E+02  0.28125300234E+02  0.00000000000E+00 0.  1.
         21    1    1    2  504  502 -0.62033661545E+01  0.25140651609E+02  0.34247224898E+03  0.34344981502E+03  0.00000000000E+00 0.  1.
</event>
<event>
 4    1  0.1602044E+006  0.2963913E+02  0.7546771E-02  0.1422759E+00
         21   -1    0    0  504  501  0.00000000000E+00  0.00000000000E+00  0.29114766507E+02  0.29114766507E+02  0.00000000000E+00 0. -1.
         21   -1    0    0  503  502 -0.00000000000E+00 -0.00000000000E+00 -0.11332263967E+03  0.11332263967E+03  0.00000000000E+00 0.  1.
         21    1    1    2  503  501 -0.15725973626E+01 -0.29597383663E+02  0.18901151016E+02  0.35152975577E+02  0.00000000000E+00 0. -1.
         21    1    1    2  504  502  0.15725973626E+01  0.29597383663E+02 -0.10310902418E+03  0.10728443060E+03  0.00000000000E+00 0.  1.
</event>
<event>
 4    1  0.1602044E+006  0.3045236E+02  0.7546771E-02  0.1415705E+00
         21   -1    0    0  503  501  0.00000000000E+00  0.00000000000E+00  0.37415793385E+02  0.37415793385E+02  0.00000000000E+00 0. -1.
         21   -1    0    0  504  502 -0.00000000000E+00 -0.00000000000E+00 -0.25164498142E+02  0.25164498142E+02  0.00000000000E+00 0.  1.
         21    1    1    2  503  502 -0.71061174368E+00 -0.30444070642E+02  0.22825630708E+01  0.30537788075E+02  0.00000000000E+00 0.  1.
         21    1    1    2  504  501  0.71061174368E+00  0.30444070642E+02  0.99687321720E+01  0.32042503452E+02  0.00000000000E+00 0. -1.
</event>
<event>
 4    1  0.1602044E+006  0.2288863E+02  0.7546771E-02  0.1493901E+00
         21   -1    0    0  502  501  0.00000000000E+00  0.00000000000E+00  0.18941253368E+01  0.18941253368E+01  0.00000000000E+00 0. -1.
         21   -1    0    0  504  502 -0.00000000000E+00 -0.00000000000E+00 -0.29735498943E+03  0.29735498943E+03  0.00000000000E+00 0.  1.
         21    1    1    2  503  501 -0.48458228796E+01  0.22369786750E+02 -0.10818753491E+03  0.11058224120E+03  0.00000000000E+00 0.  1.
         21    1    1    2  504  503  0.48458228796E+01 -0.22369786750E+02 -0.18727332918E+03  0.18866687357E+03  0.00000000000E+00 0. -1.
</event>
<event>
 4    1  0.1602044E+006  0.3238351E+02  0.7546771E-02  0.1399954E+00
         21   -1    0    0  503  501  0.00000000000E+00  0.00000000000E+00  0.30803573784E+02  0.30803573784E+02  0.00000000000E+00 0.  1.
         21   -1    0    0  504  502 -0.00000000000E+00 -0.00000000000E+00 -0.34701279298E+03  0.34701279298E+03  0.00000000000E+00 0. -1.
         21    1    1    2  503  502  0.21864667055E+02  0.23887824309E+02 -0.33750699345E+03  0.33905701945E+03  0.00000000000E+00 0. -1.
         21    1    1    2  504  501 -0.21864667055E+02 -0.23887824309E+02  0.21297774253E+02  0.38759347308E+02  0.00000000000E+00 0.  1.
</event>
<event>
 4    1  0.1602044E+006  0.2014901E+02  0.7546771E-02  0.1531770E+00
         21   -1    0    0  504  501  0.00000000000E+00  0.00000000000E+00  0.89752492652E+00  0.89752492652E+00  0.00000000000E+00 0.  1.
         21   -1    0    0  503  502 -0.00000000000E+00 -0.00000000000E+00 -0.55167599873E+03  0.55167599873E+03  0.00000000000E+00 0.  1.
         21    1    1    2  503  501 -0.16937951982E+01  0.20077693133E+02 -0.39263048324E+03  0.39314714684E+03  0.00000000000E+00 0.  1.
         21    1    1    2  504  502  0.16937951982E+01 -0.20077693133E+02 -0.15814799057E+03  0.15942637681E+03  0.00000000000E+00 0.  1.
</event>
<event>
 4    1  0.1602044E+006  0.2366647E+02  0.7546771E-02  0.1484295E+00
         21   -1    0    0  504  501  0.00000000000E+00  0.00000000000E+00  0.11505107898E+03  0.11505107898E+03  0.00000000000E+00 0. -1.
         21   -1    0    0  503  502 -0.00000000000E+00 -0.00000000000E+00 -0.49256038758E+01  0.49256038758E+01  0.00000000000E+00 0. -1.
         21    1    1    2  503  501  0.15337443633E+02 -0.18024000422E+02  0.61533794156E+02  0.65928063764E+02  0.00000000000E+00 0. -1.
         21    1    1    2  504  502 -0.15337443633E+02  0.18024000422E+02  0.48591680951E+02  0.54048619095E+02  0.00000000000E+00 0. -1.
</event>
<event>
 4    1  0.1602044E+006  0.3420241E+02  0.7546771E-02  0.1386259E+00
         21   -1    0    0  502  501  0.00000000000E+00  0.00000000000E+00  0.27665427734E+02  0.27665427734E+02  0.00000000000E+00 0.  1.
         21   -1    0    0  504  502 -0.00000000000E+00 -0.00000000000E+00 -0.39500245360E+03  0.39500245360E+03  0.00000000000E+00 0. -1.
         21    1    1    2  503  501 -0.29772073580E+02 -0.16835325091E+02  0.16033965424E+02  0.37774231738E+02  0.00000000000E+00 0.  1.
         21    1    1    2  504  503  0.29772073580E+02  0.16835325091E+02 -0.38337099129E+03  0.38489364959E+03  0.00000000000E+00 0. -1.
</event>
<event>
 4    1  0.1602044E+006  0.2353373E+02  0.7546771E-02  0.1485903E+00
         21   -1    0    0  502  501  0.00000000000E+00  0.00000000000E+00  0.15214598820E+02  0.15214598820E+02  0.00000000000E+00 0.  1.
         21   -1    0    0  504  502 -0.00000000000E+00 -0.00000000000E+00 -0.42741221538E+02  0.42741221538E+02  0.00000000000E+00 0. -1.
         21    1    1    2  503  501  0.19295825243E+02  0.13472469378E+02 -0.26030594790E+01  0.23677251142E+02  0.00000000000E+00 0.  1.
         21    1    1    2  504  503 -0.19295825243E+02 -0.13472469378E+02 -0.24923563239E+02  0.34278569216E+02  0.00000000000E+00 0. -1.
</event>
<event>
 4    1  0.1602044E+006  0.3502671E+02  0.7546771E-02  0.1380375E+00
         21   -1    0    0  503  501  0.00000000000E+00  0.00000000000E+00  0.42568609216E+02  0.42568609216E+02  0.00000000000E+00 0. -1.
         21   -1    0    0  504  502 -0.00000000000E+00 -0.00000000000E+00 -0.33679095770E+02  0.33679095770E+02  0.00000000000E+00 0. -1.
         21    1    1    2  503  502 -0.33046778433E+02 -0.11609523941E+02  0.18924099321E+02  0.39811959837E+02  0.00000000000E+00 0. -1.
         21    1    1    2  504  501  0.33046778433E+02  0.11609523941E+02 -0.10034585875E+02  0.36435745149E+02  0.00000000000E+00 0. -1.
</event>
<event>
 4    1  0.1602044E+006  0.3109602E+02  0.7546771E-02  0.1410305E+00
         21   -1    0    0  502  501  0.00000000000E+00  0.00000000000E+00  0.68758507624E+03  0.68758507624E+03  0.00000000000E+00 0.  1.
         21   -1    0    0  504  502 -0.00000000000E+00 -0.00000000000E+00 -0.32051727341E+01  0.32051727341E+01  0.00000000000E+00 0.  1.
         21    1    1    2  503  501 -0.11091794652E+02  0.29050549189E+02  0.60094491986E+03  0.60174891693E+03  0.00000000000E+00 0.  1.
         21    1    1    2  504  503  0.11091794652E+02 -0.29050549189E+02  0.83434983645E+02  0.89041332047E+02  0.00000000000E+00 0.  1.
</event>
<event>
 4    1  0.1602044E+006  0.2590049E+02  0.7546771E-02  0.1458977E+00
         21   -1    0    0  503  501  0.00000000000E+00  0.00000000000E+00  0.20619515340E+02  0.20619515340E+02  0.00000000000E+00 0. -1.
         21   -1    0    0  501  502 -0.00000000000E+00 -0.00000000000E+00 -0.15662880325E+03  0.15662880325E+03  0.00000000000E+00 0.  1.
         21    1    1    2  503  504  0.39638991047E+01  0.25595366554E+02  0.10880116903E+02  0.28092921332E+02  0.00000000000E+00 0. -1.
         21    1    1    2  504  502 -0.39638991047E+01 -0.25595366554E+02 -0.14688940481E+03  0.14915539726E+03  0.00000000000E+00 0.  1.
</event>
<event>
 4    1  0.1602044E+006  0.2431596E+02  0.7546771E-02  0.1476603E+00
         21   -1    0    0  504  501  0.00000000000E+00  0.00000000000E+00  0.99754340103E+02  0.99754340103E+02  0.00000000000E+00 0. -1.
         21   -1    0    0  501  502 -0.00000000000E+00 -0.00000000000E+00 -0.34318536770E+03  0.34318536770E+03  0.00000000000E+00 0.  1.
         21    1    1    2  503  502  0.12900640426E+02 -0.20611637519E+02 -0.34126451298E+03  0.34212970340E+03  0.00000000000E+00 0.  1.
         21    1    1    2  504  503 -0.12900640426E+02  0.20611637519E+02  0.97833485389E+02  0.10081000440E+03  0.00000000000E+00 0. -1.
</event>
<event>
 4    1  0.1602044E+006  0.2897990E+02  0.7546771E-02  0.1428673E+00
         21   -1    0    0  504  501  0.00000000000E+00  0.00000000000E+00  0.75341975963E+02  0.75341975963E+02  0.00000000000E+00 0. -1.
         21   -1    0    0  503  502 -0.00000000000E+00 -0.00000000000E+00 -0.82237504474E+02  0.82237504474E+02  0.00000000000E+00 0. -1.
         21    1    1    2  503  501  0.24923829517E+02 -0.14786388945E+02  0.69807797591E+02  0.75584146356E+02  0.00000000000E+00 0. -1.
         21    1    1    2  504  502 -0.24923829517E+02  0.14786388945E+02 -0.76703326103E+02  0.81995334081E+02  0.00000000000E+00 0. -1.
</event>
<event>
 4    1  0.1602044E+006  0.2619688E+02  0.7546771E-02  0.1455847E+00
         21   -1    0    0  503  501  0.00000000000E+00  0.00000000000E+00  0.22958010507E+03  0.22958010507E+03  0.00000000000E+00 0.  1.
         21   -1    0    0  504  502 -0.00000000000E+00 -0.00000000000E+00 -0.29992925209E+01  0.29992925209E+01  0.00000000000E+00 0.  1.
         21    1    1    2  503  502  0.20083567171E+02  0.16820424912E+02  0.12001355618E+03  0.12283944819E+03  0.00000000000E+00 0.  1.
         21    1    1    2  504  501 -0.20083567171E+02 -0.16820424912E+02  0.10656725637E+03  0.10973994940E+03  0.00000000000E+00 0.  1.
</event>
<event>
 4    1  0.1602044E+006  0.2687742E+02  0.7546771E-02  0.1448843E+00
         21   -1    0    0  503  501  0.00000000000E+00  0.00000000000E+00  0.15203594403E+02  0.15203594403E+02  0.00000000000E+00 0. -1.
         21   -1    0    0  504  502 -0.00000000000E+00 -0.00000000000E+00 -0.49266092586E+02  0.49266092586E+02  0.00000000000E+00 0. -1.
         21    1    1    2  503  502 -0.21219128348E+02  0.16496790555E+02 -0.10953639124E+02  0.29023744013E+02  0.00000000000E+00 0. -1.
         21    1    1    2  504  501  0.21219128348E+02 -0.16496790555E+02 -0.23108859059E+02  0.35445942976E+02  0.00000000000E+00 0. -1.
</event>
<event>
 4    1  0.1602044E+006  0.2189431E+02  0.7546771E-02  0.1506869E+00
         21   -1    0    0  502  501  0.00000000000E+00  0.00000000000E+00  0.17343818178E+02  0.17343818178E+02  0.00000000000E+00 0.  1.
         21   -1    0    0  503  502 -0.00000000000E+00 -0.00000000000E+00 -0.35873706295E+02  0.35873706295E+02  0.00000000000E+00 0. -1.
         21    1    1    2  503  504  0.15627141107E+02  0.15334714878E+02 -0.22013701539E+02  0.31047770854E+02  0.00000000000E+00 0. -1.
         21    1    1    2  504  501 -0.15627141107E+02 -0.15334714878E+02  0.34838134216E+01  0.22169753619E+02  0.00000000000E+00 0.  1.
</event>
<event>
 4    1  0.1602044E+006  0.2458949E+02  0.7546771E-02  0.1473448E+00
         21   -1    0    0  504  501  0.00000000000E+00  0.00000000000E+00  0.73801684082E+01  0.73801684082E+01  0.00000000000E+00 0.  1.
         21   -1    0    0  503  502 -0.00000000000E+00 -0.00000000000E+00 -0.18115665117E+03  0.18115665117E+03  0.00000000000E+00 0.  1.
         21    1    1    2  503  501  0.20679881860E+02  0.13303583539E+02 -0.17120050585E+02  0.29962292649E+02  0.00000000000E+00 0.  1.
         21    1    1    2  504  502 -0.20679881860E+02 -0.13303583539E+02 -0.15665643218E+03  0.15857452693E+03  0.00000000000E+00 0.  1.
</event>
<event>
 4    1  0.1602044E+006  0.2205228E+02  0.7546771E-02  0.1504754E+00
         21   -1    0    0  504  501  0.00000000000E+00  0.00000000000E+00  0.30818207885E+03  0.30818207885E+03  0.00000000000E+00 0.  1.
         21   -1    0    0  503  502 -0.00000000000E+00 -0.00000000000E+00 -0.30160453225E+01  0.30160453225E+01  0.00000000000E+00 0. -1.
         21    1    1    2  503  501  0.20626672741E+02 -0.78002081377E+01  0.26002610131E+03  0.26095952989E+03  0.00000000000E+00 0.  1.
         21    1    1    2  504  502 -0.20626672741E+02  0.78002081377E+01  0.45139932215E+02  0.50238594284E+02  0.00000000000E+00 0. -1.
</event>
<event>
 4    1  0.1602044E+006  0.2977299E+02  0.7546771E-02  0.1421580E+00
         21   -1    0    0  504  501  0.00000000000E+00  0.00000000000E+00  0.27463672757E+03  0.27463672757E+03  0.00000000000E+00 0. -1.
         21   -1    0    0  503  502 -0.00000000000E+00 -0.00000000000E+00 -0.33420702761E+01  0.33420702761E+01  0.00000000000E+00 0. -1.
         21    1    1    2  503  501  0.76200811993E+01 -0.28781340027E+02  0.16136465497E+03  0.16408833915E+03  0.00000000000E+00 0. -1.
         21    1    1    2  504  502 -0.76200811993E+01  0.28781340027E+02  0.10993000233E+03  0.11389045870E+03  0.00000000000E+00 0. -1.
</event>
<event>
 4    1  0.1602044E+006  0.2426057E+02  0.7546771E-02  0.1477248E+00
         21   -1    0    0  503  501  0.00000000000E+00  0.00000000000E+00  0.17189593891E+03  0.17189593891E+03  0.00000000000E+00 0.  1.
         21   -1    0    0  504  502 -0.00000000000E+00 -0.00000000000E+00 -0.18678037595E+02  0.18678037595E+02  0.00000000000E+00 0. -1.
         21    1    1    2  503  502  0.24235370259E+02 -0.11053910274E+01 -0.95023413115E+01  0.26055125241E+02  0.00000000000E+00 0. -1.
         21    1    1    2  504  501 -0.24235370259E+02  0.11053910274E+01  0.16272024263E+03  0.16451885127E+03  0.00000000000E+00 0.  1.
</event>
<event>
 4    1  0.1602044E+006  0.2118157E+02  0.7546771E-02  0.1516688E+00
         21   -1    0    0  503  501  0.00000000000E+00  0.00000000000E+00  0.24807234739E+03  0.24807234739E+03  0.00000000000E+00 0. -1.
         21   -1    0    0  501  502 -0.00000000000E+00 -0.00000000000E+00 -0.93739511372E+01  0.93739511372E+01  0.00000000000E+00 0. -1.
         21    1    1    2  503  504 -0.17825166699E+02 -0.11442132300E+02  0.23498981540E+03  0.23594251906E+03  0.00000000000E+00 0. -1.
         21    1    1    2  504  502  0.17825166699E+02  0.11442132300E+02  0.37085808539E+01  0.21503779467E+02  0.00000000000E+00 0. -1.
</event>
<event>
 4    1  0.1602044E+006  0.2086671E+02  0.7546771E-02  0.1521176E+00
         21   -1    0    0  503  501  0.00000000000E+00  0.00000000000E+00  0.10429292829E+03  0.10429292829E+03  0.00000000000E+00 0.  1.
         21   -1    0    0  501  502 -0.00000000000E+00 -0.00000000000E+00 -0.48884997919E+01  0.48884997919E+01  0.00000000000E+00 0.  1.
         21    1    1    2  503  504 -0.15442579776E+02  0.14033750289E+02  0.70558563131E+02  0.73579414570E+02  0.00000000000E+00 0.  1.
         21    1    1    2  504  502  0.15442579776E+02 -0.14033750289E+02  0.28845865365E+02  0.35602013510E+02  0.00000000000E+00 0.  1.
</event>
<event>
 4    1  0.1602044E+006  0.3027083E+02  0.7546771E-02  0.1417257E+00
         21   -1    0    0  504  501  0.00000000000E+00  0.00000000000E+00  0.17594563947E+03  0.17594563947E+03  0.00000000000E+00 0.  1.
         21   -1    0    0  501  502 -0.00000000000E+00 -0.00000000000E+00 -0.17163368936E+02  0.17163368936E+02  0.00000000000E+00 0. -1.
         21    1    1    2  503  502  0.25174298654E+02  0.16810055618E+02 -0.11936265270E+01  0.30294356354E+02  0.00000000000E+00 0. -1.
         21    1    1    2  504  503 -0.25174298654E+02 -0.16810055618E+02  0.15997589706E+03  0.16281465205E+03  0.00000000000E+00 0.  1.
</event>
<event>
 4    1  0.1602044E+006  0.2112623E+02  0.7546771E-02  0.1517470E+00
         21   -1    0    0  504  501  0.00000000000E+00  0.00000000000E+00  0.12177111212E+03  0.12177111212E+03  0.00000000000E+00 0.  1.
         21   -1    0    0  501  502 -0.00000000000E+00 -0.00000000000E+00 -0.10362580568E+02  0.10362580568E+02  0.00000000000E+00 0. -1.
         21    1    1    2  503  502  0.18685612978E+02 -0.98572526511E+01  0.25911779104E+01  0.21284542869E+02  0.00000000000E+00 0. -1.
         21    1    1    2  504  503 -0.18685612978E+02  0.98572526511E+01  0.10881735364E+03  0.11084914982E+03  0.00000000000E+00 0.  1.
</event>
<event>
 4    1  0.1602044E+006  0.2109733E+02  0.7546771E-02  0.1517880E+00
         21   -1    0    0  502  501  0.00000000000E+00  0.00000000000E+00  0.19835771963E+03  0.19835771963E+03  0.00000000000E+00 0.  1.
         21   -1    0    0  504  502 -0.00000000000E+00 -0.00000000000E+00 -0.18203018290E+03  0.18203018290E+03  0.00000000000E+00 0. -1.
         21    1    1    2  503  501 -0.49798894411E+01 -0.20501167652E+02  0.19718181077E+03  0.19830724564E+03  0.00000000000E+00 0.  1.
         21    1    1    2  504  503  0.49798894411E+01  0.20501167652E+02 -0.18085427404E+03  0.18208065689E+03  0.00000000000E+00 0. -1.
</event>
<event>
 4    1  0.1602044E+006  0.2013153E+02  0.7546771E-02  0.1532034E+00
         21   -1    0    0  502  501  0.00000000000E+00  0.00000000000E+00  0.87886130379E+02  0.87886130379E+02  0.00000000000E+00 0.  1.
         21   -1    0    0  503  502 -0.00000000000E+00 -0.00000000000E+00 -0.57206867952E+01  0.57206867952E+01  0.00000000000E+00 0.  1.
         21    1    1    2  503  504 -0.17082091153E+02  0.10652735996E+02  0.20472903671E+02  0.28712687214E+02  0.00000000000E+00 0.  1.
         21    1    1    2  504  501  0.17082091153E+02 -0.10652735996E+02  0.61692539913E+02  0.64894129960E+02  0.00000000000E+00 0.  1.
</event>
<event>
 4    1  0.1602044E+006  0.3415950E+02  0.7546771E-02  0.1386570E+00
         21   -1    0    0  503  501  0.00000000000E+00  0.00000000000E+00  0.19380209801E+03  0.19380209801E+03  0.00000000000E+00 0. -1.
         21   -1    0    0  504  502 -0.00000000000E+00 -0.00000000000E+00 -0.62265821574E+01  0.62265821574E+01  0.00000000000E+00 0. -1.
         21    1    1    2  503  502  0.13115041742E+02  0.31541518892E+02  0.75612171951E+02  0.82970309636E+02  0.00000000000E+00 0. -1.
         21    1    1    2  504  501 -0.13115041742E+02 -0.31541518892E+02  0.11196334390E+03  0.11705837053E+03  0.00000000000E+00 0. -1.
</event>
<event>
 4    1  0.1602044E+006  0.2165199E+02  0.7546771E-02  0.1510156E+00
         21   -1    0    0  502  501  0.00000000000E+00  0.00000000000E+00  0.14122990793E+03  0.14122990793E+03  0.00000000000E+00 0. -1.
         21   -1    0    0  504  502 -0.00000000000E+00 -0.00000000000E+00 -0.12901794529E+02  0.12901794529E+02  0.00000000000E+00 0. -1.
         21    1    1    2  503  501 -0.20140389334E+02  0.79481636117E+01  0.13057999821E+03  0.13236292729E+03  0.00000000000E+00 0. -1.
         21    1    1    2  504  503  0.20140389334E+02 -0.79481636117E+01 -0.22518848091E+01  0.21768775173E+02  0.00000000000E+00 0. -1.
</event>
<event>
 4    1  0.1602044E+006  0.5815811E+02  0.7546771E-02  0.1266222E+00
         21   -1    0    0  504  501  0.00000000000E+00  0.00000000000E+00  0.23121233644E+02  0.23121233644E+02  0.00000000000E+00 0.  1.
         21   -1    0    0  503  502 -0.00000000000E+00 -0.00000000000E+00 -0.25533932723E+03  0.25533932723E+03  0.00000000000E+00 0.  1.
         21    1    1    2  503  501  0.57493896275E+02  0.87645937120E+01 -0.20709821651E+03  0.21510936171E+03  0.00000000000E+00 0.  1.
         21    1    1    2  504  502 -0.57493896275E+02 -0.87645937120E+01 -0.25119877076E+02  0.63351199168E+02  0.00000000000E+00 0.  1.
</event>
<event>
 4    1  0.1602044E+006  0.2108536E+02  0.7546771E-02  0.1518049E+00
         21   -1    0    0  503  501  0.00000000000E+00  0.00000000000E+00  0.54667509590E+01  0.54667509590E+01  0.00000000000E+00 0. -1.
         21   -1    0    0  504  502 -0.00000000000E+00 -0.00000000000E+00 -0.95853983906E+02  0.95853983906E+02  0.00000000000E+00 0. -1.
         21    1    1    2  503  502  0.18749267739E+02  0.96466346276E+01 -0.25471385040E+02  0.33066358376E+02  0.00000000000E+00 0. -1.
         21    1    1    2  504  501 -0.18749267739E+02 -0.96466346276E+01 -0.64915847908E+02  0.68254376489E+02  0.00000000000E+00 0. -1.
</event>
<event>
 4    1  0.1602044E+006  0.2328404E+02  0.7546771E-02  0.1488962E+00
         21   -1    0    0  503  501  0.00000000000E+00  0.00000000000E+00  0.87149564662E+00  0.87149564662E+00  0.00000000000E+00 0. -1.
         21   -1    0    0  504  502 -0.00000000000E+00 -0.00000000000E+00 -0.96689846195E+03  0.96689846195E+03  0.00000000000E+00 0. -1.
         21    1    1    2  503  502  0.17474181355E+02 -0.15388297499E+02 -0.19405056262E+03  0.19544249172E+03  0.00000000000E+00 0. -1.
         21    1    1    2  504  501 -0.17474181355E+02  0.15388297499E+02 -0.77197640368E+03  0.77232746588E+03  0.00000000000E+00 0. -1.
</event>
<event>
 4    1  0.1602044E+006  0.2921709E+02  0.7546771E-02  0.1426524E+00
         21   -1    0    0  502  501  0.00000000000E+00  0.00000000000E+00  0.44289827427E+02  0.44289827427E+02  0.00000000000E+00 0. -1.
         21   -1    0    0  503  502 -0.00000000000E+00 -0.00000000000E+00 -0.24470262946E+03  0.24470262946E+03  0.00000000000E+00 0. -1.
         21    1    1    2  503  504  0.28890282324E+02  0.43577155327E+01 -0.23889533711E+03  0.24067534188E+03  0.00000000000E+00 0. -1.
         21    1    1    2  504  501 -0.28890282324E+02 -0.43577155327E+01  0.38482535071E+02  0.48317115010E+02  0.00000000000E+00 0. -1.
</event>
<event>
 4    1  0.1602044E+006  0.2429470E+02  0.7546771E-02  0.1476850E+00
         21   -1    0    0  503  501  0.00000000000E+00  0.00000000000E+00  0.52834935375E+03  0.52834935375E+03  0.00000000000E+00 0. -1.
         21   -1    0    0  501  502 -0.00000000000E+00 -0.00000000000E+00 -0.22030602177E+01  0.22030602177E+01  0.00000000000E+00 0. -1.
         21    1    1    2  503  504 -0.23753080175E+02  0.51013163842E+01  0.44931920226E+03  0.44997553018E+03  0.00000000000E+00 0. -1.
         21    1    1    2  504  502  0.23753080175E+02 -0.51013163842E+01  0.76827091279E+02  0.80576883788E+02  0.00000000000E+00 0. -1.
</event>
<event>
 4    1  0.1602044E+006  0.2124159E+02  0.7546771E-02  0.1515843E+00
         21   -1    0    0  502  501  0.00000000000E+00  0.00000000000E+00  0.22196041156E+03  0.22196041156E+03  0.00000000000E+00 0.  1.
         21   -1    0    0  504  502 -0.00000000000E+00 -0.00000000000E+00 -0.48105080938E+02  0.48105080938E+02  0.00000000000E+00 0. -1.
         21    1    1    2  503  501 -0.17738218188E+02 -0.11685917705E+02  0.21907651856E+03  0.22010389829E+03  0.00000000000E+00 0.  1.
         21    1    1    2  504  503  0.17738218188E+02  0.11685917705E+02 -0.45221187940E+02  0.49961594208E+02  0.00000000000E+00 0. -1.
</event>
<event>
 4    1  0.1602044E+006  0.2160098E+02  0.7546771E-02  0.1510855E+00
         21   -1    0    0  503  501  0.00000000000E+00  0.00000000000E+00  0.42189140819E+03  0.42189140819E+03  0.00000000000E+00 0.  1.
         21   -1    0    0  504  502 -0.00000000000E+00 -0.00000000000E+00 -0.49113682982E+01  0.49113682982E+01  0.00000000000E+00 0.  1.
         21    1    1    2  503  502 -0.21447595846E+02 -0.25695991473E+01  0.39633329327E+03  0.39692150554E+03  0.00000000000E+00 0.  1.
         21    1    1    2  504  501  0.21447595846E+02  0.25695991473E+01  0.20646746624E+02  0.29881270948E+02  0.00000000000E+00 0.  1.
</event>
<event>
 4    1  0.1602044E+006  0.4170153E+02  0.7546771E-02  0.1338793E+00
         21   -1    0    0  504  501  0.00000000000E+00  0.00000000000E+00  0.32945860292E+01  0.32945860292E+01  0.00000000000E+00 0.  1.
         21   -1    0    0  503  502 -0.00000000000E+00 -0.00000000000E+00 -0.88554556290E+03  0.88554556290E+03  0.00000000000E+00 0.  1.
         21    1    1    2  503  501  0.41469491837E+02  0.43930786583E+01 -0.72358122221E+03  0.72478190032E+03  0.00000000000E+00 0.  1.
         21    1    1    2  504  502 -0.41469491837E+02 -0.43930786583E+01 -0.15866975466E+03  0.16405824861E+03  0.00000000000E+00 0.  1.
</event>
<event>
 4    1  0.1602044E+006  0.2126167E+02  0.7546771E-02  0.1515562E+00
         21   -1    0    0  504  501  0.00000000000E+00  0.00000000000E+00  0.45900755860E+02  0.45900755860E+02  0.00000000000E+00 0.  1.
         21   -1    0    0  501  502 -0.00000000000E+00 -0.00000000000E+00 -0.13116797534E+03  0.13116797534E+03  0.00000000000E+00 0. -1.
         21    1    1    2  503  502  0.96584338666E+01  0.18941309653E+02 -0.12777937251E+03  0.12953619801E+03  0.00000000000E+00 0. -1.
         21    1    1    2  504  503 -0.96584338666E+01 -0.18941309653E+02  0.42512153030E+02  0.47532533189E+02  0.00000000000E+00 0.  1.
</event>
<event>
 4    1  0.1602044E+006  0.3176512E+02  0.7546771E-02  0.1404853E+00
         21   -1    0    0  503  501  0.00000000000E+00  0.00000000000E+00  0.29945040669E+03  0.29945040669E+03  0.00000000000E+00 0. -1.
         21   -1    0    0  501  502 -0.00000000000E+00 -0.00000000000E+00 -0.59313077683E+01  0.59313077683E+01  0.00000000000E+00 0.  1.
         21    1    1    2  503  504  0.15692346621E+02  0.27618349147E+02  0.24710647030E+03  0.24913978128E+03  0.00000000000E+00 0. -1.
         21    1    1    2  504  502 -0.15692346621E+02 -0.27618349147E+02  0.46412628622E+02  0.56241933179E+02  0.00000000000E+00 0.  1.
</event>
<event>
 4    1  0.1602044E+006  0.2064464E+02  0.7546771E-02  0.1524399E+00
         21   -1    0    0  503  501  0.00000000000E+00  0.00000000000E+00  0.40870698868E+03  0.40870698868E+03  0.00000000000E+00 0.  1.
         21   -1    0    0  504  502 -0.00000000000E+00 -0.00000000000E+00 -0.49816198722E+01  0.49816198722E+01  0.00000000000E+00 0.  1.
         21    1    1    2  503  502 -0.20643051564E+02  0.25624930501E+00  0.38578783451E+03  0.38633981739E+03  0.00000000000E+00 0.  1.
         21    1    1    2  504  501  0.20643051564E+02 -0.25624930501E+00  0.17937534298E+02  0.27348791167E+02  0.00000000000E+00 0.  1.
</event>
<event>
 4    1  0.1602044E+006  0.3000923E+02  0.7546771E-02  0.1419516E+00
         21   -1    0    0  504  501  0.00000000000E+00  0.00000000000E+00  0.68737623212E+03  0.68737623212E+03  0.00000000000E+00 0. -1.
         21   -1    0    0  503  502 -0.00000000000E+00 -0.00000000000E+00 -0.14475728860E+01  0.14475728860E+01  0.00000000000E+00 0. -1.
         21    1    1    2  503  501  0.29412851734E+02 -0.59529981066E+01  0.23684001384E+03  0.23873363021E+03  0.00000000000E+00 0. -1.
         21    1    1    2  504  502 -0.29412851734E+02  0.59529981066E+01  0.44908864539E+03  0.45009017480E+03  0.00000000000E+00 0. -1.
</event>
<event>
 4    1  0.1602044E+006  0.2462008E+02  0.7546771E-02  0.1473099E+00
         21   -1    0    0  504  501  0.00000000000E+00  0.00000000000E+00  0.37838774404E+03  0.37838774404E+03  0.00000000000E+00 0.  1.
         21   -1    0    0  503  502 -0.00000000000E+00 -0.00000000000E+00 -0.10999295574E+02  0.10999295574E+02  0.00000000000E+00 0. -1.
         21    1    1    2  503  501  0.37154058269E+01  0.24338122705E+02  0.37357687847E+01  0.24901896025E+02  0.00000000000E+00 0. -1.
         21    1    1    2  504  502 -0.37154058269E+01 -0.24338122705E+02  0.36365267968E+03  0.36448514358E+03  0.00000000000E+00 0.  1.
</event>
<event>
 4    1  0.1602044E+006  0.2448267E+02  0.7546771E-02  0.1474675E+00
         21   -1    0    0  504  501  0.00000000000E+00  0.00000000000E+00  0.90557162513E+03  0.90557162513E+03  0.00000000000E+00 0. -1.
         21   -1    0    0  503  502 -0.00000000000E+00 -0.00000000000E+00 -0.10108926915E+01  0.10108926915E+01  0.00000000000E+00 0.  1.
         21    1    1    2  503  501  0.15410235243E+02  0.19024342039E+02  0.18594375797E+03  0.18754861255E+03  0.00000000000E+00 0.  1.
         21    1    1    2  504  502 -0.15410235243E+02 -0.19024342039E+02  0.71861697447E+03  0.71903390527E+03  0.00000000000E+00 0. -1.
</event>
<event>
 4    1  0.1602044E+006  0.2673443E+02  0.7546771E-02  0.1450294E+00
         21   -1    0    0  502  501  0.00000000000E+00  0.00000000000E+00  0.21883233906E+03  0.21883233906E+03  0.00000000000E+00 0. -1.
         21   -1    0    0  504  502 -0.00000000000E+00 -0.00000000000E+00 -0.21623941106E+02  0.21623941106E+02  0.00000000000E+00 0. -1.
         21    1    1    2  503  501  0.10285861868E+02  0.24676528381E+02  0.20938115184E+03  0.21108101941E+03  0.00000000000E+00 0. -1.
         21    1    1    2  504  503 -0.10285861868E+02 -0.24676528381E+02 -0.12172753890E+02  0.29375260757E+02  0.00000000000E+00 0. -1.
</event>
<event>
 4    1  0.1602044E+006  0.2842208E+02  0.7546771E-02  0.1433823E+00
         21   -1    0    0  504  501  0.00000000000E+00  0.00000000000E+00  0.26445447410E+03  0.26445447410E+03  0.00000000000E+00 0. -1.
         21   -1    0    0  503  502 -0.00000000000E+00 -0.00000000000E+00 -0.33797733942E+01  0.33797733942E+01  0.00000000000E+00 0. -1.
         21    1    1    2  503  501 -0.15609709806E+02 -0.23751874945E+02  0.89001835037E+02  0.93429873400E+02  0.00000000000E+00 0. -1.
         21    1    1    2  504  502  0.15609709806E+02  0.23751874945E+02  0.17207286567E+03  0.17440437409E+03  0.00000000000E+00 0. -1.
</event>
<event>
 4    1  0.1602044E+006  0.7539747E+02  0.7546771E-02  0.1214955E+00
         21   -1    0    0  502  501  0.00000000000E+00  0.00000000000E+00  0.11779143909E+03  0.11779143909E+03  0.00000000000E+00 0. -1.
         21   -1    0    0  503  502 -0.00000000000E+00 -0.00000000000E+00 -0.11056862371E+03  0.11056862371E+03  0.00000000000E+00 0. -1.
         21    1    1    2  503  504  0.62835626739E+01  0.75135179422E+02 -0.82100951332E+02  0.11146902958E+03  0.00000000000E+00 0. -1.
         21    1    1    2  504  501 -0.62835626739E+01 -0.75135179422E+02  0.89323766708E+02  0.11689103321E+03  0.00000000000E+00 0. -1.
</event>
<event>
 4    1  0.1602044E+006  0.2407748E+02  0.7546771E-02  0.1479394E+00
         21   -1    0    0  502  501  0.00000000000E+00  0.00000000000E+00  0.19674025829E+03  0.19674025829E+03  0.00000000000E+00 0. -1.
         21   -1    0    0  504  502 -0.00000000000E+00 -0.00000000000E+00 -0.33919657590E+01  0.33919657590E+01  0.00000000000E+00 0. -1.
         21    1    1    2  503  501  0.22170688774E+00  0.24076458299E+02  0.13293136987E+03  0.13509431555E+03  0.00000000000E+00 0. -1.
         21    1    1    2  504  503 -0.22170688774E+00 -0.24076458299E+02  0.60416922658E+02  0.65037908497E+02  0.00000000000E+00 0. -1.
</event>
<event>
 4    1  0.1602044E+006  0.3143153E+02  0.7546771E-02  0.1407551E+00
         21   -1    0    0  503  501  0.00000000000E+00  0.00000000000E+00  0.64029949223E+01  0.64029949223E+01  0.00000000000E+00 0.  1.
         21   -1    0    0  504  502 -0.00000000000E+00 -0.00000000000E+00 -0.48665088602E+03  0.48665088602E+03  0.00000000000E+00 0.  1.
         21    1    1    2  503  502 -0.25508113919E+02  0.18365104222E+02 -0.44385547708E+03  0.44496699368E+03  0.00000000000E+00 0.  1.
         21    1    1    2  504  501  0.25508113919E+02 -0.18365104222E+02 -0.36392414020E+02  0.48086887267E+02  0.00000000000E+00 0.  1.
</event>
<event>
 4    1  0.1602044E+006  0.2853813E+02  0.7546771E-02  0.1432740E+00
         21   -1    0    0  504  501  0.00000000000E+00  0.00000000000E+00  0.72614366750E+01  0.72614366750E+01  0.00000000000E+00 0. -1.
         21   -1    0    0  503  502 -0.00000000000E+00 -0.00000000000E+00 -0.15389507457E+03  0.15389507457E+03  0.00000000000E+00 0.  1.
         21    1    1    2  503  501 -0.20369524948E+02 -0.19987683387E+02 -0.11528003672E+03  0.11875989180E+03  0.00000000000E+00 0.  1.
         21    1    1    2  504  502  0.20369524948E+02  0.19987683387E+02 -0.31353601172E+02  0.42396619444E+02  0.00000000000E+00 0. -1.
</event>
<event>
 4    1  0.1602044E+006  0.4485544E+02  0.7546771E-02  0.1322164E+00
         21   -1    0    0  504  501  0.00000000000E+00  0.00000000000E+00  0.25414501071E+02  0.25414501071E+02  0.00000000000E+00 0. -1.
         21   -1    0    0  501  502 -0.00000000000E+00 -0.00000000000E+00 -0.37412203333E+03  0.37412203333E+03  0.00000000000E+00 0.  1.
         21    1    1    2  503  502 -0.24740474989E+02  0.37415501144E+02 -0.35173070529E+03  0.35457932804E+03  0.00000000000E+00 0.  1.
         21    1    1    2  504  503  0.24740474989E+02 -0.37415501144E+02  0.30231730334E+01  0.44957206360E+02  0.00000000000E+00 0. -1.
</event>
<event>
 4    1  0.1602044E+006  0.2028834E+02  0.7546771E-02  0.1529673E+00
         21   -1    0    0  503  501  0.00000000000E+00  0.00000000000E+00  0.18024579898E+02  0.18024579898E+02  0.00000000000E+00 0. -1.
         21   -1    0    0  504  502 -0.00000000000E+00 -0.00000000000E+00 -0.28181239279E+02  0.28181239279E+02  0.00000000000E+00 0.  1.
         21    1    1    2  503  502  0.16535609390E+02 -0.11755446422E+02 -0.15139606527E+02  0.25314513313E+02  0.00000000000E+00 0.  1.
         21    1    1    2  504  501 -0.16535609390E+02  0.11755446422E+02  0.49829471449E+01  0.20891305865E+02  0.00000000000E+00 0. -1.
</event>
<event>
 4    1  0.1602044E+006  0.3343311E+02  0.7546771E-02  0.1391927E+00
         21   -1    0    0  503  501  0.00000000000E+00  0.00000000000E+00  0.24958582437E+02  0.24958582437E+02  0.00000000000E+00 0.  1.
         21   -1    0    0  504  502 -0.00000000000E+00 -0.00000000000E+00 -0.45196597964E+02  0.45196597964E+02  0.00000000000E+00 0.  1.
         21    1    1    2  503  502  0.11509965252E+02  0.31389387783E+02 -0.67720270277E+01  0.34112069939E+02  0.00000000000E+00 0.  1.
         21    1    1    2  504  501 -0.11509965252E+02 -0.31389387783E+02 -0.13465988499E+02  0.36043110461E+02  0.00000000000E+00 0.  1.
</event>
<event>
 4    1  0.1602044E+006  0.4599057E+02  0.7546771E-02  0.1316559E+00
         21   -1    0    0  503  501  0.00000000000E+00  0.00000000000E+00  0.95209857531E+01  0.95209857531E+01  0.00000000000E+00 0. -1.
         21   -1    0    0  501  502 -0.00000000000E+00 -0.00000000000E+00 -0.22244873755E+03  0.22244873755E+03  0.00000000000E+00 0. -1.
         21    1    1    2  503  504 -0.39759932408E+02  0.23114500187E+02 -0.10224748967E+03  0.11211459088E+03  0.00000000000E+00 0. -1.
         21    1    1    2  504  502  0.39759932408E+02 -0.23114500187E+02 -0.11068026212E+03  0.11985513242E+03  0.00000000000E+00 0. -1.
</event>
<event>
 4    1  0.1602044E+006  0.3624088E+02  0.7546771E-02  0.1372043E+00
         21   -1    0    0  504  501  0.00000000000E+00  0.00000000000E+00  0.48629023515E+03  0.48629023515E+03  0.00000000000E+00 0.  1.
         21   -1    0    0  501  502 -0.00000000000E+00 -0.00000000000E+00 -0.19618114719E+02  0.19618114719E+02  0.00000000000E+00 0. -1.
         21    1    1    2  503  502  0.36009699984E+02 -0.40868729809E+01 -0.15613251514E+01  0.36274491863E+02  0.00000000000E+00 0. -1.
         21    1    1    2  504  503 -0.36009699984E+02  0.40868729809E+01  0.46823344559E+03  0.46963385801E+03  0.00000000000E+00 0.  1.
</event>
<event>
 4    1  0.1602044E+006  0.2243343E+02  0.7546771E-02  0.1499738E+00
         21   -1    0    0  503  501  0.00000000000E+00  0.00000000000E+00  0.82201874905E+01  0.82201874905E+01  0.00000000000E+00 0. -1.
         21   -1    0    0  504  502 -0.00000000000E+00 -0.00000000000E+00 -0.36469639374E+03  0.36469639374E+03  0.00000000000E+00 0. -1.
         21    1    1    2  503  502  0.18014576136E+02 -0.13369139428E+02 -0.34832731568E+03  0.34904896174E+03  0.00000000000E+00 0. -1.
         21    1    1    2  504  501 -0.18014576136E+02  0.13369139428E+02 -0.81488905615E+01  0.23867619483E+02  0.00000000000E+00 0. -1.
</event>
<event>
 4    1  0.1602044E+006  0.2147885E+02  0.7546771E-02  0.1512537E+00
         21   -1    0    0  503  501  0.00000000000E+00  0.00000000000E+00  0.16728102443E+02  0.16728102443E+02  0.00000000000E+00 0. -1.
         21   -1    0    0  504  502 -0.00000000000E+00 -0.00000000000E+00 -0.77491440854E+02  0.77491440854E+02  0.00000000000E+00 0. -1.
         21    1    1    2  503  502 -0.16784845606E+01  0.21413167188E+02  0.74268260369E+01  0.22726609611E+02  0.00000000000E+00 0. -1.
         21    1    1    2  504  501  0.16784845606E+01 -0.21413167188E+02 -0.68190164448E+02  0.71492933685E+02  0.00000000000E+00 0. -1.
</event>
<event>
 4    1  0.1602044E+006  0.4053270E+02  0.7546771E-02  0.1345392E+00
         21   -1    0    0  503  501  0.00000000000E+00  0.00000000000E+00  0.53148301341E+03  0.53148301341E+03  0.00000000000E+00 0.  1.
         21   -1    0    0  504  502 -0.00000000000E+00 -0.00000000000E+00 -0.15050103814E+02  0.15050103814E+02  0.00000000000E+00 0. -1.
         21    1    1    2  503  502 -0.14998598511E+02  0.37655563031E+02  0.50180852166E+03  0.50344283866E+03  0.00000000000E+00 0.  1.
         21    1    1    2  504  501  0.14998598511E+02 -0.37655563031E+02  0.14624387935E+02  0.43090278567E+02  0.00000000000E+00 0. -1.
</event>
<event>
 4    1  0.1602044E+006  0.2176279E+02  0.7546771E-02  0.1508647E+00
         21   -1    0    0  504  501  0.00000000000E+00  0.00000000000E+00  0.21799652641E+01  0.21799652641E+01  0.00000000000E+00 0. -1.
         21   -1    0    0  503  502 -0.00000000000E+00 -0.00000000000E+00 -0.65596812777E+03  0.65596812777E+03  0.00000000000E+00 0.  1.
         21    1    1    2  503  501 -0.45834664541E+01 -0.21274651448E+02 -0.59601048432E+03  0.59640767632E+03  0.00000000000E+00 0.  1.
         21    1    1    2  504  502  0.45834664541E+01  0.21274651448E+02 -0.57777678186E+02  0.61740416710E+02  0.00000000000E+00 0. -1.
</event>
<event>
 4    1  0.1602044E+006  0.3311559E+02  0.7546771E-02  0.1394318E+00
         21   -1    0    0  502  501  0.00000000000E+00  0.00000000000E+00  0.61894380389E+01  0.61894380389E+01  0.00000000000E+00 0.  1.
         21   -1    0    0  504  502 -0.00000000000E+00 -0.00000000000E+00 -0.18994959565E+03  0.18994959565E+03  0.00000000000E+00 0.  1.
         21    1    1    2  503  501 -0.26091485019E+02 -0.20393054834E+02 -0.11730794363E+03  0.12189255889E+03  0.00000000000E+00 0.  1.
         21    1    1    2  504  503  0.26091485019E+02  0.20393054834E+02 -0.66452213986E+02  0.74246474796E+02  0.00000000000E+00 0.  1.
</event>
<event>
 4    1  0.1602044E+006  0.2188306E+02  0.7546771E-02  0.1507021E+00
         21   -1    0    0  503  501  0.00000000000E+00  0.00000000000E+00  0.15200287674E+03  0.15200287674E+03  0.00000000000E+00 0.  1.
         21   -1    0    0  504  502 -0.00000000000E+00 -0.00000000000E+00 -0.31615102626E+01  0.31615102626E+01  0.00000000000E+00 0.  1.
         21    1    1    2  503  502  0.18946373213E+01 -0.21800890620E+02  0.79021705667E+02  0.81995722138E+02  0.00000000000E+00 0.  1.
         21    1    1    2  504  501 -0.18946373213E+01  0.21800890620E+02  0.69819660811E+02  0.73168664866E+02  0.00000000000E+00 0.  1.
</event>
<event>
 4    1  0.1602044E+006  0.2952155E+02  0.7546771E-02  0.1423800E+00
         21   -1    0    0  503  501  0.00000000000E+00  0.00000000000E+00  0.19373659621E+03  0.19373659621E+03  0.00000000000E+00 0.  1.
         21   -1    0    0  504  502 -0.00000000000E+00 -0.00000000000E+00 -0.59859809719E+01  0.59859809719E+01  0.00000000000E+00 0.  1.
         21    1    1    2  503  502  0.29521481163E+02 -0.62096787672E-01  0.44095066420E+02  0.53065022272E+02  0.00000000000E+00 0.  1.
         21    1    1    2  504  501 -0.29521481163E+02  0.62096787672E-01  0.14365554882E+03  0.14665755491E+03  0.00000000000E+00 0.  1.
</event>
<event>
 4    1  0.1602044E+006  0.2185324E+02  0.7546771E-02  0.1507423E+00
         21   -1    0    0  504  501  0.00000000000E+00  0.00000000000E+00  0.14815864344E+03  0.14815864344E+03  0.00000000000E+00 0.  1.
         21   -1    0    0  503  502 -0.00000000000E+00 -0.00000000000E+00 -0.23891236713E+03  0.23891236713E+03  0.00000000000E+00 0.  1.
         21    1    1    2  503  501 -0.81905577716E+01 -0.20260280955E+02  0.14684865000E+03  0.14846578807E+03  0.00000000000E+00 0.  1.
         21    1    1    2  504  502  0.81905577716E+01  0.20260280955E+02 -0.23760237369E+03  0.23860522250E+03  0.00000000000E+00 0.  1.
</event>
<event>
 4    1  0.1602044E+006  0.2331159E+02  0.7546771E-02  0.1488622E+00
         21   -1    0    0  504  501  0.00000000000E+00  0.00000000000E+00  0.58948426342E+01  0.58948426342E+01  0.00000000000E+00 0. -1.
         21   -1    0    0  503  502 -0.00000000000E+00 -0.00000000000E+00 -0.10818380202E+03  0.10818380202E+03  0.00000000000E+00 0. -1.
         21    1    1    2  503  501 -0.19030244300E+02 -0.13464024137E+02 -0.73077808908E+02  0.76705907849E+02  0.00000000000E+00 0. -1.
         21    1    1    2  504  502  0.19030244300E+02  0.13464024137E+02 -0.29211150477E+02  0.37372736805E+02  0.00000000000E+00 0. -1.
</event>
<event>
 4    1  0.1602044E+006  0.2641812E+02  0.7546771E-02  0.1453542E+00
         21   -1    0    0  504  501  0.00000000000E+00  0.00000000000E+00  0.59561377484E+03  0.59561377484E+03  0.00000000000E+00 0. -1.
         21   -1    0    0  503  502 -0.00000000000E+00 -0.00000000000E+00 -0.16476105961E+01  0.16476105961E+01  0.00000000000E+00 0.  1.
         21    1    1    2  503  501 -0.19884735372E+01 -0.26343181344E+02  0.13649535601E+03  0.13902841236E+03  0.00000000000E+00 0.  1.
         21    1    1    2  504  502  0.19884735372E+01  0.26343181344E+02  0.45747080823E+03  0.45823297308E+03  0.00000000000E+00 0. -1.
</event>
<event>
 4    1  0.1602044E+006  0.2302151E+02  0.7546771E-02  0.1492228E+00
         21   -1    0    0  503  501  0.00000000000E+00  0.00000000000E+00  0.15904023433E+03  0.15904023433E+03  0.00000000000E+00 0.  1.
         21   -1    0    0  501  502 -0.00000000000E+00 -0.00000000000E+00 -0.38629117089E+02  0.38629117089E+02  0.00000000000E+00 0.  1.
         21    1    1    2  503  504 -0.21784781168E+02 -0.74440117058E+01  0.15468100235E+03  0.15638478982E+03  0.00000000000E+00 0.  1.
         21    1    1    2  504  502  0.21784781168E+02  0.74440117058E+01 -0.34269885108E+02  0.41284561595E+02  0.00000000000E+00 0.  1.
</event>
<event>
 4    1  0.1602044E+006  0.3142966E+02  0.7546771E-02  0.1407567E+00
         21   -1    0    0  504  501  0.00000000000E+00  0.00000000000E+00  0.49109393414E+01  0.49109393414E+01  0.00000000000E+00 0. -1.
         21   -1    0    0  503  502 -0.00000000000E+00 -0.00000000000E+00 -0.20659173559E+03  0.20659173559E+03  0.00000000000E+00 0. -1.
         21    1    1    2  503  501  0.12836407298E+02 -0.28688846213E+02 -0.11800750919E+03  0.12212123269E+03  0.00000000000E+00 0. -1.
         21    1    1    2  504  502 -0.12836407298E+02  0.28688846213E+02 -0.83673287059E+02  0.89381442238E+02  0.00000000000E+00 0. -1.
</event>
<event>
 4    1  0.1602044E+006  0.2053318E+02  0.7546771E-02  0.1526035E+00
         21   -1    0    0  503  501  0.00000000000E+00  0.00000000000E+00  0.11808680955E+02  0.11808680955E+02  0.00000000000E+00 0.  1.
         21   -1    0    0  504  502 -0.00000000000E+00 -0.00000000000E+00 -0.63502396968E+02  0.63502396968E+02  0.00000000000E+00 0. -1.
         21    1    1    2  503  502  0.15348925567E+02  0.13638993192E+02 -0.93263663836E+00  0.20554353856E+02  0.00000000000E+00 0.  1.
         21    1    1    2  504  501 -0.15348925567E+02 -0.13638993192E+02 -0.50761079374E+02  0.54756724067E+02  0.00000000000E+00 0. -1.
</event>
<event>
 4    1  0.1602044E+006  0.3440245E+02  0.7546771E-02  0.1384813E+00
         21   -1    0    0  504  501  0.00000000000E+00  0.00000000000E+00  0.15267254707E+03  0.15267254707E+03  0.00000000000E+00 0. -1.
         21   -1    0    0  503  502 -0.00000000000E+00 -0.00000000000E+00 -0.18787228721E+03  0.18787228721E+03  0.00000000000E+00 0.  1.
         21    1    1    2  503  501  0.74868031322E+01 -0.33577917793E+02 -0.18432235201E+03  0.18750535521E+03  0.00000000000E+00 0.  1.
         21    1    1    2  504  502 -0.74868031322E+01  0.33577917793E+02  0.14912261186E+03  0.15303947907E+03  0.00000000000E+00 0. -1.
</event>
<event>
 4    1  0.1602044E+006  0.2070798E+02  0.7546771E-02  0.1523475E+00
         21   -1    0    0  504  501  0.00000000000E+00  0.00000000000E+00  0.32477899884E+03  0.32477899884E+03  0.00000000000E+00 0. -1.
         21   -1    0    0  503  502 -0.00000000000E+00 -0.00000000000E+00 -0.85395497431E+01  0.85395497431E+01  0.00000000000E+00 0. -1.
         21    1    1    2  503  501  0.99080968627E+01 -0.18183787708E+02  0.31135426202E+03  0.31204213978E+03  0.00000000000E+00 0. -1.
         21    1    1    2  504  502 -0.99080968627E+01  0.18183787708E+02  0.48851870757E+01  0.21276408804E+02  0.00000000000E+00 0. -1.
</event>
<event>
 4    1  0.1602044E+006  0.2933893E+02  0.7546771E-02  0.1425429E+00
         21   -1    0    0  503  501  0.00000000000E+00  0.00000000000E+00  0.55507944354E+02  0.55507944354E+02  0.00000000000E+00 0.  1.
         21   -1    0    0  504  502 -0.00000000000E+00 -0.00000000000E+00 -0.49481782893E+02  0.49481782893E+02  0.00000000000E+00 0.  1.
         21    1    1    2  503  502  0.12527601889E+02 -0.26529829742E+02 -0.40485112945E+02  0.49998170421E+02  0.00000000000E+00 0.  1.
         21    1    1    2  504  501 -0.12527601889E+02  0.26529829742E+02  0.46511274407E+02  0.54991556826E+02  0.00000000000E+00 0.  1.
</event>
<event>
 4    1  0.1602044E+006  0.3432177E+02  0.7546771E-02  0.1385395E+00
         21   -1    0    0  502  501  0.00000000000E+00  0.00000000000E+00  0.10048571841E+04  0.10048571841E+04  0.00000000000E+00 0.  1.
         21   -1    0    0  504  502 -0.00000000000E+00 -0.00000000000E+00 -0.21855380667E+02  0.21855380667E+02  0.00000000000E+00 0.  1.
         21    1    1    2  503  501 -0.33497082756E+02  0.74785807488E+01  0.99089960995E+03  0.99149383293E+03  0.00000000000E+00 0.  1.
         21    1    1    2  504  503  0.33497082756E+02 -0.74785807488E+01 -0.78978065388E+01  0.35218731824E+02  0.00000000000E+00 0.  1.
</event>
<event>
 4    1  0.1602044E+006  0.2732389E+02  0.7546771E-02  0.1444381E+00
         21   -1    0    0  503  501  0.00000000000E+00  0.00000000000E+00  0.18978019208E+02  0.18978019208E+02  0.00000000000E+00 0.  1.
         21   -1    0    0  504  502 -0.00000000000E+00 -0.00000000000E+00 -0.57514366974E+02  0.57514366974E+02  0.00000000000E+00 0. -1.
         21    1    1    2  503  502  0.22169859004E+02  0.15971614131E+02 -0.40767744896E+02  0.49077531826E+02  0.00000000000E+00 0. -1.
         21    1    1    2  504  501 -0.22169859004E+02 -0.15971614131E+02  0.22313971297E+01  0.27414854356E+02  0.00000000000E+00 0.  1.
</event>
<event>
 4    1  0.1602044E+006  0.2020650E+02  0.7546771E-02  0.1530902E+00
         21   -1    0    0  502  501  0.00000000000E+00  0.00000000000E+00  0.89676738803E+02  0.89676738803E+02  0.00000000000E+00 0. -1.
         21   -1    0    0  503  502 -0.00000000000E+00 -0.00000000000E+00 -0.10259501363E+02  0.10259501363E+02  0.00000000000E+00 0.  1.
         21    1    1    2  503  504  0.19682926504E+02  0.45700369989E+01  0.24426103942E+01  0.20353603599E+02  0.00000000000E+00 0.  1.
         21    1    1    2  504  501 -0.19682926504E+02 -0.45700369989E+01  0.76974627046E+02  0.79582636566E+02  0.00000000000E+00 0. -1.
</event>
<event>
 4    1  0.1602044E+006  0.2143033E+02  0.7546771E-02  0.1513209E+00
         21   -1    0    0  502  501  0.00000000000E+00  0.00000000000E+00  0.56220604164E+00  0.56220604164E+00  0.00000000000E+00 0.  1.
         21   -1    0    0  504  502 -0.00000000000E+00 -0.00000000000E+00 -0.10798975861E+04  0.10798975861E+04  0.00000000000E+00 0. -1.
         21    1    1    2  503  501 -0.82566958662E+01  0.19775899446E+02 -0.27305959701E+03  0.27389925656E+03  0.00000000000E+00 0.  1.
         21    1    1    2  504  503  0.82566958662E+01 -0.19775899446E+02 -0.80627578308E+03  0.80656053561E+03  0.00000000000E+00 0. -1.
</event>
<event>
 4    1  0.1602044E+006  0.2342706E+02  0.7546771E-02  0.1487204E+00
         21   -1    0    0  504  501  0.00000000000E+00  0.00000000000E+00  0.74329976445E+03  0.74329976445E+03  0.00000000000E+00 0. -1.
         21   -1    0    0  503  502 -0.00000000000E+00 -0.00000000000E+00 -0.80563456954E+00  0.80563456954E+00  0.00000000000E+00 0. -1.
         21    1    1    2  503  501 -0.17178146071E+02 -0.15929174788E+02  0.47875520408E+03  0.47932804294E+03  0.00000000000E+00 0. -1.
         21    1    1    2  504  502  0.17178146071E+02  0.15929174788E+02  0.26373892580E+03  0.26477735608E+03  0.00000000000E+00 0. -1.
</event>
<event>
 4    1  0.1602044E+006  0.2232517E+02  0.7546771E-02  0.1501150E+00
         21   -1    0    0  503  501  0.00000000000E+00  0.00000000000E+00  0.23472981218E+03  0.23472981218E+03  0.00000000000E+00 0. -1.
         21   -1    0    0  504  502 -0.00000000000E+00 -0.00000000000E+00 -0.91665901522E+01  0.91665901522E+01  0.00000000000E+00 0.  1.
         21    1    1    2  503  502  0.21679271971E+02  0.53312736144E+01  0.58865176991E+01  0.23088187503E+02  0.00000000000E+00 0.  1.
         21    1    1    2  504  501 -0.21679271971E+02 -0.53312736144E+01  0.21967670433E+03  0.22080821483E+03  0.00000000000E+00 0. -1.
</event>
<event>
 4    1  0.1602044E+006  0.3114385E+02  0.7546771E-02  0.1409910E+00
         21   -1    0    0  504  501  0.00000000000E+00  0.00000000000E+00  0.12299870449E+02  0.12299870449E+02  0.00000000000E+00 0. -1.
         21   -1    0    0  503  502 -0.00000000000E+00 -0.00000000000E+00 -0.19347078390E+03  0.19347078390E+03  0.00000000000E+00 0. -1.
         21    1    1    2  503  501 -0.12257551835E+02 -0.28630258364E+02 -0.11396817381E+02  0.33163635467E+02  0.00000000000E+00 0. -1.
         21    1    1    2  504  502  0.12257551835E+02  0.28630258364E+02 -0.16977409607E+03  0.17260701888E+03  0.00000000000E+00 0. -1.
</event>
<event>
 4    1  0.1602044E+006  0.3322013E+02  0.7546771E-02  0.1393527E+00
         21   -1    0    0  503  501  0.00000000000E+00  0.00000000000E+00  0.80384707495E+01  0.80384707495E+01  0.00000000000E+00 0. -1.
         21   -1    0    0  501  502 -0.00000000000E+00 -0.00000000000E+00 -0.28395333684E+03  0.28395333684E+03  0.00000000000E+00 0. -1.
         21    1    1    2  503  504 -0.23977232133E+02 -0.22992811580E+02 -0.33031583258E+02  0.46847225506E+02  0.00000000000E+00 0. -1.
         21    1    1    2  504  502  0.23977232133E+02  0.22992811580E+02 -0.24288328283E+03  0.24514458208E+03  0.00000000000E+00 0. -1.
</event>
<event>
 4    1  0.1602044E+006  0.3025987E+02  0.7546771E-02  0.1417351E+00
         21   -1    0    0  504  501  0.00000000000E+00  0.00000000000E+00  0.69011014352E+01  0.69011014352E+01  0.00000000000E+00 0. -1.
         21   -1    0    0  503  502 -0.00000000000E+00 -0.00000000000E+00 -0.19451646925E+03  0.19451646925E+03  0.00000000000E+00 0. -1.
         21    1    1    2  503  501 -0.69474648912E+01 -0.29451530799E+02 -0.15058834172E+03  0.15359853059E+03  0.00000000000E+00 0. -1.
         21    1    1    2  504  502  0.69474648912E+01  0.29451530799E+02 -0.37027026087E+02  0.47819040095E+02  0.00000000000E+00 0. -1.
</event>
<event>
 4    1  0.1602044E+006  0.3100510E+02  0.7546771E-02  0.1411058E+00
         21   -1    0    0  504  501  0.00000000000E+00  0.00000000000E+00  0.85575872901E+03  0.85575872901E+03  0.00000000000E+00 0. -1.
         21   -1    0    0  503  502 -0.00000000000E+00 -0.00000000000E+00 -0.16196886393E+03  0.16196886393E+03  0.00000000000E+00 0.  1.
         21    1    1    2  503  501  0.16439547793E+02  0.26287977391E+02  0.85399102290E+03  0.85455367513E+03  0.00000000000E+00 0. -1.
         21    1    1    2  504  502 -0.16439547793E+02 -0.26287977391E+02 -0.16020115782E+03  0.16317391781E+03  0.00000000000E+00 0.  1.
</event>
<event>
 4    1  0.1602044E+006  0.2561095E+02  0.7546771E-02  0.1462083E+00
         21   -1    0    0  503  501  0.00000000000E+00  0.00000000000E+00  0.48069968055E+01  0.48069968055E+01  0.00000000000E+00 0.  1.
         21   -1    0    0  504  502 -0.00000000000E+00 -0.00000000000E+00 -0.13649030114E+03  0.13649030114E+03  0.00000000000E+00 0.  1.
         21    1    1    2  503  502  0.16250842883E+01  0.25559335362E+02 -0.67037293046E+02  0.71762937385E+02  0.00000000000E+00 0.  1.
         21    1    1    2  504  501 -0.16250842883E+01 -0.25559335362E+02 -0.64646011288E+02  0.69534360560E+02  0.00000000000E+00 0.  1.
</event>
<event>
 4    1  0.1602044E+006  0.2495919E+02  0.7546771E-02  0.1469260E+00
         21   -1    0    0  503  501  0.00000000000E+00  0.00000000000E+00  0.10771513975E+02  0.10771513975E+02  0.00000000000E+00 0.  1.
         21   -1    0    0  501  502 -0.00000000000E+00 -0.00000000000E+00 -0.26195052088E+03  0.26195052088E+03  0.00000000000E+00 0. -1.
         21    1    1    2  503  504  0.24689372217E+02 -0.36600661377E+01 -0.52191500328E+01  0.25499033544E+02  0.00000000000E+00 0.  1.
         21    1    1    2  504  502 -0.24689372217E+02  0.36600661377E+01 -0.24595985687E+03  0.24722300131E+03  0.00000000000E+00 0. -1.
</event>
<event>
 4    1  0.1602044E+006  0.2859793E+02  0.7546771E-02  0.1432185E+00
         21   -1    0    0  504  501  0.00000000000E+00  0.00000000000E+00  0.72384435920E+03  0.72384435920E+03  0.00000000000E+00 0.  1.
         21   -1    0    0  503  502 -0.00000000000E+00 -0.00000000000E+00 -0.15020459718E+01  0.15020459718E+01  0.00000000000E+00 0.  1.
         21    1    1    2  503  501  0.23684206236E+02 -0.16028091582E+02  0.54170349932E+03  0.54245785322E+03  0.00000000000E+00 0.  1.
         21    1    1    2  504  502 -0.23684206236E+02  0.16028091582E+02  0.18063881392E+03  0.18288855196E+03  0.00000000000E+00 0.  1.
</event>
<event>
 4    1  0.1602044E+006  0.2024819E+02  0.7546771E-02  0.1530275E+00
         21   -1    0    0  504  501  0.00000000000E+00  0.00000000000E+00  0.11634765193E+03  0.11634765193E+03  0.00000000000E+00 0.  1.
         21   -1    0    0  501  502 -0.00000000000E+00 -0.00000000000E+00 -0.50565189515E+01  0.50565189515E+01  0.00000000000E+00 0.  1.
         21    1    1    2  503  502  0.76987354627E+00 -0.20233547492E+02  0.22225674253E+02  0.30066089626E+02  0.00000000000E+00 0.  1.
         21    1    1    2  504  503 -0.76987354627E+00  0.20233547492E+02  0.89065458725E+02  0.91338081255E+02  0.00000000000E+00 0.  1.
</event>
<event>
 4    1  0.1602044E+006  0.2384367E+02  0.7546771E-02  0.1482167E+00
         21   -1    0    0  502  501  0.00000000000E+00  0.00000000000E+00  0.12378046133E+03  0.12378046133E+03  0.00000000000E+00 0.  1.
         21   -1    0    0  503  502 -0.00000000000E+00 -0.00000000000E+00 -0.10318999587E+02  0.10318999587E+02  0.00000000000E+00 0.  1.
         21    1    1    2  503  504 -0.57992700406E+01 -0.23127672693E+02  0.67842633740E+01  0.24790058627E+02  0.00000000000E+00 0.  1.
         21    1    1    2  504  501  0.57992700406E+01  0.23127672693E+02  0.10667719837E+03  0.10930940229E+03  0.00000000000E+00 0.  1.
</event>
<event>
 4    1  0.1602044E+006  0.2163561E+02  0.7546771E-02  0.1510380E+00
         21   -1    0    0  503  501  0.00000000000E+00  0.00000000000E+00  0.19686294232E+01  0.19686294232E+01  0.00000000000E+00 0. -1.
         21   -1    0    0  504  502 -0.00000000000E+00 -0.00000000000E+00 -0.42822468060E+03  0.42822468060E+03  0.00000000000E+00 0.  1.
         21    1    1    2  503  502 -0.19779406110E+02  0.87678336050E+01 -0.35657214529E+03  0.35722793089E+03  0.00000000000E+00 0.  1.
         21    1    1    2  504  501  0.19779406110E+02 -0.87678336050E+01 -0.69683905883E+02  0.72965379128E+02  0.00000000000E+00 0. -1.
</event>
<event>
 4    1  0.1602044E+006  0.6941742E+02  0.7546771E-02  0.1230807E+00
         21   -1    0    0  503  501  0.00000000000E+00  0.00000000000E+00  0.51275533023E+03  0.51275533023E+03  0.00000000000E+00 0.  1.
         21   -1    0    0  504  502 -0.00000000000E+00 -0.00000000000E+00 -0.17093916572E+03  0.17093916572E+03  0.00000000000E+00 0.  1.
         21    1    1    2  503  502  0.50564585340E+02  0.47560499244E+02  0.50322553974E+03  0.50799086825E+03  0.00000000000E+00 0.  1.
         21    1    1    2  504  501 -0.50564585340E+02 -0.47560499244E+02 -0.16140937523E+03  0.17570362771E+03  0.00000000000E+00 0.  1.
</event>
<event>
 4    1  0.1602044E+006  0.2916071E+02  0.7546771E-02  0.1427033E+00
         21   -1    0    0  503  501  0.00000000000E+00  0.00000000000E+00  0.14420778759E+02  0.14420778759E+02  0.00000000000E+00 0. -1.
         21   -1    0    0  504  502 -0.00000000000E+00 -0.00000000000E+00 -0.64414216966E+02  0.64414216966E+02  0.00000000000E+00 0. -1.
         21    1    1    2  503  502  0.23156721392E+02 -0.17723236197E+02 -0.13533821612E+02  0.32148268606E+02  0.00000000000E+00 0. -1.
         21    1    1    2  504  501 -0.23156721392E+02  0.17723236197E+02 -0.36459616594E+02  0.46686727119E+02  0.00000000000E+00 0. -1.
</event>
<event>
 4    1  0.1602044E+006  0.2426437E+02  0.7546771E-02  0.1477204E+00
         21   -1    0    0  502  501  0.00000000000E+00  0.00000000000E+00  0.60026214216E+01  0.60026214216E+01  0.00000000000E+00 0. -1.
         21   -1    0    0  503  502 -0.00000000000E+00 -0.00000000000E+00 -0.12126589201E+03  0.12126589201E+03  0.00000000000E+00 0. -1.
         21    1    1    2  503  504  0.10672846588E+02  0.21791058333E+02 -0.85454255036E+02  0.88832367869E+02  0.00000000000E+00 0. -1.
         21    1    1    2  504  501 -0.10672846588E+02 -0.21791058333E+02 -0.29809015557E+02  0.38436145566E+02  0.00000000000E+00 0. -1.
</event>
<event>
 4    1  0.1602044E+006  0.2009919E+02  0.7546771E-02  0.1532525E+00
         21   -1    0    0  503  501  0.00000000000E+00  0.00000000000E+00  0.16861174084E+01  0.16861174084E+01  0.00000000000E+00 0. -1.
         21   -1    0    0  504  502 -0.00000000000E+00 -0.00000000000E+00 -0.24825286001E+03  0.24825286001E+03  0.00000000000E+00 0. -1.
         21    1    1    2  503  502 -0.16945143975E+02  0.10809233356E+02 -0.14662758137E+03  0.14799873326E+03  0.00000000000E+00 0. -1.
         21    1    1    2  504  501  0.16945143975E+02 -0.10809233356E+02 -0.99939161230E+02  0.10194024415E+03  0.00000000000E+00 0. -1.
</event>
<event>
 4    1  0.1602044E+006  0.2614194E+02  0.7546771E-02  0.1456423E+00
         21   -1    0    0  503  501  0.00000000000E+00  0.00000000000E+00  0.46466337783E+01  0.46466337783E+01  0.00000000000E+00 0.  1.
         21   -1    0    0  504  502 -0.00000000000E+00 -0.00000000000E+00 -0.20274344009E+03  0.20274344009E+03  0.00000000000E+00 0.  1.
         21    1    1    2  503  502 -0.25877611801E+02  0.37081165226E+01 -0.15338486968E+03  0.15559665539E+03  0.00000000000E+00 0.  1.
         21    1    1    2  504  501  0.25877611801E+02 -0.37081165226E+01 -0.44711936628E+02  0.51793418479E+02  0.00000000000E+00 0.  1.
</event>
<event>
 4    1  0.1602044E+006  0.2077101E+02  0.7546771E-02  0.1522559E+00
         21   -1    0    0  504  501  0.00000000000E+00  0.00000000000E+00  0.18197672826E+01  0.18197672826E+01  0.00000000000E+00 0. -1.
         21   -1    0    0  503  502 -0.00000000000E+00 -0.00000000000E+00 -0.27657710617E+03  0.27657710617E+03  0.00000000000E+00 0. -1.
         21    1    1    2  503  501 -0.32743441168E+01 -0.20511306391E+02 -0.84777547288E+02  0.87284978910E+02  0.00000000000E+00 0. -1.
         21    1    1    2  504  502  0.32743441168E+01  0.20511306391E+02 -0.18997979160E+03  0.19111189454E+03  0.00000000000E+00 0. -1.
</event>
<event>
 4    1  0.1602044E+006  0.2095311E+02  0.7546771E-02  0.1519935E+00
         21   -1    0    0  502  501  0.00000000000E+00  0.00000000000E+00  0.82330502749E+02  0.82330502749E+02  0.00000000000E+00 0. -1.
         21   -1    0    0  503  502 -0.00000000000E+00 -0.00000000000E+00 -0.16216788891E+03  0.16216788891E+03  0.00000000000E+00 0. -1.
         21    1    1    2  503  504  0.47717059956E+01  0.20402545079E+02 -0.16014112740E+03  0.16150607948E+03  0.00000000000E+00 0. -1.
         21    1    1    2  504  501 -0.47717059956E+01 -0.20402545079E+02  0.80303741240E+02  0.82992312180E+02  0.00000000000E+00 0. -1.
</event>
<event>
 4    1  0.1602044E+006  0.2111608E+02  0.7546771E-02  0.1517614E+00
         21   -1    0    0  502  501  0.00000000000E+00  0.00000000000E+00  0.80221675161E+02  0.80221675161E+02  0.00000000000E+00 0.  1.
         21   -1    0    0  504  502 -0.00000000000E+00 -0.00000000000E+00 -0.69447224330E+01  0.69447224330E+01  0.00000000000E+00 0. -1.
         21    1    1    2  503  501  0.14237204889E+02 -0.15594581400E+02  0.56112398659E+02  0.59954067880E+02  0.00000000000E+00 0.  1.
         21    1    1    2  504  503 -0.14237204889E+02  0.15594581400E+02  0.17164554068E+02  0.27212329714E+02  0.00000000000E+00 0. -1.
</event>
<event>
 4    1  0.1602044E+006  0.2874661E+02  0.7546771E-02  0.1430810E+00
         21   -1    0    0  503  501  0.00000000000E+00  0.00000000000E+00  0.37423500811E+03  0.37423500811E+03  0.00000000000E+00 0. -1.
         21   -1    0    0  504  502 -0.00000000000E+00 -0.00000000000E+00 -0.94730770547E+01  0.94730770547E+01  0.00000000000E+00 0. -1.
         21    1    1    2  503  502 -0.28393403085E+02  0.44924728964E+01  0.35039323545E+03  0.35157045823E+03  0.00000000000E+00 0. -1.
         21    1    1    2  504  501  0.28393403085E+02 -0.44924728964E+01  0.14368695603E+02  0.32137626932E+02  0.00000000000E+00 0. -1.
</event>
<event>
 4    1  0.1602044E+006  0.2848167E+02  0.7546771E-02  0.1433266E+00
         21   -1    0    0  504  501  0.00000000000E+00  0.00000000000E+00  0.16020444505E+03  0.16020444505E+03  0.00000000000E+00 0. -1.
         21   -1    0    0  503  502 -0.00000000000E+00 -0.00000000000E+00 -0.58615630318E+01  0.58615630318E+01  0.00000000000E+00 0. -1.
         21    1    1    2  503  501 -0.15249912027E+02 -0.24055052666E+02  0.10780837898E+03  0.11150718342E+03  0.00000000000E+00 0. -1.
         21    1    1    2  504  502  0.15249912027E+02  0.24055052666E+02  0.46534503038E+02  0.54558824663E+02  0.00000000000E+00 0. -1.
</event>
<event>
 4    1  0.1602044E+006  0.2809073E+02  0.7546771E-02  0.1436949E+00
         21   -1    0    0  502  501  0.00000000000E+00  0.00000000000E+00  0.22264738738E+02  0.22264738738E+02  0.00000000000E+00 0. -1.
         21   -1    0    0  504  502 -0.00000000000E+00 -0.00000000000E+00 -0.35854365872E+02  0.35854365872E+02  0.00000000000E+00 0. -1.
         21    1    1    2  503  501 -0.16104834909E+02  0.23015719971E+02 -0.99142760792E+01  0.29788956736E+02  0.00000000000E+00 0. -1.
         21    1    1    2  504  503  0.16104834909E+02 -0.23015719971E+02 -0.36753510549E+01  0.28330147875E+02  0.00000000000E+00 0. -1.
</event>
<event>
 4    1  0.1602044E+006  0.2318439E+02  0.7546771E-02  0.1490196E+00
         21   -1    0    0  504  501  0.00000000000E+00  0.00000000000E+00  0.69503991241E+01  0.69503991241E+01  0.00000000000E+00 0.  1.
         21   -1    0    0  503  502 -0.00000000000E+00 -0.00000000000E+00 -0.17253745275E+03  0.17253745275E+03  0.00000000000E+00 0.  1.
         21    1    1    2  503  501  0.13958687118E+02  0.18511374023E+02 -0.16130472018E+02  0.28243725706E+02  0.00000000000E+00 0.  1.
         21    1    1    2  504  502 -0.13958687118E+02 -0.18511374023E+02 -0.14945658160E+03  0.15124412616E+03  0.00000000000E+00 0.  1.
</event>
<event>
 4    1  0.1602044E+006  0.2419980E+02  0.7546771E-02  0.1477958E+00
         21   -1    0    0  504  501  0.00000000000E+00  0.00000000000E+00  0.22989432178E+03  0.22989432178E+03  0.00000000000E+00 0.  1.
         21   -1    0    0  503  502 -0.00000000000E+00 -0.00000000000E+00 -0.14840719579E+02  0.14840719579E+02  0.00000000000E+00 0.  1.
         21    1    1    2  503  501  0.24172107047E+02  0.11572962685E+01 -0.38445465088E+01  0.24503277977E+02  0.00000000000E+00 0.  1.
         21    1    1    2  504  502 -0.24172107047E+02 -0.11572962685E+01  0.21889814871E+03  0.22023176338E+03  0.00000000000E+00 0.  1.
</event>
<event>
 4    1  0.1602044E+006  0.2727699E+02  0.7546771E-02  0.1444845E+00
         21   -1    0    0  502  501  0.00000000000E+00  0.00000000000E+00  0.17219324943E+02  0.17219324943E+02  0.00000000000E+00 0.  1.
         21   -1    0    0  503  502 -0.00000000000E+00 -0.00000000000E+00 -0.47512195140E+03  0.47512195140E+03  0.00000000000E+00 0.  1.
         21    1    1    2  503  504  0.10275832853E+01  0.27257632354E+02 -0.46366136090E+03  0.46446301472E+03  0.00000000000E+00 0.  1.
         21    1    1    2  504  501 -0.10275832853E+01 -0.27257632354E+02  0.57587344414E+01  0.27878261627E+02  0.00000000000E+00 0.  1.
</event>
<event>
 4    1  0.1602044E+006  0.2734698E+02  0.7546771E-02  0.1444153E+00
         21   -1    0    0  502  501  0.00000000000E+00  0.00000000000E+00  0.12009720547E+02  0.12009720547E+02  0.00000000000E+00 0. -1.
         21   -1    0    0  503  502 -0.00000000000E+00 -0.00000000000E+00 -0.12278315219E+03  0.12278315219E+03  0.00000000000E+00 0. -1.
         21    1    1    2  503  504 -0.14393956517E+02  0.23252339506E+02 -0.10270062733E+03  0.10627923659E+03  0.00000000000E+00 0. -1.
         21    1    1    2  504  501  0.14393956517E+02 -0.23252339506E+02 -0.80728043147E+01  0.28513636146E+02  0.00000000000E+00 0. -1.
</event>
<event>
 4    1  0.1602044E+006  0.2477356E+02  0.7546771E-02  0.1471353E+00
         21   -1    0    0  503  501  0.00000000000E+00  0.00000000000E+00  0.14349172371E+02  0.14349172371E+02  0.00000000000E+00 0.  1.
         21   -1    0    0  504  502 -0.00000000000E+00 -0.00000000000E+00 -0.89212305746E+02  0.89212305746E+02  0.00000000000E+00 0.  1.
         21    1    1    2  503  502 -0.44382819261E+01 -0.24372752201E+02 -0.71489417779E-01  0.24773665595E+02  0.00000000000E+00 0.  1.
         21    1    1    2  504  501  0.44382819261E+01  0.24372752201E+02 -0.74791643957E+02  0.78787812522E+02  0.00000000000E+00 0.  1.
</event>
<event>
 4    1  0.1602044E+006  0.2269276E+02  0.7546771E-02  0.1496393E+00
         21   -1    0    0  503  501  0.00000000000E+00  0.00000000000E+00  0.72366009495E+01  0.72366009495E+01  0.00000000000E+00 0. -1.
         21   -1    0    0  504  502 -0.00000000000E+00 -0.00000000000E+00 -0.97320283252E+02  0.97320283252E+02  0.00000000000E+00 0.  1.
         21    1    1    2  503  502 -0.13946781096E+02 -0.17901084854E+02 -0.17937651985E+02  0.28926128338E+02  0.00000000000E+00 0. -1.
         21    1    1    2  504  501  0.13946781096E+02  0.17901084854E+02 -0.72146030318E+02  0.75630755864E+02  0.00000000000E+00 0.  1.
</event>
<event>
 4    1  0.1602044E+006  0.3103058E+02  0.7546771E-02  0.1410847E+00
         21   -1    0    0  503  501  0.00000000000E+00  0.00000000000E+00  0.66156137995E+03  0.66156137995E+03  0.00000000000E+00 0. -1.
         21   -1    0    0  504  502 -0.00000000000E+00 -0.00000000000E+00 -0.31608862595E+02  0.31608862595E+02  0.00000000000E+00 0. -1.
         21    1    1    2  503  502 -0.10834903067E+02  0.29077515651E+02  0.65348774984E+03  0.65422407188E+03  0.00000000000E+00 0. -1.
         21    1    1    2  504  501  0.10834903067E+02 -0.29077515651E+02 -0.23535232486E+02  0.38946170660E+02  0.00000000000E+00 0. -1.
</event>
<event>
 4    1  0.1602044E+006  0.3013058E+02  0.7546771E-02  0.1418465E+00
         21   -1    0    0  503  501  0.00000000000E+00  0.00000000000E+00  0.34299187009E+02  0.34299187009E+02  0.00000000000E+00 0.  1.
         21   -1    0    0  501  502 -0.00000000000E+00 -0.00000000000E+00 -0.57335040250E+03  0.57335040250E+03  0.00000000000E+00 0.  1.
         21    1    1    2  503  504  0.10362237461E+02 -0.28292680362E+02  0.27203318808E+02  0.40593993169E+02  0.00000000000E+00 0.  1.
         21    1    1    2  504  502 -0.10362237461E+02  0.28292680362E+02 -0.56625453430E+03  0.56705559634E+03  0.00000000000E+00 0.  1.
</event>
<event>
 4    1  0.1602044E+006  0.2310960E+02  0.7546771E-02  0.1491126E+00
         21   -1    0    0  504  501  0.00000000000E+00  0.00000000000E+00  0.11665706650E+02  0.11665706650E+02  0.00000000000E+00 0. -1.
         21   -1    0    0  503  502 -0.00000000000E+00 -0.00000000000E+00 -0.64008282404E+02  0.64008282404E+02  0.00000000000E+00 0. -1.
         21    1    1    2  503  501  0.23931492265E+01  0.22985350016E+02 -0.59795339068E+01  0.23870657811E+02  0.00000000000E+00 0. -1.
         21    1    1    2  504  502 -0.23931492265E+01 -0.22985350016E+02 -0.46363041847E+02  0.51803331243E+02  0.00000000000E+00 0. -1.
</event>
<event>
 4    1  0.1602044E+006  0.2143509E+02  0.7546771E-02  0.1513143E+00
         21   -1    0    0  504  501  0.00000000000E+00  0.00000000000E+00  0.16248598489E+02  0.16248598489E+02  0.00000000000E+00 0.  1.
         21   -1    0    0  503  502 -0.00000000000E+00 -0.00000000000E+00 -0.35908068271E+02  0.35908068271E+02  0.00000000000E+00 0. -1.
         21    1    1    2  503  501  0.21415662222E+02  0.91251733297E+00  0.21921780831E+01  0.21546900497E+02  0.00000000000E+00 0.  1.
         21    1    1    2  504  502 -0.21415662222E+02 -0.91251733297E+00 -0.21851647864E+02  0.30609766263E+02  0.00000000000E+00 0. -1.
</event>
<event>
 4    1  0.1602044E+006  0.2088778E+02  0.7546771E-02  0.1520873E+00
         21   -1    0    0  502  501  0.00000000000E+00  0.00000000000E+00  0.14927983666E+03  0.14927983666E+03  0.00000000000E+00 0. -1.
         21   -1    0    0  504  502 -0.00000000000E+00 -0.00000000000E+00 -0.10884866199E+03  0.10884866199E+03  0.00000000000E+00 0. -1.
         21    1    1    2  503  501  0.61354409227E+01 -0.19966362464E+02  0.14753529514E+03  0.14900658569E+03  0.00000000000E+00 0. -1.
         21    1    1    2  504  503 -0.61354409227E+01  0.19966362464E+02 -0.10710412047E+03  0.10912191296E+03  0.00000000000E+00 0. -1.
</event>
<event>
 4    1  0.1602044E+006  0.2176132E+02  0.7546771E-02  0.1508667E+00
         21   -1    0    0  503  501  0.00000000000E+00  0.00000000000E+00  0.63228616012E+01  0.63228616012E+01  0.00000000000E+00 0. -1.
         21   -1    0    0  501  502 -0.00000000000E+00 -0.00000000000E+00 -0.94341240421E+02  0.94341240421E+02  0.00000000000E+00 0. -1.
         21    1    1    2  503  504  0.81470152394E+01 -0.20178729144E+02 -0.21158244630E+02  0.30351709721E+02  0.00000000000E+00 0. -1.
         21    1    1    2  504  502 -0.81470152394E+01  0.20178729144E+02 -0.66860134190E+02  0.70312392301E+02  0.00000000000E+00 0. -1.
</event>
<event>
 4    1  0.1602044E+006  0.2310770E+02  0.7546771E-02  0.1491150E+00
         21   -1    0    0  504  501  0.00000000000E+00  0.00000000000E+00  0.13812205384E+03  0.13812205384E+03  0.00000000000E+00 0. -1.
         21   -1    0    0  503  502 -0.00000000000E+00 -0.00000000000E+00 -0.37674093121E+02  0.37674093121E+02  0.00000000000E+00 0. -1.
         21    1    1    2  503  501 -0.17537160664E+01 -0.23041057366E+02  0.13349021821E+03  0.13547547454E+03  0.00000000000E+00 0. -1.
         21    1    1    2  504  502  0.17537160664E+01  0.23041057366E+02 -0.33042257489E+02  0.40320672422E+02  0.00000000000E+00 0. -1.
</event>
<event>
 4    1  0.1602044E+006  0.2910214E+02  0.7546771E-02  0.1427562E+00
         21   -1    0    0  503  501  0.00000000000E+00  0.00000000000E+00  0.45665395440E+02  0.45665395440E+02  0.00000000000E+00 0.  1.
         21   -1    0    0  504  502 -0.00000000000E+00 -0.00000000000E+00 -0.81717854954E+02  0.81717854954E+02  0.00000000000E+00 0. -1.
         21    1    1    2  503  502  0.67949051652E+01  0.28297775496E+02  0.37973228935E+02  0.47842459698E+02  0.00000000000E+00 0.  1.
         21    1    1    2  504  501 -0.67949051652E+01 -0.28297775496E+02 -0.74025688448E+02  0.79540790696E+02  0.00000000000E+00 0. -1.
</event>
<event>
 4    1  0.1602044E+006  0.2154169E+02  0.7546771E-02  0.1511670E+00
         21   -1    0    0  504  501  0.00000000000E+00  0.00000000000E+00  0.49091352917E+01  0.49091352917E+01  0.00000000000E+00 0. -1.
         21   -1    0    0  503  502 -0.00000000000E+00 -0.00000000000E+00 -0.16066985278E+03  0.16066985278E+03  0.00000000000E+00 0.  1.
         21    1    1    2  503  501 -0.10136355227E+02  0.19007857081E+02 -0.13099943295E+03  0.13275878789E+03  0.00000000000E+00 0.  1.
         21    1    1    2  504  502  0.10136355227E+02 -0.19007857081E+02 -0.24761284535E+02  0.32820200181E+02  0.00000000000E+00 0. -1.
</event>
<event>
 4    1  0.1602044E+006  0.2310542E+02  0.7546771E-02  0.1491179E+00
         21   -1    0    0  504  501  0.00000000000E+00  0.00000000000E+00  0.10038777650E+03  0.10038777650E+03  0.00000000000E+00 0.  1.
         21   -1    0    0  503  502 -0.00000000000E+00 -0.00000000000E+00 -0.28152869761E+03  0.28152869761E+03  0.00000000000E+00 0. -1.
         21    1    1    2  503  501  0.20022764372E+02 -0.11530373027E+02  0.98575608891E+02  0.10124727781E+03  0.00000000000E+00 0.  1.
         21    1    1    2  504  502 -0.20022764372E+02  0.11530373027E+02 -0.27971653001E+03  0.28066919630E+03  0.00000000000E+00 0. -1.
</event>
<event>
 4    1  0.1602044E+006  0.2820785E+02  0.7546771E-02  0.1435838E+00
         21   -1    0    0  503  501  0.00000000000E+00  0.00000000000E+00  0.20268539915E+02  0.20268539915E+02  0.00000000000E+00 0. -1.
         21   -1    0    0  504  502 -0.00000000000E+00 -0.00000000000E+00 -0.49533156871E+02  0.49533156871E+02  0.00000000000E+00 0. -1.
         21    1    1    2  503  502  0.11242760490E+02  0.25870506600E+02 -0.30528848561E+02  0.41565531028E+02  0.00000000000E+00 0. -1.
         21    1    1    2  504  501 -0.11242760490E+02 -0.25870506600E+02  0.12642316049E+01  0.28236165758E+02  0.00000000000E+00 0. -1.
</event>
<event>
 4    1  0.1602044E+006  0.2870767E+02  0.7546771E-02  0.1431169E+00
         21   -1    0    0  504  501  0.00000000000E+00  0.00000000000E+00  0.90771149911E+02  0.90771149911E+02  0.00000000000E+00 0.  1.
         21   -1    0    0  503  502 -0.00000000000E+00 -0.00000000000E+00 -0.73061535508E+02  0.73061535508E+02  0.00000000000E+00 0.  1.
         21    1    1    2  503  501  0.27928566665E+02 -0.66427078348E+01  0.85512574210E+02  0.90202720310E+02  0.00000000000E+00 0.  1.
         21    1    1    2  504  502 -0.27928566665E+02  0.66427078348E+01 -0.67802959807E+02  0.73629965108E+02  0.00000000000E+00 0.  1.
</event>
<event>
 4    1  0.1602044E+006  0.5118373E+02  0.7546771E-02  0.1293120E+00
         21   -1    0    0  504  501  0.00000000000E+00  0.00000000000E+00  0.31189090932E+03  0.31189090932E+03  0.00000000000E+00 0.  1.
         21   -1    0    0  503  502 -0.00000000000E+00 -0.00000000000E+00 -0.10238516842E+02  0.10238516842E+02  0.00000000000E+00 0.  1.
         21    1    1    2  503  501  0.41891552777E+02 -0.29408704359E+02  0.82567629107E+02  0.97145187541E+02  0.00000000000E+00 0.  1.
         21    1    1    2  504  502 -0.41891552777E+02  0.29408704359E+02  0.21908476337E+03  0.22498423862E+03  0.00000000000E+00 0.  1.
</event>
<event>
 4    1  0.1602044E+006  0.2030640E+02  0.7546771E-02  0.1529402E+00
         21   -1    0    0  503  501  0.00000000000E+00  0.00000000000E+00  0.19817505748E+03  0.19817505748E+03  0.00000000000E+00 0. -1.
         21   -1    0    0  501  502 -0.00000000000E+00 -0.00000000000E+00 -0.28900412224E+03  0.28900412224E+03  0.00000000000E+00 0.  1.
         21    1    1    2  503  504  0.16015169429E+02 -0.12484558696E+02  0.19729659066E+03  0.19833883771E+03  0.00000000000E+00 0. -1.
         21    1    1    2  504  502 -0.16015169429E+02  0.12484558696E+02 -0.28812565542E+03  0.28884034201E+03  0.00000000000E+00 0.  1.
</event>
<event>
 4    1  0.1602044E+006  0.2427159E+02  0.7546771E-02  0.1477120E+00
         21   -1    0    0  503  501  0.00000000000E+00  0.00000000000E+00  0.71210927093E+01  0.71210927093E+01  0.00000000000E+00 0.  1.
         21   -1    0    0  501  502 -0.00000000000E+00 -0.00000000000E+00 -0.30909213013E+03  0.30909213013E+03  0.00000000000E+00 0.  1.
         21    1    1    2  503  504 -0.23198988445E+02  0.71356028702E+01 -0.15681597703E+02  0.28896754138E+02  0.00000000000E+00 0.  1.
         21    1    1    2  504  502  0.23198988445E+02 -0.71356028702E+01 -0.28628943972E+03  0.28731646870E+03  0.00000000000E+00 0.  1.
</event>
<event>
 4    1  0.1602044E+006  0.2726618E+02  0.7546771E-02  0.1444952E+00
         21   -1    0    0  503  501  0.00000000000E+00  0.00000000000E+00  0.11834776984E+02  0.11834776984E+02  0.00000000000E+00 0. -1.
         21   -1    0    0  501  502 -0.00000000000E+00 -0.00000000000E+00 -0.51452564290E+03  0.51452564290E+03  0.00000000000E+00 0.  1.
         21    1    1    2  503  504  0.26935300851E+02  0.42348816168E+01 -0.47539193290E+01  0.27677507172E+02  0.00000000000E+00 0. -1.
         21    1    1    2  504  502 -0.26935300851E+02 -0.42348816168E+01 -0.49793694659E+03  0.49868291272E+03  0.00000000000E+00 0.  1.
</event>
<event>
 4    1  0.1602044E+006  0.2818899E+02  0.7546771E-02  0.1436017E+00
         21   -1    0    0  503  501  0.00000000000E+00  0.00000000000E+00  0.94880105733E+03  0.94880105733E+03  0.00000000000E+00 0. -1.
         21   -1    0    0  504  502 -0.00000000000E+00 -0.00000000000E+00 -0.41825238069E+01  0.41825238069E+01  0.00000000000E+00 0.  1.
         21    1    1    2  503  502  0.16641006987E+01  0.28139829714E+02  0.46185330217E+02  0.54108261612E+02  0.00000000000E+00 0.  1.
         21    1    1    2  504  501 -0.16641006987E+01 -0.28139829714E+02  0.89843320331E+03  0.89887531953E+03  0.00000000000E+00 0. -1.
</event>
<event>
 4    1  0.1602044E+006  0.2253102E+02  0.7546771E-02  0.1498473E+00
         21   -1    0    0  504  501  0.00000000000E+00  0.00000000000E+00  0.72085811678E+03  0.72085811678E+03  0.00000000000E+00 0. -1.
         21   -1    0    0  501  502 -0.00000000000E+00 -0.00000000000E+00 -0.13381142794E+02  0.13381142794E+02  0.00000000000E+00 0.  1.
         21    1    1    2  503  502 -0.22131053015E+02  0.42265281390E+01 -0.35901506516E+01  0.22815263079E+02  0.00000000000E+00 0.  1.
         21    1    1    2  504  503  0.22131053015E+02 -0.42265281390E+01  0.71106712463E+03  0.71142399649E+03  0.00000000000E+00 0. -1.
</event>
<event>
 4    1  0.1602044E+006  0.2072366E+02  0.7546771E-02  0.1523247E+00
         21   -1    0    0  503  501  0.00000000000E+00  0.00000000000E+00  0.14564495333E+02  0.14564495333E+02  0.00000000000E+00 0. -1.
         21   -1    0    0  501  502 -0.00000000000E+00 -0.00000000000E+00 -0.17213981008E+03  0.17213981008E+03  0.00000000000E+00 0. -1.
         21    1    1    2  503  504  0.11339255060E+02 -0.17346222578E+02  0.61935946337E+01  0.21629395681E+02  0.00000000000E+00 0. -1.
         21    1    1    2  504  502 -0.11339255060E+02  0.17346222578E+02 -0.16376890938E+03  0.16507490973E+03  0.00000000000E+00 0. -1.
</event>
<event>
 4    1  0.1602044E+006  0.2159581E+02  0.7546771E-02  0.1510926E+00
         21   -1    0    0  503  501  0.00000000000E+00  0.00000000000E+00  0.11770018420E+02  0.11770018420E+02  0.00000000000E+00 0.  1.
         21   -1    0    0  504  502 -0.00000000000E+00 -0.00000000000E+00 -0.12869087111E+03  0.12869087111E+03  0.00000000000E+00 0. -1.
         21    1    1    2  503  502  0.18282691950E+02 -0.11494437430E+02 -0.11688679284E+03  0.11886505482E+03  0.00000000000E+00 0. -1.
         21    1    1    2  504  501 -0.18282691950E+02  0.11494437430E+02 -0.34059850736E-01  0.21595834711E+02  0.00000000000E+00 0.  1.
</event>
<event>
 4    1  0.1602044E+006  0.2299570E+02  0.7546771E-02  0.1492552E+00
         21   -1    0    0  503  501  0.00000000000E+00  0.00000000000E+00  0.35245863647E+03  0.35245863647E+03  0.00000000000E+00 0. -1.
         21   -1    0    0  504  502 -0.00000000000E+00 -0.00000000000E+00 -0.16514699171E+01  0.16514699171E+01  0.00000000000E+00 0.  1.
         21    1    1    2  503  502 -0.44791323148E+01 -0.22555259845E+02  0.12183991655E+03  0.12399099821E+03  0.00000000000E+00 0. -1.
         21    1    1    2  504  501  0.44791323148E+01  0.22555259845E+02  0.22896725000E+03  0.23011910818E+03  0.00000000000E+00 0.  1.
</event>
<event>
 4    1  0.1602044E+006  0.2014379E+02  0.7546771E-02  0.1531849E+00
         21   -1    0    0  504  501  0.00000000000E+00  0.00000000000E+00  0.12827496334E+01  0.12827496334E+01  0.00000000000E+00 0.  1.
         21   -1    0    0  501  502 -0.00000000000E+00 -0.00000000000E+00 -0.11745566570E+04  0.11745566570E+04  0.00000000000E+00 0.  1.
         21    1    1    2  503  502 -0.20121152485E+02  0.95477596396E+00 -0.10891900970E+04  0.10893763536E+04  0.00000000000E+00 0.  1.
         21    1    1    2  504  503  0.20121152485E+02 -0.95477596396E+00 -0.84083810352E+02  0.86463053022E+02  0.00000000000E+00 0.  1.
</event>
<event>
 4    1  0.1602044E+006  0.2099174E+02  0.7546771E-02  0.1519383E+00
         21   -1    0    0  504  501  0.00000000000E+00  0.00000000000E+00  0.57363966156E+01  0.57363966156E+01  0.00000000000E+00 0.  1.
         21   -1    0    0  503  502 -0.00000000000E+00 -0.00000000000E+00 -0.10093567010E+03  0.10093567010E+03  0.00000000000E+00 0. -1.
         21    1    1    2  503  501  0.44926034025E+01  0.20505358964E+02 -0.21527636804E+02  0.30068128940E+02  0.00000000000E+00 0.  1.
         21    1    1    2  504  502 -0.44926034025E+01 -0.20505358964E+02 -0.73671636686E+02  0.76603937781E+02  0.00000000000E+00 0. -1.
</event>
<event>
 4    1  0.1602044E+006  0.2431723E+02  0.7546771E-02  0.1476588E+00
         21   -1    0    0  504  501  0.00000000000E+00  0.00000000000E+00  0.16426636127E+03  0.16426636127E+03  0.00000000000E+00 0.  1.
         21   -1    0    0  503  502 -0.00000000000E+00 -0.00000000000E+00 -0.38446572761E+01  0.38446572761E+01  0.00000000000E+00 0.  1.
         21    1    1    2  503  501 -0.18999233112E+02  0.15177510866E+02  0.10142301617E+03  0.10429743959E+03  0.00000000000E+00 0.  1.
         21    1    1    2  504  502  0.18999233112E+02 -0.15177510866E+02  0.58998687824E+02  0.63813578961E+02  0.00000000000E+00 0.  1.
</event>
<event>
 4    1  0.1602044E+006  0.2016874E+02  0.7546771E-02  0.1531472E+00
         21   -1    0    0  502  501  0.00000000000E+00  0.00000000000E+00  0.35566957429E+02  0.35566957429E+02  0.00000000000E+00 0.  1.
         21   -1    0    0  503  502 -0.00000000000E+00 -0.00000000000E+00 -0.65551286621E+02  0.65551286621E+02  0.00000000000E+00 0.  1.
         21    1    1    2  503  504 -0.87240073453E+01  0.18184322765E+02 -0.60929419528E+02  0.64180776426E+02  0.00000000000E+00 0.  1.
         21    1    1    2  504  501  0.87240073453E+01 -0.18184322765E+02  0.30945090336E+02  0.36937467624E+02  0.00000000000E+00 0.  1.
</event>
<event>
 4    1  0.1602044E+006  0.2374875E+02  0.7546771E-02  0.1483304E+00
         21   -1    0    0  504  501  0.00000000000E+00  0.00000000000E+00  0.64534053243E+03  0.64534053243E+03  0.00000000000E+00 0.  1.
         21   -1    0    0  503  502 -0.00000000000E+00 -0.00000000000E+00 -0.16493198864E+02  0.16493198864E+02  0.00000000000E+00 0. -1.
         21    1    1    2  503  501 -0.22600865064E+02  0.72940943306E+01 -0.76063569179E+01  0.24937112490E+02  0.00000000000E+00 0. -1.
         21    1    1    2  504  502  0.22600865064E+02 -0.72940943306E+01  0.63645369049E+03  0.63689661881E+03  0.00000000000E+00 0.  1.
</event>
<event>
 4    1  0.1602044E+006  0.2151884E+02  0.7546771E-02  0.1511984E+00
         21   -1    0    0  504  501  0.00000000000E+00  0.00000000000E+00  0.78374607450E+01  0.78374607450E+01  0.00000000000E+00 0. -1.
         21   -1    0    0  503  502 -0.00000000000E+00 -0.00000000000E+00 -0.37677563023E+03  0.37677563023E+03  0.00000000000E+00 0. -1.
         21    1    1    2  503  501  0.17204463961E+02 -0.12925442280E+02 -0.78830970192E+01  0.22917326566E+02  0.00000000000E+00 0. -1.
         21    1    1    2  504  502 -0.17204463961E+02  0.12925442280E+02 -0.36105507246E+03  0.36169576441E+03  0.00000000000E+00 0. -1.
</event>
<event>
 4    1  0.1602044E+006  0.2031898E+02  0.7546771E-02  0.1529214E+00
         21   -1    0    0  503  501  0.00000000000E+00  0.00000000000E+00  0.11759232884E+02  0.11759232884E+02  0.00000000000E+00 0.  1.
         21   -1    0    0  504  502 -0.00000000000E+00 -0.00000000000E+00 -0.42515386613E+02  0.42515386613E+02  0.00000000000E+00 0. -1.
         21    1    1    2  503  502  0.50046653673E+01 -0.19692997327E+02 -0.40519303763E+01  0.20719048215E+02  0.00000000000E+00 0.  1.
         21    1    1    2  504  501 -0.50046653673E+01  0.19692997327E+02 -0.26704223353E+02  0.33555571282E+02  0.00000000000E+00 0. -1.
</event>
<event>
 4    1  0.1602044E+006  0.2136472E+02  0.7546771E-02  0.1514121E+00
         21   -1    0    0  502  501  0.00000000000E+00  0.00000000000E+00  0.14913374770E+02  0.14913374770E+02  0.00000000000E+00 0. -1.
         21   -1    0    0  503  502 -0.00000000000E+00 -0.00000000000E+00 -0.78948003875E+02  0.78948003875E+02  0.00000000000E+00 0. -1.
         21    1    1    2  503  504  0.19951204300E+02 -0.76420278854E+01 -0.68740889103E+02  0.71984449556E+02  0.00000000000E+00 0. -1.
         21    1    1    2  504  501 -0.19951204300E+02  0.76420278854E+01  0.47062599969E+01  0.21876929089E+02  0.00000000000E+00 0. -1.
</event>
<event>
 4    1  0.1602044E+006  0.2079509E+02  0.7546771E-02  0.1522211E+00
         21   -1    0    0  503  501  0.00000000000E+00  0.00000000000E+00  0.66846129846E+03  0.66846129846E+03  0.00000000000E+00 0. -1.
         21   -1    0    0  504  502 -0.00000000000E+00 -0.00000000000E+00 -0.15999117228E+01  0.15999117228E+01  0.00000000000E+00 0. -1.
         21    1    1    2  503  502  0.10402037116E+02  0.18006482108E+02  0.74857909406E+02  0.77692614672E+02  0.00000000000E+00 0. -1.
         21    1    1    2  504  501 -0.10402037116E+02 -0.18006482108E+02  0.59200347733E+03  0.59236859551E+03  0.00000000000E+00 0. -1.
</event>
<event>
 4    1  0.1602044E+006  0.2555648E+02  0.7546771E-02  0.1462673E+00
         21   -1    0    0  504  501  0.00000000000E+00  0.00000000000E+00  0.77577900439E+01  0.77577900439E+01  0.00000000000E+00 0. -1.
         21   -1    0    0  503  502 -0.00000000000E+00 -0.00000000000E+00 -0.86645002142E+02  0.86645002142E+02  0.00000000000E+00 0. -1.
         21    1    1    2  503  501 -0.25375439038E+02  0.30365815243E+01 -0.31499453757E+02  0.40562905723E+02  0.00000000000E+00 0. -1.
         21    1    1    2  504  502  0.25375439038E+02 -0.30365815243E+01 -0.47387758341E+02  0.53839886462E+02  0.00000000000E+00 0. -1.
</event>
<event>
 4    1  0.1602044E+006  0.2288163E+02  0.7546771E-02  0.1493990E+00
         21   -1    0    0  503  501  0.00000000000E+00  0.00000000000E+00  0.53668834888E+02  0.53668834888E+02  0.00000000000E+00 0.  1.
         21   -1    0    0  504  502 -0.00000000000E+00 -0.00000000000E+00 -0.57534311218E+02  0.57534311218E+02  0.00000000000E+00 0. -1.
         21    1    1    2  503  502  0.73500841152E+01  0.21668997914E+02 -0.52601587857E+02  0.57362847316E+02  0.00000000000E+00 0. -1.
         21    1    1    2  504  501 -0.73500841152E+01 -0.21668997914E+02  0.48736111527E+02  0.53840298790E+02  0.00000000000E+00 0.  1.
</event>
<event>
 4    1  0.1602044E+006  0.2276990E+02  0.7546771E-02  0.1495408E+00
         21   -1    0    0  504  501  0.00000000000E+00  0.00000000000E+00  0.57912806804E+03  0.57912806804E+03  0.00000000000E+00 0.  1.
         21   -1    0    0  503  502 -0.00000000000E+00 -0.00000000000E+00 -0.37818518135E+01  0.37818518135E+01  0.00000000000E+00 0. -1.
         21    1    1    2  503  501  0.22539135413E+02 -0.32335564943E+01  0.33041623099E+02  0.40127513875E+02  0.00000000000E+00 0. -1.
         21    1    1    2  504  502 -0.22539135413E+02  0.32335564943E+01  0.54230459313E+03  0.54278240598E+03  0.00000000000E+00 0.  1.
</event>
<event>
 4    1  0.1602044E+006  0.2554203E+02  0.7546771E-02  0.1462830E+00
         21   -1    0    0  504  501  0.00000000000E+00  0.00000000000E+00  0.28641119035E+03  0.28641119035E+03  0.00000000000E+00 0. -1.
         21   -1    0    0  503  502 -0.00000000000E+00 -0.00000000000E+00 -0.57966300217E+01  0.57966300217E+01  0.00000000000E+00 0. -1.
         21    1    1    2  503  501  0.18645145480E+02 -0.17457205730E+02  0.25414113770E+03  0.25542144263E+03  0.00000000000E+00 0. -1.
         21    1    1    2  504  502 -0.18645145480E+02  0.17457205730E+02  0.26473422624E+02  0.36786377741E+02  0.00000000000E+00 0. -1.
</event>
<event>
 4    1  0.1602044E+006  0.3518161E+02  0.7546771E-02  0.1379291E+00
         21   -1    0    0  504  501  0.00000000000E+00  0.00000000000E+00  0.58588463561E+01  0.58588463561E+01  0.00000000000E+00 0.  1.
         21   -1    0    0  503  502 -0.00000000000E+00 -0.00000000000E+00 -0.21170171146E+03  0.21170171146E+03  0.00000000000E+00 0.  1.
         21    1    1    2  503  501  0.15008394589E+02  0.31819709875E+02 -0.97958294531E+02  0.10408445279E+03  0.00000000000E+00 0.  1.
         21    1    1    2  504  502 -0.15008394589E+02 -0.31819709875E+02 -0.10788457057E+03  0.11347610502E+03  0.00000000000E+00 0.  1.
</event>
<event>
 4    1  0.1602044E+006  0.2159644E+02  0.7546771E-02  0.1510917E+00
         21   -1    0    0  503  501  0.00000000000E+00  0.00000000000E+00  0.82250755277E+02  0.82250755277E+02  0.00000000000E+00 0.  1.
         21   -1    0    0  501  502 -0.00000000000E+00 -0.00000000000E+00 -0.14265913154E+03  0.14265913154E+03  0.00000000000E+00 0.  1.
         21    1    1    2  503  504  0.12075891946E+02 -0.17904722008E+02  0.79993114185E+02  0.82857133390E+02  0.00000000000E+00 0.  1.
         21    1    1    2  504  502 -0.12075891946E+02  0.17904722008E+02 -0.14040149044E+03  0.14205275342E+03  0.00000000000E+00 0.  1.
</event>
<event>
 4    1  0.1602044E+006  0.2699136E+02  0.7546771E-02  0.1447695E+00
         21   -1    0    0  504  501  0.00000000000E+00  0.00000000000E+00  0.65011426162E+01  0.65011426162E+01  0.00000000000E+00 0.  1.
         21   -1    0    0  503  502 -0.00000000000E+00 -0.00000000000E+00 -0.18952580080E+03  0.18952580080E+03  0.00000000000E+00 0. -1.
         21    1    1    2  503  501 -0.13300909035E+02  0.23486583311E+02 -0.15417369030E+03  0.15651856298E+03  0.00000000000E+00 0. -1.
         21    1    1    2  504  502  0.13300909035E+02 -0.23486583311E+02 -0.28850967881E+02  0.39508380433E+02  0.00000000000E+00 0.  1.
</event>
<event>
 4    1  0.1602044E+006  0.2056120E+02  0.7546771E-02  0.1525623E+00
         21   -1    0    0  502  501  0.00000000000E+00  0.00000000000E+00  0.12185955283E+03  0.12185955283E+03  0.00000000000E+00 0.  1.
         21   -1    0    0  504  502 -0.00000000000E+00 -0.00000000000E+00 -0.41942754496E+01  0.41942754496E+01  0.00000000000E+00 0.  1.
         21    1    1    2  503  501  0.20464817101E+02 -0.19885288703E+01  0.85036780298E+02  0.87487239009E+02  0.00000000000E+00 0.  1.
         21    1    1    2  504  503 -0.20464817101E+02  0.19885288703E+01  0.32628497079E+02  0.38566589267E+02  0.00000000000E+00 0.  1.
</event>
<event>
 4    1  0.1602044E+006  0.3079178E+02  0.7546771E-02  0.1412838E+00
         21   -1    0    0  503  501  0.00000000000E+00  0.00000000000E+00  0.42822533289E+02  0.42822533289E+02  0.00000000000E+00 0.  1.
         21   -1    0    0  504  502 -0.00000000000E+00 -0.00000000000E+00 -0.22520350715E+02  0.22520350715E+02  0.00000000000E+00 0.  1.
         21    1    1    2  503  502 -0.30043746563E+02 -0.67458756923E+01  0.14391457472E+02  0.33988933413E+02  0.00000000000E+00 0.  1.
         21    1    1    2  504  501  0.30043746563E+02  0.67458756923E+01  0.59107251020E+01  0.31353950591E+02  0.00000000000E+00 0.  1.
</event>
<event>
 4    1  0.1602044E+006  0.2293417E+02  0.7546771E-02  0.1493326E+00
         21   -1    0    0  504  501  0.00000000000E+00  0.00000000000E+00  0.35042795427E+01  0.35042795427E+01  0.00000000000E+00 0.  1.
         21   -1    0    0  503  502 -0.00000000000E+00 -0.00000000000E+00 -0.17744816178E+03  0.17744816178E+03  0.00000000000E+00 0.  1.
         21    1    1    2  503  501 -0.55369046147E+01 -0.22255764230E+02 -0.12249407370E+03  0.12462252784E+03  0.00000000000E+00 0.  1.
         21    1    1    2  504  502  0.55369046147E+01  0.22255764230E+02 -0.51449808539E+02  0.56329913482E+02  0.00000000000E+00 0.  1.
</event>
<event>
 4    1  0.1602044E+006  0.2599099E+02  0.7546771E-02  0.1458016E+00
         21   -1    0    0  503  501  0.00000000000E+00  0.00000000000E+00  0.38932135171E+02  0.38932135171E+02  0.00000000000E+00 0.  1.
         21   -1    0    0  504  502 -0.00000000000E+00 -0.00000000000E+00 -0.20394188360E+02  0.20394188360E+02  0.00000000000E+00 0.  1.
         21    1    1    2  503  502  0.10669952530E+02 -0.23699864331E+02  0.20726530326E+02  0.33243352954E+02  0.00000000000E+00 0.  1.
         21    1    1    2  504  501 -0.10669952530E+02  0.23699864331E+02 -0.21885835146E+01  0.26082970577E+02  0.00000000000E+00 0.  1.
</event>
<event>
 4    1  0.1602044E+006  0.3530575E+02  0.7546771E-02  0.1378426E+00
         21   -1    0    0  504  501  0.00000000000E+00  0.00000000000E+00  0.93653612982E+02  0.93653612982E+02  0.00000000000E+00 0.  1.
         21   -1    0    0  503  502 -0.00000000000E+00 -0.00000000000E+00 -0.23051057396E+02  0.23051057396E+02  0.00000000000E+00 0.  1.
         21    1    1    2  503  501 -0.16008829550E+02 -0.31467654079E+02  0.73234862906E+02  0.81300928787E+02  0.00000000000E+00 0.  1.
         21    1    1    2  504  502  0.16008829550E+02  0.31467654079E+02 -0.26323073207E+01  0.35403741591E+02  0.00000000000E+00 0.  1.
</event>
<event>
 4    1  0.1602044E+006  0.2150758E+02  0.7546771E-02  0.1512140E+00
         21   -1    0    0  503  501  0.00000000000E+00  0.00000000000E+00  0.33932568088E+01  0.33932568088E+01  0.00000000000E+00 0. -1.
         21   -1    0    0  504  502 -0.00000000000E+00 -0.00000000000E+00 -0.31571560403E+03  0.31571560403E+03  0.00000000000E+00 0. -1.
         21    1    1    2  503  502 -0.46102032946E+01  0.21007666953E+02 -0.35889280513E+02  0.41840369274E+02  0.00000000000E+00 0. -1.
         21    1    1    2  504  501  0.46102032946E+01 -0.21007666953E+02 -0.27643306671E+03  0.27726849157E+03  0.00000000000E+00 0. -1.
</event>
<event>
 4    1  0.1602044E+006  0.2625361E+02  0.7546771E-02  0.1455253E+00
         21   -1    0    0  503  501  0.00000000000E+00  0.00000000000E+00  0.39174025473E+03  0.39174025473E+03  0.00000000000E+00 0. -1.
         21   -1    0    0  504  502 -0.00000000000E+00 -0.00000000000E+00 -0.45181795275E+01  0.45181795275E+01  0.00000000000E+00 0. -1.
         21    1    1    2  503  502  0.18852678467E+02 -0.18270976283E+02  0.38793410969E+02  0.46842083582E+02  0.00000000000E+00 0. -1.
         21    1    1    2  504  501 -0.18852678467E+02  0.18270976283E+02  0.34842866424E+03  0.34941635068E+03  0.00000000000E+00 0. -1.
</event>
<event>
 4    1  0.1602044E+006  0.2798917E+02  0.7546771E-02  0.1437917E+00
         21   -1    0    0  503  501  0.00000000000E+00  0.00000000000E+00  0.58530618931E+02  0.58530618931E+02  0.00000000000E+00 0.  1.
         21   -1    0    0  501  502 -0.00000000000E+00 -0.00000000000E+00 -0.24029786103E+03  0.24029786103E+03  0.00000000000E+00 0. -1.
         21    1    1    2  503  504  0.25847263684E+01  0.27869572127E+02  0.54309895006E+02  0.61097942326E+02  0.00000000000E+00 0.  1.
         21    1    1    2  504  502 -0.25847263684E+01 -0.27869572127E+02 -0.23607713710E+03  0.23773053763E+03  0.00000000000E+00 0. -1.
</event>
<event>
 4    1  0.1602044E+006  0.2758108E+02  0.7546771E-02  0.1441857E+00
         21   -1    0    0  504  501  0.00000000000E+00  0.00000000000E+00  0.23220110723E+02  0.23220110723E+02  0.00000000000E+00 0.  1.
         21   -1    0    0  503  502 -0.00000000000E+00 -0.00000000000E+00 -0.43893199826E+02  0.43893199826E+02  0.00000000000E+00 0.  1.
         21    1    1    2  503  501  0.27580914471E+02 -0.95790877343E-01 -0.27235851173E+02  0.38762193024E+02  0.00000000000E+00 0.  1.
         21    1    1    2  504  502 -0.27580914471E+02  0.95790877343E-01  0.65627620692E+01  0.28351117525E+02  0.00000000000E+00 0.  1.
</event>
<event>
 4    1  0.1602044E+006  0.5837120E+02  0.7546771E-02  0.1265469E+00
         21   -1    0    0  502  501  0.00000000000E+00  0.00000000000E+00  0.29048675103E+02  0.29048675103E+02  0.00000000000E+00 0. -1.
         21   -1    0    0  503  502 -0.00000000000E+00 -0.00000000000E+00 -0.19861440636E+03  0.19861440636E+03  0.00000000000E+00 0. -1.
         21    1    1    2  503  504  0.53462886141E+02 -0.23428980344E+02 -0.15762128326E+03  0.16808231987E+03  0.00000000000E+00 0. -1.
         21    1    1    2  504  501 -0.53462886141E+02  0.23428980344E+02 -0.11944447995E+02  0.59580761596E+02  0.00000000000E+00 0. -1.
</event>
<event>
 4    1  0.1602044E+006  0.2664792E+02  0.7546771E-02  0.1451177E+00
         21   -1    0    0  504  501  0.00000000000E+00  0.00000000000E+00  0.13305601771E+02  0.13305601771E+02  0.00000000000E+00 0.  1.
         21   -1    0    0  501  502 -0.00000000000E+00 -0.00000000000E+00 -0.11034405668E+03  0.11034405668E+03  0.00000000000E+00 0.  1.
         21    1    1    2  503  502  0.18293130531E+02 -0.19377127165E+02 -0.92944428003E+02  0.96689080969E+02  0.00000000000E+00 0.  1.
         21    1    1    2  504  503 -0.18293130531E+02  0.19377127165E+02 -0.40940269047E+01  0.26960577480E+02  0.00000000000E+00 0.  1.
</event>
<event>
 4    1  0.1602044E+006  0.3611076E+02  0.7546771E-02  0.1372918E+00
         21   -1    0    0  504  501  0.00000000000E+00  0.00000000000E+00  0.35047254342E+01  0.35047254342E+01  0.00000000000E+00 0. -1.
         21   -1    0    0  503  502 -0.00000000000E+00 -0.00000000000E+00 -0.16993241750E+04  0.16993241750E+04  0.00000000000E+00 0.  1.
         21    1    1    2  503  501  0.19246847221E+02 -0.30553986300E+02 -0.16003650068E+04  0.16007723580E+04  0.00000000000E+00 0.  1.
         21    1    1    2  504  502 -0.19246847221E+02  0.30553986300E+02 -0.95454442815E+02  0.10205654247E+03  0.00000000000E+00 0. -1.
</event>
<event>
 4    1  0.1602044E+006  0.2022210E+02  0.7546771E-02  0.1530667E+00
         21   -1    0    0  503  501  0.00000000000E+00  0.00000000000E+00  0.50097293674E+01  0.50097293674E+01  0.00000000000E+00 0.  1.
         21   -1    0    0  504  502 -0.00000000000E+00 -0.00000000000E+00 -0.29873689211E+03  0.29873689211E+03  0.00000000000E+00 0.  1.
         21    1    1    2  503  502  0.15841217417E+02  0.12569366975E+02 -0.17391525841E+02  0.26672051411E+02  0.00000000000E+00 0.  1.
         21    1    1    2  504  501 -0.15841217417E+02 -0.12569366975E+02 -0.27633563690E+03  0.27707457007E+03  0.00000000000E+00 0.  1.
</event>
<event>
 4    1  0.1602044E+006  0.2896146E+02  0.7546771E-02  0.1428841E+00
         21   -1    0    0  502  501  0.00000000000E+00  0.00000000000E+00  0.81286545528E+02  0.81286545528E+02  0.00000000000E+00 0. -1.
         21   -1    0    0  503  502 -0.00000000000E+00 -0.00000000000E+00 -0.15491519260E+02  0.15491519260E+02  0.00000000000E+00 0. -1.
         21    1    1    2  503  504  0.15875334992E+02  0.24222713586E+02  0.49356340207E+01  0.29379016283E+02  0.00000000000E+00 0. -1.
         21    1    1    2  504  501 -0.15875334992E+02 -0.24222713586E+02  0.60859392248E+02  0.67399048505E+02  0.00000000000E+00 0. -1.
</event>
<event>
 4    1  0.1602044E+006  0.2492897E+02  0.7546771E-02  0.1469600E+00
         21   -1    0    0  504  501  0.00000000000E+00  0.00000000000E+00  0.50355313762E+01  0.50355313762E+01  0.00000000000E+00 0.  1.
         21   -1    0    0  503  502 -0.00000000000E+00 -0.00000000000E+00 -0.86659175619E+03  0.86659175619E+03  0.00000000000E+00 0. -1.
         21    1    1    2  503  501 -0.55134936132E+01  0.24311617449E+02 -0.27188484607E+02  0.36887220687E+02  0.00000000000E+00 0.  1.
         21    1    1    2  504  502  0.55134936132E+01 -0.24311617449E+02 -0.83436774021E+03  0.83474006688E+03  0.00000000000E+00 0. -1.
</event>
<event>
 4    1  0.1602044E+006  0.2146153E+02  0.7546771E-02  0.1512776E+00
         21   -1    0    0  502  501  0.00000000000E+00  0.00000000000E+00  0.44060918471E+01  0.44060918471E+01  0.00000000000E+00 0. -1.
         21   -1    0    0  503  502 -0.00000000000E+00 -0.00000000000E+00 -0.46487447335E+03  0.46487447335E+03  0.00000000000E+00 0. -1.
         21    1    1    2  503  504  0.18812673082E+02 -0.10328626165E+02 -0.43681490330E+03  0.43734180790E+03  0.00000000000E+00 0. -1.
         21    1    1    2  504  501 -0.18812673082E+02  0.10328626165E+02 -0.23653478199E+02  0.31938757300E+02  0.00000000000E+00 0. -1.
</event>
<event>
 4    1  0.1602044E+006  0.2290821E+02  0.7546771E-02  0.1493654E+00
         21   -1    0    0  503  501  0.00000000000E+00  0.00000000000E+00  0.95035317548E+02  0.95035317548E+02  0.00000000000E+00 0.  1.
         21   -1    0    0  504  502 -0.00000000000E+00 -0.00000000000E+00 -0.88828442452E+01  0.88828442452E+01  0.00000000000E+00 0.  1.
         21    1    1    2  503  502 -0.15141111718E+02  0.17191063317E+02  0.11116071206E+02  0.25462775989E+02  0.00000000000E+00 0.  1.
         21    1    1    2  504  501  0.15141111718E+02 -0.17191063317E+02  0.75036402097E+02  0.78455385804E+02  0.00000000000E+00 0.  1.
</event>
<event>
 4    1  0.1602044E+006  0.2785994E+02  0.7546771E-02  0.1439156E+00
         21   -1    0    0  503  501  0.00000000000E+00  0.00000000000E+00  0.50370994683E+03  0.50370994683E+03  0.00000000000E+00 0.  1.
         21   -1    0    0  504  502 -0.00000000000E+00 -0.00000000000E+00 -0.52831382727E+01  0.52831382727E+01  0.00000000000E+00 0.  1.
         21    1    1    2  503  502 -0.14168210190E+01 -0.27823891416E+02  0.35022756951E+02  0.44752316362E+02  0.00000000000E+00 0.  1.
         21    1    1    2  504  501  0.14168210190E+01  0.27823891416E+02  0.46340405160E+03  0.46424076874E+03  0.00000000000E+00 0.  1.
</event>
<event>
 4    1  0.1602044E+006  0.3452862E+02  0.7546771E-02  0.1383908E+00
         21   -1    0    0  504  501  0.00000000000E+00  0.00000000000E+00  0.87920206509E+01  0.87920206509E+01  0.00000000000E+00 0.  1.
         21   -1    0    0  503  502 -0.00000000000E+00 -0.00000000000E+00 -0.13615587936E+03  0.13615587936E+03  0.00000000000E+00 0.  1.
         21    1    1    2  503  501  0.34504472920E+02 -0.12911587578E+01 -0.68299546143E+02  0.76531390591E+02  0.00000000000E+00 0.  1.
         21    1    1    2  504  502 -0.34504472920E+02  0.12911587578E+01 -0.59064312570E+02  0.68416509424E+02  0.00000000000E+00 0.  1.
</event>
<event>
 4    1  0.1602044E+006  0.2425513E+02  0.7546771E-02  0.1477311E+00
         21   -1    0    0  504  501  0.00000000000E+00  0.00000000000E+00  0.87410353501E+02  0.87410353501E+02  0.00000000000E+00 0. -1.
         21   -1    0    0  503  502 -0.00000000000E+00 -0.00000000000E+00 -0.67477140625E+01  0.67477140625E+01  0.00000000000E+00 0. -1.
         21    1    1    2  503  501 -0.66162596171E+01 -0.23335305525E+02  0.37950268847E+02  0.45039252667E+02  0.00000000000E+00 0. -1.
         21    1    1    2  504  502  0.66162596171E+01  0.23335305525E+02  0.42712370591E+02  0.49118814896E+02  0.00000000000E+00 0. -1.
</event>
<event>
 4    1  0.1602044E+006  0.2594070E+02  0.7546771E-02  0.1458549E+00
         21   -1    0    0  503  501  0.00000000000E+00  0.00000000000E+00  0.31513215740E+03  0.31513215740E+03  0.00000000000E+00 0.  1.
         21   -1    0    0  501  502 -0.00000000000E+00 -0.00000000000E+00 -0.64124588380E+02  0.64124588380E+02  0.00000000000E+00 0.  1.
         21    1    1    2  503  504 -0.27022048764E+01 -0.25799574530E+02  0.31194809963E+03  0.31302481822E+03  0.00000000000E+00 0.  1.
         21    1    1    2  504  502  0.27022048764E+01  0.25799574530E+02 -0.60940530612E+02  0.66231927561E+02  0.00000000000E+00 0.  1.
</event>
<event>
 4    1  0.1602044E+006  0.2176347E+02  0.7546771E-02  0.1508638E+00
         21   -1    0    0  503  501  0.00000000000E+00  0.00000000000E+00  0.14863345856E+03  0.14863345856E+03  0.00000000000E+00 0.  1.
         21   -1    0    0  504  502 -0.00000000000E+00 -0.00000000000E+00 -0.38085663393E+01  0.38085663393E+01  0.00000000000E+00 0. -1.
         21    1    1    2  503  502 -0.32962856413E+01  0.21512393430E+02  0.10321214031E+03  0.10548172579E+03  0.00000000000E+00 0.  1.
         21    1    1    2  504  501  0.32962856413E+01 -0.21512393430E+02  0.41612751916E+02  0.46960299106E+02  0.00000000000E+00 0. -1.
</event>
<event>
 4    1  0.1602044E+006  0.2306946E+02  0.7546771E-02  0.1491628E+00
         21   -1    0    0  503  501  0.00000000000E+00  0.00000000000E+00  0.35583240262E+01  0.35583240262E+01  0.00000000000E+00 0.  1.
         21   -1    0    0  504  502 -0.00000000000E+00 -0.00000000000E+00 -0.49408817130E+03  0.49408817130E+03  0.00000000000E+00 0. -1.
         21    1    1    2  503  502 -0.11222011661E+02  0.20156057383E+02 -0.45304219530E+03  0.45362917776E+03  0.00000000000E+00 0. -1.
         21    1    1    2  504  501  0.11222011661E+02 -0.20156057383E+02 -0.37487651967E+02  0.44017317557E+02  0.00000000000E+00 0.  1.
</event>
<event>
 4    1  0.1602044E+006  0.2930785E+02  0.7546771E-02  0.1425708E+00
         21   -1    0    0  503  501  0.00000000000E+00  0.00000000000E+00  0.23415276900E+03  0.23415276900E+03  0.00000000000E+00 0. -1.
         21   -1    0    0  501  502 -0.00000000000E+00 -0.00000000000E+00 -0.53642564066E+02  0.53642564066E+02  0.00000000000E+00 0. -1.
         21    1    1    2  503  504 -0.24087030983E+02 -0.16696256783E+02  0.22914544614E+03  0.23101208959E+03  0.00000000000E+00 0. -1.
         21    1    1    2  504  502  0.24087030983E+02  0.16696256783E+02 -0.48635241205E+02  0.56783243472E+02  0.00000000000E+00 0. -1.
</event>
<event>
 4    1  0.1602044E+006  0.2107611E+02  0.7546771E-02  0.1518181E+00
         21   -1    0    0  503  501  0.00000000000E+00  0.00000000000E+00  0.40566886888E+02  0.40566886888E+02  0.00000000000E+00 0. -1.
         21   -1    0    0  501  502 -0.00000000000E+00 -0.00000000000E+00 -0.64688275423E+02  0.64688275423E+02  0.00000000000E+00 0.  1.
         21    1    1    2  503  504  0.12166511362E+02 -0.17209835080E+02  0.35906352702E+02  0.41634944296E+02  0.00000000000E+00 0. -1.
         21    1    1    2  504  502 -0.12166511362E+02  0.17209835080E+02 -0.60027741237E+02  0.63620218015E+02  0.00000000000E+00 0.  1.
</event>
<event>
 4    1  0.1602044E+006  0.2068918E+02  0.7546771E-02  0.1523749E+00
         21   -1    0    0  503  501  0.00000000000E+00  0.00000000000E+00  0.11946906386E+03  0.11946906386E+03  0.00000000000E+00 0.  1.
         21   -1    0    0  504  502 -0.00000000000E+00 -0.00000000000E+00 -0.48012306430E+01  0.48012306430E+01  0.00000000000E+00 0.  1.
         21    1    1    2  503  502  0.18720618555E+02 -0.88079818586E+01  0.26033579874E+02  0.33253411623E+02  0.00000000000E+00 0.  1.
         21    1    1    2  504  501 -0.18720618555E+02  0.88079818586E+01  0.88634253345E+02  0.91016882882E+02  0.00000000000E+00 0.  1.
</event>
<event>
 4    1  0.1602044E+006  0.3234122E+02  0.7546771E-02  0.1400285E+00
         21   -1    0    0  504  501  0.00000000000E+00  0.00000000000E+00  0.21520002284E+03  0.21520002284E+03  0.00000000000E+00 0.  1.
         21   -1    0    0  503  502 -0.00000000000E+00 -0.00000000000E+00 -0.49223538942E+01  0.49223538942E+01  0.00000000000E+00 0. -1.
         21    1    1    2  503  501 -0.25689433380E+02 -0.19647073388E+02  0.92789529453E+02  0.98264191118E+02  0.00000000000E+00 0. -1.
         21    1    1    2  504  502  0.25689433380E+02  0.19647073388E+02  0.11748813950E+03  0.12185818562E+03  0.00000000000E+00 0.  1.
</event>
<event>
 4    1  0.1602044E+006  0.2116366E+02  0.7546771E-02  0.1516941E+00
         21   -1    0    0  502  501  0.00000000000E+00  0.00000000000E+00  0.50217285588E+01  0.50217285588E+01  0.00000000000E+00 0.  1.
         21   -1    0    0  504  502 -0.00000000000E+00 -0.00000000000E+00 -0.10985557854E+03  0.10985557854E+03  0.00000000000E+00 0.  1.
         21    1    1    2  503  501 -0.14760954438E+02 -0.15166231698E+02 -0.27505931354E+02  0.34705570439E+02  0.00000000000E+00 0.  1.
         21    1    1    2  504  503  0.14760954438E+02  0.15166231698E+02 -0.77327918631E+02  0.80171736663E+02  0.00000000000E+00 0.  1.
</event>
<event>
 4    1  0.1602044E+006  0.2002141E+02  0.7546771E-02  0.1533709E+00
         21   -1    0    0  504  501  0.00000000000E+00  0.00000000000E+00  0.41872943163E+03  0.41872943163E+03  0.00000000000E+00 0.  1.
         21   -1    0    0  501  502 -0.00000000000E+00 -0.00000000000E+00 -0.13383278546E+01  0.13383278546E+01  0.00000000000E+00 0.  1.
         21    1    1    2  503  502  0.20017112899E+02 -0.41454759044E+00  0.96628752809E+02  0.98681166025E+02  0.00000000000E+00 0.  1.
         21    1    1    2  504  503 -0.20017112899E+02  0.41454759044E+00  0.32076235097E+03  0.32138659346E+03  0.00000000000E+00 0.  1.
</event>
<event>
 4    1  0.1602044E+006  0.2080636E+02  0.7546771E-02  0.1522048E+00
         21   -1    0    0  504  501  0.00000000000E+00  0.00000000000E+00  0.29477013127E+02  0.29477013127E+02  0.00000000000E+00 0. -1.
         21   -1    0    0  503  502 -0.00000000000E+00 -0.00000000000E+00 -0.21293790770E+02  0.21293790770E+02  0.00000000000E+00 0.  1.
         21    1    1    2  503  501 -0.18730811020E+02 -0.90587765927E+01  0.18232600224E+02  0.27664642158E+02  0.00000000000E+00 0. -1.
         21    1    1    2  504  502  0.18730811020E+02  0.90587765927E+01 -0.10049377866E+02  0.23106161739E+02  0.00000000000E+00 0.  1.
</event>
<event>
 4    1  0.1602044E+006  0.2763388E+02  0.7546771E-02  0.1441343E+00
         21   -1    0    0  503  501  0.00000000000E+00  0.00000000000E+00  0.64062408864E+03  0.64062408864E+03  0.00000000000E+00 0. -1.
         21   -1    0    0  501  502 -0.00000000000E+00 -0.00000000000E+00 -0.48118011785E+02  0.48118011785E+02  0.00000000000E+00 0. -1.
         21    1    1    2  503  504 -0.26629957025E+02  0.73808200770E+01  0.63633184555E+03  0.63693158877E+03  0.00000000000E+00 0. -1.
         21    1    1    2  504  502  0.26629957025E+02 -0.73808200770E+01 -0.43825768694E+02  0.51810511653E+02  0.00000000000E+00 0. -1.
</event>
<event>
 4    1  0.1602044E+006  0.2052665E+02  0.7546771E-02  0.1526132E+00
         21   -1    0    0  502  501  0.00000000000E+00  0.00000000000E+00  0.52435940128E+02  0.52435940128E+02  0.00000000000E+00 0. -1.
         21   -1    0    0  503  502 -0.00000000000E+00 -0.00000000000E+00 -0.66252591392E+02  0.66252591392E+02  0.00000000000E+00 0.  1.
         21    1    1    2  503  504 -0.59988015211E+01 -0.19630528670E+02 -0.62537547452E+02  0.65820119392E+02  0.00000000000E+00 0.  1.
         21    1    1    2  504  501  0.59988015211E+01  0.19630528670E+02  0.48720896188E+02  0.52868412128E+02  0.00000000000E+00 0. -1.
</event>
<event>
 4    1  0.1602044E+006  0.2200637E+02  0.7546771E-02  0.1505367E+00
         21   -1    0    0  503  501  0.00000000000E+00  0.00000000000E+00  0.87142264631E+01  0.87142264631E+01  0.00000000000E+00 0.  1.
         21   -1    0    0  501  502 -0.00000000000E+00 -0.00000000000E+00 -0.98638763427E+02  0.98638763427E+02  0.00000000000E+00 0.  1.
         21    1    1    2  503  504 -0.19508772546E+02 -0.10182730353E+02 -0.94953209317E+01  0.23967505570E+02  0.00000000000E+00 0.  1.
         21    1    1    2  504  502  0.19508772546E+02  0.10182730353E+02 -0.80429216032E+02  0.83385484320E+02  0.00000000000E+00 0.  1.
</event>
<event>
 4    1  0.1602044E+006  0.2078488E+02  0.7546771E-02  0.1522358E+00
         21   -1    0    0  502  501  0.00000000000E+00  0.00000000000E+00  0.12944709592E+02  0.12944709592E+02  0.00000000000E+00 0.  1.
         21   -1    0    0  504  502 -0.00000000000E+00 -0.00000000000E+00 -0.20067775533E+03  0.20067775533E+03  0.00000000000E+00 0.  1.
         21    1    1    2  503  501  0.34402035071E+01 -0.20498204737E+02  0.36595393284E+01  0.21104587789E+02  0.00000000000E+00 0.  1.
         21    1    1    2  504  503 -0.34402035071E+01  0.20498204737E+02 -0.19139258506E+03  0.19251787713E+03  0.00000000000E+00 0.  1.
</event>
<event>
 4    1  0.1602044E+006  0.2416423E+02  0.7546771E-02  0.1478374E+00
         21   -1    0    0  503  501  0.00000000000E+00  0.00000000000E+00  0.32126279848E+01  0.32126279848E+01  0.00000000000E+00 0. -1.
         21   -1    0    0  501  502 -0.00000000000E+00 -0.00000000000E+00 -0.19500265897E+03  0.19500265897E+03  0.00000000000E+00 0.  1.
         21    1    1    2  503  504 -0.24164131581E+02 -0.70506918661E-01 -0.12172721689E+03  0.12410248006E+03  0.00000000000E+00 0.  1.
         21    1    1    2  504  502  0.24164131581E+02  0.70506918661E-01 -0.70062814095E+02  0.74112806890E+02  0.00000000000E+00 0. -1.
</event>
<event>
 4    1  0.1602044E+006  0.2254394E+02  0.7546771E-02  0.1498306E+00
         21   -1    0    0  504  501  0.00000000000E+00  0.00000000000E+00  0.37495141283E+03  0.37495141283E+03  0.00000000000E+00 0.  1.
         21   -1    0    0  503  502 -0.00000000000E+00 -0.00000000000E+00 -0.15388850621E+01  0.15388850621E+01  0.00000000000E+00 0.  1.
         21    1    1    2  503  501 -0.19489872580E+02  0.11330220172E+02  0.25169802567E+03  0.25270560965E+03  0.00000000000E+00 0.  1.
         21    1    1    2  504  502  0.19489872580E+02 -0.11330220172E+02  0.12171450210E+03  0.12378468824E+03  0.00000000000E+00 0.  1.
</event>
<event>
 4    1  0.1602044E+006  0.2791887E+02  0.7546771E-02  0.1438590E+00
         21   -1    0    0  502  501  0.00000000000E+00  0.00000000000E+00  0.33811806877E+03  0.33811806877E+03  0.00000000000E+00 0.  1.
         21   -1    0    0  503  502 -0.00000000000E+00 -0.00000000000E+00 -0.44493000365E+01  0.44493000365E+01  0.00000000000E+00 0.  1.
         21    1    1    2  503  504 -0.27275390137E+02 -0.59595442270E+01  0.47934153880E+02  0.55472030635E+02  0.00000000000E+00 0.  1.
         21    1    1    2  504  501  0.27275390137E+02  0.59595442270E+01  0.28573461485E+03  0.28709533817E+03  0.00000000000E+00 0.  1.
</event>
<event>
 4    1  0.1602044E+006  0.2213019E+02  0.7546771E-02  0.1503719E+00
         21   -1    0    0  503  501  0.00000000000E+00  0.00000000000E+00  0.40057145879E+02  0.40057145879E+02  0.00000000000E+00 0.  1.
         21   -1    0    0  504  502 -0.00000000000E+00 -0.00000000000E+00 -0.23100373334E+02  0.23100373334E+02  0.00000000000E+00 0.  1.
         21    1    1    2  503  502 -0.14697443033E+02 -0.16544808265E+02 -0.13187889875E+02  0.25761714841E+02  0.00000000000E+00 0.  1.
         21    1    1    2  504  501  0.14697443033E+02  0.16544808265E+02  0.30144662420E+02  0.37395804372E+02  0.00000000000E+00 0.  1.
</event>
<event>
 4    1  0.1602044E+006  0.2352577E+02  0.7546771E-02  0.1486000E+00
         21   -1    0    0  503  501  0.00000000000E+00  0.00000000000E+00  0.27475621615E+01  0.27475621615E+01  0.00000000000E+00 0.  1.
         21   -1    0    0  504  502 -0.00000000000E+00 -0.00000000000E+00 -0.26696340005E+03  0.26696340005E+03  0.00000000000E+00 0. -1.
         21    1    1    2  503  502  0.75583277543E+01 -0.22278539957E+02 -0.19891918636E+03  0.20030552754E+03  0.00000000000E+00 0. -1.
         21    1    1    2  504  501 -0.75583277543E+01  0.22278539957E+02 -0.65296651524E+02  0.69405434667E+02  0.00000000000E+00 0.  1.
</event>
<event>
 4    1  0.1602044E+006  0.4151758E+02  0.7546771E-02  0.1339815E+00
         21   -1    0    0  502  501  0.00000000000E+00  0.00000000000E+00  0.13615808762E+02  0.13615808762E+02  0.00000000000E+00 0. -1.
         21   -1    0    0  503  502 -0.00000000000E+00 -0.00000000000E+00 -0.63236099162E+03  0.63236099162E+03  0.00000000000E+00 0. -1.
         21    1    1    2  503  504  0.20794584558E+02  0.35934584588E+02 -0.59822680214E+03  0.59966575350E+03  0.00000000000E+00 0. -1.
         21    1    1    2  504  501 -0.20794584558E+02 -0.35934584588E+02 -0.20518380718E+02  0.46311046887E+02  0.00000000000E+00 0. -1.
</event>
<event>
 4    1  0.1602044E+006  0.2425704E+02  0.7546771E-02  0.1477289E+00
         21   -1    0    0  504  501  0.00000000000E+00  0.00000000000E+00  0.20388820855E+02  0.20388820855E+02  0.00000000000E+00 0. -1.
         21   -1    0    0  503  502 -0.00000000000E+00 -0.00000000000E+00 -0.10508685324E+03  0.10508685324E+03  0.00000000000E+00 0. -1.
         21    1    1    2  503  501 -0.19274200314E+02 -0.14727831473E+02 -0.95782291544E+02  0.98806129320E+02  0.00000000000E+00 0. -1.
         21    1    1    2  504  502  0.19274200314E+02  0.14727831473E+02  0.11084259156E+02  0.26669544779E+02  0.00000000000E+00 0. -1.
</event>
<event>
 4    1  0.1602044E+006  0.3603442E+02  0.7546771E-02  0.1373433E+00
         21   -1    0    0  503  501  0.00000000000E+00  0.00000000000E+00  0.11311777632E+03  0.11311777632E+03  0.00000000000E+00 0. -1.
         21   -1    0    0  504  502 -0.00000000000E+00 -0.00000000000E+00 -0.38590504608E+02  0.38590504608E+02  0.00000000000E+00 0.  1.
         21    1    1    2  503  502  0.31033452489E+02 -0.18314040816E+02  0.10084295181E+03  0.10708772195E+03  0.00000000000E+00 0. -1.
         21    1    1    2  504  501 -0.31033452489E+02  0.18314040816E+02 -0.26315680094E+02  0.44620558974E+02  0.00000000000E+00 0.  1.
</event>
<event>
 4    1  0.1602044E+006  0.2257235E+02  0.7546771E-02  0.1497939E+00
         21   -1    0    0  502  501  0.00000000000E+00  0.00000000000E+00  0.68394519405E+02  0.68394519405E+02  0.00000000000E+00 0. -1.
         21   -1    0    0  503  502 -0.00000000000E+00 -0.00000000000E+00 -0.84503165894E+01  0.84503165894E+01  0.00000000000E+00 0.  1.
         21    1    1    2  503  504  0.88104003023E+01  0.20781912599E+02  0.16749826407E+02  0.28108143472E+02  0.00000000000E+00 0.  1.
         21    1    1    2  504  501 -0.88104003023E+01 -0.20781912599E+02  0.43194376408E+02  0.48736692522E+02  0.00000000000E+00 0. -1.
</event>
<event>
 4    1  0.1602044E+006  0.3635719E+02  0.7546771E-02  0.1371265E+00
         21   -1    0    0  504  501  0.00000000000E+00  0.00000000000E+00  0.61655786877E+03  0.61655786877E+03  0.00000000000E+00 0. -1.
         21   -1    0    0  503  502 -0.00000000000E+00 -0.00000000000E+00 -0.15917323072E+04  0.15917323072E+04  0.00000000000E+00 0.  1.
         21    1    1    2  503  501  0.35688306647E+02 -0.69419061747E+01 -0.15909884678E+04  0.15914038299E+04  0.00000000000E+00 0.  1.
         21    1    1    2  504  502 -0.35688306647E+02  0.69419061747E+01  0.61581402931E+03  0.61688634609E+03  0.00000000000E+00 0. -1.
</event>
<event>
 4    1  0.1602044E+006  0.2483279E+02  0.7546771E-02  0.1470683E+00
         21   -1    0    0  503  501  0.00000000000E+00  0.00000000000E+00  0.77044193432E+03  0.77044193432E+03  0.00000000000E+00 0. -1.
         21   -1    0    0  504  502 -0.00000000000E+00 -0.00000000000E+00 -0.16563877962E+01  0.16563877962E+01  0.00000000000E+00 0. -1.
         21    1    1    2  503  502 -0.23957843052E+02  0.65337048009E+01  0.10687329343E+03  0.10972041009E+03  0.00000000000E+00 0. -1.
         21    1    1    2  504  501  0.23957843052E+02 -0.65337048009E+01  0.66191225309E+03  0.66237791203E+03  0.00000000000E+00 0. -1.
</event>
<event>
 4    1  0.1602044E+006  0.2063765E+02  0.7546771E-02  0.1524502E+00
         21   -1    0    0  503  501  0.00000000000E+00  0.00000000000E+00  0.20818124207E+03  0.20818124207E+03  0.00000000000E+00 0. -1.
         21   -1    0    0  504  502 -0.00000000000E+00 -0.00000000000E+00 -0.77738352333E+01  0.77738352333E+01  0.00000000000E+00 0.  1.
         21    1    1    2  503  502  0.15221915993E+02 -0.13935782573E+02  0.19289004948E+03  0.19399093780E+03  0.00000000000E+00 0. -1.
         21    1    1    2  504  501 -0.15221915993E+02  0.13935782573E+02  0.75173573632E+01  0.21964139504E+02  0.00000000000E+00 0.  1.
</event>
<event>
 4    1  0.1602044E+006  0.2467790E+02  0.7546771E-02  0.1472439E+00
         21   -1    0    0  504  501  0.00000000000E+00  0.00000000000E+00  0.17625134117E+03  0.17625134117E+03  0.00000000000E+00 0.  1.
         21   -1    0    0  503  502 -0.00000000000E+00 -0.00000000000E+00 -0.69803980046E+01  0.69803980046E+01  0.00000000000E+00 0. -1.
         21    1    1    2  503  501 -0.14403108581E+02  0.20038697045E+02  0.14974087466E+03  0.15176076061E+03  0.00000000000E+00 0.  1.
         21    1    1    2  504  502  0.14403108581E+02 -0.20038697045E+02  0.19530068500E+02  0.31470978562E+02  0.00000000000E+00 0. -1.
</event>
<event>
 4    1  0.1602044E+006  0.2045438E+02  0.7546771E-02  0.1527199E+00
         21   -1    0    0  503  501  0.00000000000E+00  0.00000000000E+00  0.46523548333E+01  0.46523548333E+01  0.00000000000E+00 0.  1.
         21   -1    0    0  501  502 -0.00000000000E+00 -0.00000000000E+00 -0.22673495097E+03  0.22673495097E+03  0.00000000000E+00 0.  1.
         21    1    1    2  503  504 -0.18703487439E+02 -0.82801657102E+01 -0.21173768484E+02  0.29439939850E+02  0.00000000000E+00 0.  1.
         21    1    1    2  504  502  0.18703487439E+02  0.82801657102E+01 -0.20090882766E+03  0.20194736596E+03  0.00000000000E+00 0.  1.
</event>
<event>
 4    1  0.1602044E+006  0.2663802E+02  0.7546771E-02  0.1451279E+00
         21   -1    0    0  504  501  0.00000000000E+00  0.00000000000E+00  0.57516444707E+02  0.57516444707E+02  0.00000000000E+00 0. -1.
         21   -1    0    0  503  502 -0.00000000000E+00 -0.00000000000E+00 -0.54323071170E+02  0.54323071170E+02  0.00000000000E+00 0. -1.
         21    1    1    2  503  501  0.25113823495E+02  0.88814411128E+01 -0.47564845109E+02  0.54516039997E+02  0.00000000000E+00 0. -1.
         21    1    1    2  504  502 -0.25113823495E+02 -0.88814411128E+01  0.50758218647E+02  0.57323475880E+02  0.00000000000E+00 0. -1.
</event>
<event>
 4    1  0.1602044E+006  0.2224330E+02  0.7546771E-02  0.1502225E+00
         21   -1    0    0  502  501  0.00000000000E+00  0.00000000000E+00  0.25894875022E+03  0.25894875022E+03  0.00000000000E+00 0.  1.
         21   -1    0    0  503  502 -0.00000000000E+00 -0.00000000000E+00 -0.45857844547E+02  0.45857844547E+02  0.00000000000E+00 0.  1.
         21    1    1    2  503  504  0.45694608034E+01  0.21768890855E+02 -0.42649126237E+02  0.48101065995E+02  0.00000000000E+00 0.  1.
         21    1    1    2  504  501 -0.45694608034E+01 -0.21768890855E+02  0.25574003191E+03  0.25670552877E+03  0.00000000000E+00 0.  1.
</event>
<event>
 4    1  0.1602044E+006  0.2369930E+02  0.7546771E-02  0.1483899E+00
         21   -1    0    0  503  501  0.00000000000E+00  0.00000000000E+00  0.49798264907E+02  0.49798264907E+02  0.00000000000E+00 0.  1.
         21   -1    0    0  501  502 -0.00000000000E+00 -0.00000000000E+00 -0.77892321966E+02  0.77892321966E+02  0.00000000000E+00 0. -1.
         21    1    1    2  503  504  0.22119769752E+02 -0.85071968743E+01  0.44995274266E+02  0.50855002889E+02  0.00000000000E+00 0.  1.
         21    1    1    2  504  502 -0.22119769752E+02  0.85071968743E+01 -0.73089331325E+02  0.76835583984E+02  0.00000000000E+00 0. -1.
</event>
<event>
 4    1  0.1602044E+006  0.3146990E+02  0.7546771E-02  0.1407239E+00
         21   -1    0    0  504  501  0.00000000000E+00  0.00000000000E+00  0.35789758530E+03  0.35789758530E+03  0.00000000000E+00 0.  1.
         21   -1    0    0  503  502 -0.00000000000E+00 -0.00000000000E+00 -0.97941322503E+01  0.97941322503E+01  0.00000000000E+00 0. -1.
         21    1    1    2  503  501  0.26179996365E+02 -0.17463170420E+02  0.32977569074E+03  0.33127384554E+03  0.00000000000E+00 0.  1.
         21    1    1    2  504  502 -0.26179996365E+02  0.17463170420E+02  0.18327762304E+02  0.36417872012E+02  0.00000000000E+00 0. -1.
</event>
<event>
 4    1  0.1602044E+006  0.2604913E+02  0.7546771E-02  0.1457401E+00
         21   -1    0    0  504  501  0.00000000000E+00  0.00000000000E+00  0.11567214466E+03  0.11567214466E+03  0.00000000000E+00 0. -1.
         21   -1    0    0  503  502 -0.00000000000E+00 -0.00000000000E+00 -0.99478735956E+02  0.99478735956E+02  0.00000000000E+00 0. -1.
         21    1    1    2  503  501 -0.14377331633E+00 -0.26048735516E+02 -0.96258708652E+02  0.99721092473E+02  0.00000000000E+00 0. -1.
         21    1    1    2  504  502  0.14377331633E+00  0.26048735516E+02  0.11245211736E+03  0.11542978815E+03  0.00000000000E+00 0. -1.
</event>
<event>
 4    1  0.1602044E+006  0.2157806E+02  0.7546771E-02  0.1511169E+00
         21   -1    0    0  502  501  0.00000000000E+00  0.00000000000E+00  0.60456055105E+03  0.60456055105E+03  0.00000000000E+00 0.  1.
         21   -1    0    0  503  502 -0.00000000000E+00 -0.00000000000E+00 -0.28341420575E+01  0.28341420575E+01  0.00000000000E+00 0. -1.
         21    1    1    2  503  504  0.21523021255E+02 -0.15402312953E+01  0.41694604522E+02  0.46947340741E+02  0.00000000000E+00 0. -1.
         21    1    1    2  504  501 -0.21523021255E+02  0.15402312953E+01  0.56003180447E+03  0.56044735237E+03  0.00000000000E+00 0.  1.
</event>
<event>
 4    1  0.1602044E+006  0.2316214E+02  0.7546771E-02  0.1490472E+00
         21   -1    0    0  503  501  0.00000000000E+00  0.00000000000E+00  0.10655661967E+03  0.10655661967E+03  0.00000000000E+00 0.  1.
         21   -1    0    0  504  502 -0.00000000000E+00 -0.00000000000E+00 -0.15554519166E+02  0.15554519166E+02  0.00000000000E+00 0. -1.
         21    1    1    2  503  502  0.21125013831E+02  0.94983353532E+01 -0.47101217717E+01  0.23636197472E+02  0.00000000000E+00 0. -1.
         21    1    1    2  504  501 -0.21125013831E+02 -0.94983353532E+01  0.95712222278E+02  0.98474941367E+02  0.00000000000E+00 0.  1.
</event>
<event>
 4    1  0.1602044E+006  0.4169951E+02  0.7546771E-02  0.1338805E+00
         21   -1    0    0  503  501  0.00000000000E+00  0.00000000000E+00  0.30771844463E+02  0.30771844463E+02  0.00000000000E+00 0. -1.
         21   -1    0    0  504  502 -0.00000000000E+00 -0.00000000000E+00 -0.15524517934E+03  0.15524517934E+03  0.00000000000E+00 0. -1.
         21    1    1    2  503  502  0.39685422996E+02 -0.12802997557E+02  0.11937795407E+02  0.43374652783E+02  0.00000000000E+00 0. -1.
         21    1    1    2  504  501 -0.39685422996E+02  0.12802997557E+02 -0.13641113028E+03  0.14264237102E+03  0.00000000000E+00 0. -1.
</event>
<event>
 4    1  0.1602044E+006  0.2206558E+02  0.7546771E-02  0.1504577E+00
         21   -1    0    0  504  501  0.00000000000E+00  0.00000000000E+00  0.29813542763E+02  0.29813542763E+02  0.00000000000E+00 0.  1.
         21   -1    0    0  503  502 -0.00000000000E+00 -0.00000000000E+00 -0.43313463323E+02  0.43313463323E+02  0.00000000000E+00 0.  1.
         21    1    1    2  503  501  0.11895243899E+02 -0.18584752867E+02 -0.35608597393E+02  0.41891073928E+02  0.00000000000E+00 0.  1.
         21    1    1    2  504  502 -0.11895243899E+02  0.18584752867E+02  0.22108676832E+02  0.31235932158E+02  0.00000000000E+00 0.  1.
</event>
<event>
 4    1  0.1602044E+006  0.2627623E+02  0.7546771E-02  0.1455017E+00
         21   -1    0    0  503  501  0.00000000000E+00  0.00000000000E+00  0.24997893468E+03  0.24997893468E+03  0.00000000000E+00 0. -1.
         21   -1    0    0  504  502 -0.00000000000E+00 -0.00000000000E+00 -0.30963917136E+01  0.30963917136E+01  0.00000000000E+00 0. -1.
         21    1    1    2  503  502  0.96607480861E+00  0.26258461241E+02  0.16502506542E+03  0.16710389673E+03  0.00000000000E+00 0. -1.
         21    1    1    2  504  501 -0.96607480861E+00 -0.26258461241E+02  0.81857477553E+02  0.85971429664E+02  0.00000000000E+00 0. -1.
</event>
<event>
 4    1  0.1602044E+006  0.2669773E+02  0.7546771E-02  0.1450668E+00
         21   -1    0    0  504  501  0.00000000000E+00  0.00000000000E+00  0.27706931356E+03  0.27706931356E+03  0.00000000000E+00 0. -1.
         21   -1    0    0  503  502 -0.00000000000E+00 -0.00000000000E+00 -0.36438866972E+01  0.36438866972E+01  0.00000000000E+00 0.  1.
         21    1    1    2  503  501 -0.11198252735E+02  0.24235670630E+02  0.21281852764E+03  0.21448658304E+03  0.00000000000E+00 0. -1.
         21    1    1    2  504  502  0.11198252735E+02 -0.24235670630E+02  0.60606899216E+02  0.66226617215E+02  0.00000000000E+00 0.  1.
</event>
<event>
 4    1  0.1602044E+006  0.2478881E+02  0.7546771E-02  0.1471180E+00
         21   -1    0    0  503  501  0.00000000000E+00  0.00000000000E+00  0.80934793531E+03  0.80934793531E+03  0.00000000000E+00 0. -1.
         21   -1    0    0  504  502 -0.00000000000E+00 -0.00000000000E+00 -0.13200047547E+02  0.13200047547E+02  0.00000000000E+00 0.  1.
         21    1    1    2  503  502  0.75096703018E+00  0.24777434482E+02  0.79734504078E+03  0.79773027977E+03  0.00000000000E+00 0. -1.
         21    1    1    2  504  501 -0.75096703018E+00 -0.24777434482E+02 -0.11971530162E+01  0.24817703084E+02  0.00000000000E+00 0.  1.
</event>
<event>
 4    1  0.1602044E+006  0.2396924E+02  0.7546771E-02  0.1480673E+00
         21   -1    0    0  503  501  0.00000000000E+00  0.00000000000E+00  0.33663316850E+01  0.33663316850E+01  0.00000000000E+00 0. -1.
         21   -1    0    0  504  502 -0.00000000000E+00 -0.00000000000E+00 -0.22827288031E+03  0.22827288031E+03  0.00000000000E+00 0. -1.
         21    1    1    2  503  502  0.23176001033E+02  0.61153373019E+01 -0.54271713001E+02  0.59329109266E+02  0.00000000000E+00 0. -1.
         21    1    1    2  504  501 -0.23176001033E+02 -0.61153373019E+01 -0.17063483562E+03  0.17231010273E+03  0.00000000000E+00 0. -1.
</event>
<event>
 4    1  0.1602044E+006  0.2190939E+02  0.7546771E-02  0.1506667E+00
         21   -1    0    0  503  501  0.00000000000E+00  0.00000000000E+00  0.20115395335E+01  0.20115395335E+01  0.00000000000E+00 0.  1.
         21   -1    0    0  504  502 -0.00000000000E+00 -0.00000000000E+00 -0.53801059112E+03  0.53801059112E+03  0.00000000000E+00 0.  1.
         21    1    1    2  503  502  0.20770141775E+02 -0.69730027031E+01 -0.46941606529E+03  0.46992708361E+03  0.00000000000E+00 0.  1.
         21    1    1    2  504  501 -0.20770141775E+02  0.69730027031E+01 -0.66582986289E+02  0.70095047038E+02  0.00000000000E+00 0.  1.
</event>
<event>
 4    1  0.1602044E+006  0.2061884E+02  0.7546771E-02  0.1524777E+00
         21   -1    0    0  503  501  0.00000000000E+00  0.00000000000E+00  0.25843341942E+03  0.25843341942E+03  0.00000000000E+00 0. -1.
         21   -1    0    0  504  502 -0.00000000000E+00 -0.00000000000E+00 -0.62344597201E+01  0.62344597201E+01  0.00000000000E+00 0. -1.
         21    1    1    2  503  502 -0.11387850708E+02 -0.17188762667E+02  0.12559164182E+02  0.24142686485E+02  0.00000000000E+00 0. -1.
         21    1    1    2  504  501  0.11387850708E+02  0.17188762667E+02  0.23963979552E+03  0.24052519266E+03  0.00000000000E+00 0. -1.
</event>
<event>
 4    1  0.1602044E+006  0.2980632E+02  0.7546771E-02  0.1421287E+00
         21   -1    0    0  503  501  0.00000000000E+00  0.00000000000E+00  0.26842506525E+02  0.26842506525E+02  0.00000000000E+00 0.  1.
         21   -1    0    0  504  502 -0.00000000000E+00 -0.00000000000E+00 -0.38137772009E+02  0.38137772009E+02  0.00000000000E+00 0.  1.
         21    1    1    2  503  502 -0.18937981099E+02 -0.23016720470E+02  0.61638988065E+01  0.30436987331E+02  0.00000000000E+00 0.  1.
         21    1    1    2  504  501  0.18937981099E+02  0.23016720470E+02 -0.17459164290E+02  0.34543291202E+02  0.00000000000E+00 0.  1.
</event>
<event>
 4    1  0.1602044E+006  0.5298048E+02  0.7546771E-02  0.1285743E+00
         21   -1    0    0  504  501  0.00000000000E+00  0.00000000000E+00  0.57434932050E+02  0.57434932050E+02  0.00000000000E+00 0.  1.
         21   -1    0    0  503  502 -0.00000000000E+00 -0.00000000000E+00 -0.77988396624E+02  0.77988396624E+02  0.00000000000E+00 0.  1.
         21    1    1    2  503  501 -0.25140146899E+02  0.46635865450E+02 -0.51650119767E+02  0.73990984615E+02  0.00000000000E+00 0.  1.
         21    1    1    2  504  502  0.25140146899E+02 -0.46635865450E+02  0.31096655194E+02  0.61432344059E+02  0.00000000000E+00 0.  1.
</event>
<event>
 4    1  0.1602044E+006  0.3388330E+02  0.7546771E-02  0.1388588E+00
         21   -1    0    0  503  501  0.00000000000E+00  0.00000000000E+00  0.17298951294E+02  0.17298951294E+02  0.00000000000E+00 0. -1.
         21   -1    0    0  504  502 -0.00000000000E+00 -0.00000000000E+00 -0.86650347751E+02  0.86650347751E+02  0.00000000000E+00 0.  1.
         21    1    1    2  503  502 -0.27100084861E+02 -0.20338716564E+02 -0.59822176249E+02  0.68751514616E+02  0.00000000000E+00 0.  1.
         21    1    1    2  504  501  0.27100084861E+02  0.20338716564E+02 -0.95292202082E+01  0.35197784429E+02  0.00000000000E+00 0. -1.
</event>
<event>
 4    1  0.1602044E+006  0.2580048E+02  0.7546771E-02  0.1460044E+00
         21   -1    0    0  502  501  0.00000000000E+00  0.00000000000E+00  0.77887309785E+02  0.77887309785E+02  0.00000000000E+00 0.  1.
         21   -1    0    0  504  502 -0.00000000000E+00 -0.00000000000E+00 -0.10223394178E+02  0.10223394178E+02  0.00000000000E+00 0.  1.
         21    1    1    2  503  501  0.19721944427E+02 -0.16634585008E+02  0.51674343553E+02  0.57757270469E+02  0.00000000000E+00 0.  1.
         21    1    1    2  504  503 -0.19721944427E+02  0.16634585008E+02  0.15989572054E+02  0.30353433494E+02  0.00000000000E+00 0.  1.
</event>
<event>
 4    1  0.1602044E+006  0.3347543E+02  0.7546771E-02  0.1391610E+00
         21   -1    0    0  504  501  0.00000000000E+00  0.00000000000E+00  0.26441453514E+02  0.26441453514E+02  0.00000000000E+00 0. -1.
         21   -1    0    0  503  502 -0.00000000000E+00 -0.00000000000E+00 -0.62046089124E+03  0.62046089124E+03  0.00000000000E+00 0. -1.
         21    1    1    2  503  501 -0.19441105364E+02 -0.27251570389E+02 -0.60921885307E+03  0.61013786606E+03  0.00000000000E+00 0. -1.
         21    1    1    2  504  502  0.19441105364E+02  0.27251570389E+02  0.15199415347E+02  0.36764478690E+02  0.00000000000E+00 0. -1.
</event>
<event>
 4    1  0.1602044E+006  0.2155434E+02  0.7546771E-02  0.1511495E+00
         21   -1    0    0  504  501  0.00000000000E+00  0.00000000000E+00  0.17761800568E+02  0.17761800568E+02  0.00000000000E+00 0. -1.
         21   -1    0    0  503  502 -0.00000000000E+00 -0.00000000000E+00 -0.30164066521E+02  0.30164066521E+02  0.00000000000E+00 0. -1.
         21    1    1    2  503  501  0.15418253158E+02 -0.15062111424E+02 -0.14935383875E+02  0.26223184827E+02  0.00000000000E+00 0. -1.
         21    1    1    2  504  502 -0.15418253158E+02  0.15062111424E+02  0.25331179216E+01  0.21702682263E+02  0.00000000000E+00 0. -1.
</event>
<event>
 4    1  0.1602044E+006  0.2085973E+02  0.7546771E-02  0.1521277E+00
         21   -1    0    0  502  501  0.00000000000E+00  0.00000000000E+00  0.22003193475E+03  0.22003193475E+03  0.00000000000E+00 0.  1.
         21   -1    0    0  504  502 -0.00000000000E+00 -0.00000000000E+00 -0.64113592476E+01  0.64113592476E+01  0.00000000000E+00 0.  1.
         21    1    1    2  503  501 -0.45709748544E+01  0.20352750769E+02  0.20096498620E+03  0.20204468307E+03  0.00000000000E+00 0.  1.
         21    1    1    2  504  503  0.45709748544E+01 -0.20352750769E+02  0.12655589302E+02  0.24398610935E+02  0.00000000000E+00 0.  1.
</event>
<event>
 4    1  0.1602044E+006  0.2981672E+02  0.7546771E-02  0.1421196E+00
         21   -1    0    0  504  501  0.00000000000E+00  0.00000000000E+00  0.93273321671E+01  0.93273321671E+01  0.00000000000E+00 0. -1.
         21   -1    0    0  503  502 -0.00000000000E+00 -0.00000000000E+00 -0.16302413470E+03  0.16302413470E+03  0.00000000000E+00 0.  1.
         21    1    1    2  503  501  0.28057630258E+02 -0.10089910354E+02 -0.13238533495E+03  0.13570156158E+03  0.00000000000E+00 0.  1.
         21    1    1    2  504  502 -0.28057630258E+02  0.10089910354E+02 -0.21311467582E+02  0.36649905281E+02  0.00000000000E+00 0. -1.
</event>
<event>
 4    1  0.1602044E+006  0.2086975E+02  0.7546771E-02  0.1521133E+00
         21   -1    0    0  503  501  0.00000000000E+00  0.00000000000E+00  0.83571082933E+03  0.83571082933E+03  0.00000000000E+00 0. -1.
         21   -1    0    0  504  502 -0.00000000000E+00 -0.00000000000E+00 -0.78671915715E+01  0.78671915715E+01  0.00000000000E+00 0. -1.
         21    1    1    2  503  502  0.12938084430E+02 -0.16375363527E+02  0.63430743705E+01  0.21812408208E+02  0.00000000000E+00 0. -1.
         21    1    1    2  504  501 -0.12938084430E+02  0.16375363527E+02  0.82150056339E+03  0.82176561270E+03  0.00000000000E+00 0. -1.
</event>
<event>
 4    1  0.1602044E+006  0.3102295E+02  0.7546771E-02  0.1410910E+00
         21   -1    0    0  503  501  0.00000000000E+00  0.00000000000E+00  0.34308689855E+02  0.34308689855E+02  0.00000000000E+00 0. -1.
         21   -1    0    0  504  502 -0.00000000000E+00 -0.00000000000E+00 -0.34696655904E+02  0.34696655904E+02  0.00000000000E+00 0. -1.
         21    1    1    2  503  502  0.27613359934E+02 -0.14139509092E+02  0.14905045045E+02  0.34417782206E+02  0.00000000000E+00 0. -1.
         21    1    1    2  504  501 -0.27613359934E+02  0.14139509092E+02 -0.15293011094E+02  0.34587563553E+02  0.00000000000E+00 0. -1.
</event>
<event>
 4    1  0.1602044E+006  0.2173011E+02  0.7546771E-02  0.1509091E+00
         21   -1    0    0  504  501  0.00000000000E+00  0.00000000000E+00  0.30306906769E+01  0.30306906769E+01  0.00000000000E+00 0.  1.
         21   -1    0    0  503  502 -0.00000000000E+00 -0.00000000000E+00 -0.24381883716E+03  0.24381883716E+03  0.00000000000E+00 0. -1.
         21    1    1    2  503  501 -0.13074197331E+02 -0.17356928566E+02 -0.19454959037E+03  0.19575939497E+03  0.00000000000E+00 0. -1.
         21    1    1    2  504  502  0.13074197331E+02  0.17356928566E+02 -0.46238556107E+02  0.51090132863E+02  0.00000000000E+00 0.  1.
</event>
<event>
 4    1  0.1602044E+006  0.2159811E+02  0.7546771E-02  0.1510894E+00
         21   -1    0    0  504  501  0.00000000000E+00  0.00000000000E+00  0.89670801310E+02  0.89670801310E+02  0.00000000000E+00 0.  1.
         21   -1    0    0  503  502 -0.00000000000E+00 -0.00000000000E+00 -0.10271837755E+02  0.10271837755E+02  0.00000000000E+00 0. -1.
         21    1    1    2  503  501  0.12964924220E+02 -0.17273945229E+02  0.45928997045E+01  0.22081059112E+02  0.00000000000E+00 0. -1.
         21    1    1    2  504  502 -0.12964924220E+02  0.17273945229E+02  0.74806063850E+02  0.77861579952E+02  0.00000000000E+00 0.  1.
</event>
<event>
 4    1  0.1602044E+006  0.3023863E+02  0.7546771E-02  0.1417534E+00
         21   -1    0    0  504  501  0.00000000000E+00  0.00000000000E+00  0.33984075100E+02  0.33984075100E+02  0.00000000000E+00 0. -1.
         21   -1    0    0  503  502 -0.00000000000E+00 -0.00000000000E+00 -0.13168203749E+03  0.13168203749E+03  0.00000000000E+00 0.  1.
         21    1    1    2  503  501 -0.14396457153E+02 -0.26591663196E+02  0.25038602212E+02  0.39259471861E+02  0.00000000000E+00 0. -1.
         21    1    1    2  504  502  0.14396457153E+02  0.26591663196E+02 -0.12273656460E+03  0.12640664072E+03  0.00000000000E+00 0.  1.
</event>
<event>
 4    1  0.1602044E+006  0.2364509E+02  0.7546771E-02  0.1484553E+00
         21   -1    0    0  503  501  0.00000000000E+00  0.00000000000E+00  0.11757659369E+02  0.11757659369E+02  0.00000000000E+00 0. -1.
         21   -1    0    0  504  502 -0.00000000000E+00 -0.00000000000E+00 -0.49720158408E+02  0.49720158408E+02  0.00000000000E+00 0. -1.
         21    1    1    2  503  502  0.23028982939E+02 -0.53625051079E+01 -0.25401475692E+02  0.34703392970E+02  0.00000000000E+00 0. -1.
         21    1    1    2  504  501 -0.23028982939E+02  0.53625051079E+01 -0.12561023347E+02  0.26774424807E+02  0.00000000000E+00 0. -1.
</event>
<event>
 4    1  0.1602044E+006  0.2088285E+02  0.7546771E-02  0.1520944E+00
         21   -1    0    0  502  501  0.00000000000E+00  0.00000000000E+00  0.12033663747E+03  0.12033663747E+03  0.00000000000E+00 0. -1.
         21   -1    0    0  504  502 -0.00000000000E+00 -0.00000000000E+00 -0.36760447948E+02  0.36760447948E+02  0.00000000000E+00 0. -1.
         21    1    1    2  503  501 -0.12256993392E+02  0.16907377176E+02  0.11636443636E+03  0.11822341282E+03  0.00000000000E+00 0. -1.
         21    1    1    2  504  503  0.12256993392E+02 -0.16907377176E+02 -0.32788246841E+02  0.38873672593E+02  0.00000000000E+00 0. -1.
</event>
<event>
 4    1  0.1602044E+006  0.3637814E+02  0.7546771E-02  0.1371125E+00
         21   -1    0    0  503  501  0.00000000000E+00  0.00000000000E+00  0.13717376101E+02  0.13717376101E+02  0.00000000000E+00 0. -1.
         21   -1    0    0  504  502 -0.00000000000E+00 -0.00000000000E+00 -0.11649978558E+04  0.11649978558E+04  0.00000000000E+00 0. -1.
         21    1    1    2  503  502  0.26553188987E+02  0.24865587066E+02 -0.11212355054E+02  0.38066864480E+02  0.00000000000E+00 0. -1.
         21    1    1    2  504  501 -0.26553188987E+02 -0.24865587066E+02 -0.11400681246E+04  0.11406483674E+04  0.00000000000E+00 0. -1.
</event>
<event>
 4    1  0.1602044E+006  0.3135090E+02  0.7546771E-02  0.1408209E+00
         21   -1    0    0  502  501  0.00000000000E+00  0.00000000000E+00  0.24286031360E+03  0.24286031360E+03  0.00000000000E+00 0. -1.
         21   -1    0    0  504  502 -0.00000000000E+00 -0.00000000000E+00 -0.45333518986E+03  0.45333518986E+03  0.00000000000E+00 0.  1.
         21    1    1    2  503  501 -0.30541351946E+02 -0.70784779364E+01  0.24130302951E+03  0.24333111408E+03  0.00000000000E+00 0. -1.
         21    1    1    2  504  503  0.30541351946E+02  0.70784779364E+01 -0.45177790577E+03  0.45286438938E+03  0.00000000000E+00 0.  1.
</event>
<event>
 4    1  0.1602044E+006  0.2186564E+02  0.7546771E-02  0.1507256E+00
         21   -1    0    0  504  501  0.00000000000E+00  0.00000000000E+00  0.10351012476E+02  0.10351012476E+02  0.00000000000E+00 0.  1.
         21   -1    0    0  503  502 -0.00000000000E+00 -0.00000000000E+00 -0.73382400412E+02  0.73382400412E+02  0.00000000000E+00 0.  1.
         21    1    1    2  503  501 -0.21476488165E+02 -0.41069284674E+01 -0.60296805909E+01  0.22681786820E+02  0.00000000000E+00 0.  1.
         21    1    1    2  504  502  0.21476488165E+02  0.41069284674E+01 -0.57001707345E+02  0.61051626068E+02  0.00000000000E+00 0.  1.
</event>
<event>
 4    1  0.1602044E+006  0.2278179E+02  0.7546771E-02  0.1495257E+00
         21   -1    0    0  504  501  0.00000000000E+00  0.00000000000E+00  0.84177404080E+01  0.84177404080E+01  0.00000000000E+00 0.  1.
         21   -1    0    0  501  502 -0.00000000000E+00 -0.00000000000E+00 -0.14932654124E+03  0.14932654124E+03  0.00000000000E+00 0.  1.
         21    1    1    2  503  502  0.47292309561E+01  0.22285521972E+02 -0.13088824596E+03  0.13285609901E+03  0.00000000000E+00 0.  1.
         21    1    1    2  504  503 -0.47292309561E+01 -0.22285521972E+02 -0.10020554878E+02  0.24888182639E+02  0.00000000000E+00 0.  1.
</event>
<event>
 4    1  0.1602044E+006  0.2635470E+02  0.7546771E-02  0.1454200E+00
         21   -1    0    0  503  501  0.00000000000E+00  0.00000000000E+00  0.20875469164E+02  0.20875469164E+02  0.00000000000E+00 0.  1.
         21   -1    0    0  504  502 -0.00000000000E+00 -0.00000000000E+00 -0.44155225915E+02  0.44155225915E+02  0.00000000000E+00 0.  1.
         21    1    1    2  503  502 -0.10159456163E+02 -0.24317803230E+02 -0.27782524989E+02  0.38294109185E+02  0.00000000000E+00 0.  1.
         21    1    1    2  504  501  0.10159456163E+02  0.24317803230E+02  0.45027682377E+01  0.26736585894E+02  0.00000000000E+00 0.  1.
</event>
<event>
 4    1  0.1602044E+006  0.2148340E+02  0.7546771E-02  0.1512474E+00
         21   -1    0    0  504  501  0.00000000000E+00  0.00000000000E+00  0.16836177583E+03  0.16836177583E+03  0.00000000000E+00 0.  1.
         21   -1    0    0  503  502 -0.00000000000E+00 -0.00000000000E+00 -0.20776110822E+02  0.20776110822E+02  0.00000000000E+00 0. -1.
         21    1    1    2  503  501  0.14534287315E+01 -0.21434179569E+02 -0.14316467234E+02  0.25816617574E+02  0.00000000000E+00 0. -1.
         21    1    1    2  504  502 -0.14534287315E+01  0.21434179569E+02  0.16190213224E+03  0.16332126908E+03  0.00000000000E+00 0.  1.
</event>
<event>
 4    1  0.1602044E+006  0.2837765E+02  0.7546771E-02  0.1434239E+00
         21   -1    0    0  503  501  0.00000000000E+00  0.00000000000E+00  0.53845550059E+01  0.53845550059E+01  0.00000000000E+00 0. -1.
         21   -1    0    0  504  502 -0.00000000000E+00 -0.00000000000E+00 -0.20977355925E+04  0.20977355925E+04  0.00000000000E+00 0. -1.
         21    1    1    2  503  502 -0.96610295505E+01 -0.26682494471E+02 -0.32793390926E+02  0.43367009253E+02  0.00000000000E+00 0. -1.
         21    1    1    2  504  501  0.96610295505E+01  0.26682494471E+02 -0.20595576465E+04  0.20597531382E+04  0.00000000000E+00 0. -1.
</event>
<event>
 4    1  0.1602044E+006  0.7658298E+02  0.7546771E-02  0.1212010E+00
         21   -1    0    0  504  501  0.00000000000E+00  0.00000000000E+00  0.62506388252E+02  0.62506388252E+02  0.00000000000E+00 0. -1.
         21   -1    0    0  503  502 -0.00000000000E+00 -0.00000000000E+00 -0.93835817561E+02  0.93835817561E+02  0.00000000000E+00 0. -1.
         21    1    1    2  503  501  0.62943610681E+02  0.43624010302E+02 -0.16298574197E+02  0.78298122080E+02  0.00000000000E+00 0. -1.
         21    1    1    2  504  502 -0.62943610681E+02 -0.43624010302E+02 -0.15030855112E+02  0.78044083734E+02  0.00000000000E+00 0. -1.
</event>
<event>
 4    1  0.1602044E+006  0.4730290E+02  0.7546771E-02  0.1310310E+00
         21   -1    0    0  503  501  0.00000000000E+00  0.00000000000E+00  0.31827598215E+02  0.31827598215E+02  0.00000000000E+00 0. -1.
         21   -1    0    0  504  502 -0.00000000000E+00 -0.00000000000E+00 -0.70883629313E+02  0.70883629313E+02  0.00000000000E+00 0. -1.
         21    1    1    2  503  502 -0.17889796258E+02  0.43789488975E+02 -0.24177441235E+02  0.53123561811E+02  0.00000000000E+00 0. -1.
         21    1    1    2  504  501  0.17889796258E+02 -0.43789488975E+02 -0.14878589863E+02  0.49587665716E+02  0.00000000000E+00 0. -1.
</event>
<event>
 4    1  0.1602044E+006  0.2292924E+02  0.7546771E-02  0.1493389E+00
         21   -1    0    0  503  501  0.00000000000E+00  0.00000000000E+00  0.80174515052E+02  0.80174515052E+02  0.00000000000E+00 0. -1.
         21   -1    0    0  501  502 -0.00000000000E+00 -0.00000000000E+00 -0.44257994203E+02  0.44257994203E+02  0.00000000000E+00 0. -1.
         21    1    1    2  503  504  0.16739940617E+02 -0.15669212730E+02  0.75380632533E+02  0.78790796420E+02  0.00000000000E+00 0. -1.
         21    1    1    2  504  502 -0.16739940617E+02  0.15669212730E+02 -0.39464111684E+02  0.45641712834E+02  0.00000000000E+00 0. -1.
</event>
<event>
 4    1  0.1602044E+006  0.4070449E+02  0.7546771E-02  0.1344406E+00
         21   -1    0    0  504  501  0.00000000000E+00  0.00000000000E+00  0.17069981629E+03  0.17069981629E+03  0.00000000000E+00 0.  1.
         21   -1    0    0  503  502 -0.00000000000E+00 -0.00000000000E+00 -0.16684095663E+02  0.16684095663E+02  0.00000000000E+00 0.  1.
         21    1    1    2  503  501 -0.32816800638E+02 -0.24081391121E+02  0.13759933466E+03  0.14349366781E+03  0.00000000000E+00 0.  1.
         21    1    1    2  504  502  0.32816800638E+02  0.24081391121E+02  0.16416385961E+02  0.43890244138E+02  0.00000000000E+00 0.  1.
</event>
<event>
 4    1  0.1602044E+006  0.3946069E+02  0.7546771E-02  0.1351675E+00
         21   -1    0    0  503  501  0.00000000000E+00  0.00000000000E+00  0.10264174303E+03  0.10264174303E+03  0.00000000000E+00 0.  1.
         21   -1    0    0  501  502 -0.00000000000E+00 -0.00000000000E+00 -0.41219194416E+02  0.41219194416E+02  0.00000000000E+00 0. -1.
         21    1    1    2  503  504 -0.39450533613E+02 -0.89519449128E+00  0.87892642722E+02  0.96344499688E+02  0.00000000000E+00 0.  1.
         21    1    1    2  504  502  0.39450533613E+02  0.89519449128E+00 -0.26470094106E+02  0.47516437761E+02  0.00000000000E+00 0. -1.
</event>
<event>
 4    1  0.1602044E+006  0.3945830E+02  0.7546771E-02  0.1351690E+00
         21   -1    0    0  504  501  0.00000000000E+00  0.00000000000E+00  0.64550965152E+03  0.64550965152E+03  0.00000000000E+00 0.  1.
         21   -1    0    0  501  502 -0.00000000000E+00 -0.00000000000E+00 -0.29209072880E+01  0.29209072880E+01  0.00000000000E+00 0.  1.
         21    1    1    2  503  502  0.33498245741E+02  0.20852465364E+02  0.18596205157E+03  0.19010218937E+03  0.00000000000E+00 0.  1.
         21    1    1    2  504  503 -0.33498245741E+02 -0.20852465364E+02  0.45662669267E+03  0.45832836944E+03  0.00000000000E+00 0.  1.
</event>
<event>
 4    1  0.1602044E+006  0.3383666E+02  0.7546771E-02  0.1388931E+00
         21   -1    0    0  503  501  0.00000000000E+00  0.00000000000E+00  0.84430215420E+02  0.84430215420E+02  0.00000000000E+00 0.  1.
         21   -1    0    0  504  502 -0.00000000000E+00 -0.00000000000E+00 -0.35882668970E+02  0.35882668970E+02  0.00000000000E+00 0. -1.
         21    1    1    2  503  502  0.33070310789E+02 -0.71605916019E+01 -0.23173095423E+02  0.41011118971E+02  0.00000000000E+00 0. -1.
         21    1    1    2  504  501 -0.33070310789E+02  0.71605916019E+01  0.71720641874E+02  0.79301765419E+02  0.00000000000E+00 0.  1.
</event>
<event>
 4    1  0.1602044E+006  0.2167342E+02  0.7546771E-02  0.1509863E+00
         21   -1    0    0  504  501  0.00000000000E+00  0.00000000000E+00  0.53541083758E+02  0.53541083758E+02  0.00000000000E+00 0. -1.
         21   -1    0    0  503  502 -0.00000000000E+00 -0.00000000000E+00 -0.20127543053E+02  0.20127543053E+02  0.00000000000E+00 0.  1.
         21    1    1    2  503  501  0.21622133635E+02  0.14901019558E+01 -0.10958471856E+02  0.24286316563E+02  0.00000000000E+00 0.  1.
         21    1    1    2  504  502 -0.21622133635E+02 -0.14901019558E+01  0.44372012561E+02  0.49382310248E+02  0.00000000000E+00 0. -1.
</event>
<event>
 4    1  0.1602044E+006  0.2921787E+02  0.7546771E-02  0.1426517E+00
         21   -1    0    0  503  501  0.00000000000E+00  0.00000000000E+00  0.69261083247E+02  0.69261083247E+02  0.00000000000E+00 0. -1.
         21   -1    0    0  504  502 -0.00000000000E+00 -0.00000000000E+00 -0.98914719083E+02  0.98914719083E+02  0.00000000000E+00 0. -1.
         21    1    1    2  503  502  0.26671122556E+02  0.11930419010E+02 -0.93501453294E+02  0.97960223786E+02  0.00000000000E+00 0. -1.
         21    1    1    2  504  501 -0.26671122556E+02 -0.11930419010E+02  0.63847817458E+02  0.70215578544E+02  0.00000000000E+00 0. -1.
</event>
<event>
 4    1  0.1602044E+006  0.2512556E+02  0.7546771E-02  0.1467404E+00
         21   -1    0    0  502  501  0.00000000000E+00  0.00000000000E+00  0.16503540198E+03  0.16503540198E+03  0.00000000000E+00 0.  1.
         21   -1    0    0  504  502 -0.00000000000E+00 -0.00000000000E+00 -0.11916184411E+02  0.11916184411E+02  0.00000000000E+00 0. -1.
         21    1    1    2  503  501  0.11711474404E+02  0.22229145223E+02  0.14946447566E+03  0.15156161458E+03  0.00000000000E+00 0.  1.
         21    1    1    2  504  503 -0.11711474404E+02 -0.22229145223E+02  0.36547419074E+01  0.25389971809E+02  0.00000000000E+00 0. -1.
</event>
<event>
 4    1  0.1602044E+006  0.2222883E+02  0.7546771E-02  0.1502416E+00
         21   -1    0    0  503  501  0.00000000000E+00  0.00000000000E+00  0.25982763193E+01  0.25982763193E+01  0.00000000000E+00 0.  1.
         21   -1    0    0  504  502 -0.00000000000E+00 -0.00000000000E+00 -0.29129356314E+03  0.29129356314E+03  0.00000000000E+00 0.  1.
         21    1    1    2  503  502 -0.16079127486E+02  0.15348696049E+02 -0.23092669256E+03  0.23199409076E+03  0.00000000000E+00 0.  1.
         21    1    1    2  504  501  0.16079127486E+02 -0.15348696049E+02 -0.57768594258E+02  0.61897748696E+02  0.00000000000E+00 0.  1.
</event>
<event>
 4    1  0.1602044E+006  0.2089236E+02  0.7546771E-02  0.1520807E+00
         21   -1    0    0  503  501  0.00000000000E+00  0.00000000000E+00  0.88300332349E+03  0.88300332349E+03  0.00000000000E+00 0.  1.
         21   -1    0    0  504  502 -0.00000000000E+00 -0.00000000000E+00 -0.23673501055E+01  0.23673501055E+01  0.00000000000E+00 0. -1.
         21    1    1    2  503  502  0.20879544889E+02 -0.73167478224E+00  0.83408168447E+03  0.83434330291E+03  0.00000000000E+00 0.  1.
         21    1    1    2  504  501 -0.20879544889E+02  0.73167478224E+00  0.46554288917E+02  0.51027370688E+02  0.00000000000E+00 0. -1.
</event>
<event>
 4    1  0.1602044E+006  0.2326474E+02  0.7546771E-02  0.1489200E+00
         21   -1    0    0  504  501  0.00000000000E+00  0.00000000000E+00  0.63581905354E+01  0.63581905354E+01  0.00000000000E+00 0. -1.
         21   -1    0    0  503  502 -0.00000000000E+00 -0.00000000000E+00 -0.86182778425E+02  0.86182778425E+02  0.00000000000E+00 0. -1.
         21    1    1    2  503  501  0.22127761018E+02 -0.71840166263E+01 -0.45035799192E+02  0.50689950794E+02  0.00000000000E+00 0. -1.
         21    1    1    2  504  502 -0.22127761018E+02  0.71840166263E+01 -0.34788788698E+02  0.41851018167E+02  0.00000000000E+00 0. -1.
</event>
<event>
 4    1  0.1602044E+006  0.2673366E+02  0.7546771E-02  0.1450302E+00
         21   -1    0    0  504  501  0.00000000000E+00  0.00000000000E+00  0.50234082222E+01  0.50234082222E+01  0.00000000000E+00 0. -1.
         21   -1    0    0  503  502 -0.00000000000E+00 -0.00000000000E+00 -0.37300572927E+03  0.37300572927E+03  0.00000000000E+00 0. -1.
         21    1    1    2  503  501  0.14458550419E+02  0.22486411308E+02 -0.33265092437E+03  0.33372342720E+03  0.00000000000E+00 0. -1.
         21    1    1    2  504  502 -0.14458550419E+02 -0.22486411308E+02 -0.35331396670E+02  0.44305710291E+02  0.00000000000E+00 0. -1.
</event>
<event>
 4    1  0.1602044E+006  0.2164232E+02  0.7546771E-02  0.1510288E+00
         21   -1    0    0  503  501  0.00000000000E+00  0.00000000000E+00  0.12870574775E+03  0.12870574775E+03  0.00000000000E+00 0.  1.
         21   -1    0    0  504  502 -0.00000000000E+00 -0.00000000000E+00 -0.43160727068E+01  0.43160727068E+01  0.00000000000E+00 0.  1.
         21    1    1    2  503  502  0.18268574249E+02  0.11603852552E+02  0.35856312947E+02  0.41881563692E+02  0.00000000000E+00 0.  1.
         21    1    1    2  504  501 -0.18268574249E+02 -0.11603852552E+02  0.88533362100E+02  0.91140256769E+02  0.00000000000E+00 0.  1.
</event>
<event>
 4    1  0.1602044E+006  0.2163506E+02  0.7546771E-02  0.1510388E+00
         21   -1    0    0  504  501  0.00000000000E+00  0.00000000000E+00  0.52118359064E+03  0.52118359064E+03  0.00000000000E+00 0. -1.
         21   -1    0    0  503  502 -0.00000000000E+00 -0.00000000000E+00 -0.23572166338E+02  0.23572166338E+02  0.00000000000E+00 0. -1.
         21    1    1    2  503  501  0.14535192169E+02  0.16025105095E+02 -0.18332967881E+02  0.28357953312E+02  0.00000000000E+00 0. -1.
         21    1    1    2  504  502 -0.14535192169E+02 -0.16025105095E+02  0.51594439218E+03  0.51639780366E+03  0.00000000000E+00 0. -1.
</event>
<event>
 4    1  0.1602044E+006  0.2385269E+02  0.7546771E-02  0.1482060E+00
         21   -1    0    0  504  501  0.00000000000E+00  0.00000000000E+00  0.21830001293E+03  0.21830001293E+03  0.00000000000E+00 0.  1.
         21   -1    0    0  503  502 -0.00000000000E+00 -0.00000000000E+00 -0.45638598431E+01  0.45638598431E+01  0.00000000000E+00 0.  1.
         21    1    1    2  503  501  0.19628992737E+02 -0.13551878635E+02  0.17984799361E+03  0.18142285296E+03  0.00000000000E+00 0.  1.
         21    1    1    2  504  502 -0.19628992737E+02  0.13551878635E+02  0.33888159474E+02  0.41441019810E+02  0.00000000000E+00 0.  1.
</event>
<event>
 4    1  0.1602044E+006  0.2036151E+02  0.7546771E-02  0.1528579E+00
         21   -1    0    0  502  501  0.00000000000E+00  0.00000000000E+00  0.27624828460E+02  0.27624828460E+02  0.00000000000E+00 0. -1.
         21   -1    0    0  504  502 -0.00000000000E+00 -0.00000000000E+00 -0.18333734427E+02  0.18333734427E+02  0.00000000000E+00 0. -1.
         21    1    1    2  503  501 -0.21573402816E+01 -0.20246898882E+02  0.14432791066E+02  0.24957894330E+02  0.00000000000E+00 0. -1.
         21    1    1    2  504  503  0.21573402816E+01  0.20246898882E+02 -0.51416970328E+01  0.21000668556E+02  0.00000000000E+00 0. -1.
</event>
<event>
 4    1  0.1602044E+006  0.2095653E+02  0.7546771E-02  0.1519886E+00
         21   -1    0    0  504  501  0.00000000000E+00  0.00000000000E+00  0.24615440992E+02  0.24615440992E+02  0.00000000000E+00 0. -1.
         21   -1    0    0  503  502 -0.00000000000E+00 -0.00000000000E+00 -0.66145832250E+02  0.66145832250E+02  0.00000000000E+00 0.  1.
         21    1    1    2  503  501  0.62466459863E+01 -0.20003888541E+02 -0.59545608477E+02  0.63125712920E+02  0.00000000000E+00 0.  1.
         21    1    1    2  504  502 -0.62466459863E+01  0.20003888541E+02  0.18015217219E+02  0.27635560322E+02  0.00000000000E+00 0. -1.
</event>
<event>
 4    1  0.1602044E+006  0.2049394E+02  0.7546771E-02  0.1526614E+00
         21   -1    0    0  502  501  0.00000000000E+00  0.00000000000E+00  0.20376293037E+01  0.20376293037E+01  0.00000000000E+00 0. -1.
         21   -1    0    0  504  502 -0.00000000000E+00 -0.00000000000E+00 -0.22046232545E+03  0.22046232545E+03  0.00000000000E+00 0. -1.
         21    1    1    2  503  501 -0.76197232119E+01 -0.19024755259E+02 -0.80839506942E+02  0.83396806756E+02  0.00000000000E+00 0. -1.
         21    1    1    2  504  503  0.76197232119E+01  0.19024755259E+02 -0.13758518920E+03  0.13910314800E+03  0.00000000000E+00 0. -1.
</event>
<event>
 4    1  0.1602044E+006  0.2155779E+02  0.7546771E-02  0.1511448E+00
         21   -1    0    0  503  501  0.00000000000E+00  0.00000000000E+00  0.18186415460E+03  0.18186415460E+03  0.00000000000E+00 0. -1.
         21   -1    0    0  504  502 -0.00000000000E+00 -0.00000000000E+00 -0.80750463381E+01  0.80750463381E+01  0.00000000000E+00 0. -1.
         21    1    1    2  503  502  0.95531945126E+00 -0.21536614897E+02  0.83769337206E+01  0.23128152434E+02  0.00000000000E+00 0. -1.
         21    1    1    2  504  501 -0.95531945126E+00  0.21536614897E+02  0.16541217455E+03  0.16681104851E+03  0.00000000000E+00 0. -1.
</event>
<event>
 4    1  0.1602044E+006  0.2303737E+02  0.7546771E-02  0.1492029E+00
         21   -1    0    0  504  501  0.00000000000E+00  0.00000000000E+00  0.76324373222E+03  0.76324373222E+03  0.00000000000E+00 0. -1.
         21   -1    0    0  503  502 -0.00000000000E+00 -0.00000000000E+00 -0.70905958319E+00  0.70905958319E+00  0.00000000000E+00 0. -1.
         21    1    1    2  503  501 -0.12086356018E+01  0.23005646266E+02  0.32815108758E+03  0.32895874641E+03  0.00000000000E+00 0. -1.
         21    1    1    2  504  502  0.12086356018E+01 -0.23005646266E+02  0.43438358506E+03  0.43499404540E+03  0.00000000000E+00 0. -1.
</event>
<event>
 4    1  0.1602044E+006  0.2479317E+02  0.7546771E-02  0.1471131E+00
         21   -1    0    0  503  501  0.00000000000E+00  0.00000000000E+00  0.47182702311E+01  0.47182702311E+01  0.00000000000E+00 0.  1.
         21   -1    0    0  504  502 -0.00000000000E+00 -0.00000000000E+00 -0.28764478078E+03  0.28764478078E+03  0.00000000000E+00 0. -1.
         21    1    1    2  503  502  0.20522045285E+02  0.13912119765E+02 -0.33340650895E+02  0.41548771596E+02  0.00000000000E+00 0.  1.
         21    1    1    2  504  501 -0.20522045285E+02 -0.13912119765E+02 -0.24958585965E+03  0.25081427942E+03  0.00000000000E+00 0. -1.
</event>
<event>
 4    1  0.1602044E+006  0.2100595E+02  0.7546771E-02  0.1519180E+00
         21   -1    0    0  504  501  0.00000000000E+00  0.00000000000E+00  0.62579837586E+02  0.62579837586E+02  0.00000000000E+00 0.  1.
         21   -1    0    0  501  502 -0.00000000000E+00 -0.00000000000E+00 -0.87697897892E+01  0.87697897892E+01  0.00000000000E+00 0.  1.
         21    1    1    2  503  502  0.20489837528E+02  0.46277876335E+01  0.11111477368E+02  0.23763728445E+02  0.00000000000E+00 0.  1.
         21    1    1    2  504  503 -0.20489837528E+02 -0.46277876335E+01  0.42698570430E+02  0.47585898931E+02  0.00000000000E+00 0.  1.
</event>
<event>
 4    1  0.1602044E+006  0.2126659E+02  0.7546771E-02  0.1515492E+00
         21   -1    0    0  502  501  0.00000000000E+00  0.00000000000E+00  0.25060727213E+03  0.25060727213E+03  0.00000000000E+00 0.  1.
         21   -1    0    0  504  502 -0.00000000000E+00 -0.00000000000E+00 -0.13570148761E+02  0.13570148761E+02  0.00000000000E+00 0.  1.
         21    1    1    2  503  501  0.20098017991E+02 -0.69525168037E+01  0.24151084799E+03  0.24244537016E+03  0.00000000000E+00 0.  1.
         21    1    1    2  504  503 -0.20098017991E+02  0.69525168037E+01 -0.44737246164E+01  0.21732050732E+02  0.00000000000E+00 0.  1.
</event>
<event>
 4    1  0.1602044E+006  0.2268984E+02  0.7546771E-02  0.1496430E+00
         21   -1    0    0  503  501  0.00000000000E+00  0.00000000000E+00  0.11253236760E+03  0.11253236760E+03  0.00000000000E+00 0.  1.
         21   -1    0    0  501  502 -0.00000000000E+00 -0.00000000000E+00 -0.52530500688E+02  0.52530500688E+02  0.00000000000E+00 0. -1.
         21    1    1    2  503  504 -0.93031998710E+01 -0.20694907698E+02  0.10885663724E+03  0.11119620589E+03  0.00000000000E+00 0.  1.
         21    1    1    2  504  502  0.93031998710E+01  0.20694907698E+02 -0.48854770337E+02  0.53866662391E+02  0.00000000000E+00 0. -1.
</event>
<event>
 4    1  0.1602044E+006  0.2143236E+02  0.7546771E-02  0.1513180E+00
         21   -1    0    0  503  501  0.00000000000E+00  0.00000000000E+00  0.24821901949E+02  0.24821901949E+02  0.00000000000E+00 0.  1.
         21   -1    0    0  501  502 -0.00000000000E+00 -0.00000000000E+00 -0.88892284713E+02  0.88892284713E+02  0.00000000000E+00 0. -1.
         21    1    1    2  503  504  0.20947211179E+02  0.45343811690E+01  0.18558645465E+02  0.28350830504E+02  0.00000000000E+00 0.  1.
         21    1    1    2  504  502 -0.20947211179E+02 -0.45343811690E+01 -0.82629028228E+02  0.85363356158E+02  0.00000000000E+00 0. -1.
</event>
<event>
 4    1  0.1602044E+006  0.2088134E+02  0.7546771E-02  0.1520966E+00
         21   -1    0    0  503  501  0.00000000000E+00  0.00000000000E+00  0.27837162450E+02  0.27837162450E+02  0.00000000000E+00 0. -1.
         21   -1    0    0  504  502 -0.00000000000E+00 -0.00000000000E+00 -0.15684376104E+02  0.15684376104E+02  0.00000000000E+00 0. -1.
         21    1    1    2  503  502 -0.13169157423E+02  0.16205053990E+02  0.52846061353E+01  0.21539673723E+02  0.00000000000E+00 0. -1.
         21    1    1    2  504  501  0.13169157423E+02 -0.16205053990E+02  0.68681802107E+01  0.21981864832E+02  0.00000000000E+00 0. -1.
</event>
<event>
 4    1  0.1602044E+006  0.2556339E+02  0.7546771E-02  0.1462598E+00
         21   -1    0    0  504  501  0.00000000000E+00  0.00000000000E+00  0.10001368517E+02  0.10001368517E+02  0.00000000000E+00 0. -1.
         21   -1    0    0  503  502 -0.00000000000E+00 -0.00000000000E+00 -0.16727721733E+03  0.16727721733E+03  0.00000000000E+00 0. -1.
         21    1    1    2  503  501  0.25552603931E+02  0.74235583496E+00 -0.94429010835E+01  0.27251697942E+02  0.00000000000E+00 0. -1.
         21    1    1    2  504  502 -0.25552603931E+02 -0.74235583496E+00 -0.14783294773E+03  0.15002688790E+03  0.00000000000E+00 0. -1.
</event>
<event>
 4    1  0.1602044E+006  0.5169518E+02  0.7546771E-02  0.1290985E+00
         21   -1    0    0  504  501  0.00000000000E+00  0.00000000000E+00  0.48985920124E+01  0.48985920124E+01  0.00000000000E+00 0. -1.
         21   -1    0    0  501  502 -0.00000000000E+00 -0.00000000000E+00 -0.76991060900E+03  0.76991060900E+03  0.00000000000E+00 0. -1.
         21    1    1    2  503  502 -0.42575454805E+02  0.29321024464E+02 -0.59164010802E+03  0.59389427447E+03  0.00000000000E+00 0. -1.
         21    1    1    2  504  503  0.42575454805E+02 -0.29321024464E+02 -0.17337190896E+03  0.18091492654E+03  0.00000000000E+00 0. -1.
</event>
<event>
 4    1  0.1602044E+006  0.2384637E+02  0.7546771E-02  0.1482135E+00
         21   -1    0    0  503  501  0.00000000000E+00  0.00000000000E+00  0.36551625750E+02  0.36551625750E+02  0.00000000000E+00 0. -1.
         21   -1    0    0  504  502 -0.00000000000E+00 -0.00000000000E+00 -0.22179189240E+03  0.22179189240E+03  0.00000000000E+00 0.  1.
         21    1    1    2  503  502  0.23476667317E+02 -0.41827805972E+01  0.31938935897E+02  0.39859066573E+02  0.00000000000E+00 0. -1.
         21    1    1    2  504  501 -0.23476667317E+02  0.41827805972E+01 -0.21717920255E+03  0.21848445158E+03  0.00000000000E+00 0.  1.
</event>
<event>
 4    1  0.1602044E+006  0.3954123E+02  0.7546771E-02  0.1351195E+00
         21   -1    0    0  502  501  0.00000000000E+00  0.00000000000E+00  0.41363106626E+01  0.41363106626E+01  0.00000000000E+00 0. -1.
         21   -1    0    0  504  502 -0.00000000000E+00 -0.00000000000E+00 -0.98391233338E+03  0.98391233338E+03  0.00000000000E+00 0.  1.
         21    1    1    2  503  501  0.39220362888E+02 -0.50271328415E+01 -0.10220528177E+03  0.10958753830E+03  0.00000000000E+00 0. -1.
         21    1    1    2  504  503 -0.39220362888E+02  0.50271328415E+01 -0.87757074095E+03  0.87846110574E+03  0.00000000000E+00 0.  1.
</event>
<event>
 4    1  0.1602044E+006  0.3217457E+02  0.7546771E-02  0.1401595E+00
         21   -1    0    0  503  501  0.00000000000E+00  0.00000000000E+00  0.26190123515E+03  0.26190123515E+03  0.00000000000E+00 0.  1.
         21   -1    0    0  501  502 -0.00000000000E+00 -0.00000000000E+00 -0.81099151559E+01  0.81099151559E+01  0.00000000000E+00 0.  1.
         21    1    1    2  503  504 -0.31747372112E+02  0.52256338027E+01  0.22355584378E+03  0.22585928844E+03  0.00000000000E+00 0.  1.
         21    1    1    2  504  502  0.31747372112E+02 -0.52256338027E+01  0.30235476214E+02  0.44151861869E+02  0.00000000000E+00 0.  1.
</event>
<event>
 4    1  0.1602044E+006  0.2609143E+02  0.7546771E-02  0.1456955E+00
         21   -1    0    0  504  501  0.00000000000E+00  0.00000000000E+00  0.48769563357E+02  0.48769563357E+02  0.00000000000E+00 0. -1.
         21   -1    0    0  503  502 -0.00000000000E+00 -0.00000000000E+00 -0.18093999249E+02  0.18093999249E+02  0.00000000000E+00 0. -1.
         21    1    1    2  503  501 -0.16719972308E+02  0.20030108550E+02  0.31320198932E+02  0.40764170342E+02  0.00000000000E+00 0. -1.
         21    1    1    2  504  502  0.16719972308E+02 -0.20030108550E+02 -0.64463482397E+00  0.26099392264E+02  0.00000000000E+00 0. -1.
</event>
<event>
 4    1  0.1602044E+006  0.2048215E+02  0.7546771E-02  0.1526788E+00
         21   -1    0    0  503  501  0.00000000000E+00  0.00000000000E+00  0.17644362318E+03  0.17644362318E+03  0.00000000000E+00 0. -1.
         21   -1    0    0  504  502 -0.00000000000E+00 -0.00000000000E+00 -0.36585237206E+01  0.36585237206E+01  0.00000000000E+00 0.  1.
         21    1    1    2  503  502  0.83578511626E+01 -0.18699327553E+02  0.33109182280E+02  0.38932460470E+02  0.00000000000E+00 0.  1.
         21    1    1    2  504  501 -0.83578511626E+01  0.18699327553E+02  0.13967591718E+03  0.14116968643E+03  0.00000000000E+00 0. -1.
</event>
<event>
 4    1  0.1602044E+006  0.2259778E+02  0.7546771E-02  0.1497612E+00
         21   -1    0    0  503  501  0.00000000000E+00  0.00000000000E+00  0.70540038836E+01  0.70540038836E+01  0.00000000000E+00 0. -1.
         21   -1    0    0  504  502 -0.00000000000E+00 -0.00000000000E+00 -0.35200606703E+03  0.35200606703E+03  0.00000000000E+00 0.  1.
         21    1    1    2  503  502 -0.15175872620E+02  0.16743736483E+02 -0.12468343971E+02  0.25809289462E+02  0.00000000000E+00 0. -1.
         21    1    1    2  504  501  0.15175872620E+02 -0.16743736483E+02 -0.33248371918E+03  0.33325078145E+03  0.00000000000E+00 0.  1.
</event>
<event>
 4    1  0.1602044E+006  0.2545894E+02  0.7546771E-02  0.1463734E+00
         21   -1    0    0  504  501  0.00000000000E+00  0.00000000000E+00  0.88117881892E+00  0.88117881892E+00  0.00000000000E+00 0. -1.
         21   -1    0    0  503  502 -0.00000000000E+00 -0.00000000000E+00 -0.73696544296E+03  0.73696544296E+03  0.00000000000E+00 0. -1.
         21    1    1    2  503  501  0.24042837830E+02 -0.83725500418E+01 -0.35191664803E+03  0.35283634281E+03  0.00000000000E+00 0. -1.
         21    1    1    2  504  502 -0.24042837830E+02  0.83725500418E+01 -0.38416761612E+03  0.38501027898E+03  0.00000000000E+00 0. -1.
</event>
<event>
 4    1  0.1602044E+006  0.2282520E+02  0.7546771E-02  0.1494705E+00
         21   -1    0    0  503  501  0.00000000000E+00  0.00000000000E+00  0.59059028308E+01  0.59059028308E+01  0.00000000000E+00 0.  1.
         21   -1    0    0  504  502 -0.00000000000E+00 -0.00000000000E+00 -0.10694826977E+03  0.10694826977E+03  0.00000000000E+00 0. -1.
         21    1    1    2  503  502 -0.13477133196E+02 -0.18421634632E+02 -0.74137192717E+02  0.77571341910E+02  0.00000000000E+00 0. -1.
         21    1    1    2  504  501  0.13477133196E+02  0.18421634632E+02 -0.26905174225E+02  0.35282830694E+02  0.00000000000E+00 0.  1.
</event>
<event>
 4    1  0.1602044E+006  0.2212575E+02  0.7546771E-02  0.1503778E+00
         21   -1    0    0  503  501  0.00000000000E+00  0.00000000000E+00  0.14598393979E+03  0.14598393979E+03  0.00000000000E+00 0.  1.
         21   -1    0    0  504  502 -0.00000000000E+00 -0.00000000000E+00 -0.62869270738E+01  0.62869270738E+01  0.00000000000E+00 0.  1.
         21    1    1    2  503  502 -0.21590192967E+02  0.48386229745E+01  0.17841777344E+02  0.28423189888E+02  0.00000000000E+00 0.  1.
         21    1    1    2  504  501  0.21590192967E+02 -0.48386229745E+01  0.12185523538E+03  0.12384767698E+03  0.00000000000E+00 0.  1.
</event>
<event>
 4    1  0.1602044E+006  0.2934358E+02  0.7546771E-02  0.1425388E+00
         21   -1    0    0  503  501  0.00000000000E+00  0.00000000000E+00  0.70268508440E+02  0.70268508440E+02  0.00000000000E+00 0. -1.
         21   -1    0    0  501  502 -0.00000000000E+00 -0.00000000000E+00 -0.12255439705E+02  0.12255439705E+02  0.00000000000E+00 0. -1.
         21    1    1    2  503  504  0.28606611321E+02  0.65350850030E+01  0.29505481319E+02  0.41612726120E+02  0.00000000000E+00 0. -1.
         21    1    1    2  504  502 -0.28606611321E+02 -0.65350850030E+01  0.28507587416E+02  0.40911222025E+02  0.00000000000E+00 0. -1.
</event>
<event>
 4    1  0.1602044E+006  0.5597756E+02  0.7546771E-02  0.1274148E+00
         21   -1    0    0  503  501  0.00000000000E+00  0.00000000000E+00  0.30688708256E+02  0.30688708256E+02  0.00000000000E+00 0.  1.
         21   -1    0    0  504  502 -0.00000000000E+00 -0.00000000000E+00 -0.10623122151E+03  0.10623122151E+03  0.00000000000E+00 0.  1.
         21    1    1    2  503  502 -0.54344091095E+02  0.13424112878E+02 -0.51262705097E+02  0.75903570254E+02  0.00000000000E+00 0.  1.
         21    1    1    2  504  501  0.54344091095E+02 -0.13424112878E+02 -0.24279808153E+02  0.61016359506E+02  0.00000000000E+00 0.  1.
</event>
<event>
 4    1  0.1602044E+006  0.2117546E+02  0.7546771E-02  0.1516774E+00
         21   -1    0    0  502  501  0.00000000000E+00  0.00000000000E+00  0.52685094973E+02  0.52685094973E+02  0.00000000000E+00 0. -1.
         21   -1    0    0  504  502 -0.00000000000E+00 -0.00000000000E+00 -0.20678996384E+02  0.20678996384E+02  0.00000000000E+00 0. -1.
         21    1    1    2  503  501 -0.68494701839E+00  0.21164375002E+02  0.44141445750E+02  0.48957809945E+02  0.00000000000E+00 0. -1.
         21    1    1    2  504  503  0.68494701839E+00 -0.21164375002E+02 -0.12135347162E+02  0.24406281413E+02  0.00000000000E+00 0. -1.
</event>
<event>
 4    1  0.1602044E+006  0.4783833E+02  0.7546771E-02  0.1307827E+00
         21   -1    0    0  503  501  0.00000000000E+00  0.00000000000E+00  0.47774659414E+01  0.47774659414E+01  0.00000000000E+00 0.  1.
         21   -1    0    0  504  502 -0.00000000000E+00 -0.00000000000E+00 -0.81676951651E+03  0.81676951651E+03  0.00000000000E+00 0.  1.
         21    1    1    2  503  502  0.47731210851E+02  0.31995149589E+01 -0.67014536269E+03  0.67185066237E+03  0.00000000000E+00 0.  1.
         21    1    1    2  504  501 -0.47731210851E+02 -0.31995149589E+01 -0.14184668787E+03  0.14969632008E+03  0.00000000000E+00 0.  1.
</event>
<event>
 4    1  0.1602044E+006  0.3484418E+02  0.7546771E-02  0.1381662E+00
         21   -1    0    0  504  501  0.00000000000E+00  0.00000000000E+00  0.28054186287E+01  0.28054186287E+01  0.00000000000E+00 0. -1.
         21   -1    0    0  503  502 -0.00000000000E+00 -0.00000000000E+00 -0.65119856386E+03  0.65119856386E+03  0.00000000000E+00 0. -1.
         21    1    1    2  503  501 -0.94633927650E+01 -0.33534480423E+02 -0.51358030388E+03  0.51476095977E+03  0.00000000000E+00 0. -1.
         21    1    1    2  504  502  0.94633927650E+01  0.33534480423E+02 -0.13481284135E+03  0.13924302271E+03  0.00000000000E+00 0. -1.
</event>
<event>
 4    1  0.1602044E+006  0.2894276E+02  0.7546771E-02  0.1429012E+00
         21   -1    0    0  503  501  0.00000000000E+00  0.00000000000E+00  0.35631423907E+03  0.35631423907E+03  0.00000000000E+00 0.  1.
         21   -1    0    0  504  502 -0.00000000000E+00 -0.00000000000E+00 -0.25597541432E+01  0.25597541432E+01  0.00000000000E+00 0.  1.
         21    1    1    2  503  502 -0.28761464661E+02 -0.32344051463E+01  0.12563075164E+03  0.12892156136E+03  0.00000000000E+00 0.  1.
         21    1    1    2  504  501  0.28761464661E+02  0.32344051463E+01  0.22812373329E+03  0.22995243186E+03  0.00000000000E+00 0.  1.
</event>
<event>
 4    1  0.1602044E+006  0.2220509E+02  0.7546771E-02  0.1502729E+00
         21   -1    0    0  502  501  0.00000000000E+00  0.00000000000E+00  0.57503857388E+03  0.57503857388E+03  0.00000000000E+00 0.  1.
         21   -1    0    0  504  502 -0.00000000000E+00 -0.00000000000E+00 -0.54158760509E+01  0.54158760509E+01  0.00000000000E+00 0. -1.
         21    1    1    2  503  501  0.17954277587E+02 -0.13065598570E+02  0.55107465523E+03  0.55152184145E+03  0.00000000000E+00 0.  1.
         21    1    1    2  504  503 -0.17954277587E+02  0.13065598570E+02  0.18548042593E+02  0.28932608484E+02  0.00000000000E+00 0. -1.
</event>
<event>
 4    1  0.1602044E+006  0.2656187E+02  0.7546771E-02  0.1452060E+00
         21   -1    0    0  504  501  0.00000000000E+00  0.00000000000E+00  0.21099033783E+02  0.21099033783E+02  0.00000000000E+00 0.  1.
         21   -1    0    0  503  502 -0.00000000000E+00 -0.00000000000E+00 -0.17437014588E+03  0.17437014588E+03  0.00000000000E+00 0.  1.
         21    1    1    2  503  501  0.26084914567E+02  0.50109916568E+01 -0.16450048436E+03  0.16663115603E+03  0.00000000000E+00 0.  1.
         21    1    1    2  504  502 -0.26084914567E+02 -0.50109916568E+01  0.11229372267E+02  0.28838023630E+02  0.00000000000E+00 0.  1.
</event>
<event>
 4    1  0.1602044E+006  0.4092048E+02  0.7546771E-02  0.1343175E+00
         21   -1    0    0  504  501  0.00000000000E+00  0.00000000000E+00  0.10618199352E+02  0.10618199352E+02  0.00000000000E+00 0.  1.
         21   -1    0    0  503  502 -0.00000000000E+00 -0.00000000000E+00 -0.18787187734E+03  0.18787187734E+03  0.00000000000E+00 0.  1.
         21    1    1    2  503  501 -0.24543703440E+02 -0.32742820054E+02 -0.12839926307E+03  0.13476222171E+03  0.00000000000E+00 0.  1.
         21    1    1    2  504  502  0.24543703440E+02  0.32742820054E+02 -0.48854414924E+02  0.63727854986E+02  0.00000000000E+00 0.  1.
</event>
<event>
 4    1  0.1602044E+006  0.2256931E+02  0.7546771E-02  0.1497978E+00
         21   -1    0    0  503  501  0.00000000000E+00  0.00000000000E+00  0.10033826479E+04  0.10033826479E+04  0.00000000000E+00 0.  1.
         21   -1    0    0  501  502 -0.00000000000E+00 -0.00000000000E+00 -0.53608228584E+00  0.53608228584E+00  0.00000000000E+00 0.  1.
         21    1    1    2  503  504 -0.14199400662E+02  0.17542826206E+02  0.61701028955E+03  0.61742292729E+03  0.00000000000E+00 0.  1.
         21    1    1    2  504  502  0.14199400662E+02 -0.17542826206E+02  0.38583627604E+03  0.38649580288E+03  0.00000000000E+00 0.  1.
</event>
<event>
 4    1  0.1602044E+006  0.2127269E+02  0.7546771E-02  0.1515407E+00
         21   -1    0    0  503  501  0.00000000000E+00  0.00000000000E+00  0.23759407726E+03  0.23759407726E+03  0.00000000000E+00 0.  1.
         21   -1    0    0  504  502 -0.00000000000E+00 -0.00000000000E+00 -0.65847380499E+01  0.65847380499E+01  0.00000000000E+00 0. -1.
         21    1    1    2  503  502 -0.32296317647E+01 -0.21026099609E+02  0.21843347983E+03  0.21946688246E+03  0.00000000000E+00 0.  1.
         21    1    1    2  504  501  0.32296317647E+01  0.21026099609E+02  0.12575859383E+02  0.24711932852E+02  0.00000000000E+00 0. -1.
</event>
<event>
 4    1  0.1602044E+006  0.2634934E+02  0.7546771E-02  0.1454256E+00
         21   -1    0    0  503  501  0.00000000000E+00  0.00000000000E+00  0.14646345740E+04  0.14646345740E+04  0.00000000000E+00 0. -1.
         21   -1    0    0  501  502 -0.00000000000E+00 -0.00000000000E+00 -0.13451582583E+02  0.13451582583E+02  0.00000000000E+00 0.  1.
         21    1    1    2  503  504  0.20920129376E+02  0.16019854134E+02  0.14514958199E+04  0.14517349630E+04  0.00000000000E+00 0. -1.
         21    1    1    2  504  502 -0.20920129376E+02 -0.16019854134E+02 -0.31282854468E+00  0.26351193545E+02  0.00000000000E+00 0.  1.
</event>
<event>
 4    1  0.1602044E+006  0.2215102E+02  0.7546771E-02  0.1503443E+00
         21   -1    0    0  504  501  0.00000000000E+00  0.00000000000E+00  0.20701946275E+01  0.20701946275E+01  0.00000000000E+00 0. -1.
         21   -1    0    0  503  502 -0.00000000000E+00 -0.00000000000E+00 -0.23749470856E+03  0.23749470856E+03  0.00000000000E+00 0. -1.
         21    1    1    2  503  501 -0.14376381014E+02  0.16851920849E+02 -0.11232992882E+03  0.11449314598E+03  0.00000000000E+00 0. -1.
         21    1    1    2  504  502  0.14376381014E+02 -0.16851920849E+02 -0.12309458511E+03  0.12507175721E+03  0.00000000000E+00 0. -1.
</event>
<event>
 4    1  0.1602044E+006  0.2439084E+02  0.7546771E-02  0.1475735E+00
         21   -1    0    0  503  501  0.00000000000E+00  0.00000000000E+00  0.99711521221E+02  0.99711521221E+02  0.00000000000E+00 0.  1.
         21   -1    0    0  501  502 -0.00000000000E+00 -0.00000000000E+00 -0.12416275125E+03  0.12416275125E+03  0.00000000000E+00 0.  1.
         21    1    1    2  503  504  0.24302524146E+02 -0.20737692099E+01  0.96988976756E+02  0.10000887366E+03  0.00000000000E+00 0.  1.
         21    1    1    2  504  502 -0.24302524146E+02  0.20737692099E+01 -0.12144020678E+03  0.12386539881E+03  0.00000000000E+00 0.  1.
</event>
<event>
 4    1  0.1602044E+006  0.2098769E+02  0.7546771E-02  0.1519441E+00
         21   -1    0    0  504  501  0.00000000000E+00  0.00000000000E+00  0.78134550823E+02  0.78134550823E+02  0.00000000000E+00 0.  1.
         21   -1    0    0  503  502 -0.00000000000E+00 -0.00000000000E+00 -0.16953123755E+02  0.16953123755E+02  0.00000000000E+00 0.  1.
         21    1    1    2  503  501  0.19889403495E+02  0.67003563589E+01 -0.82519236592E+01  0.22551660489E+02  0.00000000000E+00 0.  1.
         21    1    1    2  504  502 -0.19889403495E+02 -0.67003563589E+01  0.69433350727E+02  0.72536014089E+02  0.00000000000E+00 0.  1.
</event>
<event>
 4    1  0.1602044E+006  0.2404415E+02  0.7546771E-02  0.1479787E+00
         21   -1    0    0  504  501  0.00000000000E+00  0.00000000000E+00  0.11488547519E+02  0.11488547519E+02  0.00000000000E+00 0. -1.
         21   -1    0    0  501  502 -0.00000000000E+00 -0.00000000000E+00 -0.64765493989E+02  0.64765493989E+02  0.00000000000E+00 0. -1.
         21    1    1    2  503  502  0.22969257452E+02  0.71087524384E+01 -0.44643941094E+02  0.50707027378E+02  0.00000000000E+00 0. -1.
         21    1    1    2  504  503 -0.22969257452E+02 -0.71087524384E+01 -0.86330053764E+01  0.25547014130E+02  0.00000000000E+00 0. -1.
</event>
<event>
 4    1  0.1602044E+006  0.3195533E+02  0.7546771E-02  0.1403332E+00
         21   -1    0    0  503  501  0.00000000000E+00  0.00000000000E+00  0.99320774374E+02  0.99320774374E+02  0.00000000000E+00 0. -1.
         21   -1    0    0  504  502 -0.00000000000E+00 -0.00000000000E+00 -0.11987234452E+03  0.11987234452E+03  0.00000000000E+00 0.  1.
         21    1    1    2  503  502 -0.15243682127E+02  0.28085112556E+02 -0.11506703474E+03  0.11942179816E+03  0.00000000000E+00 0.  1.
         21    1    1    2  504  501  0.15243682127E+02 -0.28085112556E+02  0.94515464597E+02  0.99771320730E+02  0.00000000000E+00 0. -1.
</event>
<event>
 4    1  0.1602044E+006  0.2496499E+02  0.7546771E-02  0.1469195E+00
         21   -1    0    0  503  501  0.00000000000E+00  0.00000000000E+00  0.40759341293E+02  0.40759341293E+02  0.00000000000E+00 0. -1.
         21   -1    0    0  504  502 -0.00000000000E+00 -0.00000000000E+00 -0.15802782281E+02  0.15802782281E+02  0.00000000000E+00 0. -1.
         21    1    1    2  503  502  0.20575919283E+02  0.14137981434E+02  0.73888073192E+01  0.26035465177E+02  0.00000000000E+00 0. -1.
         21    1    1    2  504  501 -0.20575919283E+02 -0.14137981434E+02  0.17567751692E+02  0.30526658397E+02  0.00000000000E+00 0. -1.
</event>
<event>
 4    1  0.1602044E+006  0.2334436E+02  0.7546771E-02  0.1488219E+00
         21   -1    0    0  502  501  0.00000000000E+00  0.00000000000E+00  0.14424755034E+03  0.14424755034E+03  0.00000000000E+00 0. -1.
         21   -1    0    0  503  502 -0.00000000000E+00 -0.00000000000E+00 -0.66757103707E+01  0.66757103707E+01  0.00000000000E+00 0.  1.
         21    1    1    2  503  504 -0.67076335144E+01 -0.22359941020E+02  0.19068446500E+02  0.30142411345E+02  0.00000000000E+00 0.  1.
         21    1    1    2  504  501  0.67076335144E+01  0.22359941020E+02  0.11850339347E+03  0.12078084937E+03  0.00000000000E+00 0. -1.
</event>
<event>
 4    1  0.1602044E+006  0.3570670E+02  0.7546771E-02  0.1375662E+00
         21   -1    0    0  503  501  0.00000000000E+00  0.00000000000E+00  0.90019760797E+02  0.90019760797E+02  0.00000000000E+00 0. -1.
         21   -1    0    0  504  502 -0.00000000000E+00 -0.00000000000E+00 -0.33287973557E+02  0.33287973557E+02  0.00000000000E+00 0.  1.
         21    1    1    2  503  502 -0.13889350922E+02  0.32894594986E+02  0.75097931736E+02  0.83154481535E+02  0.00000000000E+00 0. -1.
         21    1    1    2  504  501  0.13889350922E+02 -0.32894594986E+02 -0.18366144496E+02  0.40153252819E+02  0.00000000000E+00 0.  1.
</event>
<event>
 4    1  0.1602044E+006  0.2083265E+02  0.7546771E-02  0.1521668E+00
         21   -1    0    0  504  501  0.00000000000E+00  0.00000000000E+00  0.52171753833E+02  0.52171753833E+02  0.00000000000E+00 0. -1.
         21   -1    0    0  503  502 -0.00000000000E+00 -0.00000000000E+00 -0.90800127599E+01  0.90800127599E+01  0.00000000000E+00 0. -1.
         21    1    1    2  503  501  0.31816208870E+01  0.20588262422E+02  0.12677631779E+02  0.24386914699E+02  0.00000000000E+00 0. -1.
         21    1    1    2  504  502 -0.31816208870E+01 -0.20588262422E+02  0.30414109294E+02  0.36864851894E+02  0.00000000000E+00 0. -1.
</event>
<event>
 4    1  0.1602044E+006  0.2512895E+02  0.7546771E-02  0.1467366E+00
         21   -1    0    0  504  501  0.00000000000E+00  0.00000000000E+00  0.12468747064E+04  0.12468747064E+04  0.00000000000E+00 0.  1.
         21   -1    0    0  503  502 -0.00000000000E+00 -0.00000000000E+00 -0.36790226151E+02  0.36790226151E+02  0.00000000000E+00 0.  1.
         21    1    1    2  503  501  0.22056035225E+02  0.12041410514E+02  0.12424418105E+04  0.12426959067E+04  0.00000000000E+00 0.  1.
         21    1    1    2  504  502 -0.22056035225E+02 -0.12041410514E+02 -0.32357330213E+02  0.40969025806E+02  0.00000000000E+00 0.  1.
</event>
<event>
 4    1  0.1602044E+006  0.2735476E+02  0.7546771E-02  0.1444077E+00
         21   -1    0    0  504  501  0.00000000000E+00  0.00000000000E+00  0.87161793173E+03  0.87161793173E+03  0.00000000000E+00 0. -1.
         21   -1    0    0  503  502 -0.00000000000E+00 -0.00000000000E+00 -0.88967266109E+00  0.88967266109E+00  0.00000000000E+00 0. -1.
         21    1    1    2  503  501 -0.21324527896E+02 -0.17133231649E+02  0.51702576169E+03  0.51774889798E+03  0.00000000000E+00 0. -1.
         21    1    1    2  504  502  0.21324527896E+02  0.17133231649E+02  0.35370249738E+03  0.35475870641E+03  0.00000000000E+00 0. -1.
</event>
<event>
 4    1  0.1602044E+006  0.2586272E+02  0.7546771E-02  0.1459379E+00
         21   -1    0    0  504  501  0.00000000000E+00  0.00000000000E+00  0.70438430796E+01  0.70438430796E+01  0.00000000000E+00 0.  1.
         21   -1    0    0  503  502 -0.00000000000E+00 -0.00000000000E+00 -0.39239119606E+03  0.39239119606E+03  0.00000000000E+00 0.  1.
         21    1    1    2  503  501  0.25720683356E+02  0.27067529001E+01 -0.18793475110E+02  0.31969904133E+02  0.00000000000E+00 0.  1.
         21    1    1    2  504  502 -0.25720683356E+02 -0.27067529001E+01 -0.36655387787E+03  0.36746513501E+03  0.00000000000E+00 0.  1.
</event>
<event>
 4    1  0.1602044E+006  0.2346685E+02  0.7546771E-02  0.1486718E+00
         21   -1    0    0  504  501  0.00000000000E+00  0.00000000000E+00  0.26756533247E+02  0.26756533247E+02  0.00000000000E+00 0. -1.
         21   -1    0    0  503  502 -0.00000000000E+00 -0.00000000000E+00 -0.21304264576E+02  0.21304264576E+02  0.00000000000E+00 0. -1.
         21    1    1    2  503  501  0.14909922050E+02 -0.18121461291E+02 -0.16996099541E+01  0.23528319295E+02  0.00000000000E+00 0. -1.
         21    1    1    2  504  502 -0.14909922050E+02  0.18121461291E+02  0.71518786247E+01  0.24532478528E+02  0.00000000000E+00 0. -1.
</event>
<event>
 4    1  0.1602044E+006  0.2807233E+02  0.7546771E-02  0.1437124E+00
         21   -1    0    0  503  501  0.00000000000E+00  0.00000000000E+00  0.54146413772E+02  0.54146413772E+02  0.00000000000E+00 0. -1.
         21   -1    0    0  501  502 -0.00000000000E+00 -0.00000000000E+00 -0.26758938044E+02  0.26758938044E+02  0.00000000000E+00 0. -1.
         21    1    1    2  503  504  0.23036895577E+01 -0.27977642007E+02  0.41013556014E+02  0.49700776802E+02  0.00000000000E+00 0. -1.
         21    1    1    2  504  502 -0.23036895577E+01  0.27977642007E+02 -0.13626080286E+02  0.31204575014E+02  0.00000000000E+00 0. -1.
</event>
<event>
 4    1  0.1602044E+006  0.2819204E+02  0.7546771E-02  0.1435988E+00
         21   -1    0    0  504  501  0.00000000000E+00  0.00000000000E+00  0.77921475953E+01  0.77921475953E+01  0.00000000000E+00 0. -1.
         21   -1    0    0  503  502 -0.00000000000E+00 -0.00000000000E+00 -0.10796544886E+03  0.10796544886E+03  0.00000000000E+00 0. -1.
         21    1    1    2  503  501 -0.27882729524E+02  0.41646458685E+01 -0.63692850669E+02  0.69653213187E+02  0.00000000000E+00 0. -1.
         21    1    1    2  504  502  0.27882729524E+02 -0.41646458685E+01 -0.36480450595E+02  0.46104383267E+02  0.00000000000E+00 0. -1.
</event>
<event>
 4    1  0.1602044E+006  0.2427387E+02  0.7546771E-02  0.1477093E+00
         21   -1    0    0  503  501  0.00000000000E+00  0.00000000000E+00  0.24445884404E+02  0.24445884404E+02  0.00000000000E+00 0.  1.
         21   -1    0    0  504  502 -0.00000000000E+00 -0.00000000000E+00 -0.35606088529E+03  0.35606088529E+03  0.00000000000E+00 0. -1.
         21    1    1    2  503  502 -0.23994042117E+02  0.36751244780E+01 -0.34950858251E+03  0.35035049571E+03  0.00000000000E+00 0. -1.
         21    1    1    2  504  501  0.23994042117E+02 -0.36751244780E+01  0.17893581626E+02  0.30156273982E+02  0.00000000000E+00 0.  1.
</event>
<event>
 4    1  0.1602044E+006  0.7197530E+02  0.7546771E-02  0.1223813E+00
         21   -1    0    0  504  501  0.00000000000E+00  0.00000000000E+00  0.53116189056E+02  0.53116189056E+02  0.00000000000E+00 0.  1.
         21   -1    0    0  501  502 -0.00000000000E+00 -0.00000000000E+00 -0.10559424736E+03  0.10559424736E+03  0.00000000000E+00 0.  1.
         21    1    1    2  503  502  0.23827590821E+01  0.71935847428E+02 -0.48168403720E+02  0.86606228430E+02  0.00000000000E+00 0.  1.
         21    1    1    2  504  503 -0.23827590821E+01 -0.71935847428E+02 -0.43096545798E+01  0.72104207981E+02  0.00000000000E+00 0.  1.
</event>
<event>
 4    1  0.1602044E+006  0.2632748E+02  0.7546771E-02  0.1454483E+00
         21   -1    0    0  504  501  0.00000000000E+00  0.00000000000E+00  0.11835897397E+03  0.11835897397E+03  0.00000000000E+00 0. -1.
         21   -1    0    0  501  502 -0.00000000000E+00 -0.00000000000E+00 -0.16934934202E+02  0.16934934202E+02  0.00000000000E+00 0.  1.
         21    1    1    2  503  502  0.24378404892E+02  0.99413079796E+01 -0.40023198613E+01  0.26629960452E+02  0.00000000000E+00 0.  1.
         21    1    1    2  504  503 -0.24378404892E+02 -0.99413079796E+01  0.10542635963E+03  0.10866394772E+03  0.00000000000E+00 0. -1.
</event>
<event>
 4    1  0.1602044E+006  0.2317995E+02  0.7546771E-02  0.1490251E+00
         21   -1    0    0  504  501  0.00000000000E+00  0.00000000000E+00  0.11267132607E+04  0.11267132607E+04  0.00000000000E+00 0.  1.
         21   -1    0    0  501  502 -0.00000000000E+00 -0.00000000000E+00 -0.87599197304E+00  0.87599197304E+00  0.00000000000E+00 0.  1.
         21    1    1    2  503  502 -0.70325635295E+01  0.22087400975E+02  0.18236427950E+03  0.18383155515E+03  0.00000000000E+00 0.  1.
         21    1    1    2  504  503  0.70325635295E+01 -0.22087400975E+02  0.94347298918E+03  0.94375769747E+03  0.00000000000E+00 0.  1.
</event>
<event>
 4    1  0.1602044E+006  0.2019313E+02  0.7546771E-02  0.1531104E+00
         21   -1    0    0  504  501  0.00000000000E+00  0.00000000000E+00  0.37192123585E+02  0.37192123585E+02  0.00000000000E+00 0. -1.
         21   -1    0    0  503  502 -0.00000000000E+00 -0.00000000000E+00 -0.26680249588E+03  0.26680249588E+03  0.00000000000E+00 0.  1.
         21    1    1    2  503  501 -0.68553117426E+01  0.18993875389E+02 -0.26364673273E+03  0.26441891438E+03  0.00000000000E+00 0.  1.
         21    1    1    2  504  502  0.68553117426E+01 -0.18993875389E+02  0.34036360436E+02  0.39575705087E+02  0.00000000000E+00 0. -1.
</event>
<event>
 4    1  0.1602044E+006  0.2084388E+02  0.7546771E-02  0.1521506E+00
         21   -1    0    0  503  501  0.00000000000E+00  0.00000000000E+00  0.27588815984E+03  0.27588815984E+03  0.00000000000E+00 0. -1.
         21   -1    0    0  504  502 -0.00000000000E+00 -0.00000000000E+00 -0.84745760030E+01  0.84745760030E+01  0.00000000000E+00 0.  1.
         21    1    1    2  503  502 -0.20149255957E+02 -0.53361781866E+01  0.54142677715E+01  0.21535589353E+02  0.00000000000E+00 0.  1.
         21    1    1    2  504  501  0.20149255957E+02  0.53361781866E+01  0.26199931606E+03  0.26282714649E+03  0.00000000000E+00 0. -1.
</event>
<event>
 4    1  0.1602044E+006  0.2558064E+02  0.7546771E-02  0.1462411E+00
         21   -1    0    0  504  501  0.00000000000E+00  0.00000000000E+00  0.88922449419E+03  0.88922449419E+03  0.00000000000E+00 0.  1.
         21   -1    0    0  503  502 -0.00000000000E+00 -0.00000000000E+00 -0.74892646568E+02  0.74892646568E+02  0.00000000000E+00 0. -1.
         21    1    1    2  503  501 -0.25556832236E+02  0.11033672132E+01 -0.72518471269E+02  0.76897969858E+02  0.00000000000E+00 0. -1.
         21    1    1    2  504  502  0.25556832236E+02 -0.11033672132E+01  0.88685031889E+03  0.88721917090E+03  0.00000000000E+00 0.  1.
</event>
<event>
 4    1  0.1602044E+006  0.2516367E+02  0.7546771E-02  0.1466981E+00
         21   -1    0    0  503  501  0.00000000000E+00  0.00000000000E+00  0.44663613460E+01  0.44663613460E+01  0.00000000000E+00 0. -1.
         21   -1    0    0  504  502 -0.00000000000E+00 -0.00000000000E+00 -0.15495738221E+03  0.15495738221E+03  0.00000000000E+00 0.  1.
         21    1    1    2  503  502  0.22506670998E+02  0.11254332042E+02 -0.51994390288E+02  0.57763542573E+02  0.00000000000E+00 0. -1.
         21    1    1    2  504  501 -0.22506670998E+02 -0.11254332042E+02 -0.98496630580E+02  0.10166020099E+03  0.00000000000E+00 0.  1.
</event>
<event>
 4    1  0.1602044E+006  0.3030118E+02  0.7546771E-02  0.1416997E+00
         21   -1    0    0  504  501  0.00000000000E+00  0.00000000000E+00  0.81022950192E+02  0.81022950192E+02  0.00000000000E+00 0.  1.
         21   -1    0    0  503  502 -0.00000000000E+00 -0.00000000000E+00 -0.14444289417E+02  0.14444289417E+02  0.00000000000E+00 0.  1.
         21    1    1    2  503  501 -0.30084447486E+02 -0.36176482907E+01  0.11132467589E+02  0.32281468280E+02  0.00000000000E+00 0.  1.
         21    1    1    2  504  502  0.30084447486E+02  0.36176482907E+01  0.55446193185E+02  0.63185771329E+02  0.00000000000E+00 0.  1.
</event>
<event>
 4    1  0.1602044E+006  0.2653288E+02  0.7546771E-02  0.1452358E+00
         21   -1    0    0  504  501  0.00000000000E+00  0.00000000000E+00  0.10259918447E+04  0.10259918447E+04  0.00000000000E+00 0.  1.
         21   -1    0    0  503  502 -0.00000000000E+00 -0.00000000000E+00 -0.14958062348E+01  0.14958062348E+01  0.00000000000E+00 0.  1.
         21    1    1    2  503  501  0.24347134199E+02  0.10545660893E+02  0.13427850919E+03  0.13687480389E+03  0.00000000000E+00 0.  1.
         21    1    1    2  504  502 -0.24347134199E+02 -0.10545660893E+02  0.89021752925E+03  0.89061284703E+03  0.00000000000E+00 0.  1.
</event>
<event>
 4    1  0.1602044E+006  0.3153094E+02  0.7546771E-02  0.1406743E+00
         21   -1    0    0  504  501  0.00000000000E+00  0.00000000000E+00  0.58432321663E+03  0.58432321663E+03  0.00000000000E+00 0.  1.
         21   -1    0    0  503  502 -0.00000000000E+00 -0.00000000000E+00 -0.26137481876E+01  0.26137481876E+01  0.00000000000E+00 0. -1.
         21    1    1    2  503  501  0.24736257449E+02 -0.19552939913E+02  0.11747564598E+03  0.12163357797E+03  0.00000000000E+00 0. -1.
         21    1    1    2  504  502 -0.24736257449E+02  0.19552939913E+02  0.46423382246E+03  0.46530338685E+03  0.00000000000E+00 0.  1.
</event>
<event>
 4    1  0.1602044E+006  0.2439616E+02  0.7546771E-02  0.1475673E+00
         21   -1    0    0  504  501  0.00000000000E+00  0.00000000000E+00  0.11154014642E+01  0.11154014642E+01  0.00000000000E+00 0. -1.
         21   -1    0    0  503  502 -0.00000000000E+00 -0.00000000000E+00 -0.69465114067E+03  0.69465114067E+03  0.00000000000E+00 0. -1.
         21    1    1    2  503  501  0.24335276517E+02  0.17224805973E+01 -0.51427713678E+03  0.51485546131E+03  0.00000000000E+00 0. -1.
         21    1    1    2  504  502 -0.24335276517E+02 -0.17224805973E+01 -0.17925860242E+03  0.18091108082E+03  0.00000000000E+00 0. -1.
</event>
<event>
 4    1  0.1602044E+006  0.2426451E+02  0.7546771E-02  0.1477202E+00
         21   -1    0    0  502  501  0.00000000000E+00  0.00000000000E+00  0.33421756282E+01  0.33421756282E+01  0.00000000000E+00 0.  1.
         21   -1    0    0  504  502 -0.00000000000E+00 -0.00000000000E+00 -0.34810783248E+03  0.34810783248E+03  0.00000000000E+00 0.  1.
         21    1    1    2  503  501  0.83760743624E+00  0.24250049309E+02 -0.48881484116E+02  0.54572575229E+02  0.00000000000E+00 0.  1.
         21    1    1    2  504  503 -0.83760743624E+00 -0.24250049309E+02 -0.29588417273E+03  0.29687743288E+03  0.00000000000E+00 0.  1.
</event>
<event>
 4    1  0.1602044E+006  0.2113664E+02  0.7546771E-02  0.1517323E+00
         21   -1    0    0  503  501  0.00000000000E+00  0.00000000000E+00  0.10631705405E+01  0.10631705405E+01  0.00000000000E+00 0.  1.
         21   -1    0    0  504  502 -0.00000000000E+00 -0.00000000000E+00 -0.49260722883E+03  0.49260722883E+03  0.00000000000E+00 0.  1.
         21    1    1    2  503  502 -0.12958534441E+02 -0.16698315689E+02 -0.15114597997E+03  0.15261672458E+03  0.00000000000E+00 0.  1.
         21    1    1    2  504  501  0.12958534441E+02  0.16698315689E+02 -0.34039807832E+03  0.34105367478E+03  0.00000000000E+00 0.  1.
</event>
<event>
 4    1  0.1602044E+006  0.2118799E+02  0.7546771E-02  0.1516598E+00
         21   -1    0    0  502  501  0.00000000000E+00  0.00000000000E+00  0.18469853180E+02  0.18469853180E+02  0.00000000000E+00 0. -1.
         21   -1    0    0  503  502 -0.00000000000E+00 -0.00000000000E+00 -0.18040369762E+03  0.18040369762E+03  0.00000000000E+00 0.  1.
         21    1    1    2  503  504  0.11086345928E+02 -0.18056131659E+02 -0.17346279610E+03  0.17475203171E+03  0.00000000000E+00 0.  1.
         21    1    1    2  504  501 -0.11086345928E+02  0.18056131659E+02  0.11528951663E+02  0.24121519085E+02  0.00000000000E+00 0. -1.
</event>
<event>
 4    1  0.1602044E+006  0.2063980E+02  0.7546771E-02  0.1524470E+00
         21   -1    0    0  504  501  0.00000000000E+00  0.00000000000E+00  0.56357897057E+01  0.56357897057E+01  0.00000000000E+00 0.  1.
         21   -1    0    0  503  502 -0.00000000000E+00 -0.00000000000E+00 -0.15115236008E+03  0.15115236008E+03  0.00000000000E+00 0.  1.
         21    1    1    2  503  501  0.20321798701E+02  0.36091506255E+01 -0.12818671102E+03  0.12983772315E+03  0.00000000000E+00 0.  1.
         21    1    1    2  504  502 -0.20321798701E+02 -0.36091506255E+01 -0.17329859359E+02  0.26950426641E+02  0.00000000000E+00 0.  1.
</event>
<event>
 4    1  0.1602044E+006  0.2289439E+02  0.7546771E-02  0.1493829E+00
         21   -1    0    0  503  501  0.00000000000E+00  0.00000000000E+00  0.50701636196E+01  0.50701636196E+01  0.00000000000E+00 0.  1.
         21   -1    0    0  504  502 -0.00000000000E+00 -0.00000000000E+00 -0.11177324852E+03  0.11177324852E+03  0.00000000000E+00 0.  1.
         21    1    1    2  503  502  0.13870035651E+02  0.18214702840E+02 -0.69360811215E+02  0.73041600618E+02  0.00000000000E+00 0.  1.
         21    1    1    2  504  501 -0.13870035651E+02 -0.18214702840E+02 -0.37342273684E+02  0.43801811519E+02  0.00000000000E+00 0.  1.
</event>
<event>
 4    1  0.1602044E+006  0.2133286E+02  0.7546771E-02  0.1514565E+00
         21   -1    0    0  504  501  0.00000000000E+00  0.00000000000E+00  0.45924912196E+02  0.45924912196E+02  0.00000000000E+00 0.  1.
         21   -1    0    0  503  502 -0.00000000000E+00 -0.00000000000E+00 -0.32449637021E+03  0.32449637021E+03  0.00000000000E+00 0.  1.
         21    1    1    2  503  501  0.20268864824E+02 -0.66531070966E+01 -0.32164646787E+03  0.32235313091E+03  0.00000000000E+00 0.  1.
         21    1    1    2  504  502 -0.20268864824E+02  0.66531070966E+01  0.43075009849E+02  0.48068151501E+02  0.00000000000E+00 0.  1.
</event>
<event>
 4    1  0.1602044E+006  0.2886484E+02  0.7546771E-02  0.1429724E+00
         21   -1    0    0  504  501  0.00000000000E+00  0.00000000000E+00  0.19281235156E+01  0.19281235156E+01  0.00000000000E+00 0. -1.
         21   -1    0    0  503  502 -0.00000000000E+00 -0.00000000000E+00 -0.43263181002E+03  0.43263181002E+03  0.00000000000E+00 0. -1.
         21    1    1    2  503  501 -0.12748525534E+02 -0.25896991099E+02 -0.20787213402E+03  0.20986663182E+03  0.00000000000E+00 0. -1.
         21    1    1    2  504  502  0.12748525534E+02  0.25896991099E+02 -0.22283155249E+03  0.22469330171E+03  0.00000000000E+00 0. -1.
</event>
<event>
 4    1  0.1602044E+006  0.3175225E+02  0.7546771E-02  0.1404957E+00
         21   -1    0    0  504  501  0.00000000000E+00  0.00000000000E+00  0.49170214912E+01  0.49170214912E+01  0.00000000000E+00 0.  1.
         21   -1    0    0  501  502 -0.00000000000E+00 -0.00000000000E+00 -0.28602963297E+03  0.28602963297E+03  0.00000000000E+00 0.  1.
         21    1    1    2  503  502  0.22377507737E+02  0.22526701734E+02 -0.21796365243E+03  0.22026429335E+03  0.00000000000E+00 0.  1.
         21    1    1    2  504  503 -0.22377507737E+02 -0.22526701734E+02 -0.63148959046E+02  0.70682361111E+02  0.00000000000E+00 0.  1.
</event>
<event>
 4    1  0.1602044E+006  0.4168889E+02  0.7546771E-02  0.1338863E+00
         21   -1    0    0  503  501  0.00000000000E+00  0.00000000000E+00  0.13534297951E+03  0.13534297951E+03  0.00000000000E+00 0.  1.
         21   -1    0    0  504  502 -0.00000000000E+00 -0.00000000000E+00 -0.19211623473E+03  0.19211623473E+03  0.00000000000E+00 0.  1.
         21    1    1    2  503  502  0.60857954643E+01  0.41242296099E+02  0.12977645304E+03  0.13630807628E+03  0.00000000000E+00 0.  1.
         21    1    1    2  504  501 -0.60857954643E+01 -0.41242296099E+02 -0.18654970826E+03  0.19115113796E+03  0.00000000000E+00 0.  1.
</event>
<event>
 4    1  0.1602044E+006  0.2839343E+02  0.7546771E-02  0.1434091E+00
         21   -1    0    0  502  501  0.00000000000E+00  0.00000000000E+00  0.36859425544E+02  0.36859425544E+02  0.00000000000E+00 0.  1.
         21   -1    0    0  504  502 -0.00000000000E+00 -0.00000000000E+00 -0.19088849631E+03  0.19088849631E+03  0.00000000000E+00 0.  1.
         21    1    1    2  503  501  0.25107215564E+02  0.13259515651E+02  0.30137192114E+02  0.41405765024E+02  0.00000000000E+00 0.  1.
         21    1    1    2  504  503 -0.25107215564E+02 -0.13259515651E+02 -0.18416626288E+03  0.18634215683E+03  0.00000000000E+00 0.  1.
</event>
<event>
 4    1  0.1602044E+006  0.2528268E+02  0.7546771E-02  0.1465666E+00
         21   -1    0    0  503  501  0.00000000000E+00  0.00000000000E+00  0.10448559672E+03  0.10448559672E+03  0.00000000000E+00 0. -1.
         21   -1    0    0  504  502 -0.00000000000E+00 -0.00000000000E+00 -0.70000906286E+01  0.70000906286E+01  0.00000000000E+00 0. -1.
         21    1    1    2  503  502 -0.20104500420E+02 -0.15330461730E+02  0.28952017265E+02  0.38437394523E+02  0.00000000000E+00 0. -1.
         21    1    1    2  504  501  0.20104500420E+02  0.15330461730E+02  0.68533488826E+02  0.73048292825E+02  0.00000000000E+00 0. -1.
</event>
<event>
 4    1  0.1602044E+006  0.3211432E+02  0.7546771E-02  0.1402071E+00
         21   -1    0    0  503  501  0.00000000000E+00  0.00000000000E+00  0.12355323064E+02  0.12355323064E+02  0.00000000000E+00 0. -1.
         21   -1    0    0  504  502 -0.00000000000E+00 -0.00000000000E+00 -0.83479019414E+02  0.83479019414E+02  0.00000000000E+00 0. -1.
         21    1    1    2  503  502  0.14223038513E+02 -0.28792963399E+02 -0.35985666912E+02  0.48231709372E+02  0.00000000000E+00 0. -1.
         21    1    1    2  504  501 -0.14223038513E+02  0.28792963399E+02 -0.35138029438E+02  0.47602633106E+02  0.00000000000E+00 0. -1.
</event>
<event>
 4    1  0.1602044E+006  0.3295206E+02  0.7546771E-02  0.1395562E+00
         21   -1    0    0  504  501  0.00000000000E+00  0.00000000000E+00  0.70949725056E+01  0.70949725056E+01  0.00000000000E+00 0. -1.
         21   -1    0    0  501  502 -0.00000000000E+00 -0.00000000000E+00 -0.35580866275E+03  0.35580866275E+03  0.00000000000E+00 0. -1.
         21    1    1    2  503  502  0.16682552948E+02 -0.28417081647E+02 -0.31133456545E+03  0.31307355325E+03  0.00000000000E+00 0. -1.
         21    1    1    2  504  503 -0.16682552948E+02  0.28417081647E+02 -0.37379124800E+02  0.49830082009E+02  0.00000000000E+00 0. -1.
</event>
<event>
 4    1  0.1602044E+006  0.2111115E+02  0.7546771E-02  0.1517684E+00
         21   -1    0    0  504  501  0.00000000000E+00  0.00000000000E+00  0.73719700476E+02  0.73719700476E+02  0.00000000000E+00 0. -1.
         21   -1    0    0  501  502 -0.00000000000E+00 -0.00000000000E+00 -0.17279340589E+02  0.17279340589E+02  0.00000000000E+00 0.  1.
         21    1    1    2  503  502  0.20608086997E+02  0.45811995336E+01 -0.84662303390E+01  0.22745498346E+02  0.00000000000E+00 0.  1.
         21    1    1    2  504  503 -0.20608086997E+02 -0.45811995336E+01  0.64906590226E+02  0.68253542718E+02  0.00000000000E+00 0. -1.
</event>
<event>
 4    1  0.1602044E+006  0.3019434E+02  0.7546771E-02  0.1417915E+00
         21   -1    0    0  503  501  0.00000000000E+00  0.00000000000E+00  0.47929671819E+01  0.47929671819E+01  0.00000000000E+00 0. -1.
         21   -1    0    0  504  502 -0.00000000000E+00 -0.00000000000E+00 -0.43623439502E+03  0.43623439502E+03  0.00000000000E+00 0.  1.
         21    1    1    2  503  502 -0.11331198211E+02  0.27987536147E+02 -0.50121021058E+02  0.58513374406E+02  0.00000000000E+00 0. -1.
         21    1    1    2  504  501  0.11331198211E+02 -0.27987536147E+02 -0.38132040678E+03  0.38251398780E+03  0.00000000000E+00 0.  1.
</event>
<event>
 4    1  0.1602044E+006  0.2425201E+02  0.7546771E-02  0.1477348E+00
         21   -1    0    0  504  501  0.00000000000E+00  0.00000000000E+00  0.22455348777E+01  0.22455348777E+01  0.00000000000E+00 0. -1.
         21   -1    0    0  503  502 -0.00000000000E+00 -0.00000000000E+00 -0.45185887141E+03  0.45185887141E+03  0.00000000000E+00 0. -1.
         21    1    1    2  503  501 -0.16175322335E+02  0.18069835946E+02 -0.77600370950E+02  0.81301768710E+02  0.00000000000E+00 0. -1.
         21    1    1    2  504  502  0.16175322335E+02 -0.18069835946E+02 -0.37201296559E+03  0.37280263758E+03  0.00000000000E+00 0. -1.
</event>
<event>
 4    1  0.1602044E+006  0.3515482E+02  0.7546771E-02  0.1379478E+00
         21   -1    0    0  504  501  0.00000000000E+00  0.00000000000E+00  0.32276769470E+03  0.32276769470E+03  0.00000000000E+00 0. -1.
         21   -1    0    0  501  502 -0.00000000000E+00 -0.00000000000E+00 -0.71543233190E+02  0.71543233190E+02  0.00000000000E+00 0.  1.
         21    1    1    2  503  502 -0.11007927829E+02 -0.33386923582E+02 -0.66194870092E+02  0.74950796979E+02  0.00000000000E+00 0.  1.
         21    1    1    2  504  503  0.11007927829E+02  0.33386923582E+02  0.31741933160E+03  0.31936013091E+03  0.00000000000E+00 0. -1.
</event>
<event>
 4    1  0.1602044E+006  0.2564127E+02  0.7546771E-02  0.1461756E+00
         21   -1    0    0  503  501  0.00000000000E+00  0.00000000000E+00  0.41613276498E+03  0.41613276498E+03  0.00000000000E+00 0. -1.
         21   -1    0    0  504  502 -0.00000000000E+00 -0.00000000000E+00 -0.26791901027E+01  0.26791901027E+01  0.00000000000E+00 0.  1.
         21    1    1    2  503  502  0.24606108925E+02  0.72120752336E+01  0.34085832498E+03  0.34182140415E+03  0.00000000000E+00 0. -1.
         21    1    1    2  504  501 -0.24606108925E+02 -0.72120752336E+01  0.72595249902E+02  0.76990550940E+02  0.00000000000E+00 0.  1.
</event>
<event>
 4    1  0.1602044E+006  0.2075092E+02  0.7546771E-02  0.1522851E+00
         21   -1    0    0  504  501  0.00000000000E+00  0.00000000000E+00  0.27241915953E+03  0.27241915953E+03  0.00000000000E+00 0. -1.
         21   -1    0    0  503  502 -0.00000000000E+00 -0.00000000000E+00 -0.76209158622E+01  0.76209158622E+01  0.00000000000E+00 0.  1.
         21    1    1    2  503  501 -0.10337778482E+01 -0.20725150359E+02  0.25705549137E+03  0.25789169470E+03  0.00000000000E+00 0. -1.
         21    1    1    2  504  502  0.10337778482E+01  0.20725150359E+02  0.77427523019E+01  0.22148380692E+02  0.00000000000E+00 0.  1.
</event>
<event>
 4    1  0.1602044E+006  0.2151267E+02  0.7546771E-02  0.1512070E+00
         21   -1    0    0  504  501  0.00000000000E+00  0.00000000000E+00  0.36141447837E+03  0.36141447837E+03  0.00000000000E+00 0.  1.
         21   -1    0    0  501  502 -0.00000000000E+00 -0.00000000000E+00 -0.15257504004E+01  0.15257504004E+01  0.00000000000E+00 0.  1.
         21    1    1    2  503  502  0.20408792283E+02 -0.68026642455E+01  0.10719002313E+03  0.10932747185E+03  0.00000000000E+00 0.  1.
         21    1    1    2  504  503 -0.20408792283E+02  0.68026642455E+01  0.25269870484E+03  0.25361275692E+03  0.00000000000E+00 0.  1.
</event>
<event>
 4    1  0.1602044E+006  0.2083577E+02  0.7546771E-02  0.1521623E+00
         21   -1    0    0  504  501  0.00000000000E+00  0.00000000000E+00  0.18900472376E+03  0.18900472376E+03  0.00000000000E+00 0.  1.
         21   -1    0    0  503  502 -0.00000000000E+00 -0.00000000000E+00 -0.30106111695E+02  0.30106111695E+02  0.00000000000E+00 0.  1.
         21    1    1    2  503  501 -0.20721750395E+02 -0.21767867990E+01  0.18474259280E+03  0.18591383740E+03  0.00000000000E+00 0.  1.
         21    1    1    2  504  502  0.20721750395E+02  0.21767867990E+01 -0.25843980734E+02  0.33196998062E+02  0.00000000000E+00 0.  1.
</event>
<event>
 4    1  0.1602044E+006  0.3316633E+02  0.7546771E-02  0.1393934E+00
         21   -1    0    0  504  501  0.00000000000E+00  0.00000000000E+00  0.37417071297E+03  0.37417071297E+03  0.00000000000E+00 0.  1.
         21   -1    0    0  503  502 -0.00000000000E+00 -0.00000000000E+00 -0.28168121915E+02  0.28168121915E+02  0.00000000000E+00 0. -1.
         21    1    1    2  503  501 -0.39452275760E+01 -0.32930842522E+02  0.36338368658E+03  0.36489410640E+03  0.00000000000E+00 0.  1.
         21    1    1    2  504  502  0.39452275760E+01  0.32930842522E+02 -0.17381095527E+02  0.37444728488E+02  0.00000000000E+00 0. -1.
</event>
<event>
 4    1  0.1602044E+006  0.3125725E+02  0.7546771E-02  0.1408977E+00
         21   -1    0    0  502  501  0.00000000000E+00  0.00000000000E+00  0.16575842442E+03  0.16575842442E+03  0.00000000000E+00 0. -1.
         21   -1    0    0  504  502 -0.00000000000E+00 -0.00000000000E+00 -0.65075030356E+01  0.65075030356E+01  0.00000000000E+00 0. -1.
         21    1    1    2  503  501  0.22800149878E+02  0.21381512595E+02  0.10606745354E+03  0.11057721562E+03  0.00000000000E+00 0. -1.
         21    1    1    2  504  503 -0.22800149878E+02 -0.21381512595E+02  0.53183467852E+02  0.61688711837E+02  0.00000000000E+00 0. -1.
</event>
<event>
 4    1  0.1602044E+006  0.2135470E+02  0.7546771E-02  0.1514260E+00
         21   -1    0    0  504  501  0.00000000000E+00  0.00000000000E+00  0.33907437135E+02  0.33907437135E+02  0.00000000000E+00 0.  1.
         21   -1    0    0  503  502 -0.00000000000E+00 -0.00000000000E+00 -0.48906229908E+02  0.48906229908E+02  0.00000000000E+00 0.  1.
         21    1    1    2  503  501  0.60922920624E+01  0.20467221621E+02 -0.42756120481E+02  0.47792353176E+02  0.00000000000E+00 0.  1.
         21    1    1    2  504  502 -0.60922920624E+01 -0.20467221621E+02  0.27757327708E+02  0.35021313867E+02  0.00000000000E+00 0.  1.
</event>
<event>
 4    1  0.1602044E+006  0.2307699E+02  0.7546771E-02  0.1491534E+00
         21   -1    0    0  503  501  0.00000000000E+00  0.00000000000E+00  0.10911104624E+03  0.10911104624E+03  0.00000000000E+00 0. -1.
         21   -1    0    0  501  502 -0.00000000000E+00 -0.00000000000E+00 -0.73857045646E+02  0.73857045646E+02  0.00000000000E+00 0.  1.
         21    1    1    2  503  504 -0.17668664117E+02 -0.14844716469E+02  0.10603656014E+03  0.10851865916E+03  0.00000000000E+00 0. -1.
         21    1    1    2  504  502  0.17668664117E+02  0.14844716469E+02 -0.70782559543E+02  0.74449432732E+02  0.00000000000E+00 0.  1.
</event>
<event>
 4    1  0.1602044E+006  0.2042132E+02  0.7546771E-02  0.1527689E+00
         21   -1    0    0  504  501  0.00000000000E+00  0.00000000000E+00  0.32955968756E+03  0.32955968756E+03  0.00000000000E+00 0. -1.
         21   -1    0    0  503  502 -0.00000000000E+00 -0.00000000000E+00 -0.95240675506E+01  0.95240675506E+01  0.00000000000E+00 0. -1.
         21    1    1    2  503  501  0.20335730576E+02  0.18677563974E+01  0.21402890864E+01  0.20533175336E+02  0.00000000000E+00 0. -1.
         21    1    1    2  504  502 -0.20335730576E+02 -0.18677563974E+01  0.31789533093E+03  0.31855057978E+03  0.00000000000E+00 0. -1.
</event>
<event>
 4    1  0.1602044E+006  0.2398912E+02  0.7546771E-02  0.1480438E+00
         21   -1    0    0  504  501  0.00000000000E+00  0.00000000000E+00  0.12057562713E+02  0.12057562713E+02  0.00000000000E+00 0.  1.
         21   -1    0    0  503  502 -0.00000000000E+00 -0.00000000000E+00 -0.82606780844E+02  0.82606780844E+02  0.00000000000E+00 0.  1.
         21    1    1    2  503  501 -0.23186125742E+02 -0.61548046089E+01 -0.66030759104E+02  0.70253392762E+02  0.00000000000E+00 0.  1.
         21    1    1    2  504  502  0.23186125742E+02  0.61548046089E+01 -0.45184590272E+01  0.24410950794E+02  0.00000000000E+00 0.  1.
</event>
<event>
 4    1  0.1602044E+006  0.2791721E+02  0.7546771E-02  0.1438606E+00
         21   -1    0    0  502  501  0.00000000000E+00  0.00000000000E+00  0.17392344231E+02  0.17392344231E+02  0.00000000000E+00 0. -1.
         21   -1    0    0  504  502 -0.00000000000E+00 -0.00000000000E+00 -0.50969588219E+02  0.50969588219E+02  0.00000000000E+00 0. -1.
         21    1    1    2  503  501  0.27907818781E+02 -0.72389818822E+00 -0.49072875835E+01  0.28345226214E+02  0.00000000000E+00 0. -1.
         21    1    1    2  504  503 -0.27907818781E+02  0.72389818822E+00 -0.28669956404E+02  0.40016706235E+02  0.00000000000E+00 0. -1.
</event>
<event>
 4    1  0.1602044E+006  0.2410477E+02  0.7546771E-02  0.1479073E+00
         21   -1    0    0  503  501  0.00000000000E+00  0.00000000000E+00  0.19191215981E+03  0.19191215981E+03  0.00000000000E+00 0. -1.
         21   -1    0    0  501  502 -0.00000000000E+00 -0.00000000000E+00 -0.30133106563E+02  0.30133106563E+02  0.00000000000E+00 0. -1.
         21    1    1    2  503  504 -0.21917951126E+02  0.10032118208E+02  0.18618702493E+03  0.18774090718E+03  0.00000000000E+00 0. -1.
         21    1    1    2  504  502  0.21917951126E+02 -0.10032118208E+02 -0.24407971687E+02  0.34304359186E+02  0.00000000000E+00 0. -1.
</event>
<event>
 4    1  0.1602044E+006  0.2065392E+02  0.7546771E-02  0.1524264E+00
         21   -1    0    0  503  501  0.00000000000E+00  0.00000000000E+00  0.60044478122E+03  0.60044478122E+03  0.00000000000E+00 0. -1.
         21   -1    0    0  501  502 -0.00000000000E+00 -0.00000000000E+00 -0.20791386776E+03  0.20791386776E+03  0.00000000000E+00 0.  1.
         21    1    1    2  503  504 -0.85551392715E+01  0.18798775751E+02  0.59975364447E+03  0.60010917210E+03  0.00000000000E+00 0. -1.
         21    1    1    2  504  502  0.85551392715E+01 -0.18798775751E+02 -0.20722273101E+03  0.20824947689E+03  0.00000000000E+00 0.  1.
</event>
<event>
 4    1  0.1602044E+006  0.2087033E+02  0.7546771E-02  0.1521124E+00
         21   -1    0    0  504  501  0.00000000000E+00  0.00000000000E+00  0.10898629555E+04  0.10898629555E+04  0.00000000000E+00 0. -1.
         21   -1    0    0  503  502 -0.00000000000E+00 -0.00000000000E+00 -0.45778628249E+00  0.45778628249E+00  0.00000000000E+00 0. -1.
         21    1    1    2  503  501  0.20598603518E+02 -0.33568020347E+01  0.35043827478E+03  0.35105919019E+03  0.00000000000E+00 0. -1.
         21    1    1    2  504  502 -0.20598603518E+02  0.33568020347E+01  0.73896689441E+03  0.73926155157E+03  0.00000000000E+00 0. -1.
</event>
<event>
 4    1  0.1602044E+006  0.5067903E+02  0.7546771E-02  0.1295255E+00
         21   -1    0    0  503  501  0.00000000000E+00  0.00000000000E+00  0.20102378449E+03  0.20102378449E+03  0.00000000000E+00 0.  1.
         21   -1    0    0  504  502 -0.00000000000E+00 -0.00000000000E+00 -0.31461305470E+02  0.31461305470E+02  0.00000000000E+00 0.  1.
         21    1    1    2  503  502  0.39942061385E+02 -0.31192877173E+02 -0.48010145396E+01  0.50905928874E+02  0.00000000000E+00 0.  1.
         21    1    1    2  504  501 -0.39942061385E+02  0.31192877173E+02  0.17436349356E+03  0.18157916108E+03  0.00000000000E+00 0.  1.
</event>
<event>
 4    1  0.1602044E+006  0.2740949E+02  0.7546771E-02  0.1443538E+00
         21   -1    0    0  503  501  0.00000000000E+00  0.00000000000E+00  0.10766349272E+01  0.10766349272E+01  0.00000000000E+00 0. -1.
         21   -1    0    0  501  502 -0.00000000000E+00 -0.00000000000E+00 -0.71774610749E+03  0.71774610749E+03  0.00000000000E+00 0. -1.
         21    1    1    2  503  504  0.15839304893E+02 -0.22369545690E+02 -0.29842575068E+03  0.29968184601E+03  0.00000000000E+00 0. -1.
         21    1    1    2  504  502 -0.15839304893E+02  0.22369545690E+02 -0.41824372188E+03  0.41914089641E+03  0.00000000000E+00 0. -1.
</event>
<event>
 4    1  0.1602044E+006  0.2331001E+02  0.7546771E-02  0.1488642E+00
         21   -1    0    0  503  501  0.00000000000E+00  0.00000000000E+00  0.16633850333E+02  0.16633850333E+02  0.00000000000E+00 0. -1.
         21   -1    0    0  504  502 -0.00000000000E+00 -0.00000000000E+00 -0.33177981786E+03  0.33177981786E+03  0.00000000000E+00 0.  1.
         21    1    1    2  503  502 -0.14461625674E+02 -0.18281625479E+02  0.78358342902E+01  0.24591802421E+02  0.00000000000E+00 0. -1.
         21    1    1    2  504  501  0.14461625674E+02  0.18281625479E+02 -0.32298180182E+03  0.32382186577E+03  0.00000000000E+00 0.  1.
</event>
<event>
 4    1  0.1602044E+006  0.2226438E+02  0.7546771E-02  0.1501948E+00
         21   -1    0    0  504  501  0.00000000000E+00  0.00000000000E+00  0.22046290350E+02  0.22046290350E+02  0.00000000000E+00 0.  1.
         21   -1    0    0  503  502 -0.00000000000E+00 -0.00000000000E+00 -0.22738575715E+02  0.22738575715E+02  0.00000000000E+00 0.  1.
         21    1    1    2  503  501 -0.92811051765E+01  0.20237683367E+02 -0.27125405915E+01  0.22429012859E+02  0.00000000000E+00 0.  1.
         21    1    1    2  504  502  0.92811051765E+01 -0.20237683367E+02  0.20202552263E+01  0.22355853206E+02  0.00000000000E+00 0.  1.
</event>
<event>
 4    1  0.1602044E+006  0.2137550E+02  0.7546771E-02  0.1513971E+00
         21   -1    0    0  502  501  0.00000000000E+00  0.00000000000E+00  0.81400170310E+01  0.81400170310E+01  0.00000000000E+00 0.  1.
         21   -1    0    0  504  502 -0.00000000000E+00 -0.00000000000E+00 -0.67292215840E+02  0.67292215840E+02  0.00000000000E+00 0.  1.
         21    1    1    2  503  501  0.41970765332E+01  0.20959400552E+02 -0.14216169021E+02  0.25671217045E+02  0.00000000000E+00 0.  1.
         21    1    1    2  504  503 -0.41970765332E+01 -0.20959400552E+02 -0.44936029788E+02  0.49761015826E+02  0.00000000000E+00 0.  1.
</event>
<event>
 4    1  0.1602044E+006  0.3806833E+02  0.7546771E-02  0.1360193E+00
         21   -1    0    0  502  501  0.00000000000E+00  0.00000000000E+00  0.13849369555E+02  0.13849369555E+02  0.00000000000E+00 0. -1.
         21   -1    0    0  503  502 -0.00000000000E+00 -0.00000000000E+00 -0.18826390493E+03  0.18826390493E+03  0.00000000000E+00 0. -1.
         21    1    1    2  503  504  0.19091828275E+02  0.32934779517E+02 -0.15455866530E+03  0.15917782077E+03  0.00000000000E+00 0. -1.
         21    1    1    2  504  501 -0.19091828275E+02 -0.32934779517E+02 -0.19855870079E+02  0.42935453711E+02  0.00000000000E+00 0. -1.
</event>
<event>
 4    1  0.1602044E+006  0.3176698E+02  0.7546771E-02  0.1404838E+00
         21   -1    0    0  504  501  0.00000000000E+00  0.00000000000E+00  0.31433521719E+03  0.31433521719E+03  0.00000000000E+00 0. -1.
         21   -1    0    0  503  502 -0.00000000000E+00 -0.00000000000E+00 -0.54139641467E+01  0.54139641467E+01  0.00000000000E+00 0.  1.
         21    1    1    2  503  501 -0.27342426381E+02  0.16171983096E+02  0.25645700503E+03  0.25841698231E+03  0.00000000000E+00 0. -1.
         21    1    1    2  504  502  0.27342426381E+02 -0.16171983096E+02  0.52464248009E+02  0.61332199021E+02  0.00000000000E+00 0.  1.
</event>
<event>
 4    1  0.1602044E+006  0.2587470E+02  0.7546771E-02  0.1459252E+00
         21   -1    0    0  503  501  0.00000000000E+00  0.00000000000E+00  0.77127867468E+02  0.77127867468E+02  0.00000000000E+00 0. -1.
         21   -1    0    0  504  502 -0.00000000000E+00 -0.00000000000E+00 -0.15200065465E+02  0.15200065465E+02  0.00000000000E+00 0. -1.
         21    1    1    2  503  502  0.25774079776E+02  0.22797154688E+01  0.61197735952E+02  0.66442931728E+02  0.00000000000E+00 0. -1.
         21    1    1    2  504  501 -0.25774079776E+02 -0.22797154688E+01  0.73006605046E+00  0.25885001205E+02  0.00000000000E+00 0. -1.
</event>
<event>
 4    1  0.1602044E+006  0.2675793E+02  0.7546771E-02  0.1450055E+00
         21   -1    0    0  502  501  0.00000000000E+00  0.00000000000E+00  0.24477467245E+02  0.24477467245E+02  0.00000000000E+00 0. -1.
         21   -1    0    0  503  502 -0.00000000000E+00 -0.00000000000E+00 -0.85439184765E+02  0.85439184765E+02  0.00000000000E+00 0. -1.
         21    1    1    2  503  504 -0.24470495331E+02 -0.10825052478E+02 -0.75049356966E+02  0.79676802671E+02  0.00000000000E+00 0. -1.
         21    1    1    2  504  501  0.24470495331E+02  0.10825052478E+02  0.14087639446E+02  0.30239849339E+02  0.00000000000E+00 0. -1.
</event>
<event>
 4    1  0.1602044E+006  0.2112202E+02  0.7546771E-02  0.1517530E+00
         21   -1    0    0  503  501  0.00000000000E+00  0.00000000000E+00  0.11455304937E+04  0.11455304937E+04  0.00000000000E+00 0.  1.
         21   -1    0    0  504  502 -0.00000000000E+00 -0.00000000000E+00 -0.13055391334E+01  0.13055391334E+01  0.00000000000E+00 0.  1.
         21    1    1    2  503  502  0.18430951764E+02  0.10316962687E+02  0.91779290618E+02  0.94178436430E+02  0.00000000000E+00 0.  1.
         21    1    1    2  504  501 -0.18430951764E+02 -0.10316962687E+02  0.10524456639E+04  0.10526575964E+04  0.00000000000E+00 0.  1.
</event>
<event>
 4    1  0.1602044E+006  0.2944310E+02  0.7546771E-02  0.1424498E+00
         21   -1    0    0  504  501  0.00000000000E+00  0.00000000000E+00  0.65195224996E+02  0.65195224996E+02  0.00000000000E+00 0. -1.
         21   -1    0    0  503  502 -0.00000000000E+00 -0.00000000000E+00 -0.16947492355E+03  0.16947492355E+03  0.00000000000E+00 0.  1.
         21    1    1    2  503  501 -0.16829406530E+02  0.24159205399E+02 -0.16477788112E+03  0.16738771232E+03  0.00000000000E+00 0.  1.
         21    1    1    2  504  502  0.16829406530E+02 -0.24159205399E+02  0.60498182570E+02  0.67282436222E+02  0.00000000000E+00 0. -1.
</event>
<event>
 4    1  0.1602044E+006  0.3590323E+02  0.7546771E-02  0.1374322E+00
         21   -1    0    0  504  501  0.00000000000E+00  0.00000000000E+00  0.98952668631E+02  0.98952668631E+02  0.00000000000E+00 0.  1.
         21   -1    0    0  503  502 -0.00000000000E+00 -0.00000000000E+00 -0.23914386771E+03  0.23914386771E+03  0.00000000000E+00 0. -1.
         21    1    1    2  503  501  0.10394426782E+02  0.34365652735E+02  0.94283924980E+02  0.10088855587E+03  0.00000000000E+00 0.  1.
         21    1    1    2  504  502 -0.10394426782E+02 -0.34365652735E+02 -0.23447512406E+03  0.23720798047E+03  0.00000000000E+00 0. -1.
</event>
<event>
 4    1  0.1602044E+006  0.2971292E+02  0.7546771E-02  0.1422108E+00
         21   -1    0    0  503  501  0.00000000000E+00  0.00000000000E+00  0.56944969491E+02  0.56944969491E+02  0.00000000000E+00 0.  1.
         21   -1    0    0  504  502 -0.00000000000E+00 -0.00000000000E+00 -0.32490280916E+02  0.32490280916E+02  0.00000000000E+00 0. -1.
         21    1    1    2  503  502 -0.14802959942E+02  0.25762959995E+02 -0.20106324328E+02  0.35876482669E+02  0.00000000000E+00 0. -1.
         21    1    1    2  504  501  0.14802959942E+02 -0.25762959995E+02  0.44561012903E+02  0.53558767738E+02  0.00000000000E+00 0.  1.
</event>
<event>
 4    1  0.1602044E+006  0.2264129E+02  0.7546771E-02  0.1497052E+00
         21   -1    0    0  504  501  0.00000000000E+00  0.00000000000E+00  0.40969811459E+02  0.40969811459E+02  0.00000000000E+00 0. -1.
         21   -1    0    0  501  502 -0.00000000000E+00 -0.00000000000E+00 -0.15943324783E+03  0.15943324783E+03  0.00000000000E+00 0. -1.
         21    1    1    2  503  502  0.21345961643E+02  0.75483847202E+01 -0.15542100553E+03  0.15706150754E+03  0.00000000000E+00 0. -1.
         21    1    1    2  504  503 -0.21345961643E+02 -0.75483847202E+01  0.36957569157E+02  0.43341551753E+02  0.00000000000E+00 0. -1.
</event>
<event>
 4    1  0.1602044E+006  0.5144648E+02  0.7546771E-02  0.1292020E+00
         21   -1    0    0  504  501  0.00000000000E+00  0.00000000000E+00  0.20736635900E+03  0.20736635900E+03  0.00000000000E+00 0.  1.
         21   -1    0    0  503  502 -0.00000000000E+00 -0.00000000000E+00 -0.57266873449E+02  0.57266873449E+02  0.00000000000E+00 0. -1.
         21    1    1    2  503  501  0.47892269280E+02  0.18790190801E+02  0.19169273189E+03  0.19847630636E+03  0.00000000000E+00 0.  1.
         21    1    1    2  504  502 -0.47892269280E+02 -0.18790190801E+02 -0.41593246345E+02  0.66156926082E+02  0.00000000000E+00 0. -1.
</event>
<event>
 4    1  0.1602044E+006  0.2178079E+02  0.7546771E-02  0.1508403E+00
         21   -1    0    0  504  501  0.00000000000E+00  0.00000000000E+00  0.17836494241E+03  0.17836494241E+03  0.00000000000E+00 0.  1.
         21   -1    0    0  503  502 -0.00000000000E+00 -0.00000000000E+00 -0.75509749559E+01  0.75509749559E+01  0.00000000000E+00 0.  1.
         21    1    1    2  503  501 -0.16860874475E+02  0.13788167461E+02  0.10590937333E+02  0.24219219715E+02  0.00000000000E+00 0.  1.
         21    1    1    2  504  502  0.16860874475E+02 -0.13788167461E+02  0.16022303012E+03  0.16169669765E+03  0.00000000000E+00 0.  1.
</event>
<event>
 4    1  0.1602044E+006  0.2142005E+02  0.7546771E-02  0.1513351E+00
         21   -1    0    0  503  501  0.00000000000E+00  0.00000000000E+00  0.11988120880E+02  0.11988120880E+02  0.00000000000E+00 0. -1.
         21   -1    0    0  504  502 -0.00000000000E+00 -0.00000000000E+00 -0.48514082469E+02  0.48514082469E+02  0.00000000000E+00 0. -1.
         21    1    1    2  503  502 -0.26853571987E+01 -0.21251061122E+02 -0.32162021576E+02  0.38642132110E+02  0.00000000000E+00 0. -1.
         21    1    1    2  504  501  0.26853571987E+01  0.21251061122E+02 -0.43639400127E+01  0.21860071238E+02  0.00000000000E+00 0. -1.
</event>
<event>
 4    1  0.1602044E+006  0.2069853E+02  0.7546771E-02  0.1523613E+00
         21   -1    0    0  504  501  0.00000000000E+00  0.00000000000E+00  0.14466892305E+02  0.14466892305E+02  0.00000000000E+00 0. -1.
         21   -1    0    0  503  502 -0.00000000000E+00 -0.00000000000E+00 -0.44027978675E+02  0.44027978675E+02  0.00000000000E+00 0. -1.
         21    1    1    2  503  501  0.10631786410E+02  0.17759337331E+02 -0.31514887289E+02  0.37704337490E+02  0.00000000000E+00 0. -1.
         21    1    1    2  504  502 -0.10631786410E+02 -0.17759337331E+02  0.19538009196E+01  0.20790533489E+02  0.00000000000E+00 0. -1.
</event>
<event>
 4    1  0.1602044E+006  0.2628314E+02  0.7546771E-02  0.1454945E+00
         21   -1    0    0  503  501  0.00000000000E+00  0.00000000000E+00  0.10416189188E+02  0.10416189188E+02  0.00000000000E+00 0. -1.
         21   -1    0    0  504  502 -0.00000000000E+00 -0.00000000000E+00 -0.32115190090E+03  0.32115190090E+03  0.00000000000E+00 0. -1.
         21    1    1    2  503  502  0.65356808214E+01  0.25457574735E+02 -0.76903829020E+01  0.27385127795E+02  0.00000000000E+00 0. -1.
         21    1    1    2  504  501 -0.65356808214E+01 -0.25457574735E+02 -0.30304532881E+03  0.30418296229E+03  0.00000000000E+00 0. -1.
</event>
<event>
 4    1  0.1602044E+006  0.2385175E+02  0.7546771E-02  0.1482071E+00
         21   -1    0    0  502  501  0.00000000000E+00  0.00000000000E+00  0.63956597316E+01  0.63956597316E+01  0.00000000000E+00 0. -1.
         21   -1    0    0  503  502 -0.00000000000E+00 -0.00000000000E+00 -0.99552200815E+02  0.99552200815E+02  0.00000000000E+00 0.  1.
         21    1    1    2  503  504  0.40849023506E+01 -0.23499351893E+02 -0.63864339318E+02  0.68173013746E+02  0.00000000000E+00 0.  1.
         21    1    1    2  504  501 -0.40849023506E+01  0.23499351893E+02 -0.29292201765E+02  0.37774846801E+02  0.00000000000E+00 0. -1.
</event>
<event>
 4    1  0.1602044E+006  0.4083032E+02  0.7546771E-02  0.1343688E+00
         21   -1    0    0  504  501  0.00000000000E+00  0.00000000000E+00  0.75089007188E+02  0.75089007188E+02  0.00000000000E+00 0.  1.
         21   -1    0    0  503  502 -0.00000000000E+00 -0.00000000000E+00 -0.24554259171E+02  0.24554259171E+02  0.00000000000E+00 0.  1.
         21    1    1    2  503  501  0.39013374930E+02 -0.12044574223E+02  0.40688304650E+02  0.57642461145E+02  0.00000000000E+00 0.  1.
         21    1    1    2  504  502 -0.39013374930E+02  0.12044574223E+02  0.98464433666E+01  0.42000805213E+02  0.00000000000E+00 0.  1.
</event>
<event>
 4    1  0.1602044E+006  0.3011315E+02  0.7546771E-02  0.1418616E+00
         21   -1    0    0  503  501  0.00000000000E+00  0.00000000000E+00  0.25441198708E+02  0.25441198708E+02  0.00000000000E+00 0.  1.
         21   -1    0    0  504  502 -0.00000000000E+00 -0.00000000000E+00 -0.36454472379E+02  0.36454472379E+02  0.00000000000E+00 0.  1.
         21    1    1    2  503  502 -0.26814414218E+02 -0.13703615745E+02 -0.88943768250E+00  0.30126284101E+02  0.00000000000E+00 0.  1.
         21    1    1    2  504  501  0.26814414218E+02  0.13703615745E+02 -0.10123835989E+02  0.31769386986E+02  0.00000000000E+00 0.  1.
</event>
<event>
 4    1  0.1602044E+006  0.2192345E+02  0.7546771E-02  0.1506478E+00
         21   -1    0    0  504  501  0.00000000000E+00  0.00000000000E+00  0.22590955491E+02  0.22590955491E+02  0.00000000000E+00 0.  1.
         21   -1    0    0  501  502 -0.00000000000E+00 -0.00000000000E+00 -0.59346282650E+02  0.59346282650E+02  0.00000000000E+00 0. -1.
         21    1    1    2  503  502  0.17881455147E+02 -0.12684284918E+02 -0.51190936176E+02  0.55687965205E+02  0.00000000000E+00 0. -1.
         21    1    1    2  504  503 -0.17881455147E+02  0.12684284918E+02  0.14435609017E+02  0.26249272937E+02  0.00000000000E+00 0.  1.
</event>
<event>
 4    1  0.1602044E+006  0.2584923E+02  0.7546771E-02  0.1459523E+00
         21   -1    0    0  502  501  0.00000000000E+00  0.00000000000E+00  0.10427861089E+01  0.10427861089E+01  0.00000000000E+00 0.  1.
         21   -1    0    0  504  502 -0.00000000000E+00 -0.00000000000E+00 -0.68101759261E+03  0.68101759261E+03  0.00000000000E+00 0.  1.
         21    1    1    2  503  501 -0.15525994207E+02 -0.20667037463E+02 -0.25707876843E+03  0.25837506867E+03  0.00000000000E+00 0.  1.
         21    1    1    2  504  503  0.15525994207E+02  0.20667037463E+02 -0.42289603808E+03  0.42368531005E+03  0.00000000000E+00 0.  1.
</event>
<event>
 4    1  0.1602044E+006  0.2013302E+02  0.7546771E-02  0.1532012E+00
         21   -1    0    0  502  501  0.00000000000E+00  0.00000000000E+00  0.54223338815E+01  0.54223338815E+01  0.00000000000E+00 0. -1.
         21   -1    0    0  504  502 -0.00000000000E+00 -0.00000000000E+00 -0.40202069592E+03  0.40202069592E+03  0.00000000000E+00 0.  1.
         21    1    1    2  503  501  0.19926592336E+02 -0.28756778619E+01 -0.14491393113E+02  0.24806029099E+02  0.00000000000E+00 0. -1.
         21    1    1    2  504  503 -0.19926592336E+02  0.28756778619E+01 -0.38210696893E+03  0.38263700070E+03  0.00000000000E+00 0.  1.
</event>
<event>
 4    1  0.1602044E+006  0.2053670E+02  0.7546771E-02  0.1525984E+00
         21   -1    0    0  504  501  0.00000000000E+00  0.00000000000E+00  0.30194660888E+03  0.30194660888E+03  0.00000000000E+00 0. -1.
         21   -1    0    0  503  502 -0.00000000000E+00 -0.00000000000E+00 -0.20007185084E+01  0.20007185084E+01  0.00000000000E+00 0. -1.
         21    1    1    2  503  501 -0.20489403832E+02  0.13929345848E+01  0.66476461853E+02  0.69576403447E+02  0.00000000000E+00 0. -1.
         21    1    1    2  504  502  0.20489403832E+02 -0.13929345848E+01  0.23346942852E+03  0.23437092394E+03  0.00000000000E+00 0. -1.
</event>
<event>
 4    1  0.1602044E+006  0.2170368E+02  0.7546771E-02  0.1509451E+00
         21   -1    0    0  503  501  0.00000000000E+00  0.00000000000E+00  0.10906704552E+03  0.10906704552E+03  0.00000000000E+00 0. -1.
         21   -1    0    0  504  502 -0.00000000000E+00 -0.00000000000E+00 -0.25881367393E+02  0.25881367393E+02  0.00000000000E+00 0. -1.
         21    1    1    2  503  502  0.16940211661E+02 -0.13567568094E+02 -0.19994778386E+02  0.29510012501E+02  0.00000000000E+00 0. -1.
         21    1    1    2  504  501 -0.16940211661E+02  0.13567568094E+02  0.10318045651E+03  0.10543840041E+03  0.00000000000E+00 0. -1.
</event>
<event>
 4    1  0.1602044E+006  0.3877212E+02  0.7546771E-02  0.1355835E+00
         21   -1    0    0  504  501  0.00000000000E+00  0.00000000000E+00  0.80961527165E+02  0.80961527165E+02  0.00000000000E+00 0.  1.
         21   -1    0    0  503  502 -0.00000000000E+00 -0.00000000000E+00 -0.29715386969E+02  0.29715386969E+02  0.00000000000E+00 0.  1.
         21    1    1    2  503  501  0.19709366079E+02  0.33388887347E+02 -0.82712490305E+01  0.39644551581E+02  0.00000000000E+00 0.  1.
         21    1    1    2  504  502 -0.19709366079E+02 -0.33388887347E+02  0.59517389226E+02  0.71032362553E+02  0.00000000000E+00 0.  1.
</event>
<event>
 4    1  0.1602044E+006  0.2910568E+02  0.7546771E-02  0.1427530E+00
         21   -1    0    0  502  501  0.00000000000E+00  0.00000000000E+00  0.16468447786E+03  0.16468447786E+03  0.00000000000E+00 0.  1.
         21   -1    0    0  504  502 -0.00000000000E+00 -0.00000000000E+00 -0.80221911274E+02  0.80221911274E+02  0.00000000000E+00 0.  1.
         21    1    1    2  503  501 -0.28332988717E+02 -0.66620068285E+01  0.16069344249E+03  0.16330806178E+03  0.00000000000E+00 0.  1.
         21    1    1    2  504  503  0.28332988717E+02  0.66620068285E+01 -0.76230875905E+02  0.81598327347E+02  0.00000000000E+00 0.  1.
</event>
<event>
 4    1  0.1602044E+006  0.2222875E+02  0.7546771E-02  0.1502417E+00
         21   -1    0    0  504  501  0.00000000000E+00  0.00000000000E+00  0.79494196368E+02  0.79494196368E+02  0.00000000000E+00 0.  1.
         21   -1    0    0  503  502 -0.00000000000E+00 -0.00000000000E+00 -0.90386496243E+01  0.90386496243E+01  0.00000000000E+00 0.  1.
         21    1    1    2  503  501 -0.20249833089E+02 -0.91685105858E+01  0.10489514057E+02  0.24579406658E+02  0.00000000000E+00 0.  1.
         21    1    1    2  504  502  0.20249833089E+02  0.91685105858E+01  0.59966032687E+02  0.63953439334E+02  0.00000000000E+00 0.  1.
</event>
<event>
 4    1  0.1602044E+006  0.2108248E+02  0.7546771E-02  0.1518090E+00
         21   -1    0    0  503  501  0.00000000000E+00  0.00000000000E+00  0.12981079567E+01  0.12981079567E+01  0.00000000000E+00 0. -1.
         21   -1    0    0  501  502 -0.00000000000E+00 -0.00000000000E+00 -0.62708900086E+03  0.62708900086E+03  0.00000000000E+00 0. -1.
         21    1    1    2  503  504 -0.15232409209E+02  0.14575475622E+02 -0.10119643146E+03  0.10336918555E+03  0.00000000000E+00 0. -1.
         21    1    1    2  504  502  0.15232409209E+02 -0.14575475622E+02 -0.52459446144E+03  0.52501792327E+03  0.00000000000E+00 0. -1.
</event>
<event>
 4    1  0.1602044E+006  0.2816747E+02  0.7546771E-02  0.1436220E+00
         21   -1    0    0  504  501  0.00000000000E+00  0.00000000000E+00  0.21370136963E+01  0.21370136963E+01  0.00000000000E+00 0. -1.
         21   -1    0    0  503  502 -0.00000000000E+00 -0.00000000000E+00 -0.40994475281E+03  0.40994475281E+03  0.00000000000E+00 0. -1.
         21    1    1    2  503  501  0.16198375083E+02  0.23043853878E+02 -0.26719037656E+03  0.26867099561E+03  0.00000000000E+00 0. -1.
         21    1    1    2  504  502 -0.16198375083E+02 -0.23043853878E+02 -0.14061736256E+03  0.14341077090E+03  0.00000000000E+00 0. -1.
</event>
<event>
 4    1  0.1602044E+006  0.2553235E+02  0.7546771E-02  0.1462935E+00
         21   -1    0    0  502  501  0.00000000000E+00  0.00000000000E+00  0.75944705729E+02  0.75944705729E+02  0.00000000000E+00 0. -1.
         21   -1    0    0  503  502 -0.00000000000E+00 -0.00000000000E+00 -0.40518532243E+03  0.40518532243E+03  0.00000000000E+00 0. -1.
         21    1    1    2  503  504  0.18977197711E+02  0.17081178470E+02 -0.40262348635E+03  0.40343224023E+03  0.00000000000E+00 0. -1.
         21    1    1    2  504  501 -0.18977197711E+02 -0.17081178470E+02  0.73382869653E+02  0.77697787931E+02  0.00000000000E+00 0. -1.
</event>
<event>
 4    1  0.1602044E+006  0.2554606E+02  0.7546771E-02  0.1462786E+00
         21   -1    0    0  504  501  0.00000000000E+00  0.00000000000E+00  0.62793832307E+01  0.62793832307E+01  0.00000000000E+00 0.  1.
         21   -1    0    0  503  502 -0.00000000000E+00 -0.00000000000E+00 -0.16543416938E+03  0.16543416938E+03  0.00000000000E+00 0.  1.
         21    1    1    2  503  501  0.24130076218E+02 -0.83869248925E+01 -0.13192813027E+03  0.13437869118E+03  0.00000000000E+00 0.  1.
         21    1    1    2  504  502 -0.24130076218E+02  0.83869248925E+01 -0.27226655879E+02  0.37334861427E+02  0.00000000000E+00 0.  1.
</event>
<event>
 4    1  0.1602044E+006  0.3842191E+02  0.7546771E-02  0.1357990E+00
         21   -1    0    0  503  501  0.00000000000E+00  0.00000000000E+00  0.10246680938E+02  0.10246680938E+02  0.00000000000E+00 0.  1.
         21   -1    0    0  504  502 -0.00000000000E+00 -0.00000000000E+00 -0.15311194434E+03  0.15311194434E+03  0.00000000000E+00 0.  1.
         21    1    1    2  503  502 -0.38229308695E+02  0.38423006626E+01 -0.91281195591E+02  0.99037871475E+02  0.00000000000E+00 0.  1.
         21    1    1    2  504  501  0.38229308695E+02 -0.38423006626E+01 -0.51584067808E+02  0.64320753800E+02  0.00000000000E+00 0.  1.
</event>
<event>
 4    1  0.1602044E+006  0.2274850E+02  0.7546771E-02  0.1495681E+00
         21   -1    0    0  502  501  0.00000000000E+00  0.00000000000E+00  0.43415647716E+03  0.43415647716E+03  0.00000000000E+00 0.  1.
         21   -1    0    0  503  502 -0.00000000000E+00 -0.00000000000E+00 -0.18493290413E+03  0.18493290413E+03  0.00000000000E+00 0. -1.
         21    1    1    2  503  504 -0.21477380206E+02  0.74977683587E+01 -0.18393373266E+03  0.18533513536E+03  0.00000000000E+00 0. -1.
         21    1    1    2  504  501  0.21477380206E+02 -0.74977683587E+01  0.43315730569E+03  0.43375424593E+03  0.00000000000E+00 0.  1.
</event>
<event>
 4    1  0.1602044E+006  0.3492209E+02  0.7546771E-02  0.1381112E+00
         21   -1    0    0  503  501  0.00000000000E+00  0.00000000000E+00  0.39886831628E+02  0.39886831628E+02  0.00000000000E+00 0.  1.
         21   -1    0    0  504  502 -0.00000000000E+00 -0.00000000000E+00 -0.68668495824E+02  0.68668495824E+02  0.00000000000E+00 0.  1.
         21    1    1    2  503  502 -0.52092627140E+01 -0.34531380855E+02  0.26035651198E+02  0.43559244887E+02  0.00000000000E+00 0.  1.
         21    1    1    2  504  501  0.52092627140E+01  0.34531380855E+02 -0.54817315394E+02  0.64996082565E+02  0.00000000000E+00 0.  1.
</event>
<event>
 4    1  0.1602044E+006  0.3433484E+02  0.7546771E-02  0.1385301E+00
         21   -1    0    0  504  501  0.00000000000E+00  0.00000000000E+00  0.56463603878E+02  0.56463603878E+02  0.00000000000E+00 0.  1.
         21   -1    0    0  503  502 -0.00000000000E+00 -0.00000000000E+00 -0.46697575193E+02  0.46697575193E+02  0.00000000000E+00 0.  1.
         21    1    1    2  503  501  0.30789066386E+02  0.15195884095E+02 -0.33470800014E+02  0.47949723210E+02  0.00000000000E+00 0.  1.
         21    1    1    2  504  502 -0.30789066386E+02 -0.15195884095E+02  0.43236828699E+02  0.55211455861E+02  0.00000000000E+00 0.  1.
</event>
<event>
 4    1  0.1602044E+006  0.2206458E+02  0.7546771E-02  0.1504591E+00
         21   -1    0    0  502  501  0.00000000000E+00  0.00000000000E+00  0.33090125380E+02  0.33090125380E+02  0.00000000000E+00 0. -1.
         21   -1    0    0  503  502 -0.00000000000E+00 -0.00000000000E+00 -0.23085635241E+02  0.23085635241E+02  0.00000000000E+00 0. -1.
         21    1    1    2  503  504 -0.50247671267E+01 -0.21484822232E+02 -0.11913311945E+02  0.25075343917E+02  0.00000000000E+00 0. -1.
         21    1    1    2  504  501  0.50247671267E+01  0.21484822232E+02  0.21917802084E+02  0.31100416705E+02  0.00000000000E+00 0. -1.
</event>
<event>
 4    1  0.1602044E+006  0.2738247E+02  0.7546771E-02  0.1443804E+00
         21   -1    0    0  503  501  0.00000000000E+00  0.00000000000E+00  0.85755338336E+02  0.85755338336E+02  0.00000000000E+00 0. -1.
         21   -1    0    0  504  502 -0.00000000000E+00 -0.00000000000E+00 -0.27826648698E+03  0.27826648698E+03  0.00000000000E+00 0. -1.
         21    1    1    2  503  502  0.17347817246E+02 -0.21186142533E+02 -0.27538416244E+03  0.27674218385E+03  0.00000000000E+00 0. -1.
         21    1    1    2  504  501 -0.17347817246E+02  0.21186142533E+02  0.82873013797E+02  0.87279641466E+02  0.00000000000E+00 0. -1.
</event>
<event>
 4    1  0.1602044E+006  0.2482767E+02  0.7546771E-02  0.1470741E+00
         21   -1    0    0  503  501  0.00000000000E+00  0.00000000000E+00  0.23609957780E+03  0.23609957780E+03  0.00000000000E+00 0.  1.
         21   -1    0    0  504  502 -0.00000000000E+00 -0.00000000000E+00 -0.26752054243E+01  0.26752054243E+01  0.00000000000E+00 0.  1.
         21    1    1    2  503  502  0.12772693262E+02  0.21290168491E+02  0.13523390465E+03  0.13749407963E+03  0.00000000000E+00 0.  1.
         21    1    1    2  504  501 -0.12772693262E+02 -0.21290168491E+02  0.98190467729E+02  0.10128070359E+03  0.00000000000E+00 0.  1.
</event>
<event>
 4    1  0.1602044E+006  0.3665606E+02  0.7546771E-02  0.1369280E+00
         21   -1    0    0  502  501  0.00000000000E+00  0.00000000000E+00  0.37281757763E+03  0.37281757763E+03  0.00000000000E+00 0.  1.
         21   -1    0    0  503  502 -0.00000000000E+00 -0.00000000000E+00 -0.97751779207E+03  0.97751779207E+03  0.00000000000E+00 0.  1.
         21    1    1    2  503  504  0.36635674888E+02 -0.12221732324E+01 -0.97627197890E+03  0.97695989845E+03  0.00000000000E+00 0.  1.
         21    1    1    2  504  501 -0.36635674888E+02  0.12221732324E+01  0.37157176447E+03  0.37337547125E+03  0.00000000000E+00 0.  1.
</event>
<event>
 4    1  0.1602044E+006  0.2574084E+02  0.7546771E-02  0.1460684E+00
         21   -1    0    0  503  501  0.00000000000E+00  0.00000000000E+00  0.97475192193E+02  0.97475192193E+02  0.00000000000E+00 0.  1.
         21   -1    0    0  504  502 -0.00000000000E+00 -0.00000000000E+00 -0.16345168358E+02  0.16345168358E+02  0.00000000000E+00 0.  1.
         21    1    1    2  503  502 -0.23984662309E+02 -0.93448849599E+01 -0.29303710462E+01  0.25907102800E+02  0.00000000000E+00 0.  1.
         21    1    1    2  504  501  0.23984662309E+02  0.93448849599E+01  0.84060394881E+02  0.87913257752E+02  0.00000000000E+00 0.  1.
</event>
<event>
 4    1  0.1602044E+006  0.2475189E+02  0.7546771E-02  0.1471598E+00
         21   -1    0    0  504  501  0.00000000000E+00  0.00000000000E+00  0.49595954994E+03  0.49595954994E+03  0.00000000000E+00 0. -1.
         21   -1    0    0  503  502 -0.00000000000E+00 -0.00000000000E+00 -0.12988853132E+01  0.12988853132E+01  0.00000000000E+00 0. -1.
         21    1    1    2  503  501 -0.12722034334E+02  0.21232186051E+02  0.30234335134E+03  0.30335483841E+03  0.00000000000E+00 0. -1.
         21    1    1    2  504  502  0.12722034334E+02 -0.21232186051E+02  0.19231731328E+03  0.19390359684E+03  0.00000000000E+00 0. -1.
</event>
<event>
 4    1  0.1602044E+006  0.2486642E+02  0.7546771E-02  0.1470303E+00
         21   -1    0    0  504  501  0.00000000000E+00  0.00000000000E+00  0.58874381997E+02  0.58874381997E+02  0.00000000000E+00 0. -1.
         21   -1    0    0  501  502 -0.00000000000E+00 -0.00000000000E+00 -0.18819267654E+02  0.18819267654E+02  0.00000000000E+00 0. -1.
         21    1    1    2  503  502 -0.17076823246E+02 -0.18075430075E+02 -0.57966283154E+01  0.25533115055E+02  0.00000000000E+00 0. -1.
         21    1    1    2  504  503  0.17076823246E+02  0.18075430075E+02  0.45851742658E+02  0.52160534596E+02  0.00000000000E+00 0. -1.
</event>
<event>
 4    1  0.1602044E+006  0.4976678E+02  0.7546771E-02  0.1299187E+00
         21   -1    0    0  503  501  0.00000000000E+00  0.00000000000E+00  0.22006861321E+02  0.22006861321E+02  0.00000000000E+00 0. -1.
         21   -1    0    0  504  502 -0.00000000000E+00 -0.00000000000E+00 -0.72947062555E+03  0.72947062555E+03  0.00000000000E+00 0. -1.
         21    1    1    2  503  502  0.14794702399E+02  0.47516832697E+02 -0.69927237862E+03  0.70104107734E+03  0.00000000000E+00 0. -1.
         21    1    1    2  504  501 -0.14794702399E+02 -0.47516832697E+02 -0.81913856084E+01  0.50436409536E+02  0.00000000000E+00 0. -1.
</event>
<event>
 4    1  0.1602044E+006  0.2849872E+02  0.7546771E-02  0.1433107E+00
         21   -1    0    0  503  501  0.00000000000E+00  0.00000000000E+00  0.70736837244E+01  0.70736837244E+01  0.00000000000E+00 0. -1.
         21   -1    0    0  504  502 -0.00000000000E+00 -0.00000000000E+00 -0.62172271638E+03  0.62172271638E+03  0.00000000000E+00 0.  1.
         21    1    1    2  503  502  0.27720082433E+01 -0.28363587666E+02 -0.23437585759E+02  0.36898476407E+02  0.00000000000E+00 0. -1.
         21    1    1    2  504  501 -0.27720082433E+01  0.28363587666E+02 -0.59121144690E+03  0.59189792370E+03  0.00000000000E+00 0.  1.
</event>
<event>
 4    1  0.1602044E+006  0.2206935E+02  0.7546771E-02  0.1504527E+00
         21   -1    0    0  503  501  0.00000000000E+00  0.00000000000E+00  0.30956559363E+03  0.30956559363E+03  0.00000000000E+00 0. -1.
         21   -1    0    0  504  502 -0.00000000000E+00 -0.00000000000E+00 -0.16232827646E+01  0.16232827646E+01  0.00000000000E+00 0. -1.
         21    1    1    2  503  502  0.12633585618E+02 -0.18095545924E+02  0.18125919590E+03  0.18259778851E+03  0.00000000000E+00 0. -1.
         21    1    1    2  504  501 -0.12633585618E+02  0.18095545924E+02  0.12668311497E+03  0.12859108789E+03  0.00000000000E+00 0. -1.
</event>
<event>
 4    1  0.1602044E+006  0.3341136E+02  0.7546771E-02  0.1392089E+00
         21   -1    0    0  502  501  0.00000000000E+00  0.00000000000E+00  0.45156555454E+03  0.45156555454E+03  0.00000000000E+00 0.  1.
         21   -1    0    0  504  502 -0.00000000000E+00 -0.00000000000E+00 -0.10314407844E+02  0.10314407844E+02  0.00000000000E+00 0.  1.
         21    1    1    2  503  501 -0.33207506704E+02 -0.36851294841E+01  0.42199739846E+03  0.42331799275E+03  0.00000000000E+00 0.  1.
         21    1    1    2  504  503  0.33207506704E+02  0.36851294841E+01  0.19253748236E+02  0.38561969632E+02  0.00000000000E+00 0.  1.
</event>
<event>
 4    1  0.1602044E+006  0.2076588E+02  0.7546771E-02  0.1522634E+00
         21   -1    0    0  503  501  0.00000000000E+00  0.00000000000E+00  0.19818039144E+03  0.19818039144E+03  0.00000000000E+00 0.  1.
         21   -1    0    0  504  502 -0.00000000000E+00 -0.00000000000E+00 -0.35961669286E+02  0.35961669286E+02  0.00000000000E+00 0. -1.
         21    1    1    2  503  502 -0.12346856138E+01  0.20729146427E+02  0.19458336648E+03  0.19568829416E+03  0.00000000000E+00 0.  1.
         21    1    1    2  504  501  0.12346856138E+01 -0.20729146427E+02 -0.32364644331E+02  0.38453766562E+02  0.00000000000E+00 0. -1.
</event>
<event>
 4    1  0.1602044E+006  0.4788366E+02  0.7546771E-02  0.1307618E+00
         21   -1    0    0  503  501  0.00000000000E+00  0.00000000000E+00  0.27079383183E+03  0.27079383183E+03  0.00000000000E+00 0.  1.
         21   -1    0    0  504  502 -0.00000000000E+00 -0.00000000000E+00 -0.33266827452E+03  0.33266827452E+03  0.00000000000E+00 0.  1.
         21    1    1    2  503  502 -0.46062658907E+02  0.13079606819E+02  0.26692923068E+03  0.27119007882E+03  0.00000000000E+00 0.  1.
         21    1    1    2  504  501  0.46062658907E+02 -0.13079606819E+02 -0.32880367337E+03  0.33227202753E+03  0.00000000000E+00 0.  1.
</event>
<event>
 4    1  0.1602044E+006  0.2040955E+02  0.7546771E-02  0.1527864E+00
         21   -1    0    0  503  501  0.00000000000E+00  0.00000000000E+00  0.50758740422E+03  0.50758740422E+03  0.00000000000E+00 0. -1.
         21   -1    0    0  504  502 -0.00000000000E+00 -0.00000000000E+00 -0.18657469757E+02  0.18657469757E+02  0.00000000000E+00 0.  1.
         21    1    1    2  503  502 -0.20052375457E+02 -0.38015997355E+01 -0.12805693497E+02  0.24094308622E+02  0.00000000000E+00 0.  1.
         21    1    1    2  504  501  0.20052375457E+02  0.38015997355E+01  0.50173562796E+03  0.50215056535E+03  0.00000000000E+00 0. -1.
</event>
<event>
 4    1  0.1602044E+006  0.2065543E+02  0.7546771E-02  0.1524242E+00
         21   -1    0    0  504  501  0.00000000000E+00  0.00000000000E+00  0.33952371986E+01  0.33952371986E+01  0.00000000000E+00 0.  1.
         21   -1    0    0  503  502 -0.00000000000E+00 -0.00000000000E+00 -0.16399801423E+03  0.16399801423E+03  0.00000000000E+00 0.  1.
         21    1    1    2  503  501 -0.88131959273E+01 -0.18680851648E+02 -0.39834336329E+02  0.44871159908E+02  0.00000000000E+00 0.  1.
         21    1    1    2  504  502  0.88131959273E+01  0.18680851648E+02 -0.12076844070E+03  0.12252209152E+03  0.00000000000E+00 0.  1.
</event>
<event>
 4    1  0.1602044E+006  0.5524196E+02  0.7546771E-02  0.1276916E+00
         21   -1    0    0  502  501  0.00000000000E+00  0.00000000000E+00  0.49398965580E+02  0.49398965580E+02  0.00000000000E+00 0.  1.
         21   -1    0    0  504  502 -0.00000000000E+00 -0.00000000000E+00 -0.91070051564E+02  0.91070051564E+02  0.00000000000E+00 0.  1.
         21    1    1    2  503  501 -0.41380168812E+02  0.36597209560E+02  0.18998274968E+02  0.58417536495E+02  0.00000000000E+00 0.  1.
         21    1    1    2  504  503  0.41380168812E+02 -0.36597209560E+02 -0.60669360951E+02  0.82051480649E+02  0.00000000000E+00 0.  1.
</event>
<event>
 4    1  0.1602044E+006  0.2246845E+02  0.7546771E-02  0.1499283E+00
         21   -1    0    0  503  501  0.00000000000E+00  0.00000000000E+00  0.76765675133E+01  0.76765675133E+01  0.00000000000E+00 0. -1.
         21   -1    0    0  504  502 -0.00000000000E+00 -0.00000000000E+00 -0.69374282854E+02  0.69374282854E+02  0.00000000000E+00 0. -1.
         21    1    1    2  503  502 -0.17137619059E+02 -0.14530424219E+02 -0.22058599901E+02  0.31486712190E+02  0.00000000000E+00 0. -1.
         21    1    1    2  504  501  0.17137619059E+02  0.14530424219E+02 -0.39639115440E+02  0.45564138177E+02  0.00000000000E+00 0. -1.
</event>
<event>
 4    1  0.1602044E+006  0.3659746E+02  0.7546771E-02  0.1369667E+00
         21   -1    0    0  503  501  0.00000000000E+00  0.00000000000E+00  0.11372968020E+02  0.11372968020E+02  0.00000000000E+00 0.  1.
         21   -1    0    0  501  502 -0.00000000000E+00 -0.00000000000E+00 -0.32172713612E+03  0.32172713612E+03  0.00000000000E+00 0.  1.
         21    1    1    2  503  504  0.33956997594E+02 -0.13649043977E+02 -0.22568302543E+02  0.42996539009E+02  0.00000000000E+00 0.  1.
         21    1    1    2  504  502 -0.33956997594E+02  0.13649043977E+02 -0.28778586556E+03  0.29010356513E+03  0.00000000000E+00 0.  1.
</event>
<event>
 4    1  0.1602044E+006  0.2133839E+02  0.7546771E-02  0.1514488E+00
         21   -1    0    0  503  501  0.00000000000E+00  0.00000000000E+00  0.40541448915E+01  0.40541448915E+01  0.00000000000E+00 0. -1.
         21   -1    0    0  501  502 -0.00000000000E+00 -0.00000000000E+00 -0.15620909930E+03  0.15620909930E+03  0.00000000000E+00 0. -1.
         21    1    1    2  503  504 -0.21246338664E+02 -0.19799128064E+01 -0.33598767467E+02  0.39802061964E+02  0.00000000000E+00 0. -1.
         21    1    1    2  504  502  0.21246338664E+02  0.19799128064E+01 -0.11855618694E+03  0.12046118222E+03  0.00000000000E+00 0. -1.
</event>
<event>
 4    1  0.1602044E+006  0.2239132E+02  0.7546771E-02  0.1500286E+00
         21   -1    0    0  502  501  0.00000000000E+00  0.00000000000E+00  0.96420332258E+03  0.96420332258E+03  0.00000000000E+00 0.  1.
         21   -1    0    0  504  502 -0.00000000000E+00 -0.00000000000E+00 -0.82591419781E+00  0.82591419781E+00  0.00000000000E+00 0.  1.
         21    1    1    2  503  501  0.27632298169E+01 -0.22220166499E+02  0.77535458589E+03  0.77567783590E+03  0.00000000000E+00 0.  1.
         21    1    1    2  504  503 -0.27632298169E+01  0.22220166499E+02  0.18802282248E+03  0.18935140087E+03  0.00000000000E+00 0.  1.
</event>
<event>
 4    1  0.1602044E+006  0.3041321E+02  0.7546771E-02  0.1416039E+00
         21   -1    0    0  503  501  0.00000000000E+00  0.00000000000E+00  0.16110491292E+03  0.16110491292E+03  0.00000000000E+00 0.  1.
         21   -1    0    0  504  502 -0.00000000000E+00 -0.00000000000E+00 -0.64879293191E+01  0.64879293191E+01  0.00000000000E+00 0.  1.
         21    1    1    2  503  502  0.30403690405E+02  0.76107657741E+00  0.10573367598E+03  0.11002078833E+03  0.00000000000E+00 0.  1.
         21    1    1    2  504  501 -0.30403690405E+02 -0.76107657741E+00  0.48883307623E+02  0.57572053914E+02  0.00000000000E+00 0.  1.
</event>
<event>
 4    1  0.1602044E+006  0.2036213E+02  0.7546771E-02  0.1528570E+00
         21   -1    0    0  503  501  0.00000000000E+00  0.00000000000E+00  0.85711013980E+01  0.85711013980E+01  0.00000000000E+00 0.  1.
         21   -1    0    0  501  502 -0.00000000000E+00 -0.00000000000E+00 -0.61574405741E+02  0.61574405741E+02  0.00000000000E+00 0.  1.
         21    1    1    2  503  504  0.20354633909E+02  0.55232156097E+00 -0.10262335079E+02  0.22802010920E+02  0.00000000000E+00 0.  1.
         21    1    1    2  504  502 -0.20354633909E+02 -0.55232156097E+00 -0.42740969263E+02  0.47343496219E+02  0.00000000000E+00 0.  1.
</event>
<event>
 4    1  0.1602044E+006  0.2279572E+02  0.7546771E-02  0.1495079E+00
         21   -1    0    0  503  501  0.00000000000E+00  0.00000000000E+00  0.18058885767E+02  0.18058885767E+02  0.00000000000E+00 0. -1.
         21   -1    0    0  501  502 -0.00000000000E+00 -0.00000000000E+00 -0.56219748383E+02  0.56219748383E+02  0.00000000000E+00 0. -1.
         21    1    1    2  503  504  0.79867304909E-01  0.22795581710E+02  0.68684642757E+01  0.23807997097E+02  0.00000000000E+00 0. -1.
         21    1    1    2  504  502 -0.79867304909E-01 -0.22795581710E+02 -0.45029326891E+02  0.50470637053E+02  0.00000000000E+00 0. -1.
</event>
<event>
 4    1  0.1602044E+006  0.2049051E+02  0.7546771E-02  0.1526665E+00
         21   -1    0    0  503  501  0.00000000000E+00  0.00000000000E+00  0.29909541196E+02  0.29909541196E+02  0.00000000000E+00 0. -1.
         21   -1    0    0  504  502 -0.00000000000E+00 -0.00000000000E+00 -0.46853596797E+02  0.46853596797E+02  0.00000000000E+00 0.  1.
         21    1    1    2  503  502 -0.94341087862E+01 -0.18189521584E+02  0.23649294031E+02  0.31291376004E+02  0.00000000000E+00 0. -1.
         21    1    1    2  504  501  0.94341087862E+01  0.18189521584E+02 -0.40593349632E+02  0.45471761989E+02  0.00000000000E+00 0.  1.
</event>
<event>
 4    1  0.1602044E+006  0.3149770E+02  0.7546771E-02  0.1407013E+00
         21   -1    0    0  504  501  0.00000000000E+00  0.00000000000E+00  0.91368078227E+02  0.91368078227E+02  0.00000000000E+00 0.  1.
         21   -1    0    0  503  502 -0.00000000000E+00 -0.00000000000E+00 -0.16133075703E+02  0.16133075703E+02  0.00000000000E+00 0.  1.
         21    1    1    2  503  501 -0.95987478092E+01 -0.29999487569E+02  0.68351926562E+02  0.75260155984E+02  0.00000000000E+00 0.  1.
         21    1    1    2  504  502  0.95987478092E+01  0.29999487569E+02  0.68830759620E+01  0.32240997947E+02  0.00000000000E+00 0.  1.
</event>
<event>
 4    1  0.1602044E+006  0.2192530E+02  0.7546771E-02  0.1506453E+00
         21   -1    0    0  504  501  0.00000000000E+00  0.00000000000E+00  0.99580111585E+02  0.99580111585E+02  0.00000000000E+00 0. -1.
         21   -1    0    0  501  502 -0.00000000000E+00 -0.00000000000E+00 -0.80341505991E+02  0.80341505991E+02  0.00000000000E+00 0.  1.
         21    1    1    2  503  502 -0.19964856713E+02 -0.90622002790E+01 -0.77596912750E+02  0.80634979046E+02  0.00000000000E+00 0.  1.
         21    1    1    2  504  503  0.19964856713E+02  0.90622002790E+01  0.96835518344E+02  0.99286638529E+02  0.00000000000E+00 0. -1.
</event>
<event>
 4    1  0.1602044E+006  0.2040256E+02  0.7546771E-02  0.1527968E+00
         21   -1    0    0  503  501  0.00000000000E+00  0.00000000000E+00  0.54946505507E+01  0.54946505507E+01  0.00000000000E+00 0.  1.
         21   -1    0    0  504  502 -0.00000000000E+00 -0.00000000000E+00 -0.77435726519E+02  0.77435726519E+02  0.00000000000E+00 0.  1.
         21    1    1    2  503  502 -0.20375178809E+02  0.10566952281E+01 -0.42073703791E+02  0.46759609354E+02  0.00000000000E+00 0.  1.
         21    1    1    2  504  501  0.20375178809E+02 -0.10566952281E+01 -0.29867372178E+02  0.36170767715E+02  0.00000000000E+00 0.  1.
</event>
<event>
 4    1  0.1602044E+006  0.2516761E+02  0.7546771E-02  0.1466937E+00
         21   -1    0    0  504  501  0.00000000000E+00  0.00000000000E+00  0.34644521195E+03  0.34644521195E+03  0.00000000000E+00 0.  1.
         21   -1    0    0  503  502 -0.00000000000E+00 -0.00000000000E+00 -0.12521186685E+02  0.12521186685E+02  0.00000000000E+00 0.  1.
         21    1    1    2  503  501  0.21285990631E+02 -0.13428142365E+02  0.33282458074E+03  0.33377478926E+03  0.00000000000E+00 0.  1.
         21    1    1    2  504  502 -0.21285990631E+02  0.13428142365E+02  0.10994445272E+01  0.25191609372E+02  0.00000000000E+00 0.  1.
</event>
<event>
 4    1  0.1602044E+006  0.2394175E+02  0.7546771E-02  0.1480999E+00
         21   -1    0    0  503  501  0.00000000000E+00  0.00000000000E+00  0.14499773402E+04  0.14499773402E+04  0.00000000000E+00 0.  1.
         21   -1    0    0  501  502 -0.00000000000E+00 -0.00000000000E+00 -0.39669374225E+00  0.39669374225E+00  0.00000000000E+00 0. -1.
         21    1    1    2  503  504 -0.46916619492E+01 -0.23477562094E+02  0.68214273770E+03  0.68256276064E+03  0.00000000000E+00 0. -1.
         21    1    1    2  504  502  0.46916619492E+01  0.23477562094E+02  0.76743790878E+03  0.76781127333E+03  0.00000000000E+00 0.  1.
</event>
<event>
 4    1  0.1602044E+006  0.2504646E+02  0.7546771E-02  0.1468284E+00
         21   -1    0    0  504  501  0.00000000000E+00  0.00000000000E+00  0.89169291826E+02  0.89169291826E+02  0.00000000000E+00 0. -1.
         21   -1    0    0  501  502 -0.00000000000E+00 -0.00000000000E+00 -0.12136886924E+02  0.12136886924E+02  0.00000000000E+00 0. -1.
         21    1    1    2  503  502  0.13807079393E+02  0.20897116681E+02  0.56757864066E+01  0.25681500702E+02  0.00000000000E+00 0. -1.
         21    1    1    2  504  503 -0.13807079393E+02 -0.20897116681E+02  0.71356618495E+02  0.75624678049E+02  0.00000000000E+00 0. -1.
</event>
<event>
 4    1  0.1602044E+006  0.2344834E+02  0.7546771E-02  0.1486944E+00
         21   -1    0    0  503  501  0.00000000000E+00  0.00000000000E+00  0.88207710426E+02  0.88207710426E+02  0.00000000000E+00 0.  1.
         21   -1    0    0  501  502 -0.00000000000E+00 -0.00000000000E+00 -0.18951313924E+02  0.18951313924E+02  0.00000000000E+00 0.  1.
         21    1    1    2  503  504  0.16860239954E+02  0.16295911588E+02  0.78520552437E+02  0.81946943694E+02  0.00000000000E+00 0.  1.
         21    1    1    2  504  502 -0.16860239954E+02 -0.16295911588E+02 -0.92641559349E+01  0.25212080655E+02  0.00000000000E+00 0.  1.
</event>
<event>
 4    1  0.1602044E+006  0.2254705E+02  0.7546771E-02  0.1498266E+00
         21   -1    0    0  503  501  0.00000000000E+00  0.00000000000E+00  0.29591065466E+02  0.29591065466E+02  0.00000000000E+00 0.  1.
         21   -1    0    0  501  502 -0.00000000000E+00 -0.00000000000E+00 -0.21543345700E+02  0.21543345700E+02  0.00000000000E+00 0. -1.
         21    1    1    2  503  504  0.20855089440E+02 -0.85693934169E+01  0.15530414985E+02  0.27378149110E+02  0.00000000000E+00 0.  1.
         21    1    1    2  504  502 -0.20855089440E+02  0.85693934169E+01 -0.74826952192E+01  0.23756262055E+02  0.00000000000E+00 0. -1.
</event>
<event>
 4    1  0.1602044E+006  0.2873006E+02  0.7546771E-02  0.1430963E+00
         21   -1    0    0  502  501  0.00000000000E+00  0.00000000000E+00  0.13580433899E+03  0.13580433899E+03  0.00000000000E+00 0.  1.
         21   -1    0    0  503  502 -0.00000000000E+00 -0.00000000000E+00 -0.83327554332E+01  0.83327554332E+01  0.00000000000E+00 0.  1.
         21    1    1    2  503  504 -0.16859515318E+02 -0.23263122757E+02  0.26246862254E+02  0.38914186557E+02  0.00000000000E+00 0.  1.
         21    1    1    2  504  501  0.16859515318E+02  0.23263122757E+02  0.10122472131E+03  0.10522290787E+03  0.00000000000E+00 0.  1.
</event>
<event>
 4    1  0.1602044E+006  0.4636710E+02  0.7546771E-02  0.1314742E+00
         21   -1    0    0  502  501  0.00000000000E+00  0.00000000000E+00  0.42113648212E+01  0.42113648212E+01  0.00000000000E+00 0. -1.
         21   -1    0    0  504  502 -0.00000000000E+00 -0.00000000000E+00 -0.54535214320E+03  0.54535214320E+03  0.00000000000E+00 0.  1.
         21    1    1    2  503  501  0.32242231553E+01  0.46254865036E+02 -0.20110721325E+03  0.20638318579E+03  0.00000000000E+00 0. -1.
         21    1    1    2  504  503 -0.32242231553E+01 -0.46254865036E+02 -0.34003356513E+03  0.34318032223E+03  0.00000000000E+00 0.  1.
</event>
<event>
 4    1  0.1602044E+006  0.2078788E+02  0.7546771E-02  0.1522315E+00
         21   -1    0    0  504  501  0.00000000000E+00  0.00000000000E+00  0.79699512308E+02  0.79699512308E+02  0.00000000000E+00 0. -1.
         21   -1    0    0  501  502 -0.00000000000E+00 -0.00000000000E+00 -0.73350756589E+01  0.73350756589E+01  0.00000000000E+00 0. -1.
         21    1    1    2  503  502 -0.89658177823E+01 -0.18754999071E+02  0.13958416281E+02  0.25039434173E+02  0.00000000000E+00 0. -1.
         21    1    1    2  504  503  0.89658177823E+01  0.18754999071E+02  0.58406020368E+02  0.61995153793E+02  0.00000000000E+00 0. -1.
</event>
<event>
 4    1  0.1602044E+006  0.2630273E+02  0.7546771E-02  0.1454741E+00
         21   -1    0    0  502  501  0.00000000000E+00  0.00000000000E+00  0.20450211028E+02  0.20450211028E+02  0.00000000000E+00 0.  1.
         21   -1    0    0  504  502 -0.00000000000E+00 -0.00000000000E+00 -0.10287519541E+04  0.10287519541E+04  0.00000000000E+00 0. -1.
         21    1    1    2  503  501  0.87438321899E+01 -0.24806837885E+02  0.11752444257E+02  0.28808917946E+02  0.00000000000E+00 0.  1.
         21    1    1    2  504  503 -0.87438321899E+01  0.24806837885E+02 -0.10200541873E+04  0.10203932472E+04  0.00000000000E+00 0. -1.
</event>
<event>
 4    1  0.1602044E+006  0.2248675E+02  0.7546771E-02  0.1499046E+00
         21   -1    0    0  504  501  0.00000000000E+00  0.00000000000E+00  0.18898691231E+03  0.18898691231E+03  0.00000000000E+00 0. -1.
         21   -1    0    0  503  502 -0.00000000000E+00 -0.00000000000E+00 -0.27343160508E+01  0.27343160508E+01  0.00000000000E+00 0. -1.
         21    1    1    2  503  501  0.95899965541E+01  0.20339267985E+02  0.10717334412E+03  0.10950698401E+03  0.00000000000E+00 0. -1.
         21    1    1    2  504  502 -0.95899965541E+01 -0.20339267985E+02  0.79079252140E+02  0.82214244356E+02  0.00000000000E+00 0. -1.
</event>
<event>
 4    1  0.1602044E+006  0.2107755E+02  0.7546771E-02  0.1518160E+00
         21   -1    0    0  503  501  0.00000000000E+00  0.00000000000E+00  0.31304667300E+03  0.31304667300E+03  0.00000000000E+00 0. -1.
         21   -1    0    0  504  502 -0.00000000000E+00 -0.00000000000E+00 -0.92971450679E+01  0.92971450679E+01  0.00000000000E+00 0. -1.
         21    1    1    2  503  502 -0.23067609195E+01 -0.20950938749E+02  0.35129438975E+01  0.21368288542E+02  0.00000000000E+00 0. -1.
         21    1    1    2  504  501  0.23067609195E+01  0.20950938749E+02  0.30023658403E+03  0.30097552953E+03  0.00000000000E+00 0. -1.
</event>
<event>
 4    1  0.1602044E+006  0.2129592E+02  0.7546771E-02  0.1515082E+00
         21   -1    0    0  503  501  0.00000000000E+00  0.00000000000E+00  0.38340321191E+03  0.38340321191E+03  0.00000000000E+00 0.  1.
         21   -1    0    0  504  502 -0.00000000000E+00 -0.00000000000E+00 -0.11884813653E+01  0.11884813653E+01  0.00000000000E+00 0.  1.
         21    1    1    2  503  502 -0.17217223188E+02 -0.12533290283E+02  0.20432061872E+03  0.20542743578E+03  0.00000000000E+00 0.  1.
         21    1    1    2  504  501  0.17217223188E+02  0.12533290283E+02  0.17789411182E+03  0.17916425749E+03  0.00000000000E+00 0.  1.
</event>
<event>
 4    1  0.1602044E+006  0.2213277E+02  0.7546771E-02  0.1503685E+00
         21   -1    0    0  504  501  0.00000000000E+00  0.00000000000E+00  0.10044322598E+04  0.10044322598E+04  0.00000000000E+00 0.  1.
         21   -1    0    0  503  502 -0.00000000000E+00 -0.00000000000E+00 -0.61407774706E+00  0.61407774706E+00  0.00000000000E+00 0.  1.
         21    1    1    2  503  501 -0.90765401409E+01 -0.20186035301E+02  0.72988195455E+03  0.73021745199E+03  0.00000000000E+00 0.  1.
         21    1    1    2  504  502  0.90765401409E+01  0.20186035301E+02  0.27393622748E+03  0.27482888555E+03  0.00000000000E+00 0.  1.
</event>
<event>
 4    1  0.1602044E+006  0.3476620E+02  0.7546771E-02  0.1382214E+00
         21   -1    0    0  503  501  0.00000000000E+00  0.00000000000E+00  0.11352674519E+03  0.11352674519E+03  0.00000000000E+00 0.  1.
         21   -1    0    0  504  502 -0.00000000000E+00 -0.00000000000E+00 -0.11178475856E+02  0.11178475856E+02  0.00000000000E+00 0.  1.
         21    1    1    2  503  502  0.34763676115E+02  0.41898867047E+00  0.37574884815E+02  0.51191412340E+02  0.00000000000E+00 0.  1.
         21    1    1    2  504  501 -0.34763676115E+02 -0.41898867047E+00  0.64773384521E+02  0.73513808708E+02  0.00000000000E+00 0.  1.
</event>
<event>
 4    1  0.1602044E+006  0.2123990E+02  0.7546771E-02  0.1515867E+00
         21   -1    0    0  502  501  0.00000000000E+00  0.00000000000E+00  0.13956007301E+03  0.13956007301E+03  0.00000000000E+00 0.  1.
         21   -1    0    0  503  502 -0.00000000000E+00 -0.00000000000E+00 -0.34477125740E+03  0.34477125740E+03  0.00000000000E+00 0. -1.
         21    1    1    2  503  504 -0.19355374443E+02  0.87465958433E+01 -0.34363332374E+03  0.34428911491E+03  0.00000000000E+00 0. -1.
         21    1    1    2  504  501  0.19355374443E+02 -0.87465958433E+01  0.13842213935E+03  0.14004221550E+03  0.00000000000E+00 0.  1.
</event>
<event>
 4    1  0.1602044E+006  0.2078255E+02  0.7546771E-02  0.1522392E+00
         21   -1    0    0  502  501  0.00000000000E+00  0.00000000000E+00  0.16116292706E+02  0.16116292706E+02  0.00000000000E+00 0. -1.
         21   -1    0    0  503  502 -0.00000000000E+00 -0.00000000000E+00 -0.12764524997E+03  0.12764524997E+03  0.00000000000E+00 0.  1.
         21    1    1    2  503  504  0.19334064450E+02  0.76228693718E+01 -0.11965529710E+03  0.12144671387E+03  0.00000000000E+00 0.  1.
         21    1    1    2  504  501 -0.19334064450E+02 -0.76228693718E+01  0.81263398347E+01  0.22314828808E+02  0.00000000000E+00 0. -1.
</event>
<event>
 4    1  0.1602044E+006  0.2097773E+02  0.7546771E-02  0.1519583E+00
         21   -1    0    0  504  501  0.00000000000E+00  0.00000000000E+00  0.10333696626E+01  0.10333696626E+01  0.00000000000E+00 0. -1.
         21   -1    0    0  501  502 -0.00000000000E+00 -0.00000000000E+00 -0.58716697407E+03  0.58716697407E+03  0.00000000000E+00 0. -1.
         21    1    1    2  503  502 -0.20511503129E+02 -0.43980995532E+01 -0.44721858413E+03  0.44771031597E+03  0.00000000000E+00 0. -1.
         21    1    1    2  504  503  0.20511503129E+02  0.43980995532E+01 -0.13891502028E+03  0.14049002776E+03  0.00000000000E+00 0. -1.
</event>
<event>
 4    1  0.1602044E+006  0.2290657E+02  0.7546771E-02  0.1493675E+00
         21   -1    0    0  504  501  0.00000000000E+00  0.00000000000E+00  0.23372563627E+01  0.23372563627E+01  0.00000000000E+00 0. -1.
         21   -1    0    0  503  502 -0.00000000000E+00 -0.00000000000E+00 -0.28206983182E+03  0.28206983182E+03  0.00000000000E+00 0. -1.
         21    1    1    2  503  501  0.22889486548E+02 -0.88444746464E+00 -0.75621963700E+02  0.79015139281E+02  0.00000000000E+00 0. -1.
         21    1    1    2  504  502 -0.22889486548E+02  0.88444746464E+00 -0.20411061176E+03  0.20539194890E+03  0.00000000000E+00 0. -1.
</event>
<event>
 4    1  0.1602044E+006  0.5549187E+02  0.7546771E-02  0.1275970E+00
         21   -1    0    0  504  501  0.00000000000E+00  0.00000000000E+00  0.83365393330E+03  0.83365393330E+03  0.00000000000E+00 0. -1.
         21   -1    0    0  503  502 -0.00000000000E+00 -0.00000000000E+00 -0.38719447898E+01  0.38719447898E+01  0.00000000000E+00 0.  1.
         21    1    1    2  503  501  0.58397065723E+01  0.55183743853E+02  0.32506649281E+03  0.32976896838E+03  0.00000000000E+00 0.  1.
         21    1    1    2  504  502 -0.58397065723E+01 -0.55183743853E+02  0.50471549570E+03  0.50775690971E+03  0.00000000000E+00 0. -1.
</event>
<event>
 4    1  0.1602044E+006  0.3322661E+02  0.7546771E-02  0.1393478E+00
         21   -1    0    0  502  501  0.00000000000E+00  0.00000000000E+00  0.60220028106E+01  0.60220028106E+01  0.00000000000E+00 0.  1.
         21   -1    0    0  504  502 -0.00000000000E+00 -0.00000000000E+00 -0.21735991781E+03  0.21735991781E+03  0.00000000000E+00 0.  1.
         21    1    1    2  503  501  0.28926639786E+02  0.16348005266E+02 -0.61474774213E+02  0.69879579492E+02  0.00000000000E+00 0.  1.
         21    1    1    2  504  503 -0.28926639786E+02 -0.16348005266E+02 -0.14986314079E+03  0.15350234113E+03  0.00000000000E+00 0.  1.
</event>
<event>
 4    1  0.1602044E+006  0.2229926E+02  0.7546771E-02  0.1501490E+00
         21   -1    0    0  504  501  0.00000000000E+00  0.00000000000E+00  0.69690601835E+02  0.69690601835E+02  0.00000000000E+00 0.  1.
         21   -1    0    0  503  502 -0.00000000000E+00 -0.00000000000E+00 -0.15232579374E+02  0.15232579374E+02  0.00000000000E+00 0.  1.
         21    1    1    2  503  501  0.22033207799E+02 -0.34343226212E+01 -0.37296099299E+01  0.22608998385E+02  0.00000000000E+00 0.  1.
         21    1    1    2  504  502 -0.22033207799E+02  0.34343226212E+01  0.58187632391E+02  0.62314182824E+02  0.00000000000E+00 0.  1.
</event>
<event>
 4    1  0.1602044E+006  0.3118116E+02  0.7546771E-02  0.1409602E+00
         21   -1    0    0  504  501  0.00000000000E+00  0.00000000000E+00  0.54878391364E+01  0.54878391364E+01  0.00000000000E+00 0.  1.
         21   -1    0    0  503  502 -0.00000000000E+00 -0.00000000000E+00 -0.17723139787E+03  0.17723139787E+03  0.00000000000E+00 0.  1.
         21    1    1    2  503  501  0.92513613442E+01 -0.29777120466E+02 -0.87611800840E+02  0.92995119422E+02  0.00000000000E+00 0.  1.
         21    1    1    2  504  502 -0.92513613442E+01  0.29777120466E+02 -0.84131757891E+02  0.89724117581E+02  0.00000000000E+00 0.  1.
</event>
<event>
 4    1  0.1602044E+006  0.2354330E+02  0.7546771E-02  0.1485786E+00
         21   -1    0    0  504  501  0.00000000000E+00  0.00000000000E+00  0.79692252884E+02  0.79692252884E+02  0.00000000000E+00 0. -1.
         21   -1    0    0  503  502 -0.00000000000E+00 -0.00000000000E+00 -0.16424423879E+03  0.16424423879E+03  0.00000000000E+00 0. -1.
         21    1    1    2  503  501 -0.23487214166E+02  0.16240621806E+01 -0.16163377494E+03  0.16333941352E+03  0.00000000000E+00 0. -1.
         21    1    1    2  504  502  0.23487214166E+02 -0.16240621806E+01  0.77081789032E+02  0.80597078158E+02  0.00000000000E+00 0. -1.
</event>
<event>
 4    1  0.1602044E+006  0.2497184E+02  0.7546771E-02  0.1469119E+00
         21   -1    0    0  504  501  0.00000000000E+00  0.00000000000E+00  0.20436756570E+02  0.20436756570E+02  0.00000000000E+00 0. -1.
         21   -1    0    0  503  502 -0.00000000000E+00 -0.00000000000E+00 -0.37504258902E+02  0.37504258902E+02  0.00000000000E+00 0. -1.
         21    1    1    2  503  501 -0.10499642778E+02  0.22657229824E+02 -0.21041659140E+02  0.32654922770E+02  0.00000000000E+00 0. -1.
         21    1    1    2  504  502  0.10499642778E+02 -0.22657229824E+02  0.39741568085E+01  0.25286092701E+02  0.00000000000E+00 0. -1.
</event>
<event>
 4    1  0.1602044E+006  0.2085767E+02  0.7546771E-02  0.1521307E+00
         21   -1    0    0  503  501  0.00000000000E+00  0.00000000000E+00  0.60510405044E+01  0.60510405044E+01  0.00000000000E+00 0. -1.
         21   -1    0    0  504  502 -0.00000000000E+00 -0.00000000000E+00 -0.72995235409E+02  0.72995235409E+02  0.00000000000E+00 0. -1.
         21    1    1    2  503  502  0.10954899712E+02 -0.17749160011E+02 -0.38323314147E+02  0.43631627473E+02  0.00000000000E+00 0. -1.
         21    1    1    2  504  501 -0.10954899712E+02  0.17749160011E+02 -0.28620880757E+02  0.35414648440E+02  0.00000000000E+00 0. -1.
</event>
<event>
 4    1  0.1602044E+006  0.5570698E+02  0.7546771E-02  0.1275160E+00
         21   -1    0    0  503  501  0.00000000000E+00  0.00000000000E+00  0.56855529936E+01  0.56855529936E+01  0.00000000000E+00 0.  1.
         21   -1    0    0  504  502 -0.00000000000E+00 -0.00000000000E+00 -0.54734854322E+03  0.54734854322E+03  0.00000000000E+00 0.  1.
         21    1    1    2  503  502 -0.32715321448E+02  0.45088532200E+02 -0.25620159216E+03  0.26218795513E+03  0.00000000000E+00 0.  1.
         21    1    1    2  504  501  0.32715321448E+02 -0.45088532200E+02 -0.28546139807E+03  0.29084614108E+03  0.00000000000E+00 0.  1.
</event>
<event>
 4    1  0.1602044E+006  0.3447842E+02  0.7546771E-02  0.1384268E+00
         21   -1    0    0  504  501  0.00000000000E+00  0.00000000000E+00  0.26750021845E+03  0.26750021845E+03  0.00000000000E+00 0. -1.
         21   -1    0    0  503  502 -0.00000000000E+00 -0.00000000000E+00 -0.97003753871E+02  0.97003753871E+02  0.00000000000E+00 0. -1.
         21    1    1    2  503  501  0.33622831083E+02 -0.76332467020E+01  0.26327658789E+03  0.26552461837E+03  0.00000000000E+00 0. -1.
         21    1    1    2  504  502 -0.33622831083E+02  0.76332467020E+01 -0.92780123319E+02  0.98979353950E+02  0.00000000000E+00 0. -1.
</event>
<event>
 4    1  0.1602044E+006  0.2139435E+02  0.7546771E-02  0.1513708E+00
         21   -1    0    0  502  501  0.00000000000E+00  0.00000000000E+00  0.99992598118E+01  0.99992598118E+01  0.00000000000E+00 0.  1.
         21   -1    0    0  504  502 -0.00000000000E+00 -0.00000000000E+00 -0.54317167060E+02  0.54317167060E+02  0.00000000000E+00 0. -1.
         21    1    1    2  503  501 -0.21108192607E+02  0.34874487431E+01 -0.94062471223E+01  0.23370827516E+02  0.00000000000E+00 0.  1.
         21    1    1    2  504  503  0.21108192607E+02 -0.34874487431E+01 -0.34911660126E+02  0.40945599356E+02  0.00000000000E+00 0. -1.
</event>
<event>
 4    1  0.1602044E+006  0.2048796E+02  0.7546771E-02  0.1526702E+00
         21   -1    0    0  504  501  0.00000000000E+00  0.00000000000E+00  0.34819916678E+03  0.34819916678E+03  0.00000000000E+00 0. -1.
         21   -1    0    0  503  502 -0.00000000000E+00 -0.00000000000E+00 -0.53092206819E+02  0.53092206819E+02  0.00000000000E+00 0.  1.
         21    1    1    2  503  501 -0.81402331569E+01  0.18801415463E+02 -0.50801205156E+02  0.54776993935E+02  0.00000000000E+00 0.  1.
         21    1    1    2  504  502  0.81402331569E+01 -0.18801415463E+02  0.34590816512E+03  0.34651437967E+03  0.00000000000E+00 0. -1.
</event>
<event>
 4    1  0.1602044E+006  0.4839443E+02  0.7546771E-02  0.1305288E+00
         21   -1    0    0  503  501  0.00000000000E+00  0.00000000000E+00  0.44005454675E+03  0.44005454675E+03  0.00000000000E+00 0.  1.
         21   -1    0    0  504  502 -0.00000000000E+00 -0.00000000000E+00 -0.55873753031E+01  0.55873753031E+01  0.00000000000E+00 0.  1.
         21    1    1    2  503  502  0.32988359215E+02  0.35408879119E+02  0.26578354661E+03  0.27015350121E+03  0.00000000000E+00 0.  1.
         21    1    1    2  504  501 -0.32988359215E+02 -0.35408879119E+02  0.16868362484E+03  0.17548842085E+03  0.00000000000E+00 0.  1.
</event>
<event>
 4    1  0.1602044E+006  0.2389551E+02  0.7546771E-02  0.1481549E+00
         21   -1    0    0  504  501  0.00000000000E+00  0.00000000000E+00  0.75870036716E+02  0.75870036716E+02  0.00000000000E+00 0. -1.
         21   -1    0    0  503  502 -0.00000000000E+00 -0.00000000000E+00 -0.21748044548E+02  0.21748044548E+02  0.00000000000E+00 0. -1.
         21    1    1    2  503  501  0.13794895152E+02 -0.19511440068E+02 -0.12409417673E+02  0.26925621121E+02  0.00000000000E+00 0. -1.
         21    1    1    2  504  502 -0.13794895152E+02  0.19511440068E+02  0.66531409840E+02  0.70692460143E+02  0.00000000000E+00 0. -1.
</event>
<event>
 4    1  0.1602044E+006  0.2491356E+02  0.7546771E-02  0.1469773E+00
         21   -1    0    0  504  501  0.00000000000E+00  0.00000000000E+00  0.65065226836E+02  0.65065226836E+02  0.00000000000E+00 0. -1.
         21   -1    0    0  503  502 -0.00000000000E+00 -0.00000000000E+00 -0.54632724845E+02  0.54632724845E+02  0.00000000000E+00 0.  1.
         21    1    1    2  503  501  0.52854405657E+01  0.24346450298E+02 -0.49157119012E+02  0.55109961656E+02  0.00000000000E+00 0.  1.
         21    1    1    2  504  502 -0.52854405657E+01 -0.24346450298E+02  0.59589621004E+02  0.64587990025E+02  0.00000000000E+00 0. -1.
</event>
<event>
 4    1  0.1602044E+006  0.2389131E+02  0.7546771E-02  0.1481599E+00
         21   -1    0    0  503  501  0.00000000000E+00  0.00000000000E+00  0.16267131847E+03  0.16267131847E+03  0.00000000000E+00 0. -1.
         21   -1    0    0  504  502 -0.00000000000E+00 -0.00000000000E+00 -0.77478455047E+01  0.77478455047E+01  0.00000000000E+00 0.  1.
         21    1    1    2  503  502  0.23035708396E+02 -0.63364858844E+01  0.14048888436E+03  0.14250586494E+03  0.00000000000E+00 0. -1.
         21    1    1    2  504  501 -0.23035708396E+02  0.63364858844E+01  0.14434588609E+02  0.27913299035E+02  0.00000000000E+00 0.  1.
</event>
<event>
 4    1  0.1602044E+006  0.2963887E+02  0.7546771E-02  0.1422761E+00
         21   -1    0    0  504  501  0.00000000000E+00  0.00000000000E+00  0.45972865191E+03  0.45972865191E+03  0.00000000000E+00 0. -1.
         21   -1    0    0  503  502 -0.00000000000E+00 -0.00000000000E+00 -0.51241684645E+02  0.51241684645E+02  0.00000000000E+00 0.  1.
         21    1    1    2  503  501  0.29511636375E+02 -0.27433552599E+01  0.45491980858E+03  0.45588429992E+03  0.00000000000E+00 0. -1.
         21    1    1    2  504  502 -0.29511636375E+02  0.27433552599E+01 -0.46432841312E+02  0.55086036633E+02  0.00000000000E+00 0.  1.
</event>
<event>
 4    1  0.1602044E+006  0.2560819E+02  0.7546771E-02  0.1462113E+00
         21   -1    0    0  503  501  0.00000000000E+00  0.00000000000E+00  0.75301539579E+02  0.75301539579E+02  0.00000000000E+00 0. -1.
         21   -1    0    0  504  502 -0.00000000000E+00 -0.00000000000E+00 -0.61793106564E+02  0.61793106564E+02  0.00000000000E+00 0. -1.
         21    1    1    2  503  502  0.24800869625E+02 -0.63793805654E+01  0.70287881325E+02  0.74807525636E+02  0.00000000000E+00 0. -1.
         21    1    1    2  504  501 -0.24800869625E+02  0.63793805654E+01 -0.56779448311E+02  0.62287120507E+02  0.00000000000E+00 0. -1.
</event>
<event>
 4    1  0.1602044E+006  0.7716598E+02  0.7546771E-02  0.1210584E+00
         21   -1    0    0  502  501  0.00000000000E+00  0.00000000000E+00  0.43936413480E+02  0.43936413480E+02  0.00000000000E+00 0. -1.
         21   -1    0    0  503  502 -0.00000000000E+00 -0.00000000000E+00 -0.13552771836E+03  0.13552771836E+03  0.00000000000E+00 0. -1.
         21    1    1    2  503  504  0.68375142660E+02  0.35769090258E+02 -0.45658455844E+02  0.89662046272E+02  0.00000000000E+00 0. -1.
         21    1    1    2  504  501 -0.68375142660E+02 -0.35769090258E+02 -0.45932849034E+02  0.89802085566E+02  0.00000000000E+00 0. -1.
</event>
<event>
 4    1  0.1602044E+006  0.3216679E+02  0.7546771E-02  0.1401656E+00
         21   -1    0    0  504  501  0.00000000000E+00  0.00000000000E+00  0.25096706688E+03  0.25096706688E+03  0.00000000000E+00 0. -1.
         21   -1    0    0  501  502 -0.00000000000E+00 -0.00000000000E+00 -0.29123836336E+02  0.29123836336E+02  0.00000000000E+00 0. -1.
         21    1    1    2  503  502  0.19876315565E+02 -0.25290998435E+02 -0.18833111266E+02  0.37274503380E+02  0.00000000000E+00 0. -1.
         21    1    1    2  504  503 -0.19876315565E+02  0.25290998435E+02  0.24067634181E+03  0.24281639984E+03  0.00000000000E+00 0. -1.
</event>
<event>
 4    1  0.1602044E+006  0.2128814E+02  0.7546771E-02  0.1515190E+00
         21   -1    0    0  503  501  0.00000000000E+00  0.00000000000E+00  0.15206667928E+02  0.15206667928E+02  0.00000000000E+00 0. -1.
         21   -1    0    0  504  502 -0.00000000000E+00 -0.00000000000E+00 -0.36450007304E+02  0.36450007304E+02  0.00000000000E+00 0. -1.
         21    1    1    2  503  502  0.20898423812E+02 -0.40547308913E+01 -0.21652350504E+02  0.30364605099E+02  0.00000000000E+00 0. -1.
         21    1    1    2  504  501 -0.20898423812E+02  0.40547308913E+01  0.40901112807E+00  0.21292070133E+02  0.00000000000E+00 0. -1.
</event>
<event>
 4    1  0.1602044E+006  0.2685168E+02  0.7546771E-02  0.1449104E+00
         21   -1    0    0  504  501  0.00000000000E+00  0.00000000000E+00  0.38781707806E+03  0.38781707806E+03  0.00000000000E+00 0.  1.
         21   -1    0    0  503  502 -0.00000000000E+00 -0.00000000000E+00 -0.30711914143E+02  0.30711914143E+02  0.00000000000E+00 0.  1.
         21    1    1    2  503  501  0.26710705095E+02  0.27479292696E+01 -0.24279089129E+02  0.36200649868E+02  0.00000000000E+00 0.  1.
         21    1    1    2  504  502 -0.26710705095E+02 -0.27479292696E+01  0.38138425304E+03  0.38232834233E+03  0.00000000000E+00 0.  1.
</event>
<event>
 4    1  0.1602044E+006  0.2214686E+02  0.7546771E-02  0.1503498E+00
         21   -1    0    0  503  501  0.00000000000E+00  0.00000000000E+00  0.65846583390E+03  0.65846583390E+03  0.00000000000E+00 0.  1.
         21   -1    0    0  504  502 -0.00000000000E+00 -0.00000000000E+00 -0.11687718601E+02  0.11687718601E+02  0.00000000000E+00 0.  1.
         21    1    1    2  503  502 -0.14360126158E+02  0.16860312684E+02 -0.83429410921E+00  0.22162567851E+02  0.00000000000E+00 0.  1.
         21    1    1    2  504  501  0.14360126158E+02 -0.16860312684E+02  0.64761240941E+03  0.64799098465E+03  0.00000000000E+00 0.  1.
</event>
<event>
 4    1  0.1602044E+006  0.2392030E+02  0.7546771E-02  0.1481254E+00
         21   -1    0    0  503  501  0.00000000000E+00  0.00000000000E+00  0.17517440130E+02  0.17517440130E+02  0.00000000000E+00 0. -1.
         21   -1    0    0  504  502 -0.00000000000E+00 -0.00000000000E+00 -0.33885593839E+02  0.33885593839E+02  0.00000000000E+00 0. -1.
         21    1    1    2  503  502 -0.10980438539E+01  0.23895087750E+02 -0.33031381864E+01  0.24147290548E+02  0.00000000000E+00 0. -1.
         21    1    1    2  504  501  0.10980438539E+01 -0.23895087750E+02 -0.13065015523E+02  0.27255743422E+02  0.00000000000E+00 0. -1.
</event>
<event>
 4    1  0.1602044E+006  0.2478503E+02  0.7546771E-02  0.1471223E+00
         21   -1    0    0  502  501  0.00000000000E+00  0.00000000000E+00  0.58062088721E+02  0.58062088721E+02  0.00000000000E+00 0.  1.
         21   -1    0    0  504  502 -0.00000000000E+00 -0.00000000000E+00 -0.56682041766E+02  0.56682041766E+02  0.00000000000E+00 0. -1.
         21    1    1    2  503  501  0.43097329780E+01 -0.24407458005E+02  0.52431372445E+02  0.57994367149E+02  0.00000000000E+00 0.  1.
         21    1    1    2  504  503 -0.43097329780E+01  0.24407458005E+02 -0.51051325490E+02  0.56749763338E+02  0.00000000000E+00 0. -1.
</event>
<event>
 4    1  0.1602044E+006  0.3152063E+02  0.7546771E-02  0.1406827E+00
         21   -1    0    0  502  501  0.00000000000E+00  0.00000000000E+00  0.32448708473E+01  0.32448708473E+01  0.00000000000E+00 0.  1.
         21   -1    0    0  503  502 -0.00000000000E+00 -0.00000000000E+00 -0.71262080471E+03  0.71262080471E+03  0.00000000000E+00 0.  1.
         21    1    1    2  503  504  0.29634156085E+02  0.10740906018E+02 -0.62499980526E+03  0.62579414095E+03  0.00000000000E+00 0.  1.
         21    1    1    2  504  501 -0.29634156085E+02 -0.10740906018E+02 -0.84376128597E+02  0.90071534605E+02  0.00000000000E+00 0.  1.
</event>
<event>
 4    1  0.1602044E+006  0.2081058E+02  0.7546771E-02  0.1521987E+00
         21   -1    0    0  503  501  0.00000000000E+00  0.00000000000E+00  0.17987377917E+02  0.17987377917E+02  0.00000000000E+00 0.  1.
         21   -1    0    0  504  502 -0.00000000000E+00 -0.00000000000E+00 -0.32397144075E+02  0.32397144075E+02  0.00000000000E+00 0.  1.
         21    1    1    2  503  502 -0.68740591238E+01  0.19642497256E+02  0.55619061651E+01  0.21541011757E+02  0.00000000000E+00 0.  1.
         21    1    1    2  504  501  0.68740591238E+01 -0.19642497256E+02 -0.19971672323E+02  0.28843510235E+02  0.00000000000E+00 0.  1.
</event>
<event>
 4    1  0.1602044E+006  0.5141417E+02  0.7546771E-02  0.1292155E+00
         21   -1    0    0  503  501  0.00000000000E+00  0.00000000000E+00  0.93108072337E+02  0.93108072337E+02  0.00000000000E+00 0. -1.
         21   -1    0    0  501  502 -0.00000000000E+00 -0.00000000000E+00 -0.39452445072E+02  0.39452445072E+02  0.00000000000E+00 0.  1.
         21    1    1    2  503  504 -0.51146459878E+02 -0.52399314573E+01  0.61923692879E+02  0.80485781225E+02  0.00000000000E+00 0. -1.
         21    1    1    2  504  502  0.51146459878E+02  0.52399314573E+01 -0.82680656141E+01  0.52074736184E+02  0.00000000000E+00 0.  1.
</event>
<event>
 4    1  0.1602044E+006  0.2182712E+02  0.7546771E-02  0.1507776E+00
         21   -1    0    0  503  501  0.00000000000E+00  0.00000000000E+00  0.11485139430E+02  0.11485139430E+02  0.00000000000E+00 0. -1.
         21   -1    0    0  504  502 -0.00000000000E+00 -0.00000000000E+00 -0.93602430527E+02  0.93602430527E+02  0.00000000000E+00 0.  1.
         21    1    1    2  503  502  0.13639819366E+02 -0.17040501729E+02 -0.18499004651E+01  0.21905376127E+02  0.00000000000E+00 0. -1.
         21    1    1    2  504  501 -0.13639819366E+02  0.17040501729E+02 -0.80267390633E+02  0.83182193831E+02  0.00000000000E+00 0.  1.
</event>
<event>
 4    1  0.1602044E+006  0.2620269E+02  0.7546771E-02  0.1455786E+00
         21   -1    0    0  504  501  0.00000000000E+00  0.00000000000E+00  0.43478639211E+02  0.43478639211E+02  0.00000000000E+00 0. -1.
         21   -1    0    0  503  502 -0.00000000000E+00 -0.00000000000E+00 -0.66229827588E+02  0.66229827588E+02  0.00000000000E+00 0.  1.
         21    1    1    2  503  501  0.16871502287E+02 -0.20048273506E+02  0.36494565044E+02  0.44926986742E+02  0.00000000000E+00 0. -1.
         21    1    1    2  504  502 -0.16871502287E+02  0.20048273506E+02 -0.59245753420E+02  0.64781480057E+02  0.00000000000E+00 0.  1.
</event>
<event>
 4    1  0.1602044E+006  0.2239531E+02  0.7546771E-02  0.1500234E+00
         21   -1    0    0  504  501  0.00000000000E+00  0.00000000000E+00  0.13913338831E+02  0.13913338831E+02  0.00000000000E+00 0.  1.
         21   -1    0    0  503  502 -0.00000000000E+00 -0.00000000000E+00 -0.82246257098E+02  0.82246257098E+02  0.00000000000E+00 0.  1.
         21    1    1    2  503  501 -0.22081589713E+02 -0.37354363640E+01 -0.70200806885E+02  0.73686520995E+02  0.00000000000E+00 0.  1.
         21    1    1    2  504  502  0.22081589713E+02  0.37354363640E+01  0.18678886172E+01  0.22473074934E+02  0.00000000000E+00 0.  1.
</event>
<event>
 4    1  0.1602044E+006  0.2749137E+02  0.7546771E-02  0.1442734E+00
         21   -1    0    0  504  501  0.00000000000E+00  0.00000000000E+00  0.14881162512E+03  0.14881162512E+03  0.00000000000E+00 0.  1.
         21   -1    0    0  501  502 -0.00000000000E+00 -0.00000000000E+00 -0.54802899665E+01  0.54802899665E+01  0.00000000000E+00 0.  1.
         21    1    1    2  503  502 -0.12700542557E+02 -0.24381784530E+02  0.50783167513E+02  0.57746907283E+02  0.00000000000E+00 0.  1.
         21    1    1    2  504  503  0.12700542557E+02  0.24381784530E+02  0.92548167638E+02  0.96545007801E+02  0.00000000000E+00 0.  1.
</event>
<event>
 4    1  0.1602044E+006  0.2146241E+02  0.7546771E-02  0.1512764E+00
         21   -1    0    0  502  501  0.00000000000E+00  0.00000000000E+00  0.25010462306E+03  0.25010462306E+03  0.00000000000E+00 0.  1.
         21   -1    0    0  503  502 -0.00000000000E+00 -0.00000000000E+00 -0.61539924580E+01  0.61539924580E+01  0.00000000000E+00 0. -1.
         21    1    1    2  503  504 -0.21151735439E+02 -0.36385473507E+01  0.14719554116E+02  0.26024992070E+02  0.00000000000E+00 0. -1.
         21    1    1    2  504  501  0.21151735439E+02  0.36385473507E+01  0.22923107648E+03  0.23023362345E+03  0.00000000000E+00 0.  1.
</event>
<event>
 4    1  0.1602044E+006  0.2506312E+02  0.7546771E-02  0.1468098E+00
         21   -1    0    0  502  501  0.00000000000E+00  0.00000000000E+00  0.13967540292E+04  0.13967540292E+04  0.00000000000E+00 0.  1.
         21   -1    0    0  504  502 -0.00000000000E+00 -0.00000000000E+00 -0.13130258354E+02  0.13130258354E+02  0.00000000000E+00 0.  1.
         21    1    1    2  503  501  0.14475145942E+02  0.20460450393E+02  0.13845762540E+04  0.13848030774E+04  0.00000000000E+00 0.  1.
         21    1    1    2  504  503 -0.14475145942E+02 -0.20460450393E+02 -0.95248317473E+00  0.25081210189E+02  0.00000000000E+00 0.  1.
</event>
<event>
 4    1  0.1602044E+006  0.4589005E+02  0.7546771E-02  0.1317048E+00
         21   -1    0    0  502  501  0.00000000000E+00  0.00000000000E+00  0.58454310939E+03  0.58454310939E+03  0.00000000000E+00 0.  1.
         21   -1    0    0  503  502 -0.00000000000E+00 -0.00000000000E+00 -0.94980736349E+01  0.94980736349E+01  0.00000000000E+00 0. -1.
         21    1    1    2  503  504 -0.44403004968E+02  0.11587474895E+02  0.53516625289E+02  0.70497699302E+02  0.00000000000E+00 0. -1.
         21    1    1    2  504  501  0.44403004968E+02 -0.11587474895E+02  0.52152841046E+03  0.52354348372E+03  0.00000000000E+00 0.  1.
</event>
<event>
 4    1  0.1602044E+006  0.2479899E+02  0.7546771E-02  0.1471065E+00
         21   -1    0    0  502  501  0.00000000000E+00  0.00000000000E+00  0.77513792708E+02  0.77513792708E+02  0.00000000000E+00 0.  1.
         21   -1    0    0  503  502 -0.00000000000E+00 -0.00000000000E+00 -0.33264712131E+03  0.33264712131E+03  0.00000000000E+00 0.  1.
         21    1    1    2  503  504 -0.18395193378E+02 -0.16631502870E+02 -0.33018668202E+03  0.33111664865E+03  0.00000000000E+00 0.  1.
         21    1    1    2  504  501  0.18395193378E+02  0.16631502870E+02  0.75053353424E+02  0.79044265367E+02  0.00000000000E+00 0.  1.
</event>
<event>
 4    1  0.1602044E+006  0.3148616E+02  0.7546771E-02  0.1407107E+00
         21   -1    0    0  502  501  0.00000000000E+00  0.00000000000E+00  0.86296951851E+02  0.86296951851E+02  0.00000000000E+00 0. -1.
         21   -1    0    0  504  502 -0.00000000000E+00 -0.00000000000E+00 -0.10629302408E+03  0.10629302408E+03  0.00000000000E+00 0. -1.
         21    1    1    2  503  501  0.79828744644E+01  0.30457376030E+02  0.80944490068E+02  0.86852682812E+02  0.00000000000E+00 0. -1.
         21    1    1    2  504  503 -0.79828744644E+01 -0.30457376030E+02 -0.10094056230E+03  0.10573729312E+03  0.00000000000E+00 0. -1.
</event>
<event>
 4    1  0.1602044E+006  0.2937848E+02  0.7546771E-02  0.1425075E+00
         21   -1    0    0  503  501  0.00000000000E+00  0.00000000000E+00  0.15650979574E+02  0.15650979574E+02  0.00000000000E+00 0. -1.
         21   -1    0    0  501  502 -0.00000000000E+00 -0.00000000000E+00 -0.18147993999E+03  0.18147993999E+03  0.00000000000E+00 0.  1.
         21    1    1    2  503  504  0.29359865999E+02 -0.10455057852E+01 -0.67699682100E+00  0.29386274663E+02  0.00000000000E+00 0. -1.
         21    1    1    2  504  502 -0.29359865999E+02  0.10455057852E+01 -0.16515196359E+03  0.16774464490E+03  0.00000000000E+00 0.  1.
</event>
<event>
 4    1  0.1602044E+006  0.2149598E+02  0.7546771E-02  0.1512300E+00
         21   -1    0    0  503  501  0.00000000000E+00  0.00000000000E+00  0.24759152224E+02  0.24759152224E+02  0.00000000000E+00 0.  1.
         21   -1    0    0  504  502 -0.00000000000E+00 -0.00000000000E+00 -0.10642431512E+03  0.10642431512E+03  0.00000000000E+00 0. -1.
         21    1    1    2  503  502 -0.21463605355E+02 -0.11793931822E+01  0.18730960146E+02  0.28511860534E+02  0.00000000000E+00 0.  1.
         21    1    1    2  504  501  0.21463605355E+02  0.11793931822E+01 -0.10039612304E+03  0.10267160681E+03  0.00000000000E+00 0. -1.
</event>
<event>
 4    1  0.1602044E+006  0.2804056E+02  0.7546771E-02  0.1437426E+00
         21   -1    0    0  504  501  0.00000000000E+00  0.00000000000E+00  0.92081146073E+02  0.92081146073E+02  0.00000000000E+00 0.  1.
         21   -1    0    0  501  502 -0.00000000000E+00 -0.00000000000E+00 -0.21607376484E+02  0.21607376484E+02  0.00000000000E+00 0. -1.
         21    1    1    2  503  502 -0.27538386537E+01  0.27905008704E+02 -0.89708057951E+01  0.29440592635E+02  0.00000000000E+00 0. -1.
         21    1    1    2  504  503  0.27538386537E+01 -0.27905008704E+02  0.79444575385E+02  0.84247929922E+02  0.00000000000E+00 0.  1.
</event>
<event>
 4    1  0.1602044E+006  0.8371286E+02  0.7546771E-02  0.1195481E+00
         21   -1    0    0  503  501  0.00000000000E+00  0.00000000000E+00  0.18766910629E+03  0.18766910629E+03  0.00000000000E+00 0.  1.
         21   -1    0    0  504  502 -0.00000000000E+00 -0.00000000000E+00 -0.14789609836E+03  0.14789609836E+03  0.00000000000E+00 0.  1.
         21    1    1    2  503  502 -0.40171189378E+02  0.73444665271E+02  0.16494961947E+03  0.18497626949E+03  0.00000000000E+00 0.  1.
         21    1    1    2  504  501  0.40171189378E+02 -0.73444665271E+02 -0.12517661155E+03  0.15058893515E+03  0.00000000000E+00 0.  1.
</event>
<event>
 4    1  0.1602044E+006  0.2258450E+02  0.7546771E-02  0.1497783E+00
         21   -1    0    0  503  501  0.00000000000E+00  0.00000000000E+00  0.12466058314E+02  0.12466058314E+02  0.00000000000E+00 0. -1.
         21   -1    0    0  504  502 -0.00000000000E+00 -0.00000000000E+00 -0.65793996600E+02  0.65793996600E+02  0.00000000000E+00 0. -1.
         21    1    1    2  503  502 -0.22560319717E+02 -0.10447371406E+01 -0.26022895525E+01  0.22733926461E+02  0.00000000000E+00 0. -1.
         21    1    1    2  504  501  0.22560319717E+02  0.10447371406E+01 -0.50725648734E+02  0.55526128453E+02  0.00000000000E+00 0. -1.
</event>
<event>
 4    1  0.1602044E+006  0.2917108E+02  0.7546771E-02  0.1426939E+00
         21   -1    0    0  503  501  0.00000000000E+00  0.00000000000E+00  0.24615096198E+02  0.24615096198E+02  0.00000000000E+00 0. -1.
         21   -1    0    0  504  502 -0.00000000000E+00 -0.00000000000E+00 -0.12075725604E+03  0.12075725604E+03  0.00000000000E+00 0. -1.
         21    1    1    2  503  502 -0.13594056658E+02 -0.25809952676E+02  0.13335639470E+02  0.32074776907E+02  0.00000000000E+00 0. -1.
         21    1    1    2  504  501  0.13594056658E+02  0.25809952676E+02 -0.10947779931E+03  0.11329757533E+03  0.00000000000E+00 0. -1.
</event>
<event>
 4    1  0.1602044E+006  0.2992618E+02  0.7546771E-02  0.1420239E+00
         21   -1    0    0  504  501  0.00000000000E+00  0.00000000000E+00  0.12128322554E+03  0.12128322554E+03  0.00000000000E+00 0.  1.
         21   -1    0    0  503  502 -0.00000000000E+00 -0.00000000000E+00 -0.17110969067E+02  0.17110969067E+02  0.00000000000E+00 0.  1.
         21    1    1    2  503  501  0.29912862184E+02  0.89284222303E+00 -0.85626922733E-01  0.29926306542E+02  0.00000000000E+00 0.  1.
         21    1    1    2  504  502 -0.29912862184E+02 -0.89284222303E+00  0.10425788340E+03  0.10846788807E+03  0.00000000000E+00 0.  1.
</event>
<event>
 4    1  0.1602044E+006  0.3117071E+02  0.7546771E-02  0.1409688E+00
         21   -1    0    0  504  501  0.00000000000E+00  0.00000000000E+00  0.39799016716E+02  0.39799016716E+02  0.00000000000E+00 0.  1.
         21   -1    0    0  503  502 -0.00000000000E+00 -0.00000000000E+00 -0.25075173737E+02  0.25075173737E+02  0.00000000000E+00 0.  1.
         21    1    1    2  503  501 -0.48463483447E+01  0.30791660884E+02  0.20907721523E+01  0.31240755440E+02  0.00000000000E+00 0.  1.
         21    1    1    2  504  502  0.48463483447E+01 -0.30791660884E+02  0.12633070826E+02  0.33633435013E+02  0.00000000000E+00 0.  1.
</event>
<event>
 4    1  0.1602044E+006  0.2763959E+02  0.7546771E-02  0.1441287E+00
         21   -1    0    0  503  501  0.00000000000E+00  0.00000000000E+00  0.41833141845E+03  0.41833141845E+03  0.00000000000E+00 0. -1.
         21   -1    0    0  504  502 -0.00000000000E+00 -0.00000000000E+00 -0.34448355825E+01  0.34448355825E+01  0.00000000000E+00 0.  1.
         21    1    1    2  503  502 -0.92318629591E+01 -0.26052244753E+02  0.35200246495E+03  0.35308594149E+03  0.00000000000E+00 0. -1.
         21    1    1    2  504  501  0.92318629591E+01  0.26052244753E+02  0.62884117923E+02  0.68690312543E+02  0.00000000000E+00 0.  1.
</event>
<event>
 4    1  0.1602044E+006  0.2031844E+02  0.7546771E-02  0.1529222E+00
         21   -1    0    0  504  501  0.00000000000E+00  0.00000000000E+00  0.29505445009E+02  0.29505445009E+02  0.00000000000E+00 0. -1.
         21   -1    0    0  503  502 -0.00000000000E+00 -0.00000000000E+00 -0.93502779100E+03  0.93502779100E+03  0.00000000000E+00 0. -1.
         21    1    1    2  503  501  0.14745144145E+02 -0.13979266949E+02  0.25883470926E+02  0.32905823914E+02  0.00000000000E+00 0. -1.
         21    1    1    2  504  502 -0.14745144145E+02  0.13979266949E+02 -0.93140581692E+03  0.93162741209E+03  0.00000000000E+00 0. -1.
</event>
<event>
 4    1  0.1602044E+006  0.2667471E+02  0.7546771E-02  0.1450903E+00
         21   -1    0    0  502  501  0.00000000000E+00  0.00000000000E+00  0.72932963214E+02  0.72932963214E+02  0.00000000000E+00 0. -1.
         21   -1    0    0  504  502 -0.00000000000E+00 -0.00000000000E+00 -0.40224528055E+03  0.40224528055E+03  0.00000000000E+00 0.  1.
         21    1    1    2  503  501 -0.14758557597E+02 -0.22219929774E+02  0.70034025558E+02  0.74942011165E+02  0.00000000000E+00 0. -1.
         21    1    1    2  504  503  0.14758557597E+02  0.22219929774E+02 -0.39934634289E+03  0.40023623260E+03  0.00000000000E+00 0.  1.
</event>
<event>
 4    1  0.1602044E+006  0.4528018E+02  0.7546771E-02  0.1320044E+00
         21   -1    0    0  504  501  0.00000000000E+00  0.00000000000E+00  0.26465678265E+01  0.26465678265E+01  0.00000000000E+00 0. -1.
         21   -1    0    0  501  502 -0.00000000000E+00 -0.00000000000E+00 -0.84658071986E+03  0.84658071986E+03  0.00000000000E+00 0. -1.
         21    1    1    2  503  502 -0.30084366503E+02  0.33841186755E+02 -0.54569484564E+03  0.54757023256E+03  0.00000000000E+00 0. -1.
         21    1    1    2  504  503  0.30084366503E+02 -0.33841186755E+02 -0.29823930640E+03  0.30165705513E+03  0.00000000000E+00 0. -1.
</event>
<event>
 4    1  0.1602044E+006  0.2022189E+02  0.7546771E-02  0.1530670E+00
         21   -1    0    0  502  501  0.00000000000E+00  0.00000000000E+00  0.27439708762E+02  0.27439708762E+02  0.00000000000E+00 0. -1.
         21   -1    0    0  503  502 -0.00000000000E+00 -0.00000000000E+00 -0.24183446486E+02  0.24183446486E+02  0.00000000000E+00 0. -1.
         21    1    1    2  503  504 -0.94244300279E+01 -0.17891479577E+02 -0.14361837465E+02  0.24802969543E+02  0.00000000000E+00 0. -1.
         21    1    1    2  504  501  0.94244300279E+01  0.17891479577E+02  0.17618099741E+02  0.26820185705E+02  0.00000000000E+00 0. -1.
</event>
<event>
 4    1  0.1602044E+006  0.2136367E+02  0.7546771E-02  0.1514135E+00
         21   -1    0    0  503  501  0.00000000000E+00  0.00000000000E+00  0.11172672249E+02  0.11172672249E+02  0.00000000000E+00 0.  1.
         21   -1    0    0  501  502 -0.00000000000E+00 -0.00000000000E+00 -0.10062186716E+03  0.10062186716E+03  0.00000000000E+00 0. -1.
         21    1    1    2  503  504 -0.14297172917E+02 -0.15874424777E+02 -0.16429906577E+01  0.21426757424E+02  0.00000000000E+00 0.  1.
         21    1    1    2  504  502  0.14297172917E+02  0.15874424777E+02 -0.87806204249E+02  0.90367781980E+02  0.00000000000E+00 0. -1.
</event>
<event>
 4    1  0.1602044E+006  0.2819061E+02  0.7546771E-02  0.1436001E+00
         21   -1    0    0  503  501  0.00000000000E+00  0.00000000000E+00  0.14029489750E+02  0.14029489750E+02  0.00000000000E+00 0. -1.
         21   -1    0    0  504  502 -0.00000000000E+00 -0.00000000000E+00 -0.67885260094E+02  0.67885260094E+02  0.00000000000E+00 0. -1.
         21    1    1    2  503  502 -0.25917215366E+02 -0.11090909252E+02 -0.10262361895E+02  0.30000439864E+02  0.00000000000E+00 0. -1.
         21    1    1    2  504  501  0.25917215366E+02  0.11090909252E+02 -0.43593408450E+02  0.51914309979E+02  0.00000000000E+00 0. -1.
</event>
<event>
 4    1  0.1602044E+006  0.2214725E+02  0.7546771E-02  0.1503493E+00
         21   -1    0    0  504  501  0.00000000000E+00  0.00000000000E+00  0.11468314353E+03  0.11468314353E+03  0.00000000000E+00 0. -1.
         21   -1    0    0  501  502 -0.00000000000E+00 -0.00000000000E+00 -0.17245797283E+02  0.17245797283E+02  0.00000000000E+00 0.  1.
         21    1    1    2  503  502 -0.16645237091E+02 -0.14609467822E+02 -0.84842465133E+01  0.23716722091E+02  0.00000000000E+00 0.  1.
         21    1    1    2  504  503  0.16645237091E+02  0.14609467822E+02  0.10592159276E+03  0.10821221873E+03  0.00000000000E+00 0. -1.
</event>
<event>
 4    1  0.1602044E+006  0.2072143E+02  0.7546771E-02  0.1523280E+00
         21   -1    0    0  504  501  0.00000000000E+00  0.00000000000E+00  0.39241302049E+02  0.39241302049E+02  0.00000000000E+00 0. -1.
         21   -1    0    0  503  502 -0.00000000000E+00 -0.00000000000E+00 -0.12309018972E+02  0.12309018972E+02  0.00000000000E+00 0. -1.
         21    1    1    2  503  501  0.36680939046E+01  0.20394180924E+02  0.48763987125E+01  0.21287479720E+02  0.00000000000E+00 0. -1.
         21    1    1    2  504  502 -0.36680939046E+01 -0.20394180924E+02  0.22055884365E+02  0.30262841300E+02  0.00000000000E+00 0. -1.
</event>
<event>
 4    1  0.1602044E+006  0.2322654E+02  0.7546771E-02  0.1489673E+00
         21   -1    0    0  502  501  0.00000000000E+00  0.00000000000E+00  0.12611868503E+03  0.12611868503E+03  0.00000000000E+00 0.  1.
         21   -1    0    0  504  502 -0.00000000000E+00 -0.00000000000E+00 -0.27975426221E+03  0.27975426221E+03  0.00000000000E+00 0. -1.
         21    1    1    2  503  501  0.92814065624E+01  0.21291493476E+02  0.12456123991E+03  0.12670822661E+03  0.00000000000E+00 0.  1.
         21    1    1    2  504  503 -0.92814065624E+01 -0.21291493476E+02 -0.27819681709E+03  0.27916472062E+03  0.00000000000E+00 0. -1.
</event>
<event>
 4    1  0.1602044E+006  0.2288346E+02  0.7546771E-02  0.1493967E+00
         21   -1    0    0  504  501  0.00000000000E+00  0.00000000000E+00  0.36906869649E+01  0.36906869649E+01  0.00000000000E+00 0.  1.
         21   -1    0    0  501  502 -0.00000000000E+00 -0.00000000000E+00 -0.17367671036E+03  0.17367671036E+03  0.00000000000E+00 0.  1.
         21    1    1    2  503  502  0.89725450552E+01  0.21051032793E+02 -0.12293595471E+03  0.12504759696E+03  0.00000000000E+00 0.  1.
         21    1    1    2  504  503 -0.89725450552E+01 -0.21051032793E+02 -0.47050068692E+02  0.52319800366E+02  0.00000000000E+00 0.  1.
</event>
<event>
 4    1  0.1602044E+006  0.2797165E+02  0.7546771E-02  0.1438084E+00
         21   -1    0    0  503  501  0.00000000000E+00  0.00000000000E+00  0.46507041765E+02  0.46507041765E+02  0.00000000000E+00 0. -1.
         21   -1    0    0  504  502 -0.00000000000E+00 -0.00000000000E+00 -0.30970072343E+02  0.30970072343E+02  0.00000000000E+00 0. -1.
         21    1    1    2  503  502 -0.23217117054E+02 -0.15600596243E+02  0.33950152742E+02  0.43988930410E+02  0.00000000000E+00 0. -1.
         21    1    1    2  504  501  0.23217117054E+02  0.15600596243E+02 -0.18413183319E+02  0.33488183698E+02  0.00000000000E+00 0. -1.
</event>
<event>
 4    1  0.1602044E+006  0.2224395E+02  0.7546771E-02  0.1502217E+00
         21   -1    0    0  503  501  0.00000000000E+00  0.00000000000E+00  0.23960547656E+03  0.23960547656E+03  0.00000000000E+00 0.  1.
         21   -1    0    0  504  502 -0.00000000000E+00 -0.00000000000E+00 -0.51722094471E+03  0.51722094471E+03  0.00000000000E+00 0. -1.
         21    1    1    2  503  502 -0.15819427545E+02 -0.15637740569E+02  0.23884930329E+03  0.23988285245E+03  0.00000000000E+00 0.  1.
         21    1    1    2  504  501  0.15819427545E+02  0.15637740569E+02 -0.51646477143E+03  0.51694356883E+03  0.00000000000E+00 0. -1.
</event>
<event>
 4    1  0.1602044E+006  0.2961398E+02  0.7546771E-02  0.1422981E+00
         21   -1    0    0  503  501  0.00000000000E+00  0.00000000000E+00  0.50674551507E+02  0.50674551507E+02  0.00000000000E+00 0. -1.
         21   -1    0    0  504  502 -0.00000000000E+00 -0.00000000000E+00 -0.42081314994E+02  0.42081314994E+02  0.00000000000E+00 0.  1.
         21    1    1    2  503  502  0.12176013726E+02 -0.26995040678E+02 -0.31288954092E+02  0.43081158058E+02  0.00000000000E+00 0.  1.
         21    1    1    2  504  501 -0.12176013726E+02  0.26995040678E+02  0.39882190604E+02  0.49674708443E+02  0.00000000000E+00 0. -1.
</event>
<event>
 4    1  0.1602044E+006  0.2069932E+02  0.7546771E-02  0.1523601E+00
         21   -1    0    0  504  501  0.00000000000E+00  0.00000000000E+00  0.89505329519E+01  0.89505329519E+01  0.00000000000E+00 0.  1.
         21   -1    0    0  501  502 -0.00000000000E+00 -0.00000000000E+00 -0.54876125186E+02  0.54876125186E+02  0.00000000000E+00 0.  1.
         21    1    1    2  503  502  0.14659136612E+02 -0.14614087900E+02 -0.34365816367E+02  0.40118215139E+02  0.00000000000E+00 0.  1.
         21    1    1    2  504  503 -0.14659136612E+02  0.14614087900E+02 -0.11559775867E+02  0.23708442999E+02  0.00000000000E+00 0.  1.
</event>
<event>
 4    1  0.1602044E+006  0.2874048E+02  0.7546771E-02  0.1430867E+00
         21   -1    0    0  503  501  0.00000000000E+00  0.00000000000E+00  0.17251862929E+03  0.17251862929E+03  0.00000000000E+00 0.  1.
         21   -1    0    0  504  502 -0.00000000000E+00 -0.00000000000E+00 -0.72100747528E+01  0.72100747528E+01  0.00000000000E+00 0. -1.
         21    1    1    2  503  502 -0.82945434707E+01 -0.27517557181E+02  0.13473935367E+03  0.13777049333E+03  0.00000000000E+00 0.  1.
         21    1    1    2  504  501  0.82945434707E+01  0.27517557181E+02  0.30569200865E+02  0.41958210712E+02  0.00000000000E+00 0. -1.
</event>
<event>
 4    1  0.1602044E+006  0.2285441E+02  0.7546771E-02  0.1494335E+00
         21   -1    0    0  503  501  0.00000000000E+00  0.00000000000E+00  0.83201555421E+01  0.83201555421E+01  0.00000000000E+00 0.  1.
         21   -1    0    0  504  502 -0.00000000000E+00 -0.00000000000E+00 -0.91989197827E+02  0.91989197827E+02  0.00000000000E+00 0.  1.
         21    1    1    2  503  502 -0.22725128149E+02  0.24274299355E+01 -0.13571623677E+02  0.26580309154E+02  0.00000000000E+00 0.  1.
         21    1    1    2  504  501  0.22725128149E+02 -0.24274299355E+01 -0.70097418608E+02  0.73729044215E+02  0.00000000000E+00 0.  1.
</event>
<event>
 4    1  0.1602044E+006  0.2656571E+02  0.7546771E-02  0.1452020E+00
         21   -1    0    0  503  501  0.00000000000E+00  0.00000000000E+00  0.25545420855E+03  0.25545420855E+03  0.00000000000E+00 0.  1.
         21   -1    0    0  504  502 -0.00000000000E+00 -0.00000000000E+00 -0.37966189373E+01  0.37966189373E+01  0.00000000000E+00 0. -1.
         21    1    1    2  503  502  0.93200961907E+01  0.24877148116E+02  0.58183068600E+02  0.63960973751E+02  0.00000000000E+00 0. -1.
         21    1    1    2  504  501 -0.93200961907E+01 -0.24877148116E+02  0.19347452101E+03  0.19528985373E+03  0.00000000000E+00 0.  1.
</event>
<event>
 4    1  0.1602044E+006  0.4517231E+02  0.7546771E-02  0.1320580E+00
         21   -1    0    0  502  501  0.00000000000E+00  0.00000000000E+00  0.13029984942E+03  0.13029984942E+03  0.00000000000E+00 0. -1.
         21   -1    0    0  503  502 -0.00000000000E+00 -0.00000000000E+00 -0.20866412889E+02  0.20866412889E+02  0.00000000000E+00 0. -1.
         21    1    1    2  503  504 -0.41242315591E+02  0.18428478563E+02  0.16963245037E+02  0.48252348126E+02  0.00000000000E+00 0. -1.
         21    1    1    2  504  501  0.41242315591E+02 -0.18428478563E+02  0.92470191494E+02  0.10291391418E+03  0.00000000000E+00 0. -1.
</event>
<event>
 4    1  0.1602044E+006  0.2247818E+02  0.7546771E-02  0.1499157E+00
         21   -1    0    0  504  501  0.00000000000E+00  0.00000000000E+00  0.90505016199E+02  0.90505016199E+02  0.00000000000E+00 0. -1.
         21   -1    0    0  501  502 -0.00000000000E+00 -0.00000000000E+00 -0.70293240055E+01  0.70293240055E+01  0.00000000000E+00 0. -1.
         21    1    1    2  503  502 -0.18945970652E+02  0.12096237447E+02  0.19615153972E+02  0.29833253756E+02  0.00000000000E+00 0. -1.
         21    1    1    2  504  503  0.18945970652E+02 -0.12096237447E+02  0.63860538222E+02  0.67701086449E+02  0.00000000000E+00 0. -1.
</event>
<event>
 4    1  0.1602044E+006  0.2282435E+02  0.7546771E-02  0.1494716E+00
         21   -1    0    0  503  501  0.00000000000E+00  0.00000000000E+00  0.10742736734E+03  0.10742736734E+03  0.00000000000E+00 0. -1.
         21   -1    0    0  504  502 -0.00000000000E+00 -0.00000000000E+00 -0.48702010419E+01  0.48702010419E+01  0.00000000000E+00 0. -1.
         21    1    1    2  503  502  0.13696777008E+02 -0.18257854205E+02  0.54954122094E+02  0.59505516347E+02  0.00000000000E+00 0. -1.
         21    1    1    2  504  501 -0.13696777008E+02  0.18257854205E+02  0.47603044203E+02  0.52792052034E+02  0.00000000000E+00 0. -1.
</event>
<event>
 4    1  0.1602044E+006  0.2827108E+02  0.7546771E-02  0.1435241E+00
         21   -1    0    0  504  501  0.00000000000E+00  0.00000000000E+00  0.29391984817E+01  0.29391984817E+01  0.00000000000E+00 0. -1.
         21   -1    0    0  503  502 -0.00000000000E+00 -0.00000000000E+00 -0.56906348478E+03  0.56906348478E+03  0.00000000000E+00 0. -1.
         21    1    1    2  503  501  0.17311553683E+02 -0.22350923731E+02 -0.48972581709E+03  0.49054115995E+03  0.00000000000E+00 0. -1.
         21    1    1    2  504  502 -0.17311553683E+02  0.22350923731E+02 -0.76398469206E+02  0.81461523307E+02  0.00000000000E+00 0. -1.
</event>
<event>
 4    1  0.1602044E+006  0.2040408E+02  0.7546771E-02  0.1527946E+00
         21   -1    0    0  502  501  0.00000000000E+00  0.00000000000E+00  0.43425894957E+01  0.43425894957E+01  0.00000000000E+00 0.  1.
         21   -1    0    0  504  502 -0.00000000000E+00 -0.00000000000E+00 -0.17130667393E+03  0.17130667393E+03  0.00000000000E+00 0.  1.
         21    1    1    2  503  501 -0.19780689236E+02  0.50050871463E+01 -0.25202142138E+02  0.32426448037E+02  0.00000000000E+00 0.  1.
         21    1    1    2  504  503  0.19780689236E+02 -0.50050871463E+01 -0.14176194229E+03  0.14322281539E+03  0.00000000000E+00 0.  1.
</event>
<event>
 4    1  0.1602044E+006  0.3194342E+02  0.7546771E-02  0.1403427E+00
         21   -1    0    0  502  501  0.00000000000E+00  0.00000000000E+00  0.15148680140E+02  0.15148680140E+02  0.00000000000E+00 0.  1.
         21   -1    0    0  503  502 -0.00000000000E+00 -0.00000000000E+00 -0.15673088101E+03  0.15673088101E+03  0.00000000000E+00 0. -1.
         21    1    1    2  503  504 -0.13669075797E+02  0.28871070182E+02 -0.13568744402E+03  0.13939678903E+03  0.00000000000E+00 0. -1.
         21    1    1    2  504  501  0.13669075797E+02 -0.28871070182E+02 -0.58947568527E+01  0.32482772125E+02  0.00000000000E+00 0.  1.
</event>
<event>
 4    1  0.1602044E+006  0.4610842E+02  0.7546771E-02  0.1315988E+00
         21   -1    0    0  502  501  0.00000000000E+00  0.00000000000E+00  0.30275841136E+03  0.30275841136E+03  0.00000000000E+00 0. -1.
         21   -1    0    0  504  502 -0.00000000000E+00 -0.00000000000E+00 -0.67861232849E+02  0.67861232849E+02  0.00000000000E+00 0.  1.
         21    1    1    2  503  501  0.79918392913E+01 -0.45410539902E+02  0.29290903564E+03  0.29651591827E+03  0.00000000000E+00 0. -1.
         21    1    1    2  504  503 -0.79918392913E+01  0.45410539902E+02 -0.58011857131E+02  0.74103725934E+02  0.00000000000E+00 0.  1.
</event>
<event>
 4    1  0.1602044E+006  0.2079714E+02  0.7546771E-02  0.1522181E+00
         21   -1    0    0  503  501  0.00000000000E+00  0.00000000000E+00  0.37655820302E+03  0.37655820302E+03  0.00000000000E+00 0.  1.
         21   -1    0    0  501  502 -0.00000000000E+00 -0.00000000000E+00 -0.38086500773E+02  0.38086500773E+02  0.00000000000E+00 0.  1.
         21    1    1    2  503  504  0.20418591469E+02  0.39499372012E+01  0.37340804702E+03  0.37398675172E+03  0.00000000000E+00 0.  1.
         21    1    1    2  504  502 -0.20418591469E+02 -0.39499372012E+01 -0.34936344769E+02  0.40657952080E+02  0.00000000000E+00 0.  1.
</event>
<event>
 4    1  0.1602044E+006  0.4279359E+02  0.7546771E-02  0.1332850E+00
         21   -1    0    0  503  501  0.00000000000E+00  0.00000000000E+00  0.39200094509E+03  0.39200094509E+03  0.00000000000E+00 0.  1.
         21   -1    0    0  501  502 -0.00000000000E+00 -0.00000000000E+00 -0.60836213683E+01  0.60836213683E+01  0.00000000000E+00 0.  1.
         21    1    1    2  503  504 -0.13226065055E+02 -0.40698435534E+02  0.28884949872E+03  0.29200226774E+03  0.00000000000E+00 0.  1.
         21    1    1    2  504  502  0.13226065055E+02  0.40698435534E+02  0.97067824999E+02  0.10608229872E+03  0.00000000000E+00 0.  1.
</event>
<event>
 4    1  0.1602044E+006  0.2172033E+02  0.7546771E-02  0.1509224E+00
         21   -1    0    0  503  501  0.00000000000E+00  0.00000000000E+00  0.25927610217E+02  0.25927610217E+02  0.00000000000E+00 0.  1.
         21   -1    0    0  504  502 -0.00000000000E+00 -0.00000000000E+00 -0.16840242925E+03  0.16840242925E+03  0.00000000000E+00 0.  1.
         21    1    1    2  503  502 -0.21662037252E+02 -0.15901989647E+01 -0.16300310791E+03  0.16444386817E+03  0.00000000000E+00 0.  1.
         21    1    1    2  504  501  0.21662037252E+02  0.15901989647E+01  0.20528288875E+02  0.29886171297E+02  0.00000000000E+00 0.  1.
</event>
<event>
 4    1  0.1602044E+006  0.3111009E+02  0.7546771E-02  0.1410189E+00
         21   -1    0    0  504  501  0.00000000000E+00  0.00000000000E+00  0.24881809430E+04  0.24881809430E+04  0.00000000000E+00 0. -1.
         21   -1    0    0  503  502 -0.00000000000E+00 -0.00000000000E+00 -0.39164985704E+00  0.39164985704E+00  0.00000000000E+00 0.  1.
         21    1    1    2  503  501 -0.24648742738E+02 -0.18980973252E+02  0.11410463178E+04  0.11414703400E+04  0.00000000000E+00 0.  1.
         21    1    1    2  504  502  0.24648742738E+02  0.18980973252E+02  0.13467429754E+04  0.13471022528E+04  0.00000000000E+00 0. -1.
</event>
<event>
 4    1  0.1602044E+006  0.4250022E+02  0.7546771E-02  0.1334426E+00
         21   -1    0    0  503  501  0.00000000000E+00  0.00000000000E+00  0.46307729224E+02  0.46307729224E+02  0.00000000000E+00 0. -1.
         21   -1    0    0  501  502 -0.00000000000E+00 -0.00000000000E+00 -0.68198065572E+02  0.68198065572E+02  0.00000000000E+00 0.  1.
         21    1    1    2  503  504 -0.35730113788E+02 -0.23013632217E+02  0.26512921038E+02  0.50091948266E+02  0.00000000000E+00 0. -1.
         21    1    1    2  504  502  0.35730113788E+02  0.23013632217E+02 -0.48403257386E+02  0.64413846529E+02  0.00000000000E+00 0.  1.
</event>
<event>
 4    1  0.1602044E+006  0.2092004E+02  0.7546771E-02  0.1520409E+00
         21   -1    0    0  503  501  0.00000000000E+00  0.00000000000E+00  0.77524387022E+01  0.77524387022E+01  0.00000000000E+00 0. -1.
         21   -1    0    0  504  502 -0.00000000000E+00 -0.00000000000E+00 -0.59039382630E+02  0.59039382630E+02  0.00000000000E+00 0. -1.
         21    1    1    2  503  502  0.20790008653E+02 -0.23289101465E+01 -0.18653582817E+02  0.28028635967E+02  0.00000000000E+00 0. -1.
         21    1    1    2  504  501 -0.20790008653E+02  0.23289101465E+01 -0.32633361111E+02  0.38763185365E+02  0.00000000000E+00 0. -1.
</event>
<event>
 4    1  0.1602044E+006  0.2153690E+02  0.7546771E-02  0.1511736E+00
         21   -1    0    0  504  501  0.00000000000E+00  0.00000000000E+00  0.68108894973E+02  0.68108894973E+02  0.00000000000E+00 0.  1.
         21   -1    0    0  501  502 -0.00000000000E+00 -0.00000000000E+00 -0.37693322186E+03  0.37693322186E+03  0.00000000000E+00 0. -1.
         21    1    1    2  503  502  0.20065073846E+02 -0.78250287406E+01 -0.37491385826E+03  0.37553194189E+03  0.00000000000E+00 0. -1.
         21    1    1    2  504  503 -0.20065073846E+02  0.78250287406E+01  0.66089531374E+02  0.69510174942E+02  0.00000000000E+00 0.  1.
</event>
<event>
 4    1  0.1602044E+006  0.2887208E+02  0.7546771E-02  0.1429658E+00
         21   -1    0    0  503  501  0.00000000000E+00  0.00000000000E+00  0.10400149501E+03  0.10400149501E+03  0.00000000000E+00 0. -1.
         21   -1    0    0  504  502 -0.00000000000E+00 -0.00000000000E+00 -0.19342361680E+02  0.19342361680E+02  0.00000000000E+00 0. -1.
         21    1    1    2  503  502  0.66389881766E+01  0.28098408781E+02  0.89524198060E+02  0.94064758429E+02  0.00000000000E+00 0. -1.
         21    1    1    2  504  501 -0.66389881766E+01 -0.28098408781E+02 -0.48650647312E+01  0.29279098260E+02  0.00000000000E+00 0. -1.
</event>
<event>
 4    1  0.1602044E+006  0.2772782E+02  0.7546771E-02  0.1440431E+00
         21   -1    0    0  503  501  0.00000000000E+00  0.00000000000E+00  0.30293428112E+03  0.30293428112E+03  0.00000000000E+00 0.  1.
         21   -1    0    0  504  502 -0.00000000000E+00 -0.00000000000E+00 -0.12927008612E+03  0.12927008612E+03  0.00000000000E+00 0. -1.
         21    1    1    2  503  502 -0.13104324820E+02 -0.24435810701E+02  0.30080240613E+03  0.30207767165E+03  0.00000000000E+00 0.  1.
         21    1    1    2  504  501  0.13104324820E+02  0.24435810701E+02 -0.12713821114E+03  0.13012669559E+03  0.00000000000E+00 0. -1.
</event>
<event>
 4    1  0.1602044E+006  0.3378222E+02  0.7546771E-02  0.1389333E+00
         21   -1    0    0  504  501  0.00000000000E+00  0.00000000000E+00  0.64680279838E+03  0.64680279838E+03  0.00000000000E+00 0.  1.
         21   -1    0    0  501  502 -0.00000000000E+00 -0.00000000000E+00 -0.23583462634E+02  0.23583462634E+02  0.00000000000E+00 0.  1.
         21    1    1    2  503  502 -0.33720473557E+02  0.20415125429E+01 -0.10800754483E+02  0.35466807127E+02  0.00000000000E+00 0.  1.
         21    1    1    2  504  503  0.33720473557E+02 -0.20415125429E+01  0.63402009023E+03  0.63491945389E+03  0.00000000000E+00 0.  1.
</event>
<event>
 4    1  0.1602044E+006  0.3993111E+02  0.7546771E-02  0.1348890E+00
         21   -1    0    0  504  501  0.00000000000E+00  0.00000000000E+00  0.91195524673E+02  0.91195524673E+02  0.00000000000E+00 0. -1.
         21   -1    0    0  501  502 -0.00000000000E+00 -0.00000000000E+00 -0.45395135176E+02  0.45395135176E+02  0.00000000000E+00 0.  1.
         21    1    1    2  503  502 -0.92941093257E+00 -0.39920296785E+02 -0.30651402202E+02  0.50338875207E+02  0.00000000000E+00 0.  1.
         21    1    1    2  504  503  0.92941093257E+00  0.39920296785E+02  0.76451791699E+02  0.86251784643E+02  0.00000000000E+00 0. -1.
</event>
<event>
 4    1  0.1602044E+006  0.3718752E+02  0.7546771E-02  0.1365805E+00
         21   -1    0    0  504  501  0.00000000000E+00  0.00000000000E+00  0.84724006257E+01  0.84724006257E+01  0.00000000000E+00 0. -1.
         21   -1    0    0  503  502 -0.00000000000E+00 -0.00000000000E+00 -0.18509191298E+03  0.18509191298E+03  0.00000000000E+00 0. -1.
         21    1    1    2  503  501 -0.20544351021E+02  0.30997443910E+02 -0.55044545557E+02  0.66429013867E+02  0.00000000000E+00 0. -1.
         21    1    1    2  504  502  0.20544351021E+02 -0.30997443910E+02 -0.12157496680E+03  0.12713529974E+03  0.00000000000E+00 0. -1.
</event>
<event>
 4    1  0.1602044E+006  0.2646196E+02  0.7546771E-02  0.1453089E+00
         21   -1    0    0  502  501  0.00000000000E+00  0.00000000000E+00  0.11506866582E+03  0.11506866582E+03  0.00000000000E+00 0.  1.
         21   -1    0    0  503  502 -0.00000000000E+00 -0.00000000000E+00 -0.26449908987E+02  0.26449908987E+02  0.00000000000E+00 0.  1.
         21    1    1    2  503  504 -0.26446210797E+02  0.91292769834E+00 -0.17778760516E+02  0.31879771454E+02  0.00000000000E+00 0.  1.
         21    1    1    2  504  501  0.26446210797E+02 -0.91292769834E+00  0.10639751735E+03  0.10963880335E+03  0.00000000000E+00 0.  1.
</event>
<event>
 4    1  0.1602044E+006  0.2292598E+02  0.7546771E-02  0.1493430E+00
         21   -1    0    0  504  501  0.00000000000E+00  0.00000000000E+00  0.49682295481E+02  0.49682295481E+02  0.00000000000E+00 0. -1.
         21   -1    0    0  503  502 -0.00000000000E+00 -0.00000000000E+00 -0.24526912429E+02  0.24526912429E+02  0.00000000000E+00 0. -1.
         21    1    1    2  503  501  0.16528396888E+02  0.15887505813E+02  0.40558308538E+02  0.46589453056E+02  0.00000000000E+00 0. -1.
         21    1    1    2  504  502 -0.16528396888E+02 -0.15887505813E+02 -0.15402925485E+02  0.27619754854E+02  0.00000000000E+00 0. -1.
</event>
<event>
 4    1  0.1602044E+006  0.2385576E+02  0.7546771E-02  0.1482023E+00
         21   -1    0    0  504  501  0.00000000000E+00  0.00000000000E+00  0.19993775807E+02  0.19993775807E+02  0.00000000000E+00 0.  1.
         21   -1    0    0  503  502 -0.00000000000E+00 -0.00000000000E+00 -0.73095653896E+02  0.73095653896E+02  0.00000000000E+00 0.  1.
         21    1    1    2  503  501  0.18505079426E+02  0.15055214124E+02  0.98194042249E+01  0.25797638190E+02  0.00000000000E+00 0.  1.
         21    1    1    2  504  502 -0.18505079426E+02 -0.15055214124E+02 -0.62921282314E+02  0.67291791513E+02  0.00000000000E+00 0.  1.
</event>
<event>
 4    1  0.1602044E+006  0.2038958E+02  0.7546771E-02  0.1528161E+00
         21   -1    0    0  503  501  0.00000000000E+00  0.00000000000E+00  0.83940518458E+02  0.83940518458E+02  0.00000000000E+00 0. -1.
         21   -1    0    0  504  502 -0.00000000000E+00 -0.00000000000E+00 -0.54081548479E+01  0.54081548479E+01  0.00000000000E+00 0. -1.
         21    1    1    2  503  502 -0.32426399093E+01 -0.20130080441E+02  0.26302117202E+02  0.33279666787E+02  0.00000000000E+00 0. -1.
         21    1    1    2  504  501  0.32426399093E+01  0.20130080441E+02  0.52230246409E+02  0.56069006520E+02  0.00000000000E+00 0. -1.
</event>
<event>
 4    1  0.1602044E+006  0.2628034E+02  0.7546771E-02  0.1454974E+00
         21   -1    0    0  504  501  0.00000000000E+00  0.00000000000E+00  0.15629546154E+03  0.15629546154E+03  0.00000000000E+00 0.  1.
         21   -1    0    0  501  502 -0.00000000000E+00 -0.00000000000E+00 -0.76689098617E+02  0.76689098617E+02  0.00000000000E+00 0.  1.
         21    1    1    2  503  502 -0.26280077189E+02 -0.11821866337E+00 -0.73283095587E+02  0.77852864632E+02  0.00000000000E+00 0.  1.
         21    1    1    2  504  503  0.26280077189E+02  0.11821866337E+00  0.15288945851E+03  0.15513169553E+03  0.00000000000E+00 0.  1.
</event>
<event>
 4    1  0.1602044E+006  0.2347297E+02  0.7546771E-02  0.1486643E+00
         21   -1    0    0  503  501  0.00000000000E+00  0.00000000000E+00  0.94427844809E+02  0.94427844809E+02  0.00000000000E+00 0. -1.
         21   -1    0    0  504  502 -0.00000000000E+00 -0.00000000000E+00 -0.24688172212E+03  0.24688172212E+03  0.00000000000E+00 0. -1.
         21    1    1    2  503  502 -0.82468067673E+01  0.21976590032E+02 -0.24485299010E+03  0.24597554165E+03  0.00000000000E+00 0. -1.
         21    1    1    2  504  501  0.82468067673E+01 -0.21976590032E+02  0.92399112787E+02  0.95334025275E+02  0.00000000000E+00 0. -1.
</event>
<event>
 4    1  0.1602044E+006  0.2803129E+02  0.7546771E-02  0.1437515E+00
         21   -1    0    0  504  501  0.00000000000E+00  0.00000000000E+00  0.31698279857E+01  0.31698279857E+01  0.00000000000E+00 0.  1.
         21   -1    0    0  503  502 -0.00000000000E+00 -0.00000000000E+00 -0.97719054951E+03  0.97719054951E+03  0.00000000000E+00 0.  1.
         21    1    1    2  503  501  0.27685989665E+02  0.43862449626E+01 -0.63542113801E+02  0.69450366413E+02  0.00000000000E+00 0.  1.
         21    1    1    2  504  502 -0.27685989665E+02 -0.43862449626E+01 -0.91047860772E+03  0.91091001108E+03  0.00000000000E+00 0.  1.
</event>
<event>
 4    1  0.1602044E+006  0.2742114E+02  0.7546771E-02  0.1443423E+00
         21   -1    0    0  504  501  0.00000000000E+00  0.00000000000E+00  0.37583829549E+01  0.37583829549E+01  0.00000000000E+00 0. -1.
         21   -1    0    0  503  502 -0.00000000000E+00 -0.00000000000E+00 -0.34641616008E+03  0.34641616008E+03  0.00000000000E+00 0. -1.
         21    1    1    2  503  501 -0.20508059392E+02  0.18202699233E+02 -0.57525700786E+02  0.63726956701E+02  0.00000000000E+00 0. -1.
         21    1    1    2  504  502  0.20508059392E+02 -0.18202699233E+02 -0.28513207634E+03  0.28644758633E+03  0.00000000000E+00 0. -1.
</event>
<event>
 4    1  0.1602044E+006  0.2405028E+02  0.7546771E-02  0.1479715E+00
         21   -1    0    0  503  501  0.00000000000E+00  0.00000000000E+00  0.33545965119E+01  0.33545965119E+01  0.00000000000E+00 0.  1.
         21   -1    0    0  504  502 -0.00000000000E+00 -0.00000000000E+00 -0.21258757628E+03  0.21258757628E+03  0.00000000000E+00 0.  1.
         21    1    1    2  503  502 -0.23382197237E+02  0.56292858063E+01 -0.15154640749E+03  0.15344291977E+03  0.00000000000E+00 0.  1.
         21    1    1    2  504  501  0.23382197237E+02 -0.56292858063E+01 -0.57686572278E+02  0.62499253016E+02  0.00000000000E+00 0.  1.
</event>
<event>
 4    1  0.1602044E+006  0.3954429E+02  0.7546771E-02  0.1351177E+00
         21   -1    0    0  503  501  0.00000000000E+00  0.00000000000E+00  0.16319916042E+03  0.16319916042E+03  0.00000000000E+00 0. -1.
         21   -1    0    0  504  502 -0.00000000000E+00 -0.00000000000E+00 -0.10694804736E+02  0.10694804736E+02  0.00000000000E+00 0. -1.
         21    1    1    2  503  502 -0.38979888108E+02  0.66572645781E+01  0.48203934134E+02  0.62348777972E+02  0.00000000000E+00 0. -1.
         21    1    1    2  504  501  0.38979888108E+02 -0.66572645781E+01  0.10430042155E+03  0.11154518719E+03  0.00000000000E+00 0. -1.
</event>
<event>
 4    1  0.1602044E+006  0.3613796E+02  0.7546771E-02  0.1372735E+00
         21   -1    0    0  504  501  0.00000000000E+00  0.00000000000E+00  0.72016693477E+02  0.72016693477E+02  0.00000000000E+00 0. -1.
         21   -1    0    0  503  502 -0.00000000000E+00 -0.00000000000E+00 -0.18335432847E+02  0.18335432847E+02  0.00000000000E+00 0. -1.
         21    1    1    2  503  501 -0.35946741444E+02 -0.37126248345E+01  0.31575540179E+02  0.47989233597E+02  0.00000000000E+00 0. -1.
         21    1    1    2  504  502  0.35946741444E+02  0.37126248345E+01  0.22105720451E+02  0.42362892727E+02  0.00000000000E+00 0. -1.
</event>
<event>
 4    1  0.1602044E+006  0.2716337E+02  0.7546771E-02  0.1445974E+00
         21   -1    0    0  504  501  0.00000000000E+00  0.00000000000E+00  0.36412727213E+02  0.36412727213E+02  0.00000000000E+00 0.  1.
         21   -1    0    0  503  502 -0.00000000000E+00 -0.00000000000E+00 -0.28520195528E+02  0.28520195528E+02  0.00000000000E+00 0.  1.
         21    1    1    2  503  501 -0.84685398349E+01  0.25809543985E+02 -0.13522501210E+02  0.30343150242E+02  0.00000000000E+00 0.  1.
         21    1    1    2  504  502  0.84685398349E+01 -0.25809543985E+02  0.21415032894E+02  0.34589772499E+02  0.00000000000E+00 0.  1.
</event>
<event>
 4    1  0.1602044E+006  0.2153324E+02  0.7546771E-02  0.1511786E+00
         21   -1    0    0  502  501  0.00000000000E+00  0.00000000000E+00  0.70494663810E+03  0.70494663810E+03  0.00000000000E+00 0. -1.
         21   -1    0    0  504  502 -0.00000000000E+00 -0.00000000000E+00 -0.91731383193E+01  0.91731383193E+01  0.00000000000E+00 0.  1.
         21    1    1    2  503  501 -0.97254063991E+01  0.19211896656E+02  0.69190719653E+03  0.69224218963E+03  0.00000000000E+00 0. -1.
         21    1    1    2  504  503  0.97254063991E+01 -0.19211896656E+02  0.38663032543E+01  0.21877586786E+02  0.00000000000E+00 0.  1.
</event>
<event>
 4    1  0.1602044E+006  0.2595267E+02  0.7546771E-02  0.1458422E+00
         21   -1    0    0  504  501  0.00000000000E+00  0.00000000000E+00  0.12385783592E+03  0.12385783592E+03  0.00000000000E+00 0. -1.
         21   -1    0    0  503  502 -0.00000000000E+00 -0.00000000000E+00 -0.37264184465E+02  0.37264184465E+02  0.00000000000E+00 0.  1.
         21    1    1    2  503  501  0.64798920140E+01  0.25130697143E+02 -0.31154300029E+02  0.40547889584E+02  0.00000000000E+00 0.  1.
         21    1    1    2  504  502 -0.64798920140E+01 -0.25130697143E+02  0.11774795148E+03  0.12057413080E+03  0.00000000000E+00 0. -1.
</event>
<event>
 4    1  0.1602044E+006  0.2454024E+02  0.7546771E-02  0.1474013E+00
         21   -1    0    0  502  501  0.00000000000E+00  0.00000000000E+00  0.27101669879E+02  0.27101669879E+02  0.00000000000E+00 0.  1.
         21   -1    0    0  504  502 -0.00000000000E+00 -0.00000000000E+00 -0.22790108059E+02  0.22790108059E+02  0.00000000000E+00 0.  1.
         21    1    1    2  503  501  0.24024015100E+02 -0.50069965310E+01  0.60982096554E+01  0.25286586895E+02  0.00000000000E+00 0.  1.
         21    1    1    2  504  503 -0.24024015100E+02  0.50069965310E+01 -0.17866478355E+01  0.24605191043E+02  0.00000000000E+00 0.  1.
</event>
<event>
 4    1  0.1602044E+006  0.2306869E+02  0.7546771E-02  0.1491637E+00
         21   -1    0    0  504  501  0.00000000000E+00  0.00000000000E+00  0.29403131853E+02  0.29403131853E+02  0.00000000000E+00 0.  1.
         21   -1    0    0  503  502 -0.00000000000E+00 -0.00000000000E+00 -0.25272598434E+02  0.25272598434E+02  0.00000000000E+00 0.  1.
         21    1    1    2  503  501 -0.32453962138E+01  0.22839266048E+02 -0.12499746058E+02  0.26237536503E+02  0.00000000000E+00 0.  1.
         21    1    1    2  504  502  0.32453962138E+01 -0.22839266048E+02  0.16630279477E+02  0.28438193784E+02  0.00000000000E+00 0.  1.
</event>
<event>
 4    1  0.1602044E+006  0.2656217E+02  0.7546771E-02  0.1452056E+00
         21   -1    0    0  502  501  0.00000000000E+00  0.00000000000E+00  0.75835035653E+03  0.75835035653E+03  0.00000000000E+00 0.  1.
         21   -1    0    0  503  502 -0.00000000000E+00 -0.00000000000E+00 -0.13304635920E+01  0.13304635920E+01  0.00000000000E+00 0. -1.
         21    1    1    2  503  504 -0.31244346299E+01  0.26377769055E+02  0.17021498256E+03  0.17227503905E+03  0.00000000000E+00 0. -1.
         21    1    1    2  504  501  0.31244346299E+01 -0.26377769055E+02  0.58680491038E+03  0.58740578107E+03  0.00000000000E+00 0.  1.
</event>
<event>
 4    1  0.1602044E+006  0.2442121E+02  0.7546771E-02  0.1475383E+00
         21   -1    0    0  503  501  0.00000000000E+00  0.00000000000E+00  0.18690861215E+02  0.18690861215E+02  0.00000000000E+00 0.  1.
         21   -1    0    0  501  502 -0.00000000000E+00 -0.00000000000E+00 -0.35380764728E+02  0.35380764728E+02  0.00000000000E+00 0.  1.
         21    1    1    2  503  504 -0.24409076117E+02 -0.76988453595E+00  0.12474146882E+00  0.24421533112E+02  0.00000000000E+00 0.  1.
         21    1    1    2  504  502  0.24409076117E+02  0.76988453595E+00 -0.16814644982E+02  0.29650092832E+02  0.00000000000E+00 0.  1.
</event>
<event>
 4    1  0.1602044E+006  0.2808103E+02  0.7546771E-02  0.1437041E+00
         21   -1    0    0  502  501  0.00000000000E+00  0.00000000000E+00  0.36658788494E+03  0.36658788494E+03  0.00000000000E+00 0. -1.
         21   -1    0    0  503  502 -0.00000000000E+00 -0.00000000000E+00 -0.45234732705E+01  0.45234732705E+01  0.00000000000E+00 0.  1.
         21    1    1    2  503  504 -0.28010780803E+01 -0.27940974063E+02  0.46651931686E+02  0.54451325053E+02  0.00000000000E+00 0.  1.
         21    1    1    2  504  501  0.28010780803E+01  0.27940974063E+02  0.31541247999E+03  0.31666003316E+03  0.00000000000E+00 0. -1.
</event>
<event>
 4    1  0.1602044E+006  0.2293307E+02  0.7546771E-02  0.1493340E+00
         21   -1    0    0  504  501  0.00000000000E+00  0.00000000000E+00  0.70593655689E+03  0.70593655689E+03  0.00000000000E+00 0.  1.
         21   -1    0    0  503  502 -0.00000000000E+00 -0.00000000000E+00 -0.27327998834E+01  0.27327998834E+01  0.00000000000E+00 0.  1.
         21    1    1    2  503  501 -0.15732712729E+02 -0.16685542849E+02  0.49401063165E+02  0.54464581444E+02  0.00000000000E+00 0.  1.
         21    1    1    2  504  502  0.15732712729E+02  0.16685542849E+02  0.65380269384E+03  0.65420477532E+03  0.00000000000E+00 0.  1.
</event>
<event>
 4    1  0.1602044E+006  0.2251295E+02  0.7546771E-02  0.1498706E+00
         21   -1    0    0  503  501  0.00000000000E+00  0.00000000000E+00  0.44207876990E+01  0.44207876990E+01  0.00000000000E+00 0.  1.
         21   -1    0    0  504  502 -0.00000000000E+00 -0.00000000000E+00 -0.12741118420E+03  0.12741118420E+03  0.00000000000E+00 0.  1.
         21    1    1    2  503  502  0.97465118547E+01  0.20293805511E+02 -0.40632426409E+02  0.46452417712E+02  0.00000000000E+00 0.  1.
         21    1    1    2  504  501 -0.97465118547E+01 -0.20293805511E+02 -0.82357970091E+02  0.85379554186E+02  0.00000000000E+00 0.  1.
</event>
<event>
 4    1  0.1602044E+006  0.2235538E+02  0.7546771E-02  0.1500755E+00
         21   -1    0    0  504  501  0.00000000000E+00  0.00000000000E+00  0.16847671792E+02  0.16847671792E+02  0.00000000000E+00 0. -1.
         21   -1    0    0  503  502 -0.00000000000E+00 -0.00000000000E+00 -0.34614617962E+02  0.34614617962E+02  0.00000000000E+00 0. -1.
         21    1    1    2  503  501  0.21369535374E+02 -0.65655228081E+01  0.84792407224E+00  0.22371457419E+02  0.00000000000E+00 0. -1.
         21    1    1    2  504  502 -0.21369535374E+02  0.65655228081E+01 -0.18614870242E+02  0.29090832335E+02  0.00000000000E+00 0. -1.
</event>
<event>
 4    1  0.1602044E+006  0.2057370E+02  0.7546771E-02  0.1525439E+00
         21   -1    0    0  504  501  0.00000000000E+00  0.00000000000E+00  0.37837076729E+01  0.37837076729E+01  0.00000000000E+00 0.  1.
         21   -1    0    0  501  502 -0.00000000000E+00 -0.00000000000E+00 -0.11218071961E+03  0.11218071961E+03  0.00000000000E+00 0.  1.
         21    1    1    2  503  502  0.14687272005E+02 -0.14406977282E+02 -0.57258378235E+02  0.60842409810E+02  0.00000000000E+00 0.  1.
         21    1    1    2  504  503 -0.14687272005E+02  0.14406977282E+02 -0.51138633700E+02  0.55122017471E+02  0.00000000000E+00 0.  1.
</event>
<event>
 4    1  0.1602044E+006  0.2200965E+02  0.7546771E-02  0.1505323E+00
         21   -1    0    0  504  501  0.00000000000E+00  0.00000000000E+00  0.39291267952E+03  0.39291267952E+03  0.00000000000E+00 0. -1.
         21   -1    0    0  501  502 -0.00000000000E+00 -0.00000000000E+00 -0.31192118604E+01  0.31192118604E+01  0.00000000000E+00 0. -1.
         21    1    1    2  503  502 -0.16853950216E+02  0.14155178008E+02  0.40909862238E+02  0.46454725601E+02  0.00000000000E+00 0. -1.
         21    1    1    2  504  503  0.16853950216E+02 -0.14155178008E+02  0.34888360542E+03  0.34957716578E+03  0.00000000000E+00 0. -1.
</event>
<event>
 4    1  0.1602044E+006  0.2189539E+02  0.7546771E-02  0.1506855E+00
         21   -1    0    0  502  501  0.00000000000E+00  0.00000000000E+00  0.10581418823E+03  0.10581418823E+03  0.00000000000E+00 0.  1.
         21   -1    0    0  504  502 -0.00000000000E+00 -0.00000000000E+00 -0.12562871491E+02  0.12562871491E+02  0.00000000000E+00 0.  1.
         21    1    1    2  503  501  0.21445774471E+02  0.44143930570E+01  0.93952842134E+02  0.96470434092E+02  0.00000000000E+00 0.  1.
         21    1    1    2  504  503 -0.21445774471E+02 -0.44143930570E+01 -0.70152539105E+00  0.21906625633E+02  0.00000000000E+00 0.  1.
</event>
<event>
 4    1  0.1602044E+006  0.2087156E+02  0.7546771E-02  0.1521107E+00
         21   -1    0    0  503  501  0.00000000000E+00  0.00000000000E+00  0.99869033752E+01  0.99869033752E+01  0.00000000000E+00 0.  1.
         21   -1    0    0  501  502 -0.00000000000E+00 -0.00000000000E+00 -0.45738182465E+02  0.45738182465E+02  0.00000000000E+00 0.  1.
         21    1    1    2  503  504 -0.15183291143E+02  0.14320958541E+02 -0.23872585358E+02  0.31709975010E+02  0.00000000000E+00 0.  1.
         21    1    1    2  504  502  0.15183291143E+02 -0.14320958541E+02 -0.11878693732E+02  0.24015110831E+02  0.00000000000E+00 0.  1.
</event>
<event>
 4    1  0.1602044E+006  0.2101188E+02  0.7546771E-02  0.1519095E+00
         21   -1    0    0  504  501  0.00000000000E+00  0.00000000000E+00  0.38168238076E+02  0.38168238076E+02  0.00000000000E+00 0. -1.
         21   -1    0    0  503  502 -0.00000000000E+00 -0.00000000000E+00 -0.15802737431E+03  0.15802737431E+03  0.00000000000E+00 0. -1.
         21    1    1    2  503  501  0.15190036363E+02 -0.14517640896E+02  0.34509768434E+02  0.40403257533E+02  0.00000000000E+00 0. -1.
         21    1    1    2  504  502 -0.15190036363E+02  0.14517640896E+02 -0.15436890467E+03  0.15579235486E+03  0.00000000000E+00 0. -1.
</event>
<event>
 4    1  0.1602044E+006  0.2238193E+02  0.7546771E-02  0.1500409E+00
         21   -1    0    0  504  501  0.00000000000E+00  0.00000000000E+00  0.17425236834E+03  0.17425236834E+03  0.00000000000E+00 0.  1.
         21   -1    0    0  503  502 -0.00000000000E+00 -0.00000000000E+00 -0.80881378503E+01  0.80881378503E+01  0.00000000000E+00 0.  1.
         21    1    1    2  503  501  0.20622394297E+02  0.86987124409E+01  0.15627762240E+03  0.15787224585E+03  0.00000000000E+00 0.  1.
         21    1    1    2  504  502 -0.20622394297E+02 -0.86987124409E+01  0.98866080832E+01  0.24468260340E+02  0.00000000000E+00 0.  1.
</event>
<event>
 4    1  0.1602044E+006  0.2061206E+02  0.7546771E-02  0.1524876E+00
         21   -1    0    0  504  501  0.00000000000E+00  0.00000000000E+00  0.48083180969E+02  0.48083180969E+02  0.00000000000E+00 0. -1.
         21   -1    0    0  503  502 -0.00000000000E+00 -0.00000000000E+00 -0.10520299098E+02  0.10520299098E+02  0.00000000000E+00 0. -1.
         21    1    1    2  503  501 -0.10577306898E+02 -0.17691175498E+02  0.70566602413E+01  0.21786545515E+02  0.00000000000E+00 0. -1.
         21    1    1    2  504  502  0.10577306898E+02  0.17691175498E+02  0.30506221629E+02  0.36816934552E+02  0.00000000000E+00 0. -1.
</event>
<event>
 4    1  0.1602044E+006  0.3490867E+02  0.7546771E-02  0.1381206E+00
         21   -1    0    0  504  501  0.00000000000E+00  0.00000000000E+00  0.10821916901E+02  0.10821916901E+02  0.00000000000E+00 0. -1.
         21   -1    0    0  503  502 -0.00000000000E+00 -0.00000000000E+00 -0.20689701905E+03  0.20689701905E+03  0.00000000000E+00 0. -1.
         21    1    1    2  503  501  0.33295596775E+02  0.10488965665E+02 -0.17152678949E+03  0.17504300808E+03  0.00000000000E+00 0. -1.
         21    1    1    2  504  502 -0.33295596775E+02 -0.10488965665E+02 -0.24548312664E+02  0.42675927875E+02  0.00000000000E+00 0. -1.
</event>
<event>
 4    1  0.1602044E+006  0.2802408E+02  0.7546771E-02  0.1437584E+00
         21   -1    0    0  502  501  0.00000000000E+00  0.00000000000E+00  0.31123277346E+02  0.31123277346E+02  0.00000000000E+00 0. -1.
         21   -1    0    0  504  502 -0.00000000000E+00 -0.00000000000E+00 -0.31480049834E+03  0.31480049834E+03  0.00000000000E+00 0.  1.
         21    1    1    2  503  501 -0.24503443547E+02  0.13598908957E+02  0.24046439102E+02  0.36926688235E+02  0.00000000000E+00 0. -1.
         21    1    1    2  504  503  0.24503443547E+02 -0.13598908957E+02 -0.30772366010E+03  0.30899708745E+03  0.00000000000E+00 0.  1.
</event>
<event>
 4    1  0.1602044E+006  0.2226161E+02  0.7546771E-02  0.1501984E+00
         21   -1    0    0  503  501  0.00000000000E+00  0.00000000000E+00  0.12297958297E+03  0.12297958297E+03  0.00000000000E+00 0. -1.
         21   -1    0    0  504  502 -0.00000000000E+00 -0.00000000000E+00 -0.40607658428E+01  0.40607658428E+01  0.00000000000E+00 0. -1.
         21    1    1    2  503  502 -0.74773542495E+01 -0.20968274296E+02  0.65009038456E+02  0.68715023354E+02  0.00000000000E+00 0. -1.
         21    1    1    2  504  501  0.74773542495E+01  0.20968274296E+02  0.53909778668E+02  0.58325325456E+02  0.00000000000E+00 0. -1.
</event>
<event>
 4    1  0.1602044E+006  0.2012127E+02  0.7546771E-02  0.1532190E+00
         21   -1    0    0  504  501  0.00000000000E+00  0.00000000000E+00  0.35447779763E+02  0.35447779763E+02  0.00000000000E+00 0.  1.
         21   -1    0    0  503  502 -0.00000000000E+00 -0.00000000000E+00 -0.11999849537E+02  0.11999849537E+02  0.00000000000E+00 0.  1.
         21    1    1    2  503  501  0.19265157215E+02 -0.58068194668E+01  0.16932390568E+02  0.26297742968E+02  0.00000000000E+00 0.  1.
         21    1    1    2  504  502 -0.19265157215E+02  0.58068194668E+01  0.65155396586E+01  0.21149886333E+02  0.00000000000E+00 0.  1.
</event>
<event>
 4    1  0.1602044E+006  0.3349548E+02  0.7546771E-02  0.1391460E+00
         21   -1    0    0  504  501  0.00000000000E+00  0.00000000000E+00  0.26653533886E+01  0.26653533886E+01  0.00000000000E+00 0. -1.
         21   -1    0    0  503  502 -0.00000000000E+00 -0.00000000000E+00 -0.44138556971E+03  0.44138556971E+03  0.00000000000E+00 0. -1.
         21    1    1    2  503  501  0.32771389901E+02  0.69269955618E+01 -0.17157202732E+03  0.17481106322E+03  0.00000000000E+00 0. -1.
         21    1    1    2  504  502 -0.32771389901E+02 -0.69269955618E+01 -0.26714818900E+03  0.26923985988E+03  0.00000000000E+00 0. -1.
</event>
<event>
 4    1  0.1602044E+006  0.3160525E+02  0.7546771E-02  0.1406141E+00
         21   -1    0    0  502  501  0.00000000000E+00  0.00000000000E+00  0.41781493678E+02  0.41781493678E+02  0.00000000000E+00 0.  1.
         21   -1    0    0  504  502 -0.00000000000E+00 -0.00000000000E+00 -0.26288798985E+02  0.26288798985E+02  0.00000000000E+00 0. -1.
         21    1    1    2  503  501  0.11659897438E+02 -0.29375812805E+02  0.17989840099E+02  0.36366549644E+02  0.00000000000E+00 0. -1.
         21    1    1    2  504  503 -0.11659897438E+02  0.29375812805E+02 -0.24971454063E+01  0.31703743019E+02  0.00000000000E+00 0.  1.
</event>
<event>
 4    1  0.1602044E+006  0.2067083E+02  0.7546771E-02  0.1524017E+00
         21   -1    0    0  502  501  0.00000000000E+00  0.00000000000E+00  0.18792862674E+03  0.18792862674E+03  0.00000000000E+00 0.  1.
         21   -1    0    0  504  502 -0.00000000000E+00 -0.00000000000E+00 -0.82349092846E+02  0.82349092846E+02  0.00000000000E+00 0.  1.
         21    1    1    2  503  501 -0.46237357981E+01 -0.20147066188E+02  0.18604998682E+03  0.18719476704E+03  0.00000000000E+00 0.  1.
         21    1    1    2  504  503  0.46237357981E+01  0.20147066188E+02 -0.80470452932E+02  0.83082952546E+02  0.00000000000E+00 0.  1.
</event>
<event>
 4    1  0.1602044E+006  0.2242863E+02  0.7546771E-02  0.1499800E+00
         21   -1    0    0  504  501  0.00000000000E+00  0.00000000000E+00  0.44329698884E+03  0.44329698884E+03  0.00000000000E+00 0. -1.
         21   -1    0    0  503  502 -0.00000000000E+00 -0.00000000000E+00 -0.34786319292E+03  0.34786319292E+03  0.00000000000E+00 0. -1.
         21    1    1    2  503  501 -0.11802324300E+02 -0.19072195445E+02  0.44265124343E+03  0.44321909572E+03  0.00000000000E+00 0. -1.
         21    1    1    2  504  502  0.11802324300E+02  0.19072195445E+02 -0.34721744751E+03  0.34794108604E+03  0.00000000000E+00 0. -1.
</event>
<event>
 4    1  0.1602044E+006  0.2166272E+02  0.7546771E-02  0.1510010E+00
         21   -1    0    0  503  501  0.00000000000E+00  0.00000000000E+00  0.16252380080E+03  0.16252380080E+03  0.00000000000E+00 0. -1.
         21   -1    0    0  501  502 -0.00000000000E+00 -0.00000000000E+00 -0.18693958538E+02  0.18693958538E+02  0.00000000000E+00 0.  1.
         21    1    1    2  503  504  0.12396521057E+02  0.17765130833E+02  0.15523287260E+03  0.15673709945E+03  0.00000000000E+00 0. -1.
         21    1    1    2  504  502 -0.12396521057E+02 -0.17765130833E+02 -0.11403030337E+02  0.24480659891E+02  0.00000000000E+00 0.  1.
</event>
<event>
 4    1  0.1602044E+006  0.3332259E+02  0.7546771E-02  0.1392755E+00
         21   -1    0    0  504  501  0.00000000000E+00  0.00000000000E+00  0.10540109870E+03  0.10540109870E+03  0.00000000000E+00 0.  1.
         21   -1    0    0  501  502 -0.00000000000E+00 -0.00000000000E+00 -0.15333803482E+03  0.15333803482E+03  0.00000000000E+00 0. -1.
         21    1    1    2  503  502  0.28075603579E+02  0.17948687778E+02 -0.14881485475E+03  0.15250001936E+03  0.00000000000E+00 0. -1.
         21    1    1    2  504  503 -0.28075603579E+02 -0.17948687778E+02  0.10087791864E+03  0.10623911416E+03  0.00000000000E+00 0.  1.
</event>
<event>
 4    1  0.1602044E+006  0.2435408E+02  0.7546771E-02  0.1476161E+00
         21   -1    0    0  503  501  0.00000000000E+00  0.00000000000E+00  0.20561104907E+03  0.20561104907E+03  0.00000000000E+00 0.  1.
         21   -1    0    0  504  502 -0.00000000000E+00 -0.00000000000E+00 -0.31435404176E+03  0.31435404176E+03  0.00000000000E+00 0. -1.
         21    1    1    2  503  502  0.10850720251E+02 -0.21803284391E+02  0.20441543223E+03  0.20586109461E+03  0.00000000000E+00 0.  1.
         21    1    1    2  504  501 -0.10850720251E+02  0.21803284391E+02 -0.31315842492E+03  0.31410399622E+03  0.00000000000E+00 0. -1.
</event>
<event>
 4    1  0.1602044E+006  0.2005229E+02  0.7546771E-02  0.1533238E+00
         21   -1    0    0  504  501  0.00000000000E+00  0.00000000000E+00  0.90324034944E+01  0.90324034944E+01  0.00000000000E+00 0. -1.
         21   -1    0    0  503  502 -0.00000000000E+00 -0.00000000000E+00 -0.17415616800E+03  0.17415616800E+03  0.00000000000E+00 0.  1.
         21    1    1    2  503  501 -0.19257039138E+02 -0.55911515484E+01 -0.35363829489E+01  0.20361741978E+02  0.00000000000E+00 0. -1.
         21    1    1    2  504  502  0.19257039138E+02  0.55911515484E+01 -0.16158738155E+03  0.16282682951E+03  0.00000000000E+00 0.  1.
</event>
<event>
 4    1  0.1602044E+006  0.2711991E+02  0.7546771E-02  0.1446407E+00
         21   -1    0    0  504  501  0.00000000000E+00  0.00000000000E+00  0.61890369611E+01  0.61890369611E+01  0.00000000000E+00 0. -1.
         21   -1    0    0  501  502 -0.00000000000E+00 -0.00000000000E+00 -0.41747638195E+03  0.41747638195E+03  0.00000000000E+00 0. -1.
         21    1    1    2  503  502 -0.25166910522E+02 -0.10105244945E+02 -0.38480747807E+03  0.38576195320E+03  0.00000000000E+00 0. -1.
         21    1    1    2  504  503  0.25166910522E+02  0.10105244945E+02 -0.26479866920E+02  0.37903465709E+02  0.00000000000E+00 0. -1.
</event>
<event>
 4    1  0.1602044E+006  0.2504441E+02  0.7546771E-02  0.1468307E+00
         21   -1    0    0  503  501  0.00000000000E+00  0.00000000000E+00  0.18259077587E+02  0.18259077587E+02  0.00000000000E+00 0.  1.
         21   -1    0    0  504  502 -0.00000000000E+00 -0.00000000000E+00 -0.38018027521E+02  0.38018027521E+02  0.00000000000E+00 0.  1.
         21    1    1    2  503  502 -0.12745116722E+02 -0.21558859004E+02 -0.11407435650E+01  0.25070374901E+02  0.00000000000E+00 0.  1.
         21    1    1    2  504  501  0.12745116722E+02  0.21558859004E+02 -0.18618206369E+02  0.31206730207E+02  0.00000000000E+00 0.  1.
</event>
<event>
 4    1  0.1602044E+006  0.2025861E+02  0.7546771E-02  0.1530118E+00
         21   -1    0    0  504  501  0.00000000000E+00  0.00000000000E+00  0.31487788993E+03  0.31487788993E+03  0.00000000000E+00 0. -1.
         21   -1    0    0  503  502 -0.00000000000E+00 -0.00000000000E+00 -0.64321796262E+01  0.64321796262E+01  0.00000000000E+00 0. -1.
         21    1    1    2  503  501 -0.18771268848E+02 -0.76191106731E+01  0.29768005173E+03  0.29836860522E+03  0.00000000000E+00 0. -1.
         21    1    1    2  504  502  0.18771268848E+02  0.76191106731E+01  0.10765658581E+02  0.22941464345E+02  0.00000000000E+00 0. -1.
</event>
<event>
 4    1  0.1602044E+006  0.2072719E+02  0.7546771E-02  0.1523196E+00
         21   -1    0    0  503  501  0.00000000000E+00  0.00000000000E+00  0.18166578416E+03  0.18166578416E+03  0.00000000000E+00 0.  1.
         21   -1    0    0  504  502 -0.00000000000E+00 -0.00000000000E+00 -0.15338503998E+03  0.15338503998E+03  0.00000000000E+00 0. -1.
         21    1    1    2  503  502 -0.16189856279E+02 -0.12942363264E+02 -0.15208858047E+03  0.15349447066E+03  0.00000000000E+00 0. -1.
         21    1    1    2  504  501  0.16189856279E+02  0.12942363264E+02  0.18036932465E+03  0.18155635348E+03  0.00000000000E+00 0.  1.
</event>
<event>
 4    1  0.1602044E+006  0.2910150E+02  0.7546771E-02  0.1427568E+00
         21   -1    0    0  503  501  0.00000000000E+00  0.00000000000E+00  0.67070604288E+01  0.67070604288E+01  0.00000000000E+00 0. -1.
         21   -1    0    0  504  502 -0.00000000000E+00 -0.00000000000E+00 -0.12863271104E+03  0.12863271104E+03  0.00000000000E+00 0. -1.
         21    1    1    2  503  502 -0.15501026694E+02 -0.24629561424E+02 -0.70134984102E+02  0.75932951473E+02  0.00000000000E+00 0. -1.
         21    1    1    2  504  501  0.15501026694E+02  0.24629561424E+02 -0.51790666514E+02  0.59406820000E+02  0.00000000000E+00 0. -1.
</event>
<event>
 4    1  0.1602044E+006  0.1070955E+03  0.7546771E-02  0.1152050E+00
         21   -1    0    0  504  501  0.00000000000E+00  0.00000000000E+00  0.35346279147E+03  0.35346279147E+03  0.00000000000E+00 0. -1.
         21   -1    0    0  501  502 -0.00000000000E+00 -0.00000000000E+00 -0.51089604149E+02  0.51089604149E+02  0.00000000000E+00 0. -1.
         21    1    1    2  503  502  0.10689141965E+03  0.66085387238E+01  0.29003625436E+02  0.11095340764E+03  0.00000000000E+00 0. -1.
         21    1    1    2  504  503 -0.10689141965E+03 -0.66085387238E+01  0.27336956188E+03  0.29359898798E+03  0.00000000000E+00 0. -1.
</event>
<event>
 4    1  0.1602044E+006  0.2040937E+02  0.7546771E-02  0.1527867E+00
         21   -1    0    0  503  501  0.00000000000E+00  0.00000000000E+00  0.10510217277E+04  0.10510217277E+04  0.00000000000E+00 0. -1.
         21   -1    0    0  504  502 -0.00000000000E+00 -0.00000000000E+00 -0.24214661934E+01  0.24214661934E+01  0.00000000000E+00 0. -1.
         21    1    1    2  503  502 -0.57439485652E+01  0.19584416477E+02  0.10059927255E+04  0.10061997346E+04  0.00000000000E+00 0. -1.
         21    1    1    2  504  501  0.57439485652E+01 -0.19584416477E+02  0.42607536019E+02  0.47243459224E+02  0.00000000000E+00 0. -1.
</event>
<event>
 4    1  0.1602044E+006  0.2125121E+02  0.7546771E-02  0.1515708E+00
         21   -1    0    0  502  501  0.00000000000E+00  0.00000000000E+00  0.32987473797E+02  0.32987473797E+02  0.00000000000E+00 0.  1.
         21   -1    0    0  503  502 -0.00000000000E+00 -0.00000000000E+00 -0.84585175460E+02  0.84585175460E+02  0.00000000000E+00 0.  1.
         21    1    1    2  503  504 -0.44061058806E+01  0.20789421320E+02 -0.79617910110E+02  0.82405251156E+02  0.00000000000E+00 0.  1.
         21    1    1    2  504  501  0.44061058806E+01 -0.20789421320E+02  0.28020208446E+02  0.35167398101E+02  0.00000000000E+00 0.  1.
</event>
<event>
 4    1  0.1602044E+006  0.3593848E+02  0.7546771E-02  0.1374083E+00
         21   -1    0    0  504  501  0.00000000000E+00  0.00000000000E+00  0.96628684267E+01  0.96628684267E+01  0.00000000000E+00 0. -1.
         21   -1    0    0  503  502 -0.00000000000E+00 -0.00000000000E+00 -0.26083605201E+03  0.26083605201E+03  0.00000000000E+00 0. -1.
         21    1    1    2  503  501  0.30859192633E+02 -0.18419684604E+02 -0.22002488246E+03  0.22294062764E+03  0.00000000000E+00 0. -1.
         21    1    1    2  504  502 -0.30859192633E+02  0.18419684604E+02 -0.31148301122E+02  0.47558292796E+02  0.00000000000E+00 0. -1.
</event>
<event>
 4    1  0.1602044E+006  0.2427749E+02  0.7546771E-02  0.1477051E+00
         21   -1    0    0  504  501  0.00000000000E+00  0.00000000000E+00  0.65206144233E+01  0.65206144233E+01  0.00000000000E+00 0. -1.
         21   -1    0    0  503  502 -0.00000000000E+00 -0.00000000000E+00 -0.33687057307E+03  0.33687057307E+03  0.00000000000E+00 0. -1.
         21    1    1    2  503  501  0.15243610355E+02  0.18895210728E+02 -0.31204027652E+03  0.31298327561E+03  0.00000000000E+00 0. -1.
         21    1    1    2  504  502 -0.15243610355E+02 -0.18895210728E+02 -0.18309682127E+02  0.30407911877E+02  0.00000000000E+00 0. -1.
</event>
<event>
 4    1  0.1602044E+006  0.2985378E+02  0.7546771E-02  0.1420871E+00
         21   -1    0    0  503  501  0.00000000000E+00  0.00000000000E+00  0.48424106896E+03  0.48424106896E+03  0.00000000000E+00 0.  1.
         21   -1    0    0  501  502 -0.00000000000E+00 -0.00000000000E+00 -0.42221726165E+01  0.42221726165E+01  0.00000000000E+00 0.  1.
         21    1    1    2  503  504  0.29720104521E+02 -0.28220215970E+01  0.42344115899E+03  0.42449224204E+03  0.00000000000E+00 0.  1.
         21    1    1    2  504  502 -0.29720104521E+02  0.28220215970E+01  0.56577737351E+02  0.63970999542E+02  0.00000000000E+00 0.  1.
</event>
<event>
 4    1  0.1602044E+006  0.2615293E+02  0.7546771E-02  0.1456308E+00
         21   -1    0    0  504  501  0.00000000000E+00  0.00000000000E+00  0.12817510813E+03  0.12817510813E+03  0.00000000000E+00 0. -1.
         21   -1    0    0  503  502 -0.00000000000E+00 -0.00000000000E+00 -0.60910980251E+01  0.60910980251E+01  0.00000000000E+00 0.  1.
         21    1    1    2  503  501  0.25036447849E+02  0.75599079200E+01  0.84674811866E+02  0.88621666048E+02  0.00000000000E+00 0.  1.
         21    1    1    2  504  502 -0.25036447849E+02 -0.75599079200E+01  0.37409198237E+02  0.45644540104E+02  0.00000000000E+00 0. -1.
</event>
<event>
 4    1  0.1602044E+006  0.2011070E+02  0.7546771E-02  0.1532350E+00
         21   -1    0    0  503  501  0.00000000000E+00  0.00000000000E+00  0.79434392479E+00  0.79434392479E+00  0.00000000000E+00 0. -1.
         21   -1    0    0  504  502 -0.00000000000E+00 -0.00000000000E+00 -0.51943458333E+03  0.51943458333E+03  0.00000000000E+00 0. -1.
         21    1    1    2  503  502 -0.13527405419E+02 -0.14881185620E+02 -0.29592068635E+03  0.29660325857E+03  0.00000000000E+00 0. -1.
         21    1    1    2  504  501  0.13527405419E+02  0.14881185620E+02 -0.22271955305E+03  0.22362566869E+03  0.00000000000E+00 0. -1.
</event>
<event>
 4    1  0.1602044E+006  0.3075275E+02  0.7546771E-02  0.1413166E+00
         21   -1    0    0  503  501  0.00000000000E+00  0.00000000000E+00  0.91555630910E+01  0.91555630910E+01  0.00000000000E+00 0.  1.
         21   -1    0    0  504  502 -0.00000000000E+00 -0.00000000000E+00 -0.12040137341E+03  0.12040137341E+03  0.00000000000E+00 0. -1.
         21    1    1    2  503  502 -0.12099089739E+02 -0.28272671000E+02 -0.80039372231E+02  0.85743996904E+02  0.00000000000E+00 0. -1.
         21    1    1    2  504  501  0.12099089739E+02  0.28272671000E+02 -0.31206438090E+02  0.43812939598E+02  0.00000000000E+00 0.  1.
</event>
<event>
 4    1  0.1602044E+006  0.2259406E+02  0.7546771E-02  0.1497659E+00
         21   -1    0    0  503  501  0.00000000000E+00  0.00000000000E+00  0.89598328825E+02  0.89598328825E+02  0.00000000000E+00 0.  1.
         21   -1    0    0  504  502 -0.00000000000E+00 -0.00000000000E+00 -0.37073398972E+02  0.37073398972E+02  0.00000000000E+00 0. -1.
         21    1    1    2  503  502 -0.16206599787E+02 -0.15742865317E+02 -0.32003666352E+02  0.39175583531E+02  0.00000000000E+00 0. -1.
         21    1    1    2  504  501  0.16206599787E+02  0.15742865317E+02  0.84528596205E+02  0.87496144266E+02  0.00000000000E+00 0.  1.
</event>
<event>
 4    1  0.1602044E+006  0.2951663E+02  0.7546771E-02  0.1423844E+00
         21   -1    0    0  504  501  0.00000000000E+00  0.00000000000E+00  0.42805677035E+02  0.42805677035E+02  0.00000000000E+00 0. -1.
         21   -1    0    0  503  502 -0.00000000000E+00 -0.00000000000E+00 -0.45153130921E+02  0.45153130921E+02  0.00000000000E+00 0.  1.
         21    1    1    2  503  501 -0.29197525184E+02  0.43284749059E+01 -0.33767220486E+02  0.44849262550E+02  0.00000000000E+00 0.  1.
         21    1    1    2  504  502  0.29197525184E+02 -0.43284749059E+01  0.31419766601E+02  0.43109545406E+02  0.00000000000E+00 0. -1.
</event>
<event>
 4    1  0.1602044E+006  0.3242004E+02  0.7546771E-02  0.1399669E+00
         21   -1    0    0  502  501  0.00000000000E+00  0.00000000000E+00  0.19958305206E+02  0.19958305206E+02  0.00000000000E+00 0. -1.
         21   -1    0    0  504  502 -0.00000000000E+00 -0.00000000000E+00 -0.83644101933E+02  0.83644101933E+02  0.00000000000E+00 0. -1.
         21    1    1    2  503  501 -0.26565286421E+02 -0.18583452744E+02 -0.31664224577E+00  0.32421588808E+02  0.00000000000E+00 0. -1.
         21    1    1    2  504  503  0.26565286421E+02  0.18583452744E+02 -0.63369154481E+02  0.71180818331E+02  0.00000000000E+00 0. -1.
</event>
<event>
 4    1  0.1602044E+006  0.2092480E+02  0.7546771E-02  0.1520341E+00
         21   -1    0    0  503  501  0.00000000000E+00  0.00000000000E+00  0.19253050809E+02  0.19253050809E+02  0.00000000000E+00 0. -1.
         21   -1    0    0  504  502 -0.00000000000E+00 -0.00000000000E+00 -0.46897477426E+02  0.46897477426E+02  0.00000000000E+00 0.  1.
         21    1    1    2  503  502  0.74653832176E+01  0.19547768128E+02  0.99155093684E+01  0.23155226439E+02  0.00000000000E+00 0. -1.
         21    1    1    2  504  501 -0.74653832176E+01 -0.19547768128E+02 -0.37559935985E+02  0.42995301797E+02  0.00000000000E+00 0.  1.
</event>
<event>
 4    1  0.1602044E+006  0.2185741E+02  0.7546771E-02  0.1507367E+00
         21   -1    0    0  503  501  0.00000000000E+00  0.00000000000E+00  0.10103309635E+02  0.10103309635E+02  0.00000000000E+00 0.  1.
         21   -1    0    0  504  502 -0.00000000000E+00 -0.00000000000E+00 -0.35617369079E+03  0.35617369079E+03  0.00000000000E+00 0.  1.
         21    1    1    2  503  502  0.98710470498E+01 -0.19501506822E+02 -0.24862799382E+01  0.21998361896E+02  0.00000000000E+00 0.  1.
         21    1    1    2  504  501 -0.98710470498E+01  0.19501506822E+02 -0.34358410121E+03  0.34427863852E+03  0.00000000000E+00 0.  1.
</event>
<event>
 4    1  0.1602044E+006  0.2374258E+02  0.7546771E-02  0.1483378E+00
         21   -1    0    0  504  501  0.00000000000E+00  0.00000000000E+00  0.15374653490E+03  0.15374653490E+03  0.00000000000E+00 0. -1.
         21   -1    0    0  503  502 -0.00000000000E+00 -0.00000000000E+00 -0.78298611795E+01  0.78298611795E+01  0.00000000000E+00 0.  1.
         21    1    1    2  503  501 -0.18805472698E+02  0.14493589902E+02  0.14047727165E+02  0.27587109130E+02  0.00000000000E+00 0.  1.
         21    1    1    2  504  502  0.18805472698E+02 -0.14493589902E+02  0.13186894656E+03  0.13398928695E+03  0.00000000000E+00 0. -1.
</event>
<event>
 4    1  0.1602044E+006  0.2193995E+02  0.7546771E-02  0.1506256E+00
         21   -1    0    0  504  501  0.00000000000E+00  0.00000000000E+00  0.11327364287E+02  0.11327364287E+02  0.00000000000E+00 0.  1.
         21   -1    0    0  501  502 -0.00000000000E+00 -0.00000000000E+00 -0.87842435433E+02  0.87842435433E+02  0.00000000000E+00 0.  1.
         21    1    1    2  503  502 -0.19013233799E+01 -0.21857409937E+02 -0.73883898298E+02  0.77072639941E+02  0.00000000000E+00 0.  1.
         21    1    1    2  504  503  0.19013233799E+01  0.21857409937E+02 -0.26311728470E+01  0.22097159779E+02  0.00000000000E+00 0.  1.
</event>
<event>
 4    1  0.1602044E+006  0.2263854E+02  0.7546771E-02  0.1497088E+00
         21   -1    0    0  504  501  0.00000000000E+00  0.00000000000E+00  0.20439000605E+02  0.20439000605E+02  0.00000000000E+00 0.  1.
         21   -1    0    0  501  502 -0.00000000000E+00 -0.00000000000E+00 -0.42708565519E+02  0.42708565519E+02  0.00000000000E+00 0. -1.
         21    1    1    2  503  502 -0.20081889153E+02 -0.10450903951E+02 -0.31422900905E+02  0.38728573001E+02  0.00000000000E+00 0. -1.
         21    1    1    2  504  503  0.20081889153E+02  0.10450903951E+02  0.91533359919E+01  0.24418993123E+02  0.00000000000E+00 0.  1.
</event>
<event>
 4    1  0.1602044E+006  0.2393495E+02  0.7546771E-02  0.1481080E+00
         21   -1    0    0  504  501  0.00000000000E+00  0.00000000000E+00  0.70590766766E+02  0.70590766766E+02  0.00000000000E+00 0. -1.
         21   -1    0    0  503  502 -0.00000000000E+00 -0.00000000000E+00 -0.42048717752E+02  0.42048717752E+02  0.00000000000E+00 0. -1.
         21    1    1    2  503  501  0.79140419065E+01 -0.22588708281E+02  0.64864740864E+02  0.69139832285E+02  0.00000000000E+00 0. -1.
         21    1    1    2  504  502 -0.79140419065E+01  0.22588708281E+02 -0.36322691850E+02  0.43499652233E+02  0.00000000000E+00 0. -1.
</event>
<event>
 4    1  0.1602044E+006  0.2803329E+02  0.7546771E-02  0.1437496E+00
         21   -1    0    0  504  501  0.00000000000E+00  0.00000000000E+00  0.11412785890E+04  0.11412785890E+04  0.00000000000E+00 0. -1.
         21   -1    0    0  503  502 -0.00000000000E+00 -0.00000000000E+00 -0.42218304521E+01  0.42218304521E+01  0.00000000000E+00 0.  1.
         21    1    1    2  503  501 -0.16195675358E+02  0.22881551902E+02  0.44563865480E+02  0.52647919467E+02  0.00000000000E+00 0.  1.
         21    1    1    2  504  502  0.16195675358E+02 -0.22881551902E+02  0.10924928930E+04  0.10928525000E+04  0.00000000000E+00 0. -1.
</event>
<event>
 4    1  0.1602044E+006  0.2332790E+02  0.7546771E-02  0.1488421E+00
         21   -1    0    0  503  501  0.00000000000E+00  0.00000000000E+00  0.98919129361E+03  0.98919129361E+03  0.00000000000E+00 0. -1.
         21   -1    0    0  501  502 -0.00000000000E+00 -0.00000000000E+00 -0.83112689998E+00  0.83112689998E+00  0.00000000000E+00 0.  1.
         21    1    1    2  503  504  0.21918250599E+02 -0.79863275950E+01  0.78200368392E+03  0.78235155320E+03  0.00000000000E+00 0. -1.
         21    1    1    2  504  502 -0.21918250599E+02  0.79863275950E+01  0.20635648279E+03  0.20767086731E+03  0.00000000000E+00 0.  1.
</event>
<event>
 4    1  0.1602044E+006  0.2475461E+02  0.7546771E-02  0.1471567E+00
         21   -1    0    0  503  501  0.00000000000E+00  0.00000000000E+00  0.18829800159E+03  0.18829800159E+03  0.00000000000E+00 0.  1.
         21   -1    0    0  504  502 -0.00000000000E+00 -0.00000000000E+00 -0.41670801165E+01  0.41670801165E+01  0.00000000000E+00 0.  1.
         21    1    1    2  503  502 -0.20666309063E+02 -0.13626970130E+02  0.13710286710E+03  0.13931972873E+03  0.00000000000E+00 0.  1.
         21    1    1    2  504  501  0.20666309063E+02  0.13626970130E+02  0.47028054369E+02  0.53145352976E+02  0.00000000000E+00 0.  1.
</event>
<event>
 4    1  0.1602044E+006  0.2225849E+02  0.7546771E-02  0.1502025E+00
         21   -1    0    0  503  501  0.00000000000E+00  0.00000000000E+00  0.16603951234E+03  0.16603951234E+03  0.00000000000E+00 0.  1.
         21   -1    0    0  501  502 -0.00000000000E+00 -0.00000000000E+00 -0.30282044909E+01  0.30282044909E+01  0.00000000000E+00 0. -1.
         21    1    1    2  503  504 -0.68533317371E+01  0.21177167191E+02  0.91733912190E+02  0.94395716067E+02  0.00000000000E+00 0.  1.
         21    1    1    2  504  502  0.68533317371E+01 -0.21177167191E+02  0.71277395654E+02  0.74672000759E+02  0.00000000000E+00 0. -1.
</event>
<event>
 4    1  0.1602044E+006  0.2190951E+02  0.7546771E-02  0.1506665E+00
         21   -1    0    0  504  501  0.00000000000E+00  0.00000000000E+00  0.32358425217E+03  0.32358425217E+03  0.00000000000E+00 0.  1.
         21   -1    0    0  503  502 -0.00000000000E+00 -0.00000000000E+00 -0.30748501446E+01  0.30748501446E+01  0.00000000000E+00 0.  1.
         21    1    1    2  503  501 -0.26289974523E+01  0.21751204623E+02  0.27775532706E+03  0.27861810466E+03  0.00000000000E+00 0.  1.
         21    1    1    2  504  502  0.26289974523E+01 -0.21751204623E+02  0.42754074963E+02  0.48040997659E+02  0.00000000000E+00 0.  1.
</event>
<event>
 4    1  0.1602044E+006  0.2004496E+02  0.7546771E-02  0.1533350E+00
         21   -1    0    0  503  501  0.00000000000E+00  0.00000000000E+00  0.56705006509E+01  0.56705006509E+01  0.00000000000E+00 0. -1.
         21   -1    0    0  501  502 -0.00000000000E+00 -0.00000000000E+00 -0.19771607284E+03  0.19771607284E+03  0.00000000000E+00 0.  1.
         21    1    1    2  503  504  0.15505542122E+02 -0.12703483793E+02 -0.14565422390E+02  0.24778052111E+02  0.00000000000E+00 0. -1.
         21    1    1    2  504  502 -0.15505542122E+02  0.12703483793E+02 -0.17748014979E+03  0.17860852138E+03  0.00000000000E+00 0.  1.
</event>
<event>
 4    1  0.1602044E+006  0.2363901E+02  0.7546771E-02  0.1484626E+00
         21   -1    0    0  503  501  0.00000000000E+00  0.00000000000E+00  0.87927203946E+01  0.87927203946E+01  0.00000000000E+00 0. -1.
         21   -1    0    0  504  502 -0.00000000000E+00 -0.00000000000E+00 -0.15132646576E+04  0.15132646576E+04  0.00000000000E+00 0.  1.
         21    1    1    2  503  502  0.23123612470E+02  0.49093074147E+01 -0.73592214288E+01  0.24758047035E+02  0.00000000000E+00 0. -1.
         21    1    1    2  504  501 -0.23123612470E+02 -0.49093074147E+01 -0.14971127158E+04  0.14972993309E+04  0.00000000000E+00 0.  1.
</event>
<event>
 4    1  0.1602044E+006  0.2849042E+02  0.7546771E-02  0.1433185E+00
         21   -1    0    0  504  501  0.00000000000E+00  0.00000000000E+00  0.38643871042E+02  0.38643871042E+02  0.00000000000E+00 0. -1.
         21   -1    0    0  503  502 -0.00000000000E+00 -0.00000000000E+00 -0.22196687300E+03  0.22196687300E+03  0.00000000000E+00 0. -1.
         21    1    1    2  503  501 -0.21764892395E+02 -0.18384595904E+02  0.32325275773E+02  0.43088598972E+02  0.00000000000E+00 0. -1.
         21    1    1    2  504  502  0.21764892395E+02  0.18384595904E+02 -0.21564827773E+03  0.21752214507E+03  0.00000000000E+00 0. -1.
</event>
<event>
 4    1  0.1602044E+006  0.2646988E+02  0.7546771E-02  0.1453007E+00
         21   -1    0    0  503  501  0.00000000000E+00  0.00000000000E+00  0.38271987141E+03  0.38271987141E+03  0.00000000000E+00 0.  1.
         21   -1    0    0  504  502 -0.00000000000E+00 -0.00000000000E+00 -0.30264988699E+03  0.30264988699E+03  0.00000000000E+00 0. -1.
         21    1    1    2  503  502 -0.35322472794E+01  0.26233146816E+02  0.38168185133E+03  0.38259860219E+03  0.00000000000E+00 0.  1.
         21    1    1    2  504  501  0.35322472794E+01 -0.26233146816E+02 -0.30161186692E+03  0.30277115621E+03  0.00000000000E+00 0. -1.
</event>
<event>
 4    1  0.1602044E+006  0.2961370E+02  0.7546771E-02  0.1422983E+00
         21   -1    0    0  502  501  0.00000000000E+00  0.00000000000E+00  0.69251913459E+03  0.69251913459E+03  0.00000000000E+00 0. -1.
         21   -1    0    0  504  502 -0.00000000000E+00 -0.00000000000E+00 -0.29252821747E+01  0.29252821747E+01  0.00000000000E+00 0.  1.
         21    1    1    2  503  501 -0.28970434723E+02  0.61388221030E+01  0.60665317008E+03  0.60737553457E+03  0.00000000000E+00 0. -1.
         21    1    1    2  504  503  0.28970434723E+02 -0.61388221030E+01  0.82940682328E+02  0.88068882188E+02  0.00000000000E+00 0.  1.
</event>
<event>
 4    1  0.1602044E+006  0.2960289E+02  0.7546771E-02  0.1423079E+00
         21   -1    0    0  504  501  0.00000000000E+00  0.00000000000E+00  0.72249907243E+01  0.72249907243E+01  0.00000000000E+00 0. -1.
         21   -1    0    0  503  502 -0.00000000000E+00 -0.00000000000E+00 -0.19781237454E+03  0.19781237454E+03  0.00000000000E+00 0. -1.
         21    1    1    2  503  501 -0.21603799018E+02  0.20238750943E+02 -0.31531127364E+02  0.43249776469E+02  0.00000000000E+00 0. -1.
         21    1    1    2  504  502  0.21603799018E+02 -0.20238750943E+02 -0.15905625645E+03  0.16178758879E+03  0.00000000000E+00 0. -1.
</event>
<event>
 4    1  0.1602044E+006  0.3004781E+02  0.7546771E-02  0.1419181E+00
         21   -1    0    0  504  501  0.00000000000E+00  0.00000000000E+00  0.43082539370E+02  0.43082539370E+02  0.00000000000E+00 0.  1.
         21   -1    0    0  503  502 -0.00000000000E+00 -0.00000000000E+00 -0.21107002585E+02  0.21107002585E+02  0.00000000000E+00 0.  1.
         21    1    1    2  503  501 -0.18170264515E+02 -0.23931409359E+02  0.13695484575E+02  0.33021768036E+02  0.00000000000E+00 0.  1.
         21    1    1    2  504  502  0.18170264515E+02  0.23931409359E+02  0.82800522099E+01  0.31167773919E+02  0.00000000000E+00 0.  1.
</event>
<event>
 4    1  0.1602044E+006  0.3141278E+02  0.7546771E-02  0.1407704E+00
         21   -1    0    0  504  501  0.00000000000E+00  0.00000000000E+00  0.58604603490E+00  0.58604603490E+00  0.00000000000E+00 0.  1.
         21   -1    0    0  503  502 -0.00000000000E+00 -0.00000000000E+00 -0.16883744871E+04  0.16883744871E+04  0.00000000000E+00 0.  1.
         21    1    1    2  503  501  0.22007534431E+02  0.22414975970E+02 -0.79976071584E+03  0.80037738931E+03  0.00000000000E+00 0.  1.
         21    1    1    2  504  502 -0.22007534431E+02 -0.22414975970E+02 -0.88802772525E+03  0.88858314384E+03  0.00000000000E+00 0.  1.
</event>
<event>
 4    1  0.1602044E+006  0.2408930E+02  0.7546771E-02  0.1479255E+00
         21   -1    0    0  502  501  0.00000000000E+00  0.00000000000E+00  0.49166433762E+03  0.49166433762E+03  0.00000000000E+00 0.  1.
         21   -1    0    0  504  502 -0.00000000000E+00 -0.00000000000E+00 -0.12527709649E+02  0.12527709649E+02  0.00000000000E+00 0.  1.
         21    1    1    2  503  501  0.93356402952E+01 -0.22206755213E+02  0.47949535304E+03  0.48010008096E+03  0.00000000000E+00 0.  1.
         21    1    1    2  504  503 -0.93356402952E+01  0.22206755213E+02 -0.35872506632E+00  0.24091966306E+02  0.00000000000E+00 0.  1.
</event>
<event>
 4    1  0.1602044E+006  0.2402353E+02  0.7546771E-02  0.1480031E+00
         21   -1    0    0  504  501  0.00000000000E+00  0.00000000000E+00  0.18093394955E+03  0.18093394955E+03  0.00000000000E+00 0.  1.
         21   -1    0    0  503  502 -0.00000000000E+00 -0.00000000000E+00 -0.18018635998E+02  0.18018635998E+02  0.00000000000E+00 0.  1.
         21    1    1    2  503  501 -0.27125681636E+01  0.23869895395E+02 -0.87852827992E+01  0.25579505978E+02  0.00000000000E+00 0.  1.
         21    1    1    2  504  502  0.27125681636E+01 -0.23869895395E+02  0.17170059635E+03  0.17337307957E+03  0.00000000000E+00 0.  1.
</event>
<event>
 4    1  0.1602044E+006  0.4306782E+02  0.7546771E-02  0.1331389E+00
         21   -1    0    0  504  501  0.00000000000E+00  0.00000000000E+00  0.48134351421E+01  0.48134351421E+01  0.00000000000E+00 0.  1.
         21   -1    0    0  503  502 -0.00000000000E+00 -0.00000000000E+00 -0.38564117597E+03  0.38564117597E+03  0.00000000000E+00 0.  1.
         21    1    1    2  503  501 -0.41067629599E+02 -0.12972557469E+02 -0.19581606683E+03  0.20049630789E+03  0.00000000000E+00 0.  1.
         21    1    1    2  504  502  0.41067629599E+02  0.12972557469E+02 -0.18501167400E+03  0.18995830323E+03  0.00000000000E+00 0.  1.
</event>
<event>
 4    1  0.1602044E+006  0.3068561E+02  0.7546771E-02  0.1413730E+00
         21   -1    0    0  502  501  0.00000000000E+00  0.00000000000E+00  0.13570391366E+03  0.13570391366E+03  0.00000000000E+00 0. -1.
         21   -1    0    0  503  502 -0.00000000000E+00 -0.00000000000E+00 -0.44737980735E+02  0.44737980735E+02  0.00000000000E+00 0. -1.
         21    1    1    2  503  504 -0.29225727542E+02 -0.93522044150E+01 -0.37446914166E+02  0.48413616455E+02  0.00000000000E+00 0. -1.
         21    1    1    2  504  501  0.29225727542E+02  0.93522044150E+01  0.12841284709E+03  0.13202827794E+03  0.00000000000E+00 0. -1.
</event>
<event>
 4    1  0.1602044E+006  0.2543375E+02  0.7546771E-02  0.1464009E+00
         21   -1    0    0  503  501  0.00000000000E+00  0.00000000000E+00  0.33383404205E+03  0.33383404205E+03  0.00000000000E+00 0. -1.
         21   -1    0    0  501  502 -0.00000000000E+00 -0.00000000000E+00 -0.46465154757E+01  0.46465154757E+01  0.00000000000E+00 0. -1.
         21    1    1    2  503  504  0.20462265980E+02  0.15105339826E+02  0.29381338134E+03  0.29491215416E+03  0.00000000000E+00 0. -1.
         21    1    1    2  504  502 -0.20462265980E+02 -0.15105339826E+02  0.35374145235E+02  0.43568403360E+02  0.00000000000E+00 0. -1.
</event>
<event>
 4    1  0.1602044E+006  0.2149602E+02  0.7546771E-02  0.1512299E+00
         21   -1    0    0  503  501  0.00000000000E+00  0.00000000000E+00  0.12354732872E+03  0.12354732872E+03  0.00000000000E+00 0.  1.
         21   -1    0    0  504  502 -0.00000000000E+00 -0.00000000000E+00 -0.32078165846E+03  0.32078165846E+03  0.00000000000E+00 0.  1.
         21    1    1    2  503  502 -0.18844580786E+02  0.10342177528E+02 -0.31948271773E+03  0.32020506834E+03  0.00000000000E+00 0.  1.
         21    1    1    2  504  501  0.18844580786E+02 -0.10342177528E+02  0.12224838799E+03  0.12412391884E+03  0.00000000000E+00 0.  1.
</event>
<event>
 4    1  0.1602044E+006  0.3700970E+02  0.7546771E-02  0.1366960E+00
         21   -1    0    0  504  501  0.00000000000E+00  0.00000000000E+00  0.21888645924E+02  0.21888645924E+02  0.00000000000E+00 0.  1.
         21   -1    0    0  503  502 -0.00000000000E+00 -0.00000000000E+00 -0.77576612188E+02  0.77576612188E+02  0.00000000000E+00 0.  1.
         21    1    1    2  503  501  0.31428404891E+02 -0.19544137263E+02 -0.59753707147E+01  0.37488971585E+02  0.00000000000E+00 0.  1.
         21    1    1    2  504  502 -0.31428404891E+02  0.19544137263E+02 -0.49712595550E+02  0.61976286527E+02  0.00000000000E+00 0.  1.
</event>
<event>
 4    1  0.1602044E+006  0.2099411E+02  0.7546771E-02  0.1519349E+00
         21   -1    0    0  503  501  0.00000000000E+00  0.00000000000E+00  0.90009165195E+01  0.90009165195E+01  0.00000000000E+00 0.  1.
         21   -1    0    0  504  502 -0.00000000000E+00 -0.00000000000E+00 -0.11330299135E+03  0.11330299135E+03  0.00000000000E+00 0.  1.
         21    1    1    2  503  502 -0.20671143697E+02  0.36683130783E+01 -0.98231288856E+02  0.10044968299E+03  0.00000000000E+00 0.  1.
         21    1    1    2  504  501  0.20671143697E+02 -0.36683130783E+01 -0.60707859698E+01  0.21854224874E+02  0.00000000000E+00 0.  1.
</event>
<event>
 4    1  0.1602044E+006  0.2294081E+02  0.7546771E-02  0.1493243E+00
         21   -1    0    0  503  501  0.00000000000E+00  0.00000000000E+00  0.18200131400E+03  0.18200131400E+03  0.00000000000E+00 0. -1.
         21   -1    0    0  504  502 -0.00000000000E+00 -0.00000000000E+00 -0.42929707846E+01  0.42929707846E+01  0.00000000000E+00 0. -1.
         21    1    1    2  503  502  0.22599225342E+02  0.39440536763E+01  0.35635702506E+02  0.42381409115E+02  0.00000000000E+00 0. -1.
         21    1    1    2  504  501 -0.22599225342E+02 -0.39440536763E+01  0.14207264071E+03  0.14391287567E+03  0.00000000000E+00 0. -1.
</event>
<event>
 4    1  0.1602044E+006  0.2137362E+02  0.7546771E-02  0.1513997E+00
         21   -1    0    0  503  501  0.00000000000E+00  0.00000000000E+00  0.12724797623E+03  0.12724797623E+03  0.00000000000E+00 0.  1.
         21   -1    0    0  504  502 -0.00000000000E+00 -0.00000000000E+00 -0.82965202725E+02  0.82965202725E+02  0.00000000000E+00 0. -1.
         21    1    1    2  503  502 -0.18090439295E+02 -0.11382773433E+02  0.12494872992E+03  0.12676362504E+03  0.00000000000E+00 0.  1.
         21    1    1    2  504  501  0.18090439295E+02  0.11382773433E+02 -0.80665956412E+02  0.83449553916E+02  0.00000000000E+00 0. -1.
</event>
<event>
 4    1  0.1602044E+006  0.2101034E+02  0.7546771E-02  0.1519117E+00
         21   -1    0    0  502  501  0.00000000000E+00  0.00000000000E+00  0.12527594031E+01  0.12527594031E+01  0.00000000000E+00 0. -1.
         21   -1    0    0  504  502 -0.00000000000E+00 -0.00000000000E+00 -0.86093870959E+03  0.86093870959E+03  0.00000000000E+00 0. -1.
         21    1    1    2  503  501  0.19895975767E+02 -0.67516386634E+01 -0.98511612087E+02  0.10072721674E+03  0.00000000000E+00 0. -1.
         21    1    1    2  504  503 -0.19895975767E+02  0.67516386634E+01 -0.76117433810E+03  0.76146425225E+03  0.00000000000E+00 0. -1.
</event>
<event>
 4    1  0.1602044E+006  0.2444187E+02  0.7546771E-02  0.1475145E+00
         21   -1    0    0  503  501  0.00000000000E+00  0.00000000000E+00  0.12806413440E+04  0.12806413440E+04  0.00000000000E+00 0.  1.
         21   -1    0    0  504  502 -0.00000000000E+00 -0.00000000000E+00 -0.71248311711E+00  0.71248311711E+00  0.00000000000E+00 0.  1.
         21    1    1    2  503  502 -0.23207462868E+02  0.76693414376E+01  0.26350851567E+03  0.26463964737E+03  0.00000000000E+00 0.  1.
         21    1    1    2  504  501  0.23207462868E+02 -0.76693414376E+01  0.10164203452E+04  0.10167141797E+04  0.00000000000E+00 0.  1.
</event>
<event>
 4    1  0.1602044E+006  0.4107704E+02  0.7546771E-02  0.1342287E+00
         21   -1    0    0  504  501  0.00000000000E+00  0.00000000000E+00  0.85833544882E+02  0.85833544882E+02  0.00000000000E+00 0. -1.
         21   -1    0    0  503  502 -0.00000000000E+00 -0.00000000000E+00 -0.27954979064E+03  0.27954979064E+03  0.00000000000E+00 0.  1.
         21    1    1    2  503  501  0.26297348629E+02  0.31555866932E+02 -0.27300922422E+03  0.27608216131E+03  0.00000000000E+00 0.  1.
         21    1    1    2  504  502 -0.26297348629E+02 -0.31555866932E+02  0.79292978462E+02  0.89301174215E+02  0.00000000000E+00 0. -1.
</event>
<event>
 4    1  0.1602044E+006  0.2241538E+02  0.7546771E-02  0.1499973E+00
         21   -1    0    0  503  501  0.00000000000E+00  0.00000000000E+00  0.87804748416E+02  0.87804748416E+02  0.00000000000E+00 0.  1.
         21   -1    0    0  504  502 -0.00000000000E+00 -0.00000000000E+00 -0.11476617491E+02  0.11476617491E+02  0.00000000000E+00 0. -1.
         21    1    1    2  503  502 -0.63269819521E+01  0.21503914994E+02  0.73314120331E+02  0.76664263517E+02  0.00000000000E+00 0.  1.
         21    1    1    2  504  501  0.63269819521E+01 -0.21503914994E+02  0.30140105939E+01  0.22617102390E+02  0.00000000000E+00 0. -1.
</event>
<event>
 4    1  0.1602044E+006  0.2708133E+02  0.7546771E-02  0.1446793E+00
         21   -1    0    0  502  501  0.00000000000E+00  0.00000000000E+00  0.48912716141E+02  0.48912716141E+02  0.00000000000E+00 0. -1.
         21   -1    0    0  503  502 -0.00000000000E+00 -0.00000000000E+00 -0.15626707361E+02  0.15626707361E+02  0.00000000000E+00 0. -1.
         21    1    1    2  503  504 -0.26650657776E+02  0.48104898749E+01  0.10149860558E+02  0.28920892830E+02  0.00000000000E+00 0. -1.
         21    1    1    2  504  501  0.26650657776E+02 -0.48104898749E+01  0.23136148222E+02  0.35618530673E+02  0.00000000000E+00 0. -1.
</event>
<event>
 4    1  0.1602044E+006  0.3222894E+02  0.7546771E-02  0.1401167E+00
         21   -1    0    0  502  501  0.00000000000E+00  0.00000000000E+00  0.83269028225E+02  0.83269028225E+02  0.00000000000E+00 0.  1.
         21   -1    0    0  504  502 -0.00000000000E+00 -0.00000000000E+00 -0.19030154562E+02  0.19030154562E+02  0.00000000000E+00 0.  1.
         21    1    1    2  503  501 -0.31822070544E+02  0.51049370529E+01  0.62141666192E+02  0.70002080206E+02  0.00000000000E+00 0.  1.
         21    1    1    2  504  503  0.31822070544E+02 -0.51049370529E+01  0.20972074705E+01  0.32297102582E+02  0.00000000000E+00 0.  1.
</event>
<event>
 4    1  0.1602044E+006  0.3358101E+02  0.7546771E-02  0.1390823E+00
         21   -1    0    0  502  501  0.00000000000E+00  0.00000000000E+00  0.93645237115E+01  0.93645237115E+01  0.00000000000E+00 0. -1.
         21   -1    0    0  503  502 -0.00000000000E+00 -0.00000000000E+00 -0.28732949962E+03  0.28732949962E+03  0.00000000000E+00 0. -1.
         21    1    1    2  503  504  0.31130682365E+02 -0.12592254795E+02 -0.25204745634E+03  0.25427466353E+03  0.00000000000E+00 0. -1.
         21    1    1    2  504  501 -0.31130682365E+02  0.12592254795E+02 -0.25917519564E+02  0.42419359798E+02  0.00000000000E+00 0. -1.
</event>
<event>
 4    1  0.1602044E+006  0.2100478E+02  0.7546771E-02  0.1519196E+00
         21   -1    0    0  503  501  0.00000000000E+00  0.00000000000E+00  0.62714787407E+02  0.62714787407E+02  0.00000000000E+00 0.  1.
         21   -1    0    0  501  502 -0.00000000000E+00 -0.00000000000E+00 -0.92154800368E+02  0.92154800368E+02  0.00000000000E+00 0.  1.
         21    1    1    2  503  504  0.85895853715E+01  0.19168200887E+02  0.59700456424E+02  0.63287798187E+02  0.00000000000E+00 0.  1.
         21    1    1    2  504  502 -0.85895853715E+01 -0.19168200887E+02 -0.89140469384E+02  0.91581789588E+02  0.00000000000E+00 0.  1.
</event>
<event>
 4    1  0.1602044E+006  0.2636803E+02  0.7546771E-02  0.1454062E+00
         21   -1    0    0  503  501  0.00000000000E+00  0.00000000000E+00  0.56669201445E+03  0.56669201445E+03  0.00000000000E+00 0.  1.
         21   -1    0    0  501  502 -0.00000000000E+00 -0.00000000000E+00 -0.29341295762E+01  0.29341295762E+01  0.00000000000E+00 0.  1.
         21    1    1    2  503  504  0.18981215685E+02  0.18302636384E+02  0.49913232521E+03  0.49982832164E+03  0.00000000000E+00 0.  1.
         21    1    1    2  504  502 -0.18981215685E+02 -0.18302636384E+02  0.64625559663E+02  0.69797822382E+02  0.00000000000E+00 0.  1.
</event>
<event>
 4    1  0.1602044E+006  0.6514008E+02  0.7546771E-02  0.1243302E+00
         21   -1    0    0  502  501  0.00000000000E+00  0.00000000000E+00  0.31917597176E+04  0.31917597176E+04  0.00000000000E+00 0.  1.
         21   -1    0    0  503  502 -0.00000000000E+00 -0.00000000000E+00 -0.28557896782E+01  0.28557896782E+01  0.00000000000E+00 0.  1.
         21    1    1    2  503  504 -0.62711616468E+02  0.17620516407E+02  0.42669205356E+03  0.43163565424E+03  0.00000000000E+00 0.  1.
         21    1    1    2  504  501  0.62711616468E+02 -0.17620516407E+02  0.27622118744E+04  0.27629798531E+04  0.00000000000E+00 0.  1.
</event>
<event>
 4    1  0.1602044E+006  0.2459630E+02  0.7546771E-02  0.1473371E+00
         21   -1    0    0  503  501  0.00000000000E+00  0.00000000000E+00  0.46933739367E+01  0.46933739367E+01  0.00000000000E+00 0. -1.
         21   -1    0    0  504  502 -0.00000000000E+00 -0.00000000000E+00 -0.23630850977E+03  0.23630850977E+03  0.00000000000E+00 0. -1.
         21    1    1    2  503  502 -0.23547047709E+02  0.71073457505E+01 -0.19704744911E+03  0.19857662254E+03  0.00000000000E+00 0. -1.
         21    1    1    2  504  501  0.23547047709E+02 -0.71073457505E+01 -0.34567686718E+02  0.42425261160E+02  0.00000000000E+00 0. -1.
</event>
<event>
 4    1  0.1602044E+006  0.4014822E+02  0.7546771E-02  0.1347619E+00
         21   -1    0    0  503  501  0.00000000000E+00  0.00000000000E+00  0.59166723014E+01  0.59166723014E+01  0.00000000000E+00 0. -1.
         21   -1    0    0  504  502 -0.00000000000E+00 -0.00000000000E+00 -0.27394609499E+03  0.27394609499E+03  0.00000000000E+00 0. -1.
         21    1    1    2  503  502 -0.38685843605E+02  0.10737081600E+02 -0.14442437120E+03  0.14990089531E+03  0.00000000000E+00 0. -1.
         21    1    1    2  504  501  0.38685843605E+02 -0.10737081600E+02 -0.12360505149E+03  0.12996187199E+03  0.00000000000E+00 0. -1.
</event>
<event>
 4    1  0.1602044E+006  0.2440526E+02  0.7546771E-02  0.1475568E+00
         21   -1    0    0  504  501  0.00000000000E+00  0.00000000000E+00  0.14720953464E+02  0.14720953464E+02  0.00000000000E+00 0. -1.
         21   -1    0    0  503  502 -0.00000000000E+00 -0.00000000000E+00 -0.60090945309E+02  0.60090945309E+02  0.00000000000E+00 0. -1.
         21    1    1    2  503  501 -0.14141681158E+02  0.19890437286E+02 -0.44064696197E+02  0.50371758877E+02  0.00000000000E+00 0. -1.
         21    1    1    2  504  502  0.14141681158E+02 -0.19890437286E+02 -0.13052956473E+01  0.24440139896E+02  0.00000000000E+00 0. -1.
</event>
<event>
 4    1  0.1602044E+006  0.2625197E+02  0.7546771E-02  0.1455270E+00
         21   -1    0    0  502  501  0.00000000000E+00  0.00000000000E+00  0.20963150652E+02  0.20963150652E+02  0.00000000000E+00 0. -1.
         21   -1    0    0  504  502 -0.00000000000E+00 -0.00000000000E+00 -0.10376139739E+03  0.10376139739E+03  0.00000000000E+00 0.  1.
         21    1    1    2  503  501 -0.61416123359E+01 -0.25523450208E+02  0.10145711021E+02  0.28144295420E+02  0.00000000000E+00 0. -1.
         21    1    1    2  504  503  0.61416123359E+01  0.25523450208E+02 -0.92943957758E+02  0.96580252621E+02  0.00000000000E+00 0.  1.
</event>
<event>
 4    1  0.1602044E+006  0.2596683E+02  0.7546771E-02  0.1458272E+00
         21   -1    0    0  504  501  0.00000000000E+00  0.00000000000E+00  0.17210550437E+03  0.17210550437E+03  0.00000000000E+00 0.  1.
         21   -1    0    0  503  502 -0.00000000000E+00 -0.00000000000E+00 -0.42256223002E+01  0.42256223002E+01  0.00000000000E+00 0.  1.
         21    1    1    2  503  501 -0.14242606488E+02 -0.21712312165E+02  0.10773561305E+03  0.11082075012E+03  0.00000000000E+00 0.  1.
         21    1    1    2  504  502  0.14242606488E+02  0.21712312165E+02  0.60144269023E+02  0.65510376548E+02  0.00000000000E+00 0.  1.
</event>
<event>
 4    1  0.1602044E+006  0.2057413E+02  0.7546771E-02  0.1525433E+00
         21   -1    0    0  504  501  0.00000000000E+00  0.00000000000E+00  0.19509662918E+02  0.19509662918E+02  0.00000000000E+00 0. -1.
         21   -1    0    0  503  502 -0.00000000000E+00 -0.00000000000E+00 -0.23445640145E+02  0.23445640145E+02  0.00000000000E+00 0. -1.
         21    1    1    2  503  501  0.20417524315E+02  0.25336919975E+01 -0.78340394369E+01  0.22015155421E+02  0.00000000000E+00 0. -1.
         21    1    1    2  504  502 -0.20417524315E+02 -0.25336919975E+01  0.38980622104E+01  0.20940147643E+02  0.00000000000E+00 0. -1.
</event>
<event>
 4    1  0.1602044E+006  0.3714095E+02  0.7546771E-02  0.1366106E+00
         21   -1    0    0  503  501  0.00000000000E+00  0.00000000000E+00  0.11679770978E+02  0.11679770978E+02  0.00000000000E+00 0.  1.
         21   -1    0    0  501  502 -0.00000000000E+00 -0.00000000000E+00 -0.20346476565E+03  0.20346476565E+03  0.00000000000E+00 0.  1.
         21    1    1    2  503  504 -0.33092004793E+02  0.16863246479E+02 -0.26217006359E+02  0.45461866277E+02  0.00000000000E+00 0.  1.
         21    1    1    2  504  502  0.33092004793E+02 -0.16863246479E+02 -0.16556798832E+03  0.16968267035E+03  0.00000000000E+00 0.  1.
</event>
<event>
 4    1  0.1602044E+006  0.2820966E+02  0.7546771E-02  0.1435821E+00
         21   -1    0    0  504  501  0.00000000000E+00  0.00000000000E+00  0.31909084144E+03  0.31909084144E+03  0.00000000000E+00 0. -1.
         21   -1    0    0  503  502 -0.00000000000E+00 -0.00000000000E+00 -0.53177387436E+02  0.53177387436E+02  0.00000000000E+00 0.  1.
         21    1    1    2  503  501 -0.36475931007E+01 -0.27972846259E+02  0.31467377153E+03  0.31593570161E+03  0.00000000000E+00 0. -1.
         21    1    1    2  504  502  0.36475931007E+01  0.27972846259E+02 -0.48760317524E+02  0.56332527268E+02  0.00000000000E+00 0.  1.
</event>
<event>
 4    1  0.1602044E+006  0.2590397E+02  0.7546771E-02  0.1458940E+00
         21   -1    0    0  503  501  0.00000000000E+00  0.00000000000E+00  0.58054839970E+01  0.58054839970E+01  0.00000000000E+00 0. -1.
         21   -1    0    0  504  502 -0.00000000000E+00 -0.00000000000E+00 -0.32148691969E+03  0.32148691969E+03  0.00000000000E+00 0.  1.
         21    1    1    2  503  502  0.24505630450E+02 -0.83958052117E+01 -0.26875326579E+02  0.37326915861E+02  0.00000000000E+00 0. -1.
         21    1    1    2  504  501 -0.24505630450E+02  0.83958052117E+01 -0.28880610912E+03  0.28996548783E+03  0.00000000000E+00 0.  1.
</event>
<event>
 4    1  0.1602044E+006  0.2148096E+02  0.7546771E-02  0.1512508E+00
         21   -1    0    0  502  501  0.00000000000E+00  0.00000000000E+00  0.63040419930E+00  0.63040419930E+00  0.00000000000E+00 0.  1.
         21   -1    0    0  503  502 -0.00000000000E+00 -0.00000000000E+00 -0.13142973939E+04  0.13142973939E+04  0.00000000000E+00 0.  1.
         21    1    1    2  503  504  0.18101319630E+02  0.11566071302E+02 -0.10944682095E+04  0.10946789910E+04  0.00000000000E+00 0.  1.
         21    1    1    2  504  501 -0.18101319630E+02 -0.11566071302E+02 -0.21919878019E+03  0.22024880706E+03  0.00000000000E+00 0.  1.
</event>
<event>
 4    1  0.1602044E+006  0.2261473E+02  0.7546771E-02  0.1497394E+00
         21   -1    0    0  502  501  0.00000000000E+00  0.00000000000E+00  0.78733454687E+02  0.78733454687E+02  0.00000000000E+00 0.  1.
         21   -1    0    0  503  502 -0.00000000000E+00 -0.00000000000E+00 -0.33842836857E+02  0.33842836857E+02  0.00000000000E+00 0.  1.
         21    1    1    2  503  504  0.19656185294E+00  0.22613875487E+02 -0.28153440939E+02  0.36111525000E+02  0.00000000000E+00 0.  1.
         21    1    1    2  504  501 -0.19656185294E+00 -0.22613875487E+02  0.73044058770E+02  0.76464766544E+02  0.00000000000E+00 0.  1.
</event>
<event>
 4    1  0.1602044E+006  0.3178014E+02  0.7546771E-02  0.1404733E+00
         21   -1    0    0  503  501  0.00000000000E+00  0.00000000000E+00  0.22166750703E+02  0.22166750703E+02  0.00000000000E+00 0.  1.
         21   -1    0    0  501  502 -0.00000000000E+00 -0.00000000000E+00 -0.90782670910E+02  0.90782670910E+02  0.00000000000E+00 0.  1.
         21    1    1    2  503  504 -0.28564571056E+02  0.13929918034E+02  0.55502330004E+01  0.32261159657E+02  0.00000000000E+00 0.  1.
         21    1    1    2  504  502  0.28564571056E+02 -0.13929918034E+02 -0.74166153207E+02  0.80688261957E+02  0.00000000000E+00 0.  1.
</event>
<event>
 4    1  0.1602044E+006  0.2245544E+02  0.7546771E-02  0.1499452E+00
         21   -1    0    0  504  501  0.00000000000E+00  0.00000000000E+00  0.38602251294E+03  0.38602251294E+03  0.00000000000E+00 0. -1.
         21   -1    0    0  503  502 -0.00000000000E+00 -0.00000000000E+00 -0.13455887803E+01  0.13455887803E+01  0.00000000000E+00 0. -1.
         21    1    1    2  503  501 -0.20484875281E+02  0.91987372566E+01  0.22544981886E+03  0.22656537182E+03  0.00000000000E+00 0. -1.
         21    1    1    2  504  502  0.20484875281E+02 -0.91987372566E+01  0.15922710530E+03  0.16080272991E+03  0.00000000000E+00 0. -1.
</event>
<event>
 4    1  0.1602044E+006  0.2009593E+02  0.7546771E-02  0.1532574E+00
         21   -1    0    0  504  501  0.00000000000E+00  0.00000000000E+00  0.16287682067E+03  0.16287682067E+03  0.00000000000E+00 0. -1.
         21   -1    0    0  501  502 -0.00000000000E+00 -0.00000000000E+00 -0.15861982741E+02  0.15861982741E+02  0.00000000000E+00 0. -1.
         21    1    1    2  503  502 -0.20082742633E+02 -0.72792033094E+00 -0.85804768117E+01  0.21851109857E+02  0.00000000000E+00 0. -1.
         21    1    1    2  504  503  0.20082742633E+02  0.72792033094E+00  0.15559531474E+03  0.15688769355E+03  0.00000000000E+00 0. -1.
</event>
<event>
 4    1  0.1602044E+006  0.2668863E+02  0.7546771E-02  0.1450761E+00
         21   -1    0    0  503  501  0.00000000000E+00  0.00000000000E+00  0.65691929970E+03  0.65691929970E+03  0.00000000000E+00 0.  1.
         21   -1    0    0  501  502 -0.00000000000E+00 -0.00000000000E+00 -0.16738410834E+02  0.16738410834E+02  0.00000000000E+00 0.  1.
         21    1    1    2  503  504  0.24783485265E+02  0.99026285839E+01  0.64582713826E+03  0.64637835337E+03  0.00000000000E+00 0.  1.
         21    1    1    2  504  502 -0.24783485265E+02 -0.99026285839E+01 -0.56462493981E+01  0.27279357159E+02  0.00000000000E+00 0.  1.
</event>
<event>
 4    1  0.1602044E+006  0.4877961E+02  0.7546771E-02  0.1303552E+00
         21   -1    0    0  504  501  0.00000000000E+00  0.00000000000E+00  0.44781530376E+02  0.44781530376E+02  0.00000000000E+00 0. -1.
         21   -1    0    0  503  502 -0.00000000000E+00 -0.00000000000E+00 -0.73253829516E+02  0.73253829516E+02  0.00000000000E+00 0. -1.
         21    1    1    2  503  501  0.34938505485E+02  0.34040429472E+02  0.16693309547E+02  0.51556925702E+02  0.00000000000E+00 0. -1.
         21    1    1    2  504  502 -0.34938505485E+02 -0.34040429472E+02 -0.45165608687E+02  0.66478434189E+02  0.00000000000E+00 0. -1.
</event>
<event>
 4    1  0.1602044E+006  0.2334788E+02  0.7546771E-02  0.1488175E+00
         21   -1    0    0  503  501  0.00000000000E+00  0.00000000000E+00  0.40349228605E+02  0.40349228605E+02  0.00000000000E+00 0.  1.
         21   -1    0    0  501  502 -0.00000000000E+00 -0.00000000000E+00 -0.33374312102E+02  0.33374312102E+02  0.00000000000E+00 0. -1.
         21    1    1    2  503  504 -0.18658246220E+02  0.14035428650E+02  0.31925870691E+02  0.39552302446E+02  0.00000000000E+00 0.  1.
         21    1    1    2  504  502  0.18658246220E+02 -0.14035428650E+02 -0.24950954189E+02  0.34171238261E+02  0.00000000000E+00 0. -1.
</event>
<event>
 4    1  0.1602044E+006  0.2847645E+02  0.7546771E-02  0.1433315E+00
         21   -1    0    0  502  501  0.00000000000E+00  0.00000000000E+00  0.36595397930E+03  0.36595397930E+03  0.00000000000E+00 0. -1.
         21   -1    0    0  504  502 -0.00000000000E+00 -0.00000000000E+00 -0.16302809081E+02  0.16302809081E+02  0.00000000000E+00 0. -1.
         21    1    1    2  503  501 -0.25981149972E+02  0.11657101149E+02  0.35249073049E+03  0.35363911441E+03  0.00000000000E+00 0. -1.
         21    1    1    2  504  503  0.25981149972E+02 -0.11657101149E+02 -0.28395602668E+01  0.28617673972E+02  0.00000000000E+00 0. -1.
</event>
<event>
 4    1  0.1602044E+006  0.3785327E+02  0.7546771E-02  0.1361546E+00
         21   -1    0    0  504  501  0.00000000000E+00  0.00000000000E+00  0.12407216362E+03  0.12407216362E+03  0.00000000000E+00 0. -1.
         21   -1    0    0  503  502 -0.00000000000E+00 -0.00000000000E+00 -0.13591030507E+02  0.13591030507E+02  0.00000000000E+00 0.  1.
         21    1    1    2  503  501 -0.37818400831E+02  0.16243763439E+01  0.81923066218E+02  0.90245547361E+02  0.00000000000E+00 0. -1.
         21    1    1    2  504  502  0.37818400831E+02 -0.16243763439E+01  0.28558066889E+02  0.47417646761E+02  0.00000000000E+00 0.  1.
</event>
<event>
 4    1  0.1602044E+006  0.2025634E+02  0.7546771E-02  0.1530153E+00
         21   -1    0    0  503  501  0.00000000000E+00  0.00000000000E+00  0.13275836258E+01  0.13275836258E+01  0.00000000000E+00 0.  1.
         21   -1    0    0  504  502 -0.00000000000E+00 -0.00000000000E+00 -0.31036157586E+03  0.31036157586E+03  0.00000000000E+00 0.  1.
         21    1    1    2  503  502  0.19846099234E+02 -0.40560454240E+01 -0.14447195690E+03  0.14588511058E+03  0.00000000000E+00 0.  1.
         21    1    1    2  504  501 -0.19846099234E+02  0.40560454240E+01 -0.16456203534E+03  0.16580404891E+03  0.00000000000E+00 0.  1.
</event>
<event>
 4    1  0.1602044E+006  0.2263222E+02  0.7546771E-02  0.1497169E+00
         21   -1    0    0  503  501  0.00000000000E+00  0.00000000000E+00  0.25080892997E+01  0.25080892997E+01  0.00000000000E+00 0. -1.
         21   -1    0    0  501  502 -0.00000000000E+00 -0.00000000000E+00 -0.26865352337E+03  0.26865352337E+03  0.00000000000E+00 0. -1.
         21    1    1    2  503  504 -0.22493019249E+02 -0.25062636935E+01 -0.66677414334E+02  0.70413740526E+02  0.00000000000E+00 0. -1.
         21    1    1    2  504  502  0.22493019249E+02  0.25062636935E+01 -0.19946801974E+03  0.20074787214E+03  0.00000000000E+00 0. -1.
</event>
<event>
 4    1  0.1602044E+006  0.2075138E+02  0.7546771E-02  0.1522844E+00
         21   -1    0    0  503  501  0.00000000000E+00  0.00000000000E+00  0.88110279453E+02  0.88110279453E+02  0.00000000000E+00 0. -1.
         21   -1    0    0  501  502 -0.00000000000E+00 -0.00000000000E+00 -0.11229811918E+03  0.11229811918E+03  0.00000000000E+00 0.  1.
         21    1    1    2  503  504  0.12788502412E+02 -0.16342397363E+02  0.85905551390E+02  0.88376374134E+02  0.00000000000E+00 0. -1.
         21    1    1    2  504  502 -0.12788502412E+02  0.16342397363E+02 -0.11009339112E+03  0.11203202450E+03  0.00000000000E+00 0.  1.
</event>
<event>
 4    1  0.1602044E+006  0.2013319E+02  0.7546771E-02  0.1532009E+00
         21   -1    0    0  503  501  0.00000000000E+00  0.00000000000E+00  0.86107089628E+02  0.86107089628E+02  0.00000000000E+00 0. -1.
         21   -1    0    0  504  502 -0.00000000000E+00 -0.00000000000E+00 -0.93896601409E+02  0.93896601409E+02  0.00000000000E+00 0.  1.
         21    1    1    2  503  502 -0.20068687896E+02  0.16103513344E+01  0.83821982736E+02  0.86205975750E+02  0.00000000000E+00 0. -1.
         21    1    1    2  504  501  0.20068687896E+02 -0.16103513344E+01 -0.91611494517E+02  0.93797715286E+02  0.00000000000E+00 0.  1.
</event>
<event>
 4    1  0.1602044E+006  0.2569175E+02  0.7546771E-02  0.1461212E+00
         21   -1    0    0  504  501  0.00000000000E+00  0.00000000000E+00  0.41393199876E+01  0.41393199876E+01  0.00000000000E+00 0. -1.
         21   -1    0    0  503  502 -0.00000000000E+00 -0.00000000000E+00 -0.16536942496E+03  0.16536942496E+03  0.00000000000E+00 0. -1.
         21    1    1    2  503  501 -0.24992670464E+02  0.59525193843E+01 -0.96633390294E+02  0.99990390456E+02  0.00000000000E+00 0. -1.
         21    1    1    2  504  502  0.24992670464E+02 -0.59525193843E+01 -0.64596714679E+02  0.69518354491E+02  0.00000000000E+00 0. -1.
</event>
<event>
 4    1  0.1602044E+006  0.2208968E+02  0.7546771E-02  0.1504257E+00
         21   -1    0    0  504  501  0.00000000000E+00  0.00000000000E+00  0.19767534764E+02  0.19767534764E+02  0.00000000000E+00 0. -1.
         21   -1    0    0  503  502 -0.00000000000E+00 -0.00000000000E+00 -0.31867540807E+02  0.31867540807E+02  0.00000000000E+00 0. -1.
         21    1    1    2  503  501 -0.22038313406E+02 -0.15055110644E+01 -0.18307209068E+02  0.28689854047E+02  0.00000000000E+00 0. -1.
         21    1    1    2  504  502  0.22038313406E+02  0.15055110644E+01  0.62072030250E+01  0.22945221523E+02  0.00000000000E+00 0. -1.
</event>
<event>
 4    1  0.1602044E+006  0.2547404E+02  0.7546771E-02  0.1463570E+00
         21   -1    0    0  503  501  0.00000000000E+00  0.00000000000E+00  0.67585174969E+03  0.67585174969E+03  0.00000000000E+00 0. -1.
         21   -1    0    0  504  502 -0.00000000000E+00 -0.00000000000E+00 -0.18521768356E+01  0.18521768356E+01  0.00000000000E+00 0. -1.
         21    1    1    2  503  502  0.24273540294E+02  0.77279979795E+01  0.10184437069E+03  0.10498191536E+03  0.00000000000E+00 0. -1.
         21    1    1    2  504  501 -0.24273540294E+02 -0.77279979795E+01  0.57215520216E+03  0.57272201117E+03  0.00000000000E+00 0. -1.
</event>
<event>
 4    1  0.1602044E+006  0.4087489E+02  0.7546771E-02  0.1343434E+00
         21   -1    0    0  503  501  0.00000000000E+00  0.00000000000E+00  0.31885154739E+02  0.31885154739E+02  0.00000000000E+00 0.  1.
         21   -1    0    0  504  502 -0.00000000000E+00 -0.00000000000E+00 -0.54108006482E+02  0.54108006482E+02  0.00000000000E+00 0.  1.
         21    1    1    2  503  502 -0.40568136262E+02  0.49982943749E+01 -0.18752413366E+02  0.44971208940E+02  0.00000000000E+00 0.  1.
         21    1    1    2  504  501  0.40568136262E+02 -0.49982943749E+01 -0.34704383764E+01  0.41021952281E+02  0.00000000000E+00 0.  1.
</event>
<event>
 4    1  0.1602044E+006  0.2650107E+02  0.7546771E-02  0.1452685E+00
         21   -1    0    0  503  501  0.00000000000E+00  0.00000000000E+00  0.16101692119E+02  0.16101692119E+02  0.00000000000E+00 0. -1.
         21   -1    0    0  504  502 -0.00000000000E+00 -0.00000000000E+00 -0.44751706379E+02  0.44751706379E+02  0.00000000000E+00 0. -1.
         21    1    1    2  503  502 -0.23224871515E+02  0.12763705302E+02 -0.19170074445E+02  0.32707775592E+02  0.00000000000E+00 0. -1.
         21    1    1    2  504  501  0.23224871515E+02 -0.12763705302E+02 -0.94799398147E+01  0.28145622907E+02  0.00000000000E+00 0. -1.
</event>
<event>
 4    1  0.1602044E+006  0.2062983E+02  0.7546771E-02  0.1524616E+00
         21   -1    0    0  504  501  0.00000000000E+00  0.00000000000E+00  0.56612445282E+01  0.56612445282E+01  0.00000000000E+00 0. -1.
         21   -1    0    0  503  502 -0.00000000000E+00 -0.00000000000E+00 -0.13169180903E+03  0.13169180903E+03  0.00000000000E+00 0. -1.
         21    1    1    2  503  501  0.12994001680E+02 -0.16023284514E+02 -0.18025497977E+02  0.27395406615E+02  0.00000000000E+00 0. -1.
         21    1    1    2  504  502 -0.12994001680E+02  0.16023284514E+02 -0.10800506652E+03  0.10995764694E+03  0.00000000000E+00 0. -1.
</event>
<event>
 4    1  0.1602044E+006  0.3423239E+02  0.7546771E-02  0.1386041E+00
         21   -1    0    0  503  501  0.00000000000E+00  0.00000000000E+00  0.25743657640E+03  0.25743657640E+03  0.00000000000E+00 0.  1.
         21   -1    0    0  504  502 -0.00000000000E+00 -0.00000000000E+00 -0.48628818896E+01  0.48628818896E+01  0.00000000000E+00 0. -1.
         21    1    1    2  503  502 -0.32005117253E+02  0.12146153484E+02  0.15944603816E+03  0.16307941519E+03  0.00000000000E+00 0. -1.
         21    1    1    2  504  501  0.32005117253E+02 -0.12146153484E+02  0.93127656357E+02  0.99220043103E+02  0.00000000000E+00 0.  1.
</event>
<event>
 4    1  0.1602044E+006  0.2360710E+02  0.7546771E-02  0.1485012E+00
         21   -1    0    0  504  501  0.00000000000E+00  0.00000000000E+00  0.27091426111E+02  0.27091426111E+02  0.00000000000E+00 0. -1.
         21   -1    0    0  501  502 -0.00000000000E+00 -0.00000000000E+00 -0.23560607090E+02  0.23560607090E+02  0.00000000000E+00 0. -1.
         21    1    1    2  503  502 -0.14415294258E+02 -0.18694766879E+02 -0.72562819445E+01  0.24697138394E+02  0.00000000000E+00 0. -1.
         21    1    1    2  504  503  0.14415294258E+02  0.18694766879E+02  0.10787100965E+02  0.25954894807E+02  0.00000000000E+00 0. -1.
</event>
<event>
 4    1  0.1602044E+006  0.2276680E+02  0.7546771E-02  0.1495447E+00
         21   -1    0    0  504  501  0.00000000000E+00  0.00000000000E+00  0.19046129420E+02  0.19046129420E+02  0.00000000000E+00 0.  1.
         21   -1    0    0  503  502 -0.00000000000E+00 -0.00000000000E+00 -0.27725862771E+02  0.27725862771E+02  0.00000000000E+00 0.  1.
         21    1    1    2  503  501  0.54857904367E+01 -0.22096002675E+02 -0.75164440410E+01  0.23975490860E+02  0.00000000000E+00 0.  1.
         21    1    1    2  504  502 -0.54857904367E+01  0.22096002675E+02 -0.11632893094E+01  0.22796501332E+02  0.00000000000E+00 0.  1.
</event>
<event>
 4    1  0.1602044E+006  0.2875801E+02  0.7546771E-02  0.1430705E+00
         21   -1    0    0  503  501  0.00000000000E+00  0.00000000000E+00  0.92889891643E+03  0.92889891643E+03  0.00000000000E+00 0.  1.
         21   -1    0    0  504  502 -0.00000000000E+00 -0.00000000000E+00 -0.21209945633E+02  0.21209945633E+02  0.00000000000E+00 0.  1.
         21    1    1    2  503  502 -0.14813720000E+02 -0.24649076335E+02 -0.11132414868E+02  0.30837540843E+02  0.00000000000E+00 0.  1.
         21    1    1    2  504  501  0.14813720000E+02  0.24649076335E+02  0.91882138566E+03  0.91927132122E+03  0.00000000000E+00 0.  1.
</event>
<event>
 4    1  0.1602044E+006  0.2931507E+02  0.7546771E-02  0.1425643E+00
         21   -1    0    0  503  501  0.00000000000E+00  0.00000000000E+00  0.44965479928E+02  0.44965479928E+02  0.00000000000E+00 0.  1.
         21   -1    0    0  501  502 -0.00000000000E+00 -0.00000000000E+00 -0.23413376279E+02  0.23413376279E+02  0.00000000000E+00 0.  1.
         21    1    1    2  503  504  0.26525896954E+01  0.29194814082E+02  0.25430559183E+02  0.38808333406E+02  0.00000000000E+00 0.  1.
         21    1    1    2  504  502 -0.26525896954E+01 -0.29194814082E+02 -0.38784555338E+01  0.29570522801E+02  0.00000000000E+00 0.  1.
</event>
<event>
 4    1  0.1602044E+006  0.2499702E+02  0.7546771E-02  0.1468837E+00
         21   -1    0    0  503  501  0.00000000000E+00  0.00000000000E+00  0.27137814394E+01  0.27137814394E+01  0.00000000000E+00 0.  1.
         21   -1    0    0  504  502 -0.00000000000E+00 -0.00000000000E+00 -0.23334443471E+03  0.23334443471E+03  0.00000000000E+00 0.  1.
         21    1    1    2  503  502  0.95981614235E+01  0.23080859640E+02 -0.10172550944E+03  0.10475175442E+03  0.00000000000E+00 0.  1.
         21    1    1    2  504  501 -0.95981614235E+01 -0.23080859640E+02 -0.12890514384E+03  0.13130646173E+03  0.00000000000E+00 0.  1.
</event>
<event>
 4    1  0.1602044E+006  0.2350900E+02  0.7546771E-02  0.1486204E+00
         21   -1    0    0  503  501  0.00000000000E+00  0.00000000000E+00  0.25037176274E+02  0.25037176274E+02  0.00000000000E+00 0.  1.
         21   -1    0    0  504  502 -0.00000000000E+00 -0.00000000000E+00 -0.57835983695E+02  0.57835983695E+02  0.00000000000E+00 0. -1.
         21    1    1    2  503  502 -0.22682779524E+02 -0.61777573702E+01 -0.48982700433E+02  0.54332109427E+02  0.00000000000E+00 0. -1.
         21    1    1    2  504  501  0.22682779524E+02  0.61777573702E+01  0.16183893011E+02  0.28541050542E+02  0.00000000000E+00 0.  1.
</event>
<event>
 4    1  0.1602044E+006  0.2882420E+02  0.7546771E-02  0.1430097E+00
         21   -1    0    0  503  501  0.00000000000E+00  0.00000000000E+00  0.20799620196E+03  0.20799620196E+03  0.00000000000E+00 0. -1.
         21   -1    0    0  501  502 -0.00000000000E+00 -0.00000000000E+00 -0.43897714253E+02  0.43897714253E+02  0.00000000000E+00 0. -1.
         21    1    1    2  503  504 -0.12949839589E+02 -0.25751426686E+02  0.20212928816E+03  0.20417414982E+03  0.00000000000E+00 0. -1.
         21    1    1    2  504  502  0.12949839589E+02  0.25751426686E+02 -0.38030800453E+02  0.47719766395E+02  0.00000000000E+00 0. -1.
</event>
<event>
 4    1  0.1602044E+006  0.2396393E+02  0.7546771E-02  0.1480736E+00
         21   -1    0    0  503  501  0.00000000000E+00  0.00000000000E+00  0.51697422705E+02  0.51697422705E+02  0.00000000000E+00 0.  1.
         21   -1    0    0  504  502 -0.00000000000E+00 -0.00000000000E+00 -0.68215644944E+02  0.68215644944E+02  0.00000000000E+00 0.  1.
         21    1    1    2  503  502 -0.15917695093E+02 -0.17913601044E+02 -0.63117182359E+02  0.67513323339E+02  0.00000000000E+00 0.  1.
         21    1    1    2  504  501  0.15917695093E+02  0.17913601044E+02  0.46598960120E+02  0.52399744310E+02  0.00000000000E+00 0.  1.
</event>
<event>
 4    1  0.1602044E+006  0.2487442E+02  0.7546771E-02  0.1470213E+00
         21   -1    0    0  503  501  0.00000000000E+00  0.00000000000E+00  0.75365226754E+01  0.75365226754E+01  0.00000000000E+00 0.  1.
         21   -1    0    0  504  502 -0.00000000000E+00 -0.00000000000E+00 -0.14565857611E+03  0.14565857611E+03  0.00000000000E+00 0. -1.
         21    1    1    2  503  502  0.21282223030E+02 -0.12876488940E+02 -0.11965970241E+03  0.12221776207E+03  0.00000000000E+00 0. -1.
         21    1    1    2  504  501 -0.21282223030E+02  0.12876488940E+02 -0.18462351021E+02  0.30977336712E+02  0.00000000000E+00 0.  1.
</event>
<event>
 4    1  0.1602044E+006  0.2761182E+02  0.7546771E-02  0.1441557E+00
         21   -1    0    0  504  501  0.00000000000E+00  0.00000000000E+00  0.41300121293E+03  0.41300121293E+03  0.00000000000E+00 0. -1.
         21   -1    0    0  503  502 -0.00000000000E+00 -0.00000000000E+00 -0.90221862005E+01  0.90221862005E+01  0.00000000000E+00 0.  1.
         21    1    1    2  503  501  0.26435903099E+02 -0.79721759707E+01  0.13799493086E+02  0.30868083384E+02  0.00000000000E+00 0.  1.
         21    1    1    2  504  502 -0.26435903099E+02  0.79721759707E+01  0.39017953364E+03  0.39115531574E+03  0.00000000000E+00 0. -1.
</event>
<event>
 4    1  0.1602044E+006  0.2087076E+02  0.7546771E-02  0.1521118E+00
         21   -1    0    0  504  501  0.00000000000E+00  0.00000000000E+00  0.13898517821E+03  0.13898517821E+03  0.00000000000E+00 0. -1.
         21   -1    0    0  503  502 -0.00000000000E+00 -0.00000000000E+00 -0.22493014522E+03  0.22493014522E+03  0.00000000000E+00 0.  1.
         21    1    1    2  503  501  0.20722681070E+02 -0.24817356550E+01  0.13771307776E+03  0.13928560697E+03  0.00000000000E+00 0. -1.
         21    1    1    2  504  502 -0.20722681070E+02  0.24817356550E+01 -0.22365804477E+03  0.22462971646E+03  0.00000000000E+00 0.  1.
</event>
<event>
 4    1  0.1602044E+006  0.3180279E+02  0.7546771E-02  0.1404551E+00
         21   -1    0    0  503  501  0.00000000000E+00  0.00000000000E+00  0.17875144291E+02  0.17875144291E+02  0.00000000000E+00 0.  1.
         21   -1    0    0  504  502 -0.00000000000E+00 -0.00000000000E+00 -0.56609979642E+02  0.56609979642E+02  0.00000000000E+00 0.  1.
         21    1    1    2  503  502  0.10015418887E+02  0.30184575782E+02 -0.18544277041E+02  0.36814500426E+02  0.00000000000E+00 0.  1.
         21    1    1    2  504  501 -0.10015418887E+02 -0.30184575782E+02 -0.20190558310E+02  0.37670623508E+02  0.00000000000E+00 0.  1.
</event>
<event>
 4    1  0.1602044E+006  0.2653101E+02  0.7546771E-02  0.1452377E+00
         21   -1    0    0  502  501  0.00000000000E+00  0.00000000000E+00  0.48321080643E+01  0.48321080643E+01  0.00000000000E+00 0.  1.
         21   -1    0    0  504  502 -0.00000000000E+00 -0.00000000000E+00 -0.80832973697E+03  0.80832973697E+03  0.00000000000E+00 0.  1.
         21    1    1    2  503  501  0.23872241454E+02  0.11576297197E+02 -0.33621606665E+02  0.42828810438E+02  0.00000000000E+00 0.  1.
         21    1    1    2  504  503 -0.23872241454E+02 -0.11576297197E+02 -0.76987602224E+03  0.77033303460E+03  0.00000000000E+00 0.  1.
</event>
<event>
 4    1  0.1602044E+006  0.3306682E+02  0.7546771E-02  0.1394688E+00
         21   -1    0    0  503  501  0.00000000000E+00  0.00000000000E+00  0.27987550660E+02  0.27987550660E+02  0.00000000000E+00 0.  1.
         21   -1    0    0  501  502 -0.00000000000E+00 -0.00000000000E+00 -0.43036581815E+02  0.43036581815E+02  0.00000000000E+00 0.  1.
         21    1    1    2  503  504  0.16282649906E+01 -0.33026708663E+02  0.32594971071E+01  0.33227083131E+02  0.00000000000E+00 0.  1.
         21    1    1    2  504  502 -0.16282649906E+01  0.33026708663E+02 -0.18308528262E+02  0.37797049344E+02  0.00000000000E+00 0.  1.
</event>
<event>
 4    1  0.1602044E+006  0.2288915E+02  0.7546771E-02  0.1493895E+00
         21   -1    0    0  504  501  0.00000000000E+00  0.00000000000E+00  0.37753257805E+02  0.37753257805E+02  0.00000000000E+00 0. -1.
         21   -1    0    0  503  502 -0.00000000000E+00 -0.00000000000E+00 -0.14251828050E+02  0.14251828050E+02  0.00000000000E+00 0. -1.
         21    1    1    2  503  501 -0.20820531843E+02 -0.95088727715E+01  0.75354594991E+01  0.24097642156E+02  0.00000000000E+00 0. -1.
         21    1    1    2  504  502  0.20820531843E+02  0.95088727715E+01  0.15965970256E+02  0.27907443699E+02  0.00000000000E+00 0. -1.
</event>
<event>
 4    1  0.1602044E+006  0.2246246E+02  0.7546771E-02  0.1499361E+00
         21   -1    0    0  503  501  0.00000000000E+00  0.00000000000E+00  0.20082868651E+02  0.20082868651E+02  0.00000000000E+00 0. -1.
         21   -1    0    0  504  502 -0.00000000000E+00 -0.00000000000E+00 -0.57224725601E+03  0.57224725601E+03  0.00000000000E+00 0.  1.
         21    1    1    2  503  502 -0.67957485130E+01 -0.21409806109E+02  0.13508467841E+02  0.26211461213E+02  0.00000000000E+00 0. -1.
         21    1    1    2  504  501  0.67957485130E+01  0.21409806109E+02 -0.56567285520E+03  0.56611866345E+03  0.00000000000E+00 0.  1.
</event>
<event>
 4    1  0.1602044E+006  0.3379024E+02  0.7546771E-02  0.1389274E+00
         21   -1    0    0  503  501  0.00000000000E+00  0.00000000000E+00  0.43096585974E+01  0.43096585974E+01  0.00000000000E+00 0.  1.
         21   -1    0    0  504  502 -0.00000000000E+00 -0.00000000000E+00 -0.26515326986E+03  0.26515326986E+03  0.00000000000E+00 0.  1.
         21    1    1    2  503  502  0.12532573389E+02 -0.31380165402E+02 -0.12655779575E+03  0.13099105252E+03  0.00000000000E+00 0.  1.
         21    1    1    2  504  501 -0.12532573389E+02  0.31380165402E+02 -0.13428581551E+03  0.13847187593E+03  0.00000000000E+00 0.  1.
</event>
<event>
 4    1  0.1602044E+006  0.2026473E+02  0.7546771E-02  0.1530027E+00
         21   -1    0    0  504  501  0.00000000000E+00  0.00000000000E+00  0.17624009552E+01  0.17624009552E+01  0.00000000000E+00 0.  1.
         21   -1    0    0  503  502 -0.00000000000E+00 -0.00000000000E+00 -0.38311458895E+03  0.38311458895E+03  0.00000000000E+00 0. -1.
         21    1    1    2  503  501  0.40442758354E+01  0.19857070431E+02 -0.70221699516E+02  0.73087252623E+02  0.00000000000E+00 0.  1.
         21    1    1    2  504  502 -0.40442758354E+01 -0.19857070431E+02 -0.31113048848E+03  0.31178973729E+03  0.00000000000E+00 0. -1.
</event>
<event>
 4    1  0.1602044E+006  0.3204420E+02  0.7546771E-02  0.1402626E+00
         21   -1    0    0  503  501  0.00000000000E+00  0.00000000000E+00  0.79918093516E+02  0.79918093516E+02  0.00000000000E+00 0.  1.
         21   -1    0    0  501  502 -0.00000000000E+00 -0.00000000000E+00 -0.26564193583E+02  0.26564193583E+02  0.00000000000E+00 0.  1.
         21    1    1    2  503  504  0.66976731982E+01  0.31336436376E+02  0.64933628450E+02  0.72409993611E+02  0.00000000000E+00 0.  1.
         21    1    1    2  504  502 -0.66976731982E+01 -0.31336436376E+02 -0.11579728518E+02  0.34072293488E+02  0.00000000000E+00 0.  1.
</event>
<event>
 4    1  0.1602044E+006  0.2360669E+02  0.7546771E-02  0.1485017E+00
         21   -1    0    0  504  501  0.00000000000E+00  0.00000000000E+00  0.58608556080E+03  0.58608556080E+03  0.00000000000E+00 0.  1.
         21   -1    0    0  503  502 -0.00000000000E+00 -0.00000000000E+00 -0.19709132714E+03  0.19709132714E+03  0.00000000000E+00 0.  1.
         21    1    1    2  503  501 -0.23556960830E+02 -0.15314929356E+01 -0.19614559896E+03  0.19756105858E+03  0.00000000000E+00 0.  1.
         21    1    1    2  504  502  0.23556960830E+02  0.15314929356E+01  0.58513983263E+03  0.58561582936E+03  0.00000000000E+00 0.  1.
</event>
<event>
 4    1  0.1602044E+006  0.2468933E+02  0.7546771E-02  0.1472309E+00
         21   -1    0    0  503  501  0.00000000000E+00  0.00000000000E+00  0.55541898256E+02  0.55541898256E+02  0.00000000000E+00 0. -1.
         21   -1    0    0  501  502 -0.00000000000E+00 -0.00000000000E+00 -0.12773238425E+03  0.12773238425E+03  0.00000000000E+00 0. -1.
         21    1    1    2  503  504 -0.24035564263E+02 -0.56439900191E+01  0.51516740919E+02  0.57127380192E+02  0.00000000000E+00 0. -1.
         21    1    1    2  504  502  0.24035564263E+02  0.56439900191E+01 -0.12370722691E+03  0.12614690231E+03  0.00000000000E+00 0. -1.
</event>
<event>
 4    1  0.1602044E+006  0.2380229E+02  0.7546771E-02  0.1482662E+00
         21   -1    0    0  504  501  0.00000000000E+00  0.00000000000E+00  0.13838002851E+03  0.13838002851E+03  0.00000000000E+00 0.  1.
         21   -1    0    0  503  502 -0.00000000000E+00 -0.00000000000E+00 -0.65164196286E+01  0.65164196286E+01  0.00000000000E+00 0.  1.
         21    1    1    2  503  501  0.39102058329E+01  0.23478908924E+02  0.11010250454E+03  0.11264595146E+03  0.00000000000E+00 0.  1.
         21    1    1    2  504  502 -0.39102058329E+01 -0.23478908924E+02  0.21761104337E+02  0.32250496676E+02  0.00000000000E+00 0.  1.
</event>
<event>
 4    1  0.1602044E+006  0.2327833E+02  0.7546771E-02  0.1489032E+00
         21   -1    0    0  504  501  0.00000000000E+00  0.00000000000E+00  0.29853347736E+02  0.29853347736E+02  0.00000000000E+00 0.  1.
         21   -1    0    0  503  502 -0.00000000000E+00 -0.00000000000E+00 -0.99756363251E+02  0.99756363251E+02  0.00000000000E+00 0. -1.
         21    1    1    2  503  501  0.12510287821E+02 -0.19630923543E+02 -0.93564715968E+02  0.96416992977E+02  0.00000000000E+00 0. -1.
         21    1    1    2  504  502 -0.12510287821E+02  0.19630923543E+02  0.23661700454E+02  0.33192718010E+02  0.00000000000E+00 0.  1.
</event>
<event>
 4    1  0.1602044E+006  0.2125069E+02  0.7546771E-02  0.1515716E+00
         21   -1    0    0  502  501  0.00000000000E+00  0.00000000000E+00  0.53952796180E+02  0.53952796180E+02  0.00000000000E+00 0.  1.
         21   -1    0    0  504  502 -0.00000000000E+00 -0.00000000000E+00 -0.12307208686E+02  0.12307208686E+02  0.00000000000E+00 0. -1.
         21    1    1    2  503  501  0.19821799471E+02  0.76608275777E+01  0.39561026755E+02  0.44907314007E+02  0.00000000000E+00 0.  1.
         21    1    1    2  504  503 -0.19821799471E+02 -0.76608275777E+01  0.20845607392E+01  0.21352690859E+02  0.00000000000E+00 0. -1.
</event>
<event>
 4    1  0.1602044E+006  0.2552010E+02  0.7546771E-02  0.1463068E+00
         21   -1    0    0  502  501  0.00000000000E+00  0.00000000000E+00  0.51138021675E+02  0.51138021675E+02  0.00000000000E+00 0.  1.
         21   -1    0    0  503  502 -0.00000000000E+00 -0.00000000000E+00 -0.52944045117E+02  0.52944045117E+02  0.00000000000E+00 0. -1.
         21    1    1    2  503  504 -0.18571834925E+02  0.17503205919E+02 -0.46254943721E+02  0.52827976381E+02  0.00000000000E+00 0. -1.
         21    1    1    2  504  501  0.18571834925E+02 -0.17503205919E+02  0.44448920279E+02  0.51254090411E+02  0.00000000000E+00 0.  1.
</event>
<event>
 4    1  0.1602044E+006  0.2975506E+02  0.7546771E-02  0.1421737E+00
         21   -1    0    0  502  501  0.00000000000E+00  0.00000000000E+00  0.47995541764E+02  0.47995541764E+02  0.00000000000E+00 0. -1.
         21   -1    0    0  504  502 -0.00000000000E+00 -0.00000000000E+00 -0.64943141701E+02  0.64943141701E+02  0.00000000000E+00 0. -1.
         21    1    1    2  503  501  0.26516302084E+02  0.13499965377E+02  0.39307234686E+02  0.49299310747E+02  0.00000000000E+00 0. -1.
         21    1    1    2  504  503 -0.26516302084E+02 -0.13499965377E+02 -0.56254834624E+02  0.63639372718E+02  0.00000000000E+00 0. -1.
</event>
<event>
 4    1  0.1602044E+006  0.2008734E+02  0.7546771E-02  0.1532705E+00
         21   -1    0    0  504  501  0.00000000000E+00  0.00000000000E+00  0.88717209606E+01  0.88717209606E+01  0.00000000000E+00 0.  1.
         21   -1    0    0  501  502 -0.00000000000E+00 -0.00000000000E+00 -0.51981862695E+02  0.51981862695E+02  0.00000000000E+00 0. -1.
         21    1    1    2  503  502  0.28995578724E+01 -0.19876964640E+02 -0.32314558106E+02  0.38049071273E+02  0.00000000000E+00 0.  1.
         21    1    1    2  504  503 -0.28995578724E+01  0.19876964640E+02 -0.10795583629E+02  0.22804512383E+02  0.00000000000E+00 0. -1.
</event>
<event>
 4    1  0.1602044E+006  0.3252895E+02  0.7546771E-02  0.1398821E+00
         21   -1    0    0  504  501  0.00000000000E+00  0.00000000000E+00  0.39255448666E+03  0.39255448666E+03  0.00000000000E+00 0.  1.
         21   -1    0    0  503  502 -0.00000000000E+00 -0.00000000000E+00 -0.52534934008E+01  0.52534934008E+01  0.00000000000E+00 0.  1.
         21    1    1    2  503  501 -0.25416797396E+02 -0.20300713038E+02  0.54857135172E+02  0.63776467596E+02  0.00000000000E+00 0.  1.
         21    1    1    2  504  502  0.25416797396E+02  0.20300713038E+02  0.33244385809E+03  0.33403151247E+03  0.00000000000E+00 0.  1.
</event>
<event>
 4    1  0.1602044E+006  0.2762875E+02  0.7546771E-02  0.1441392E+00
         21   -1    0    0  503  501  0.00000000000E+00  0.00000000000E+00  0.15220794712E+02  0.15220794712E+02  0.00000000000E+00 0.  1.
         21   -1    0    0  504  502 -0.00000000000E+00 -0.00000000000E+00 -0.89815709074E+02  0.89815709074E+02  0.00000000000E+00 0.  1.
         21    1    1    2  503  502 -0.14596444426E+02 -0.23458296777E+02 -0.72198043374E+02  0.77303980134E+02  0.00000000000E+00 0.  1.
         21    1    1    2  504  501  0.14596444426E+02  0.23458296777E+02 -0.23968709879E+01  0.27732523651E+02  0.00000000000E+00 0.  1.
</event>
<event>
 4    1  0.1602044E+006  0.2737609E+02  0.7546771E-02  0.1443866E+00
         21   -1    0    0  504  501  0.00000000000E+00  0.00000000000E+00  0.14847728267E+03  0.14847728267E+03  0.00000000000E+00 0.  1.
         21   -1    0    0  501  502 -0.00000000000E+00 -0.00000000000E+00 -0.30376529495E+02  0.30376529495E+02  0.00000000000E+00 0. -1.
         21    1    1    2  503  502  0.24326237534E+01 -0.27267793709E+02 -0.22609319567E+02  0.35505373725E+02  0.00000000000E+00 0. -1.
         21    1    1    2  504  503 -0.24326237534E+01  0.27267793709E+02  0.14071007274E+03  0.14334843844E+03  0.00000000000E+00 0.  1.
</event>
<event>
 4    1  0.1602044E+006  0.2075751E+02  0.7546771E-02  0.1522755E+00
         21   -1    0    0  504  501  0.00000000000E+00  0.00000000000E+00  0.52694307781E+03  0.52694307781E+03  0.00000000000E+00 0. -1.
         21   -1    0    0  503  502 -0.00000000000E+00 -0.00000000000E+00 -0.21132921507E+01  0.21132921507E+01  0.00000000000E+00 0. -1.
         21    1    1    2  503  501 -0.19717621233E+02  0.64876421410E+01  0.46953804534E+03  0.46999664904E+03  0.00000000000E+00 0. -1.
         21    1    1    2  504  502  0.19717621233E+02 -0.64876421410E+01  0.55291740320E+02  0.59059720921E+02  0.00000000000E+00 0. -1.
</event>
<event>
 4    1  0.1602044E+006  0.2215168E+02  0.7546771E-02  0.1503434E+00
         21   -1    0    0  502  501  0.00000000000E+00  0.00000000000E+00  0.59612030685E+02  0.59612030685E+02  0.00000000000E+00 0.  1.
         21   -1    0    0  504  502 -0.00000000000E+00 -0.00000000000E+00 -0.92769385719E+02  0.92769385719E+02  0.00000000000E+00 0. -1.
         21    1    1    2  503  501 -0.21068012237E+02  0.68436569060E+01  0.56153291646E+02  0.60364633207E+02  0.00000000000E+00 0.  1.
         21    1    1    2  504  503  0.21068012237E+02 -0.68436569060E+01 -0.89310646681E+02  0.92016783197E+02  0.00000000000E+00 0. -1.
</event>
<event>
 4    1  0.1602044E+006  0.2149285E+02  0.7546771E-02  0.1512343E+00
         21   -1    0    0  503  501  0.00000000000E+00  0.00000000000E+00  0.54986401418E+01  0.54986401418E+01  0.00000000000E+00 0. -1.
         21   -1    0    0  501  502 -0.00000000000E+00 -0.00000000000E+00 -0.72784608389E+03  0.72784608389E+03  0.00000000000E+00 0. -1.
         21    1    1    2  503  504  0.21289359283E+02  0.29505348707E+01 -0.16311237400E+02  0.26981455487E+02  0.00000000000E+00 0. -1.
         21    1    1    2  504  502 -0.21289359283E+02 -0.29505348707E+01 -0.70603620635E+03  0.70636326854E+03  0.00000000000E+00 0. -1.
</event>
<event>
 4    1  0.1602044E+006  0.2024359E+02  0.7546771E-02  0.1530344E+00
         21   -1    0    0  502  501  0.00000000000E+00  0.00000000000E+00  0.57147465153E+02  0.57147465153E+02  0.00000000000E+00 0. -1.
         21   -1    0    0  504  502 -0.00000000000E+00 -0.00000000000E+00 -0.42711356086E+02  0.42711356086E+02  0.00000000000E+00 0. -1.
         21    1    1    2  503  501  0.13103570394E+02 -0.15430466157E+02  0.52763590903E+02  0.56513709556E+02  0.00000000000E+00 0. -1.
         21    1    1    2  504  503 -0.13103570394E+02  0.15430466157E+02 -0.38327481836E+02  0.43345111683E+02  0.00000000000E+00 0. -1.
</event>
<event>
 4    1  0.1602044E+006  0.2323863E+02  0.7546771E-02  0.1489523E+00
         21   -1    0    0  504  501  0.00000000000E+00  0.00000000000E+00  0.10759370527E+01  0.10759370527E+01  0.00000000000E+00 0.  1.
         21   -1    0    0  503  502 -0.00000000000E+00 -0.00000000000E+00 -0.10844768298E+04  0.10844768298E+04  0.00000000000E+00 0.  1.
         21    1    1    2  503  501  0.17393028441E+02  0.15411572673E+02 -0.93951444590E+03  0.93980180254E+03  0.00000000000E+00 0.  1.
         21    1    1    2  504  502 -0.17393028441E+02 -0.15411572673E+02 -0.14388644688E+03  0.14575096434E+03  0.00000000000E+00 0.  1.
</event>
<event>
 4    1  0.1602044E+006  0.3299493E+02  0.7546771E-02  0.1395235E+00
         21   -1    0    0  504  501  0.00000000000E+00  0.00000000000E+00  0.90041994390E+02  0.90041994390E+02  0.00000000000E+00 0. -1.
         21   -1    0    0  503  502 -0.00000000000E+00 -0.00000000000E+00 -0.22710510974E+03  0.22710510974E+03  0.00000000000E+00 0.  1.
         21    1    1    2  503  501  0.20177517652E+00 -0.32994315529E+02 -0.22282630544E+03  0.22525591661E+03  0.00000000000E+00 0.  1.
         21    1    1    2  504  502 -0.20177517652E+00  0.32994315529E+02  0.85763190089E+02  0.91891187525E+02  0.00000000000E+00 0. -1.
</event>
<event>
 4    1  0.1602044E+006  0.2311953E+02  0.7546771E-02  0.1491003E+00
         21   -1    0    0  504  501  0.00000000000E+00  0.00000000000E+00  0.10791800454E+04  0.10791800454E+04  0.00000000000E+00 0. -1.
         21   -1    0    0  503  502 -0.00000000000E+00 -0.00000000000E+00 -0.80514153780E+02  0.80514153780E+02  0.00000000000E+00 0.  1.
         21    1    1    2  503  501 -0.22173757040E+02  0.65450103242E+01  0.10773937849E+04  0.10776418145E+04  0.00000000000E+00 0. -1.
         21    1    1    2  504  502  0.22173757040E+02 -0.65450103242E+01 -0.78727893239E+02  0.82052384702E+02  0.00000000000E+00 0.  1.
</event>
<event>
 4    1  0.1602044E+006  0.2106414E+02  0.7546771E-02  0.1518351E+00
         21   -1    0    0  504  501  0.00000000000E+00  0.00000000000E+00  0.17219798841E+03  0.17219798841E+03  0.00000000000E+00 0. -1.
         21   -1    0    0  503  502 -0.00000000000E+00 -0.00000000000E+00 -0.79194782500E+01  0.79194782500E+01  0.00000000000E+00 0.  1.
         21    1    1    2  503  501 -0.17857882379E+02  0.11171120493E+02  0.15611038008E+03  0.15752507314E+03  0.00000000000E+00 0. -1.
         21    1    1    2  504  502  0.17857882379E+02 -0.11171120493E+02  0.81681300711E+01  0.22592393520E+02  0.00000000000E+00 0.  1.
</event>
<event>
 4    1  0.1602044E+006  0.3113213E+02  0.7546771E-02  0.1410007E+00
         21   -1    0    0  503  501  0.00000000000E+00  0.00000000000E+00  0.12492433190E+02  0.12492433190E+02  0.00000000000E+00 0. -1.
         21   -1    0    0  504  502 -0.00000000000E+00 -0.00000000000E+00 -0.90582429731E+02  0.90582429731E+02  0.00000000000E+00 0. -1.
         21    1    1    2  503  502 -0.28357313851E+02 -0.12848037775E+02 -0.58568201015E+02  0.66328300850E+02  0.00000000000E+00 0. -1.
         21    1    1    2  504  501  0.28357313851E+02  0.12848037775E+02 -0.19521795526E+02  0.36746562071E+02  0.00000000000E+00 0. -1.
</event>
<event>
 4    1  0.1602044E+006  0.4490096E+02  0.7546771E-02  0.1321935E+00
         21   -1    0    0  504  501  0.00000000000E+00  0.00000000000E+00  0.23734235568E+03  0.23734235568E+03  0.00000000000E+00 0. -1.
         21   -1    0    0  503  502 -0.00000000000E+00 -0.00000000000E+00 -0.32956722749E+02  0.32956722749E+02  0.00000000000E+00 0. -1.
         21    1    1    2  503  501 -0.33563370816E+02 -0.29826094370E+02  0.21862977436E+03  0.22319290760E+03  0.00000000000E+00 0. -1.
         21    1    1    2  504  502  0.33563370816E+02  0.29826094370E+02 -0.14244141424E+02  0.47106170835E+02  0.00000000000E+00 0. -1.
</event>
<event>
 4    1  0.1602044E+006  0.2579804E+02  0.7546771E-02  0.1460070E+00
         21   -1    0    0  503  501  0.00000000000E+00  0.00000000000E+00  0.50426899949E+03  0.50426899949E+03  0.00000000000E+00 0.  1.
         21   -1    0    0  504  502 -0.00000000000E+00 -0.00000000000E+00 -0.16326192291E+01  0.16326192291E+01  0.00000000000E+00 0.  1.
         21    1    1    2  503  502  0.24947390376E+02  0.65701175360E+01  0.14059613499E+03  0.14294338707E+03  0.00000000000E+00 0.  1.
         21    1    1    2  504  501 -0.24947390376E+02 -0.65701175360E+01  0.36204024527E+03  0.36295823165E+03  0.00000000000E+00 0.  1.
</event>
<event>
 4    1  0.1602044E+006  0.2525227E+02  0.7546771E-02  0.1466001E+00
         21   -1    0    0  503  501  0.00000000000E+00  0.00000000000E+00  0.44050238801E+03  0.44050238801E+03  0.00000000000E+00 0. -1.
         21   -1    0    0  504  502 -0.00000000000E+00 -0.00000000000E+00 -0.15895436421E+01  0.15895436421E+01  0.00000000000E+00 0. -1.
         21    1    1    2  503  502  0.23115517102E+02  0.10166131105E+02  0.15340484886E+03  0.15546936999E+03  0.00000000000E+00 0. -1.
         21    1    1    2  504  501 -0.23115517102E+02 -0.10166131105E+02  0.28550799551E+03  0.28662256166E+03  0.00000000000E+00 0. -1.
</event>
<event>
 4    1  0.1602044E+006  0.2478136E+02  0.7546771E-02  0.1471264E+00
         21   -1    0    0  503  501  0.00000000000E+00  0.00000000000E+00  0.26912989342E+01  0.26912989342E+01  0.00000000000E+00 0. -1.
         21   -1    0    0  504  502 -0.00000000000E+00 -0.00000000000E+00 -0.32010763685E+03  0.32010763685E+03  0.00000000000E+00 0. -1.
         21    1    1    2  503  502  0.18179145292E+02 -0.16841449105E+02 -0.72218578723E+02  0.76352071643E+02  0.00000000000E+00 0. -1.
         21    1    1    2  504  501 -0.18179145292E+02  0.16841449105E+02 -0.24519775920E+03  0.24644686415E+03  0.00000000000E+00 0. -1.
</event>
<event>
 4    1  0.1602044E+006  0.7657468E+02  0.7546771E-02  0.1212031E+00
         21   -1    0    0  502  501  0.00000000000E+00  0.00000000000E+00  0.75799655802E+02  0.75799655802E+02  0.00000000000E+00 0.  1.
         21   -1    0    0  503  502 -0.00000000000E+00 -0.00000000000E+00 -0.65301506910E+03  0.65301506910E+03  0.00000000000E+00 0. -1.
         21    1    1    2  503  504  0.36355165016E+02  0.67394243809E+02 -0.63075066005E+03  0.63538183580E+03  0.00000000000E+00 0. -1.
         21    1    1    2  504  501 -0.36355165016E+02 -0.67394243809E+02  0.53535246744E+02  0.93432889101E+02  0.00000000000E+00 0.  1.
</event>
<event>
 4    1  0.1602044E+006  0.2161059E+02  0.7546771E-02  0.1510723E+00
         21   -1    0    0  504  501  0.00000000000E+00  0.00000000000E+00  0.39274819217E+02  0.39274819217E+02  0.00000000000E+00 0.  1.
         21   -1    0    0  503  502 -0.00000000000E+00 -0.00000000000E+00 -0.12672366513E+02  0.12672366513E+02  0.00000000000E+00 0.  1.
         21    1    1    2  503  501  0.79723273245E+01 -0.20086304579E+02  0.19750713634E+02  0.29276412411E+02  0.00000000000E+00 0.  1.
         21    1    1    2  504  502 -0.79723273245E+01  0.20086304579E+02  0.68517390706E+01  0.22670773319E+02  0.00000000000E+00 0.  1.
</event>
<event>
 4    1  0.1602044E+006  0.4432253E+02  0.7546771E-02  0.1324862E+00
         21   -1    0    0  503  501  0.00000000000E+00  0.00000000000E+00  0.81099243447E+03  0.81099243447E+03  0.00000000000E+00 0.  1.
         21   -1    0    0  504  502 -0.00000000000E+00 -0.00000000000E+00 -0.26171944295E+01  0.26171944295E+01  0.00000000000E+00 0. -1.
         21    1    1    2  503  502  0.27796521178E+02  0.34523040868E+02  0.51519206537E+03  0.51709510843E+03  0.00000000000E+00 0.  1.
         21    1    1    2  504  501 -0.27796521178E+02 -0.34523040868E+02  0.29318317467E+03  0.29651452047E+03  0.00000000000E+00 0. -1.
</event>
<event>
 4    1  0.1602044E+006  0.2821475E+02  0.7546771E-02  0.1435773E+00
         21   -1    0    0  502  501  0.00000000000E+00  0.00000000000E+00  0.64906872900E+02  0.64906872900E+02  0.00000000000E+00 0. -1.
         21   -1    0    0  503  502 -0.00000000000E+00 -0.00000000000E+00 -0.28558833645E+02  0.28558833645E+02  0.00000000000E+00 0. -1.
         21    1    1    2  503  504  0.13668944449E+02 -0.24682623290E+02 -0.17125267381E+02  0.33005252880E+02  0.00000000000E+00 0. -1.
         21    1    1    2  504  501 -0.13668944449E+02  0.24682623290E+02  0.53473306635E+02  0.60460453665E+02  0.00000000000E+00 0. -1.
</event>
<event>
 4    1  0.1602044E+006  0.2106398E+02  0.7546771E-02  0.1518353E+00
         21   -1    0    0  504  501  0.00000000000E+00  0.00000000000E+00  0.19409614385E+02  0.19409614385E+02  0.00000000000E+00 0. -1.
         21   -1    0    0  503  502 -0.00000000000E+00 -0.00000000000E+00 -0.30721378081E+02  0.30721378081E+02  0.00000000000E+00 0.  1.
         21    1    1    2  503  501  0.20028494763E+02 -0.65230927898E+01  0.70242277969E+01  0.22204304046E+02  0.00000000000E+00 0. -1.
         21    1    1    2  504  502 -0.20028494763E+02  0.65230927898E+01 -0.18335991493E+02  0.27926688419E+02  0.00000000000E+00 0.  1.
</event>
<event>
 4    1  0.1602044E+006  0.3821423E+02  0.7546771E-02  0.1359280E+00
         21   -1    0    0  502  501  0.00000000000E+00  0.00000000000E+00  0.82393635554E+03  0.82393635554E+03  0.00000000000E+00 0. -1.
         21   -1    0    0  504  502 -0.00000000000E+00 -0.00000000000E+00 -0.11676822795E+02  0.11676822795E+02  0.00000000000E+00 0.  1.
         21    1    1    2  503  501 -0.36672643619E+02 -0.10744509765E+02  0.79092350073E+03  0.79184614117E+03  0.00000000000E+00 0. -1.
         21    1    1    2  504  503  0.36672643619E+02  0.10744509765E+02  0.21336032018E+02  0.43767037167E+02  0.00000000000E+00 0.  1.
</event>
<event>
 4    1  0.1602044E+006  0.2698512E+02  0.7546771E-02  0.1447758E+00
         21   -1    0    0  503  501  0.00000000000E+00  0.00000000000E+00  0.49494950069E+02  0.49494950069E+02  0.00000000000E+00 0. -1.
         21   -1    0    0  504  502 -0.00000000000E+00 -0.00000000000E+00 -0.32117784101E+02  0.32117784101E+02  0.00000000000E+00 0. -1.
         21    1    1    2  503  502 -0.24884086849E+02  0.10439286235E+02 -0.21351089499E+02  0.34410252806E+02  0.00000000000E+00 0. -1.
         21    1    1    2  504  501  0.24884086849E+02 -0.10439286235E+02  0.38728255467E+02  0.47202481364E+02  0.00000000000E+00 0. -1.
</event>
<event>
 4    1  0.1602044E+006  0.3224329E+02  0.7546771E-02  0.1401054E+00
         21   -1    0    0  503  501  0.00000000000E+00  0.00000000000E+00  0.13040528857E+03  0.13040528857E+03  0.00000000000E+00 0. -1.
         21   -1    0    0  504  502 -0.00000000000E+00 -0.00000000000E+00 -0.19205163587E+02  0.19205163587E+02  0.00000000000E+00 0.  1.
         21    1    1    2  503  502 -0.25970792775E+02 -0.19108843198E+02  0.11280956801E+03  0.11732701565E+03  0.00000000000E+00 0. -1.
         21    1    1    2  504  501  0.25970792775E+02  0.19108843198E+02 -0.16094430323E+01  0.32283436505E+02  0.00000000000E+00 0.  1.
</event>
<event>
 4    1  0.1602044E+006  0.2145554E+02  0.7546771E-02  0.1512859E+00
         21   -1    0    0  502  501  0.00000000000E+00  0.00000000000E+00  0.32627787217E+02  0.32627787217E+02  0.00000000000E+00 0. -1.
         21   -1    0    0  504  502 -0.00000000000E+00 -0.00000000000E+00 -0.59443342751E+03  0.59443342751E+03  0.00000000000E+00 0. -1.
         21    1    1    2  503  501 -0.70520827225E+00 -0.21443951739E+02  0.28884627035E+02  0.35981412754E+02  0.00000000000E+00 0. -1.
         21    1    1    2  504  503  0.70520827225E+00  0.21443951739E+02 -0.59069026733E+03  0.59107980198E+03  0.00000000000E+00 0. -1.
</event>
<event>
 4    1  0.1602044E+006  0.2081112E+02  0.7546771E-02  0.1521979E+00
         21   -1    0    0  504  501  0.00000000000E+00  0.00000000000E+00  0.65270339152E+02  0.65270339152E+02  0.00000000000E+00 0. -1.
         21   -1    0    0  503  502 -0.00000000000E+00 -0.00000000000E+00 -0.25925717709E+03  0.25925717709E+03  0.00000000000E+00 0. -1.
         21    1    1    2  503  501 -0.20740993520E+02  0.17070490279E+01  0.63180360609E+02  0.66519627143E+02  0.00000000000E+00 0. -1.
         21    1    1    2  504  502  0.20740993520E+02 -0.17070490279E+01 -0.25716719854E+03  0.25800788909E+03  0.00000000000E+00 0. -1.
</event>
<event>
 4    1  0.1602044E+006  0.2821527E+02  0.7546771E-02  0.1435768E+00
         21   -1    0    0  504  501  0.00000000000E+00  0.00000000000E+00  0.73061436318E+02  0.73061436318E+02  0.00000000000E+00 0. -1.
         21   -1    0    0  501  502 -0.00000000000E+00 -0.00000000000E+00 -0.22166265880E+03  0.22166265880E+03  0.00000000000E+00 0.  1.
         21    1    1    2  503  502  0.53480137718E+01  0.27703796084E+02 -0.21799506076E+03  0.21981343927E+03  0.00000000000E+00 0.  1.
         21    1    1    2  504  503 -0.53480137718E+01 -0.27703796084E+02  0.69393838276E+02  0.74910655847E+02  0.00000000000E+00 0. -1.
</event>
<event>
 4    1  0.1602044E+006  0.2115635E+02  0.7546771E-02  0.1517044E+00
         21   -1    0    0  502  501  0.00000000000E+00  0.00000000000E+00  0.34265992310E+02  0.34265992310E+02  0.00000000000E+00 0.  1.
         21   -1    0    0  503  502 -0.00000000000E+00 -0.00000000000E+00 -0.17728917009E+03  0.17728917009E+03  0.00000000000E+00 0.  1.
         21    1    1    2  503  504  0.20741840042E+02 -0.41674028889E+01 -0.17331789830E+03  0.17460436720E+03  0.00000000000E+00 0.  1.
         21    1    1    2  504  501 -0.20741840042E+02  0.41674028889E+01  0.30294720514E+02  0.36950795204E+02  0.00000000000E+00 0.  1.
</event>
<event>
 4    1  0.1602044E+006  0.2052250E+02  0.7546771E-02  0.1526193E+00
         21   -1    0    0  503  501  0.00000000000E+00  0.00000000000E+00  0.35597098657E+01  0.35597098657E+01  0.00000000000E+00 0.  1.
         21   -1    0    0  504  502 -0.00000000000E+00 -0.00000000000E+00 -0.15194850510E+03  0.15194850510E+03  0.00000000000E+00 0. -1.
         21    1    1    2  503  502  0.11816153741E+02  0.16779493916E+02 -0.37613815635E+02  0.42848244210E+02  0.00000000000E+00 0.  1.
         21    1    1    2  504  501 -0.11816153741E+02 -0.16779493916E+02 -0.11077497960E+03  0.11265997076E+03  0.00000000000E+00 0. -1.
</event>
<event>
 4    1  0.1602044E+006  0.2398649E+02  0.7546771E-02  0.1480469E+00
         21   -1    0    0  504  501  0.00000000000E+00  0.00000000000E+00  0.16798475258E+01  0.16798475258E+01  0.00000000000E+00 0. -1.
         21   -1    0    0  503  502 -0.00000000000E+00 -0.00000000000E+00 -0.48728355293E+03  0.48728355293E+03  0.00000000000E+00 0. -1.
         21    1    1    2  503  501 -0.15713107333E+02  0.18123189878E+02 -0.37606545411E+03  0.37682963993E+03  0.00000000000E+00 0. -1.
         21    1    1    2  504  502  0.15713107333E+02 -0.18123189878E+02 -0.10953825129E+03  0.11213376052E+03  0.00000000000E+00 0. -1.
</event>
<event>
 4    1  0.1602044E+006  0.2553071E+02  0.7546771E-02  0.1462953E+00
         21   -1    0    0  503  501  0.00000000000E+00  0.00000000000E+00  0.79146708520E+01  0.79146708520E+01  0.00000000000E+00 0. -1.
         21   -1    0    0  504  502 -0.00000000000E+00 -0.00000000000E+00 -0.84050806158E+03  0.84050806158E+03  0.00000000000E+00 0. -1.
         21    1    1    2  503  502  0.25479336237E+02 -0.16188981831E+01 -0.13403775057E+02  0.28835370505E+02  0.00000000000E+00 0. -1.
         21    1    1    2  504  501 -0.25479336237E+02  0.16188981831E+01 -0.81918961567E+03  0.81958736193E+03  0.00000000000E+00 0. -1.
</event>
<event>
 4    1  0.1602044E+006  0.2013137E+02  0.7546771E-02  0.1532037E+00
         21   -1    0    0  504  501  0.00000000000E+00  0.00000000000E+00  0.25649821107E+02  0.25649821107E+02  0.00000000000E+00 0.  1.
         21   -1    0    0  503  502 -0.00000000000E+00 -0.00000000000E+00 -0.71563521666E+03  0.71563521666E+03  0.00000000000E+00 0. -1.
         21    1    1    2  503  501 -0.16248062253E+02  0.11885807438E+02 -0.71152075536E+03  0.71180549117E+03  0.00000000000E+00 0. -1.
         21    1    1    2  504  502  0.16248062253E+02 -0.11885807438E+02  0.21535359811E+02  0.29479546598E+02  0.00000000000E+00 0.  1.
</event>
<event>
 4    1  0.1602044E+006  0.2206278E+02  0.7546771E-02  0.1504614E+00
         21   -1    0    0  504  501  0.00000000000E+00  0.00000000000E+00  0.28194273197E+02  0.28194273197E+02  0.00000000000E+00 0.  1.
         21   -1    0    0  503  502 -0.00000000000E+00 -0.00000000000E+00 -0.31133918114E+02  0.31133918114E+02  0.00000000000E+00 0. -1.
         21    1    1    2  503  501 -0.12560312476E+02 -0.18138494560E+02  0.18329019421E+02  0.28683085387E+02  0.00000000000E+00 0.  1.
         21    1    1    2  504  502  0.12560312476E+02  0.18138494560E+02 -0.21268664338E+02  0.30645105924E+02  0.00000000000E+00 0. -1.
</event>
<event>
 4    1  0.1602044E+006  0.3048980E+02  0.7546771E-02  0.1415387E+00
         21   -1    0    0  502  501  0.00000000000E+00  0.00000000000E+00  0.39470976729E+02  0.39470976729E+02  0.00000000000E+00 0.  1.
         21   -1    0    0  503  502 -0.00000000000E+00 -0.00000000000E+00 -0.27359425291E+02  0.27359425291E+02  0.00000000000E+00 0.  1.
         21    1    1    2  503  504 -0.86904172493E+00 -0.30477415968E+02 -0.64093080028E+01  0.31156176702E+02  0.00000000000E+00 0.  1.
         21    1    1    2  504  501  0.86904172493E+00  0.30477415968E+02  0.18520859441E+02  0.35674225318E+02  0.00000000000E+00 0.  1.
</event>
<event>
 4    1  0.1602044E+006  0.3752902E+02  0.7546771E-02  0.1363607E+00
         21   -1    0    0  503  501  0.00000000000E+00  0.00000000000E+00  0.40668910222E+02  0.40668910222E+02  0.00000000000E+00 0.  1.
         21   -1    0    0  504  502 -0.00000000000E+00 -0.00000000000E+00 -0.90445868792E+02  0.90445868792E+02  0.00000000000E+00 0. -1.
         21    1    1    2  503  502  0.33508744930E+02 -0.16899447709E+02  0.26610676053E+02  0.46006036556E+02  0.00000000000E+00 0.  1.
         21    1    1    2  504  501 -0.33508744930E+02  0.16899447709E+02 -0.76387634623E+02  0.85108742459E+02  0.00000000000E+00 0. -1.
</event>
<event>
 4    1  0.1602044E+006  0.2582416E+02  0.7546771E-02  0.1459791E+00
         21   -1    0    0  504  501  0.00000000000E+00  0.00000000000E+00  0.65940164914E+01  0.65940164914E+01  0.00000000000E+00 0.  1.
         21   -1    0    0  503  502 -0.00000000000E+00 -0.00000000000E+00 -0.10120101594E+03  0.10120101594E+03  0.00000000000E+00 0. -1.
         21    1    1    2  503  501 -0.25270864605E+02  0.53170084475E+01 -0.48677990505E+02  0.55103846838E+02  0.00000000000E+00 0. -1.
         21    1    1    2  504  502  0.25270864605E+02 -0.53170084475E+01 -0.45929008945E+02  0.52691185594E+02  0.00000000000E+00 0.  1.
</event>
<event>
 4    1  0.1602044E+006  0.2068604E+02  0.7546771E-02  0.1523795E+00
         21   -1    0    0  503  501  0.00000000000E+00  0.00000000000E+00  0.25202949149E+02  0.25202949149E+02  0.00000000000E+00 0.  1.
         21   -1    0    0  504  502 -0.00000000000E+00 -0.00000000000E+00 -0.17286493384E+02  0.17286493384E+02  0.00000000000E+00 0. -1.
         21    1    1    2  503  502  0.18247569769E+02 -0.97436451881E+01  0.67932216005E+01  0.21772925475E+02  0.00000000000E+00 0.  1.
         21    1    1    2  504  501 -0.18247569769E+02  0.97436451881E+01  0.11232341641E+01  0.20716517058E+02  0.00000000000E+00 0. -1.
</event>
<event>
 4    1  0.1602044E+006  0.2747227E+02  0.7546771E-02  0.1442921E+00
         21   -1    0    0  502  501  0.00000000000E+00  0.00000000000E+00  0.81407069969E+03  0.81407069969E+03  0.00000000000E+00 0.  1.
         21   -1    0    0  504  502 -0.00000000000E+00 -0.00000000000E+00 -0.26168233872E+01  0.26168233872E+01  0.00000000000E+00 0.  1.
         21    1    1    2  503  501  0.12670617109E+02  0.24375825542E+02  0.73385732705E+03  0.73437136509E+03  0.00000000000E+00 0.  1.
         21    1    1    2  504  503 -0.12670617109E+02 -0.24375825542E+02  0.77596549254E+02  0.82316157982E+02  0.00000000000E+00 0.  1.
</event>
<event>
 4    1  0.1602044E+006  0.2365567E+02  0.7546771E-02  0.1484425E+00
         21   -1    0    0  502  501  0.00000000000E+00  0.00000000000E+00  0.17052854219E+02  0.17052854219E+02  0.00000000000E+00 0. -1.
         21   -1    0    0  503  502 -0.00000000000E+00 -0.00000000000E+00 -0.36058635587E+03  0.36058635587E+03  0.00000000000E+00 0. -1.
         21    1    1    2  503  504  0.19486498831E+02  0.13411454797E+02 -0.35178970602E+03  0.35258415736E+03  0.00000000000E+00 0. -1.
         21    1    1    2  504  501 -0.19486498831E+02 -0.13411454797E+02  0.82562043758E+01  0.25055052727E+02  0.00000000000E+00 0. -1.
</event>
<event>
 4    1  0.1602044E+006  0.2800933E+02  0.7546771E-02  0.1437724E+00
         21   -1    0    0  503  501  0.00000000000E+00  0.00000000000E+00  0.20797663658E+03  0.20797663658E+03  0.00000000000E+00 0. -1.
         21   -1    0    0  504  502 -0.00000000000E+00 -0.00000000000E+00 -0.49457338617E+01  0.49457338617E+01  0.00000000000E+00 0.  1.
         21    1    1    2  503  502  0.21284987050E+02 -0.18206372623E+02  0.15337512506E+03  0.15591167905E+03  0.00000000000E+00 0. -1.
         21    1    1    2  504  501 -0.21284987050E+02  0.18206372623E+02  0.49655777660E+02  0.57010691391E+02  0.00000000000E+00 0.  1.
</event>
<event>
 4    1  0.1602044E+006  0.2092260E+02  0.7546771E-02  0.1520373E+00
         21   -1    0    0  502  501  0.00000000000E+00  0.00000000000E+00  0.44346094122E+01  0.44346094122E+01  0.00000000000E+00 0.  1.
         21   -1    0    0  503  502 -0.00000000000E+00 -0.00000000000E+00 -0.30476462235E+03  0.30476462235E+03  0.00000000000E+00 0.  1.
         21    1    1    2  503  504  0.14737983390E+02  0.14850825734E+02 -0.27728497542E+03  0.27807321478E+03  0.00000000000E+00 0.  1.
         21    1    1    2  504  501 -0.14737983390E+02 -0.14850825734E+02 -0.23045037509E+02  0.31126016982E+02  0.00000000000E+00 0.  1.
</event>
<event>
 4    1  0.1602044E+006  0.3795745E+02  0.7546771E-02  0.1360889E+00
         21   -1    0    0  504  501  0.00000000000E+00  0.00000000000E+00  0.28465509365E+01  0.28465509365E+01  0.00000000000E+00 0.  1.
         21   -1    0    0  503  502 -0.00000000000E+00 -0.00000000000E+00 -0.79375369905E+03  0.79375369905E+03  0.00000000000E+00 0. -1.
         21    1    1    2  503  501 -0.23878468122E+02  0.29505713769E+02 -0.63520894340E+03  0.63634202294E+03  0.00000000000E+00 0. -1.
         21    1    1    2  504  502  0.23878468122E+02 -0.29505713769E+02 -0.15569820471E+03  0.16025822704E+03  0.00000000000E+00 0.  1.
</event>
<event>
 4    1  0.1602044E+006  0.4205116E+02  0.7546771E-02  0.1336868E+00
         21   -1    0    0  504  501  0.00000000000E+00  0.00000000000E+00  0.55812157245E+03  0.55812157245E+03  0.00000000000E+00 0.  1.
         21   -1    0    0  503  502 -0.00000000000E+00 -0.00000000000E+00 -0.52165449106E+01  0.52165449106E+01  0.00000000000E+00 0.  1.
         21    1    1    2  503  501 -0.36639310659E+02 -0.20636403627E+02  0.45294975181E+03  0.45489754660E+03  0.00000000000E+00 0.  1.
         21    1    1    2  504  502  0.36639310659E+02  0.20636403627E+02  0.99955275731E+02  0.10844057076E+03  0.00000000000E+00 0.  1.
</event>
<event>
 4    1  0.1602044E+006  0.2054256E+02  0.7546771E-02  0.1525897E+00
         21   -1    0    0  503  501  0.00000000000E+00  0.00000000000E+00  0.16338669229E+02  0.16338669229E+02  0.00000000000E+00 0. -1.
         21   -1    0    0  504  502 -0.00000000000E+00 -0.00000000000E+00 -0.18879318083E+03  0.18879318083E+03  0.00000000000E+00 0. -1.
         21    1    1    2  503  502 -0.55721386123E+01  0.19772403889E+02  0.90649183237E+01  0.22453717476E+02  0.00000000000E+00 0. -1.
         21    1    1    2  504  501  0.55721386123E+01 -0.19772403889E+02 -0.18151942992E+03  0.18267813258E+03  0.00000000000E+00 0. -1.
</event>
<event>
 4    1  0.1602044E+006  0.2439046E+02  0.7546771E-02  0.1475739E+00
         21   -1    0    0  504  501  0.00000000000E+00  0.00000000000E+00  0.10423280688E+02  0.10423280688E+02  0.00000000000E+00 0.  1.
         21   -1    0    0  503  502 -0.00000000000E+00 -0.00000000000E+00 -0.14440516045E+03  0.14440516045E+03  0.00000000000E+00 0. -1.
         21    1    1    2  503  501  0.18777362977E+02  0.15566156424E+02 -0.12719349105E+03  0.12951092136E+03  0.00000000000E+00 0. -1.
         21    1    1    2  504  502 -0.18777362977E+02 -0.15566156424E+02 -0.67883887083E+01  0.25317519773E+02  0.00000000000E+00 0.  1.
</event>
<event>
 4    1  0.1602044E+006  0.4360606E+02  0.7546771E-02  0.1328558E+00
         21   -1    0    0  503  501  0.00000000000E+00  0.00000000000E+00  0.20361419679E+02  0.20361419679E+02  0.00000000000E+00 0.  1.
         21   -1    0    0  504  502 -0.00000000000E+00 -0.00000000000E+00 -0.13409507174E+03  0.13409507174E+03  0.00000000000E+00 0. -1.
         21    1    1    2  503  502 -0.77708649124E+01 -0.42908061039E+02 -0.99417950064E+02  0.10856065972E+03  0.00000000000E+00 0. -1.
         21    1    1    2  504  501  0.77708649124E+01  0.42908061039E+02 -0.14315701996E+02  0.45895831698E+02  0.00000000000E+00 0.  1.
</event>
<event>
 4    1  0.1602044E+006  0.2473012E+02  0.7546771E-02  0.1471845E+00
         21   -1    0    0  503  501  0.00000000000E+00  0.00000000000E+00  0.69730596488E+02  0.69730596488E+02  0.00000000000E+00 0. -1.
         21   -1    0    0  504  502 -0.00000000000E+00 -0.00000000000E+00 -0.15350893941E+02  0.15350893941E+02  0.00000000000E+00 0. -1.
         21    1    1    2  503  502 -0.20197805757E+02  0.14269816654E+02 -0.66244289237E+00  0.24738994630E+02  0.00000000000E+00 0. -1.
         21    1    1    2  504  501  0.20197805757E+02 -0.14269816654E+02  0.55042145439E+02  0.60342495799E+02  0.00000000000E+00 0. -1.
</event>
<event>
 4    1  0.1602044E+006  0.2032855E+02  0.7546771E-02  0.1529071E+00
         21   -1    0    0  504  501  0.00000000000E+00  0.00000000000E+00  0.14432738239E+03  0.14432738239E+03  0.00000000000E+00 0.  1.
         21   -1    0    0  501  502 -0.00000000000E+00 -0.00000000000E+00 -0.12816076185E+03  0.12816076185E+03  0.00000000000E+00 0.  1.
         21    1    1    2  503  502 -0.10874968811E+02  0.17175129516E+02 -0.12663022798E+03  0.12825156786E+03  0.00000000000E+00 0.  1.
         21    1    1    2  504  503  0.10874968811E+02 -0.17175129516E+02  0.14279684851E+03  0.14423657638E+03  0.00000000000E+00 0.  1.
</event>
<event>
 4    1  0.1602044E+006  0.2461804E+02  0.7546771E-02  0.1473122E+00
         21   -1    0    0  503  501  0.00000000000E+00  0.00000000000E+00  0.76756802348E+01  0.76756802348E+01  0.00000000000E+00 0. -1.
         21   -1    0    0  504  502 -0.00000000000E+00 -0.00000000000E+00 -0.10600638319E+03  0.10600638319E+03  0.00000000000E+00 0. -1.
         21    1    1    2  503  502  0.81889410777E+01 -0.23216143376E+02 -0.20452569718E+02  0.32005556975E+02  0.00000000000E+00 0. -1.
         21    1    1    2  504  501 -0.81889410777E+01  0.23216143376E+02 -0.77878133235E+02  0.81676506447E+02  0.00000000000E+00 0. -1.
</event>
<event>
 4    1  0.1602044E+006  0.2610674E+02  0.7546771E-02  0.1456793E+00
         21   -1    0    0  504  501  0.00000000000E+00  0.00000000000E+00  0.13110566266E+03  0.13110566266E+03  0.00000000000E+00 0. -1.
         21   -1    0    0  503  502 -0.00000000000E+00 -0.00000000000E+00 -0.22913443813E+02  0.22913443813E+02  0.00000000000E+00 0. -1.
         21    1    1    2  503  501 -0.14740194612E+02 -0.21547354714E+02 -0.13616330654E+02  0.29444291346E+02  0.00000000000E+00 0. -1.
         21    1    1    2  504  502  0.14740194612E+02  0.21547354714E+02  0.12180854950E+03  0.12457481512E+03  0.00000000000E+00 0. -1.
</event>
<event>
 4    1  0.1602044E+006  0.2395776E+02  0.7546771E-02  0.1480809E+00
         21   -1    0    0  503  501  0.00000000000E+00  0.00000000000E+00  0.17059967129E+02  0.17059967129E+02  0.00000000000E+00 0.  1.
         21   -1    0    0  504  502 -0.00000000000E+00 -0.00000000000E+00 -0.82990443892E+02  0.82990443892E+02  0.00000000000E+00 0. -1.
         21    1    1    2  503  502  0.14040865014E+02 -0.19412067233E+02 -0.71539757563E+02  0.75444755661E+02  0.00000000000E+00 0. -1.
         21    1    1    2  504  501 -0.14040865014E+02  0.19412067233E+02  0.56092807995E+01  0.24605655360E+02  0.00000000000E+00 0.  1.
</event>
<event>
 4    1  0.1602044E+006  0.3103322E+02  0.7546771E-02  0.1410825E+00
         21   -1    0    0  504  501  0.00000000000E+00  0.00000000000E+00  0.13704601282E+03  0.13704601282E+03  0.00000000000E+00 0. -1.
         21   -1    0    0  503  502 -0.00000000000E+00 -0.00000000000E+00 -0.79017051200E+01  0.79017051200E+01  0.00000000000E+00 0. -1.
         21    1    1    2  503  501 -0.19139282545E+01  0.30974148538E+02  0.40463011724E+02  0.50993296783E+02  0.00000000000E+00 0. -1.
         21    1    1    2  504  502  0.19139282545E+01 -0.30974148538E+02  0.88681295976E+02  0.93954421157E+02  0.00000000000E+00 0. -1.
</event>
<event>
 4    1  0.1602044E+006  0.2554562E+02  0.7546771E-02  0.1462791E+00
         21   -1    0    0  503  501  0.00000000000E+00  0.00000000000E+00  0.27631004849E+03  0.27631004849E+03  0.00000000000E+00 0. -1.
         21   -1    0    0  504  502 -0.00000000000E+00 -0.00000000000E+00 -0.36083750074E+02  0.36083750074E+02  0.00000000000E+00 0.  1.
         21    1    1    2  503  502  0.21465383512E+02 -0.13849761639E+02 -0.30885534043E+02  0.40081102778E+02  0.00000000000E+00 0.  1.
         21    1    1    2  504  501 -0.21465383512E+02  0.13849761639E+02  0.27111183246E+03  0.27231269579E+03  0.00000000000E+00 0. -1.
</event>
<event>
 4    1  0.1602044E+006  0.2607881E+02  0.7546771E-02  0.1457088E+00
         21   -1    0    0  502  501  0.00000000000E+00  0.00000000000E+00  0.38902412205E+01  0.38902412205E+01  0.00000000000E+00 0. -1.
         21   -1    0    0  503  502 -0.00000000000E+00 -0.00000000000E+00 -0.37314248496E+03  0.37314248496E+03  0.00000000000E+00 0.  1.
         21    1    1    2  503  504  0.26029691188E+02 -0.15998490554E+01 -0.32206012574E+03  0.32311426606E+03  0.00000000000E+00 0.  1.
         21    1    1    2  504  501 -0.26029691188E+02  0.15998490554E+01 -0.47192117997E+02  0.53918460117E+02  0.00000000000E+00 0. -1.
</event>
<event>
 4    1  0.1602044E+006  0.2406126E+02  0.7546771E-02  0.1479585E+00
         21   -1    0    0  504  501  0.00000000000E+00  0.00000000000E+00  0.15461316510E+03  0.15461316510E+03  0.00000000000E+00 0. -1.
         21   -1    0    0  501  502 -0.00000000000E+00 -0.00000000000E+00 -0.13658383606E+02  0.13658383606E+02  0.00000000000E+00 0.  1.
         21    1    1    2  503  502 -0.37024298345E+01 -0.23774700059E+02 -0.12035356326E+01  0.24091343831E+02  0.00000000000E+00 0.  1.
         21    1    1    2  504  503  0.37024298345E+01  0.23774700059E+02  0.14215831713E+03  0.14418020488E+03  0.00000000000E+00 0. -1.
</event>
<event>
 4    1  0.1602044E+006  0.2225259E+02  0.7546771E-02  0.1502103E+00
         21   -1    0    0  504  501  0.00000000000E+00  0.00000000000E+00  0.16737706327E+03  0.16737706327E+03  0.00000000000E+00 0.  1.
         21   -1    0    0  503  502 -0.00000000000E+00 -0.00000000000E+00 -0.70969378768E+01  0.70969378768E+01  0.00000000000E+00 0.  1.
         21    1    1    2  503  501 -0.22189799465E+02  0.16704562941E+01  0.14675716970E+03  0.14843464718E+03  0.00000000000E+00 0.  1.
         21    1    1    2  504  502  0.22189799465E+02 -0.16704562941E+01  0.13522955697E+02  0.26039353972E+02  0.00000000000E+00 0.  1.
</event>
<event>
 4    1  0.1602044E+006  0.2053951E+02  0.7546771E-02  0.1525942E+00
         21   -1    0    0  503  501  0.00000000000E+00  0.00000000000E+00  0.25650115245E+03  0.25650115245E+03  0.00000000000E+00 0.  1.
         21   -1    0    0  504  502 -0.00000000000E+00 -0.00000000000E+00 -0.37892339120E+01  0.37892339120E+01  0.00000000000E+00 0.  1.
         21    1    1    2  503  502 -0.20515202816E+02 -0.99904124334E+00  0.22426374572E+03  0.22520235184E+03  0.00000000000E+00 0.  1.
         21    1    1    2  504  501  0.20515202816E+02  0.99904124334E+00  0.28448172822E+02  0.35088034526E+02  0.00000000000E+00 0.  1.
</event>
<event>
 4    1  0.1602044E+006  0.2351603E+02  0.7546771E-02  0.1486118E+00
         21   -1    0    0  504  501  0.00000000000E+00  0.00000000000E+00  0.40483893963E+03  0.40483893963E+03  0.00000000000E+00 0.  1.
         21   -1    0    0  503  502 -0.00000000000E+00 -0.00000000000E+00 -0.13435242365E+02  0.13435242365E+02  0.00000000000E+00 0. -1.
         21    1    1    2  503  501 -0.85776980204E+01  0.21895815227E+02  0.39392236234E+03  0.39462365765E+03  0.00000000000E+00 0.  1.
         21    1    1    2  504  502  0.85776980204E+01 -0.21895815227E+02 -0.25186650770E+01  0.23650524340E+02  0.00000000000E+00 0. -1.
</event>
<event>
 4    1  0.1602044E+006  0.2046798E+02  0.7546771E-02  0.1526998E+00
         21   -1    0    0  504  501  0.00000000000E+00  0.00000000000E+00  0.94977282381E+02  0.94977282381E+02  0.00000000000E+00 0.  1.
         21   -1    0    0  503  502 -0.00000000000E+00 -0.00000000000E+00 -0.25560427690E+02  0.25560427690E+02  0.00000000000E+00 0. -1.
         21    1    1    2  503  501 -0.11985999288E+02 -0.16591381996E+02  0.89530936950E+02  0.91840768761E+02  0.00000000000E+00 0.  1.
         21    1    1    2  504  502  0.11985999288E+02  0.16591381996E+02 -0.20114082258E+02  0.28696941310E+02  0.00000000000E+00 0. -1.
</event>
<event>
 4    1  0.1602044E+006  0.2185875E+02  0.7546771E-02  0.1507349E+00
         21   -1    0    0  503  501  0.00000000000E+00  0.00000000000E+00  0.17620186695E+02  0.17620186695E+02  0.00000000000E+00 0. -1.
         21   -1    0    0  504  502 -0.00000000000E+00 -0.00000000000E+00 -0.34582323098E+02  0.34582323098E+02  0.00000000000E+00 0. -1.
         21    1    1    2  503  502  0.20263223626E+02 -0.81979719328E+01 -0.20608289317E+02  0.30041747022E+02  0.00000000000E+00 0. -1.
         21    1    1    2  504  501 -0.20263223626E+02  0.81979719328E+01  0.36461529141E+01  0.22160762771E+02  0.00000000000E+00 0. -1.
</event>
<event>
 4    1  0.1602044E+006  0.4590449E+02  0.7546771E-02  0.1316978E+00
         21   -1    0    0  502  501  0.00000000000E+00  0.00000000000E+00  0.21300860753E+02  0.21300860753E+02  0.00000000000E+00 0. -1.
         21   -1    0    0  503  502 -0.00000000000E+00 -0.00000000000E+00 -0.41291054181E+03  0.41291054181E+03  0.00000000000E+00 0. -1.
         21    1    1    2  503  504 -0.29912968051E+02 -0.34820064448E+02 -0.38512503208E+03  0.38785114784E+03  0.00000000000E+00 0. -1.
         21    1    1    2  504  501  0.29912968051E+02  0.34820064448E+02 -0.64846489772E+01  0.46360254724E+02  0.00000000000E+00 0. -1.
</event>
<event>
 4    1  0.1602044E+006  0.2294059E+02  0.7546771E-02  0.1493245E+00
         21   -1    0    0  503  501  0.00000000000E+00  0.00000000000E+00  0.67141837468E+02  0.67141837468E+02  0.00000000000E+00 0. -1.
         21   -1    0    0  504  502 -0.00000000000E+00 -0.00000000000E+00 -0.79818275536E+01  0.79818275536E+01  0.00000000000E+00 0.  1.
         21    1    1    2  503  502  0.19242032760E+02  0.12490594961E+02  0.34618753226E+02  0.41529855070E+02  0.00000000000E+00 0. -1.
         21    1    1    2  504  501 -0.19242032760E+02 -0.12490594961E+02  0.24541256688E+02  0.33593809951E+02  0.00000000000E+00 0.  1.
</event>
<event>
 4    1  0.1602044E+006  0.2238291E+02  0.7546771E-02  0.1500396E+00
         21   -1    0    0  504  501  0.00000000000E+00  0.00000000000E+00  0.23752672303E+02  0.23752672303E+02  0.00000000000E+00 0.  1.
         21   -1    0    0  501  502 -0.00000000000E+00 -0.00000000000E+00 -0.61146483101E+02  0.61146483101E+02  0.00000000000E+00 0.  1.
         21    1    1    2  503  502 -0.17217539395E+02 -0.14302138221E+02 -0.53053681879E+02  0.57582010919E+02  0.00000000000E+00 0.  1.
         21    1    1    2  504  503  0.17217539395E+02  0.14302138221E+02  0.15659871082E+02  0.27317144485E+02  0.00000000000E+00 0.  1.
</event>
<event>
 4    1  0.1602044E+006  0.2116316E+02  0.7546771E-02  0.1516948E+00
         21   -1    0    0  503  501  0.00000000000E+00  0.00000000000E+00  0.59282318029E+01  0.59282318029E+01  0.00000000000E+00 0.  1.
         21   -1    0    0  504  502 -0.00000000000E+00 -0.00000000000E+00 -0.12296578678E+03  0.12296578678E+03  0.00000000000E+00 0.  1.
         21    1    1    2  503  502  0.10198081477E+02 -0.18543956180E+02 -0.18499326517E+02  0.28108793253E+02  0.00000000000E+00 0.  1.
         21    1    1    2  504  501 -0.10198081477E+02  0.18543956180E+02 -0.98538228463E+02  0.10078522533E+03  0.00000000000E+00 0.  1.
</event>
<event>
 4    1  0.1602044E+006  0.3510841E+02  0.7546771E-02  0.1379803E+00
         21   -1    0    0  502  501  0.00000000000E+00  0.00000000000E+00  0.17943613269E+01  0.17943613269E+01  0.00000000000E+00 0. -1.
         21   -1    0    0  503  502 -0.00000000000E+00 -0.00000000000E+00 -0.70034387039E+03  0.70034387039E+03  0.00000000000E+00 0. -1.
         21    1    1    2  503  504  0.14913935782E+02  0.31783246134E+02 -0.39786149000E+03  0.39940751801E+03  0.00000000000E+00 0. -1.
         21    1    1    2  504  501 -0.14913935782E+02 -0.31783246134E+02 -0.30068801906E+03  0.30273071371E+03  0.00000000000E+00 0. -1.
</event>
<event>
 4    1  0.1602044E+006  0.2302780E+02  0.7546771E-02  0.1492149E+00
         21   -1    0    0  503  501  0.00000000000E+00  0.00000000000E+00  0.26910794264E+03  0.26910794264E+03  0.00000000000E+00 0. -1.
         21   -1    0    0  504  502 -0.00000000000E+00 -0.00000000000E+00 -0.28608498264E+01  0.28608498264E+01  0.00000000000E+00 0. -1.
         21    1    1    2  503  502 -0.20755446630E+02  0.99745214797E+01  0.20898474012E+03  0.21024961652E+03  0.00000000000E+00 0. -1.
         21    1    1    2  504  501  0.20755446630E+02 -0.99745214797E+01  0.57262352695E+02  0.61719175948E+02  0.00000000000E+00 0. -1.
</event>
<event>
 4    1  0.1602044E+006  0.2439223E+02  0.7546771E-02  0.1475719E+00
         21   -1    0    0  504  501  0.00000000000E+00  0.00000000000E+00  0.95209173326E+01  0.95209173326E+01  0.00000000000E+00 0.  1.
         21   -1    0    0  503  502 -0.00000000000E+00 -0.00000000000E+00 -0.70529262844E+02  0.70529262844E+02  0.00000000000E+00 0.  1.
         21    1    1    2  503  501  0.20953854647E+02 -0.12486673681E+02 -0.16992719068E+02  0.29727656240E+02  0.00000000000E+00 0.  1.
         21    1    1    2  504  502 -0.20953854647E+02  0.12486673681E+02 -0.44015626443E+02  0.50322523936E+02  0.00000000000E+00 0.  1.
</event>
<event>
 4    1  0.1602044E+006  0.2016156E+02  0.7546771E-02  0.1531580E+00
         21   -1    0    0  502  501  0.00000000000E+00  0.00000000000E+00  0.10804330645E+04  0.10804330645E+04  0.00000000000E+00 0. -1.
         21   -1    0    0  503  502 -0.00000000000E+00 -0.00000000000E+00 -0.19463020542E+01  0.19463020542E+01  0.00000000000E+00 0.  1.
         21    1    1    2  503  504 -0.14896333645E+02  0.13586312246E+02  0.53166992797E+02  0.56861390764E+02  0.00000000000E+00 0.  1.
         21    1    1    2  504  501  0.14896333645E+02 -0.13586312246E+02  0.10253197697E+04  0.10255179758E+04  0.00000000000E+00 0. -1.
</event>
<event>
 4    1  0.1602044E+006  0.2202767E+02  0.7546771E-02  0.1505082E+00
         21   -1    0    0  504  501  0.00000000000E+00  0.00000000000E+00  0.74223673780E+01  0.74223673780E+01  0.00000000000E+00 0. -1.
         21   -1    0    0  503  502 -0.00000000000E+00 -0.00000000000E+00 -0.33236674176E+03  0.33236674176E+03  0.00000000000E+00 0. -1.
         21    1    1    2  503  501  0.19278983670E+02  0.10655470831E+02 -0.10199618039E+02  0.24274482036E+02  0.00000000000E+00 0. -1.
         21    1    1    2  504  502 -0.19278983670E+02 -0.10655470831E+02 -0.31474475634E+03  0.31551462710E+03  0.00000000000E+00 0. -1.
</event>
<event>
 4    1  0.1602044E+006  0.2577502E+02  0.7546771E-02  0.1460317E+00
         21   -1    0    0  504  501  0.00000000000E+00  0.00000000000E+00  0.44339242026E+03  0.44339242026E+03  0.00000000000E+00 0.  1.
         21   -1    0    0  501  502 -0.00000000000E+00 -0.00000000000E+00 -0.43252215445E+01  0.43252215445E+01  0.00000000000E+00 0. -1.
         21    1    1    2  503  502 -0.19327736902E+02 -0.17052572019E+02  0.38556340098E+02  0.46378259863E+02  0.00000000000E+00 0. -1.
         21    1    1    2  504  503  0.19327736902E+02  0.17052572019E+02  0.40051085862E+03  0.40133938194E+03  0.00000000000E+00 0.  1.
</event>
<event>
 4    1  0.1602044E+006  0.5911020E+02  0.7546771E-02  0.1262886E+00
         21   -1    0    0  504  501  0.00000000000E+00  0.00000000000E+00  0.65467907593E+03  0.65467907593E+03  0.00000000000E+00 0.  1.
         21   -1    0    0  503  502 -0.00000000000E+00 -0.00000000000E+00 -0.64487568743E+02  0.64487568743E+02  0.00000000000E+00 0. -1.
         21    1    1    2  503  501 -0.29445309660E+02 -0.51254165874E+02  0.63947822422E+03  0.64220434056E+03  0.00000000000E+00 0.  1.
         21    1    1    2  504  502  0.29445309660E+02  0.51254165874E+02 -0.49286717026E+02  0.76962304121E+02  0.00000000000E+00 0. -1.
</event>
<event>
 4    1  0.1602044E+006  0.2038230E+02  0.7546771E-02  0.1528270E+00
         21   -1    0    0  504  501  0.00000000000E+00  0.00000000000E+00  0.69987164963E+01  0.69987164963E+01  0.00000000000E+00 0.  1.
         21   -1    0    0  501  502 -0.00000000000E+00 -0.00000000000E+00 -0.60144703685E+02  0.60144703685E+02  0.00000000000E+00 0. -1.
         21    1    1    2  503  502 -0.39656533546E+01  0.19992793694E+02 -0.22736370639E+02  0.30534910448E+02  0.00000000000E+00 0.  1.
         21    1    1    2  504  503  0.39656533546E+01 -0.19992793694E+02 -0.30409616550E+02  0.36608509733E+02  0.00000000000E+00 0. -1.
</event>
<event>
 4    1  0.1602044E+006  0.2061629E+02  0.7546771E-02  0.1524814E+00
         21   -1    0    0  504  501  0.00000000000E+00  0.00000000000E+00  0.25720280883E+02  0.25720280883E+02  0.00000000000E+00 0.  1.
         21   -1    0    0  503  502 -0.00000000000E+00 -0.00000000000E+00 -0.33583458455E+02  0.33583458455E+02  0.00000000000E+00 0. -1.
         21    1    1    2  503  501 -0.20022891715E+02 -0.49107362512E+01 -0.25064403410E+02  0.32453903332E+02  0.00000000000E+00 0. -1.
         21    1    1    2  504  502  0.20022891715E+02  0.49107362512E+01  0.17201225839E+02  0.26849836006E+02  0.00000000000E+00 0.  1.
</event>
<event>
 4    1  0.1602044E+006  0.2025558E+02  0.7546771E-02  0.1530164E+00
         21   -1    0    0  504  501  0.00000000000E+00  0.00000000000E+00  0.11734932239E+03  0.11734932239E+03  0.00000000000E+00 0. -1.
         21   -1    0    0  503  502 -0.00000000000E+00 -0.00000000000E+00 -0.21318193148E+02  0.21318193148E+02  0.00000000000E+00 0.  1.
         21    1    1    2  503  501  0.11736444842E+02 -0.16508920882E+02  0.11140931458E+03  0.11323570101E+03  0.00000000000E+00 0. -1.
         21    1    1    2  504  502 -0.11736444842E+02  0.16508920882E+02 -0.15378185339E+02  0.25431814535E+02  0.00000000000E+00 0.  1.
</event>
<event>
 4    1  0.1602044E+006  0.3023878E+02  0.7546771E-02  0.1417533E+00
         21   -1    0    0  503  501  0.00000000000E+00  0.00000000000E+00  0.91679997280E+03  0.91679997280E+03  0.00000000000E+00 0.  1.
         21   -1    0    0  504  502 -0.00000000000E+00 -0.00000000000E+00 -0.10218322317E+01  0.10218322317E+01  0.00000000000E+00 0.  1.
         21    1    1    2  503  502 -0.79821095629E+01  0.29166244012E+02  0.52890148896E+03  0.52976520165E+03  0.00000000000E+00 0.  1.
         21    1    1    2  504  501  0.79821095629E+01 -0.29166244012E+02  0.38687665162E+03  0.38805660338E+03  0.00000000000E+00 0.  1.
</event>
<event>
 4    1  0.1602044E+006  0.2209450E+02  0.7546771E-02  0.1504193E+00
         21   -1    0    0  504  501  0.00000000000E+00  0.00000000000E+00  0.32869225828E+02  0.32869225828E+02  0.00000000000E+00 0.  1.
         21   -1    0    0  503  502 -0.00000000000E+00 -0.00000000000E+00 -0.28858695139E+02  0.28858695139E+02  0.00000000000E+00 0.  1.
         21    1    1    2  503  501  0.13140144431E+02  0.17762414045E+02 -0.19497011331E+02  0.29466933998E+02  0.00000000000E+00 0.  1.
         21    1    1    2  504  502 -0.13140144431E+02 -0.17762414045E+02  0.23507542020E+02  0.32260986969E+02  0.00000000000E+00 0.  1.
</event>
<event>
 4    1  0.1602044E+006  0.2102365E+02  0.7546771E-02  0.1518927E+00
         21   -1    0    0  503  501  0.00000000000E+00  0.00000000000E+00  0.92826992853E+02  0.92826992853E+02  0.00000000000E+00 0.  1.
         21   -1    0    0  504  502 -0.00000000000E+00 -0.00000000000E+00 -0.67437956764E+01  0.67437956764E+01  0.00000000000E+00 0.  1.
         21    1    1    2  503  502  0.43384904971E+01 -0.20571127349E+02  0.16049524171E+02  0.26449593689E+02  0.00000000000E+00 0.  1.
         21    1    1    2  504  501 -0.43384904971E+01  0.20571127349E+02  0.70033673006E+02  0.73121194841E+02  0.00000000000E+00 0.  1.
</event>
<event>
 4    1  0.1602044E+006  0.2080139E+02  0.7546771E-02  0.1522120E+00
         21   -1    0    0  504  501  0.00000000000E+00  0.00000000000E+00  0.21136178685E+03  0.21136178685E+03  0.00000000000E+00 0.  1.
         21   -1    0    0  503  502 -0.00000000000E+00 -0.00000000000E+00 -0.11021701672E+03  0.11021701672E+03  0.00000000000E+00 0. -1.
         21    1    1    2  503  501 -0.57553086511E+01  0.19989352223E+02  0.20986152237E+03  0.21088991524E+03  0.00000000000E+00 0.  1.
         21    1    1    2  504  502  0.57553086511E+01 -0.19989352223E+02 -0.10871675225E+03  0.11068888833E+03  0.00000000000E+00 0. -1.
</event>
<event>
 4    1  0.1602044E+006  0.2479326E+02  0.7546771E-02  0.1471130E+00
         21   -1    0    0  503  501  0.00000000000E+00  0.00000000000E+00  0.27749039166E+01  0.27749039166E+01  0.00000000000E+00 0. -1.
         21   -1    0    0  504  502 -0.00000000000E+00 -0.00000000000E+00 -0.28716828037E+03  0.28716828037E+03  0.00000000000E+00 0. -1.
         21    1    1    2  503  502 -0.18036773960E+02  0.17011188169E+02 -0.21150983198E+03  0.21295801173E+03  0.00000000000E+00 0. -1.
         21    1    1    2  504  501  0.18036773960E+02 -0.17011188169E+02 -0.72883544473E+02  0.76985172552E+02  0.00000000000E+00 0. -1.
</event>
<event>
 4    1  0.1602044E+006  0.2431671E+02  0.7546771E-02  0.1476595E+00
         21   -1    0    0  504  501  0.00000000000E+00  0.00000000000E+00  0.60543534935E+02  0.60543534935E+02  0.00000000000E+00 0.  1.
         21   -1    0    0  503  502 -0.00000000000E+00 -0.00000000000E+00 -0.98789718149E+01  0.98789718149E+01  0.00000000000E+00 0.  1.
         21    1    1    2  503  501 -0.19856285866E+02  0.14036739699E+02  0.29088310556E+02  0.37913479935E+02  0.00000000000E+00 0.  1.
         21    1    1    2  504  502  0.19856285866E+02 -0.14036739699E+02  0.21576252564E+02  0.32509026815E+02  0.00000000000E+00 0.  1.
</event>
<event>
 4    1  0.1602044E+006  0.2439238E+02  0.7546771E-02  0.1475717E+00
         21   -1    0    0  503  501  0.00000000000E+00  0.00000000000E+00  0.92309575920E+02  0.92309575920E+02  0.00000000000E+00 0.  1.
         21   -1    0    0  504  502 -0.00000000000E+00 -0.00000000000E+00 -0.87092731333E+01  0.87092731333E+01  0.00000000000E+00 0.  1.
         21    1    1    2  503  502  0.13543331241E+00 -0.24392001697E+02  0.67550963819E+02  0.71820058492E+02  0.00000000000E+00 0.  1.
         21    1    1    2  504  501 -0.13543331241E+00  0.24392001697E+02  0.16049338968E+02  0.29198790562E+02  0.00000000000E+00 0.  1.
</event>
<event>
 4    1  0.1602044E+006  0.2457211E+02  0.7546771E-02  0.1473647E+00
         21   -1    0    0  503  501  0.00000000000E+00  0.00000000000E+00  0.47286841802E+03  0.47286841802E+03  0.00000000000E+00 0. -1.
         21   -1    0    0  501  502 -0.00000000000E+00 -0.00000000000E+00 -0.12891059732E+01  0.12891059732E+01  0.00000000000E+00 0. -1.
         21    1    1    2  503  504 -0.23669695229E+02 -0.65980383709E+01  0.25889311175E+03  0.26005659364E+03  0.00000000000E+00 0. -1.
         21    1    1    2  504  502  0.23669695229E+02  0.65980383709E+01  0.21268620029E+03  0.21410093035E+03  0.00000000000E+00 0. -1.
</event>
<event>
 4    1  0.1602044E+006  0.3019681E+02  0.7546771E-02  0.1417894E+00
         21   -1    0    0  502  501  0.00000000000E+00  0.00000000000E+00  0.74440070615E+01  0.74440070615E+01  0.00000000000E+00 0. -1.
         21   -1    0    0  503  502 -0.00000000000E+00 -0.00000000000E+00 -0.14049166405E+03  0.14049166405E+03  0.00000000000E+00 0. -1.
         21    1    1    2  503  504  0.27349002845E+02  0.12801540990E+02 -0.92998083383E+02  0.97777762918E+02  0.00000000000E+00 0. -1.
         21    1    1    2  504  501 -0.27349002845E+02 -0.12801540990E+02 -0.40049573603E+02  0.50157908191E+02  0.00000000000E+00 0. -1.
</event>
<event>
 4    1  0.1602044E+006  0.2848374E+02  0.7546771E-02  0.1433247E+00
         21   -1    0    0  503  501  0.00000000000E+00  0.00000000000E+00  0.16626639192E+03  0.16626639192E+03  0.00000000000E+00 0.  1.
         21   -1    0    0  504  502 -0.00000000000E+00 -0.00000000000E+00 -0.48931952152E+01  0.48931952152E+01  0.00000000000E+00 0.  1.
         21    1    1    2  503  502  0.89848237256E+01 -0.27029542841E+02  0.76185395136E+02  0.81335955613E+02  0.00000000000E+00 0.  1.
         21    1    1    2  504  501 -0.89848237256E+01  0.27029542841E+02  0.85187801565E+02  0.89823631518E+02  0.00000000000E+00 0.  1.
</event>
<event>
 4    1  0.1602044E+006  0.2210246E+02  0.7546771E-02  0.1504087E+00
         21   -1    0    0  502  501  0.00000000000E+00  0.00000000000E+00  0.64132099763E+02  0.64132099763E+02  0.00000000000E+00 0. -1.
         21   -1    0    0  504  502 -0.00000000000E+00 -0.00000000000E+00 -0.87833635994E+01  0.87833635994E+01  0.00000000000E+00 0. -1.
         21    1    1    2  503  501  0.17125656434E+02 -0.13972496386E+02  0.40957634533E+02  0.46540805645E+02  0.00000000000E+00 0. -1.
         21    1    1    2  504  503 -0.17125656434E+02  0.13972496386E+02  0.14391101631E+02  0.26374657717E+02  0.00000000000E+00 0. -1.
</event>
<event>
 4    1  0.1602044E+006  0.3738935E+02  0.7546771E-02  0.1364503E+00
         21   -1    0    0  503  501  0.00000000000E+00  0.00000000000E+00  0.52243915641E+02  0.52243915641E+02  0.00000000000E+00 0.  1.
         21   -1    0    0  504  502 -0.00000000000E+00 -0.00000000000E+00 -0.55879098423E+02  0.55879098423E+02  0.00000000000E+00 0.  1.
         21    1    1    2  503  502 -0.30179973703E+02 -0.22071076706E+02 -0.40844522029E+02  0.55373623860E+02  0.00000000000E+00 0.  1.
         21    1    1    2  504  501  0.30179973703E+02  0.22071076706E+02  0.37209339247E+02  0.52749390204E+02  0.00000000000E+00 0.  1.
</event>
<event>
 4    1  0.1602044E+006  0.3102439E+02  0.7546771E-02  0.1410898E+00
         21   -1    0    0  502  501  0.00000000000E+00  0.00000000000E+00  0.27531482611E+01  0.27531482611E+01  0.00000000000E+00 0.  1.
         21   -1    0    0  503  502 -0.00000000000E+00 -0.00000000000E+00 -0.17034657031E+04  0.17034657031E+04  0.00000000000E+00 0.  1.
         21    1    1    2  503  504  0.22634609986E+02 -0.21217612041E+02 -0.16109016663E+04  0.16112003883E+04  0.00000000000E+00 0.  1.
         21    1    1    2  504  501 -0.22634609986E+02  0.21217612041E+02 -0.89810888472E+02  0.95018463038E+02  0.00000000000E+00 0.  1.
</event>
<event>
 4    1  0.1602044E+006  0.4099424E+02  0.7546771E-02  0.1342756E+00
         21   -1    0    0  504  501  0.00000000000E+00  0.00000000000E+00  0.16203473511E+02  0.16203473511E+02  0.00000000000E+00 0. -1.
         21   -1    0    0  503  502 -0.00000000000E+00 -0.00000000000E+00 -0.10559117778E+03  0.10559117778E+03  0.00000000000E+00 0. -1.
         21    1    1    2  503  501  0.33352414607E+02 -0.23835775615E+02 -0.36574300382E+02  0.54938212636E+02  0.00000000000E+00 0. -1.
         21    1    1    2  504  502 -0.33352414607E+02  0.23835775615E+02 -0.52813403883E+02  0.66856438650E+02  0.00000000000E+00 0. -1.
</event>
<event>
 4    1  0.1602044E+006  0.2363821E+02  0.7546771E-02  0.1484636E+00
         21   -1    0    0  504  501  0.00000000000E+00  0.00000000000E+00  0.25219947962E+02  0.25219947962E+02  0.00000000000E+00 0. -1.
         21   -1    0    0  503  502 -0.00000000000E+00 -0.00000000000E+00 -0.22265543008E+02  0.22265543008E+02  0.00000000000E+00 0. -1.
         21    1    1    2  503  501 -0.11538583449E+02 -0.20630706232E+02  0.31450322143E+01  0.23846512853E+02  0.00000000000E+00 0. -1.
         21    1    1    2  504  502  0.11538583449E+02  0.20630706232E+02 -0.19062726058E+00  0.23638978116E+02  0.00000000000E+00 0. -1.
</event>
<event>
 4    1  0.1602044E+006  0.2368572E+02  0.7546771E-02  0.1484062E+00
         21   -1    0    0  503  501  0.00000000000E+00  0.00000000000E+00  0.39079777457E+01  0.39079777457E+01  0.00000000000E+00 0. -1.
         21   -1    0    0  504  502 -0.00000000000E+00 -0.00000000000E+00 -0.26116497148E+03  0.26116497148E+03  0.00000000000E+00 0.  1.
         21    1    1    2  503  502 -0.30525743402E+01  0.23488188074E+02 -0.21756875717E+03  0.21885423753E+03  0.00000000000E+00 0.  1.
         21    1    1    2  504  501  0.30525743402E+01 -0.23488188074E+02 -0.39688236566E+02  0.46218711696E+02  0.00000000000E+00 0. -1.
</event>
<event>
 4    1  0.1602044E+006  0.2499978E+02  0.7546771E-02  0.1468806E+00
         21   -1    0    0  503  501  0.00000000000E+00  0.00000000000E+00  0.10608048996E+02  0.10608048996E+02  0.00000000000E+00 0. -1.
         21   -1    0    0  504  502 -0.00000000000E+00 -0.00000000000E+00 -0.59053261848E+02  0.59053261848E+02  0.00000000000E+00 0. -1.
         21    1    1    2  503  502  0.10228295908E+02 -0.22811646296E+02 -0.25898719975E+02  0.35996290646E+02  0.00000000000E+00 0. -1.
         21    1    1    2  504  501 -0.10228295908E+02  0.22811646296E+02 -0.22546492877E+02  0.33665020198E+02  0.00000000000E+00 0. -1.
</event>
<event>
 4    1  0.1602044E+006  0.2100203E+02  0.7546771E-02  0.1519236E+00
         21   -1    0    0  504  501  0.00000000000E+00  0.00000000000E+00  0.66939001772E+02  0.66939001772E+02  0.00000000000E+00 0.  1.
         21   -1    0    0  503  502 -0.00000000000E+00 -0.00000000000E+00 -0.69112929753E+01  0.69112929753E+01  0.00000000000E+00 0.  1.
         21    1    1    2  503  501  0.16204643212E+02 -0.13360199110E+02  0.22044497250E+02  0.30447417639E+02  0.00000000000E+00 0.  1.
         21    1    1    2  504  502 -0.16204643212E+02  0.13360199110E+02  0.37983211546E+02  0.43402877108E+02  0.00000000000E+00 0.  1.
</event>
<event>
 4    1  0.1602044E+006  0.3621661E+02  0.7546771E-02  0.1372206E+00
         21   -1    0    0  503  501  0.00000000000E+00  0.00000000000E+00  0.66923391381E+03  0.66923391381E+03  0.00000000000E+00 0. -1.
         21   -1    0    0  504  502 -0.00000000000E+00 -0.00000000000E+00 -0.21099146662E+01  0.21099146662E+01  0.00000000000E+00 0. -1.
         21    1    1    2  503  502 -0.35735593340E+02  0.58830305962E+01  0.42306247437E+03  0.42460982077E+03  0.00000000000E+00 0. -1.
         21    1    1    2  504  501  0.35735593340E+02 -0.58830305962E+01  0.24406152477E+03  0.24673400770E+03  0.00000000000E+00 0. -1.
</event>
<event>
 4    1  0.1602044E+006  0.2073582E+02  0.7546771E-02  0.1523070E+00
         21   -1    0    0  504  501  0.00000000000E+00  0.00000000000E+00  0.25659959540E+01  0.25659959540E+01  0.00000000000E+00 0. -1.
         21   -1    0    0  503  502 -0.00000000000E+00 -0.00000000000E+00 -0.16916381519E+03  0.16916381519E+03  0.00000000000E+00 0.  1.
         21    1    1    2  503  501 -0.20704491633E+02 -0.11393483717E+01 -0.74954348612E+02  0.77769714313E+02  0.00000000000E+00 0. -1.
         21    1    1    2  504  502  0.20704491633E+02  0.11393483717E+01 -0.91643470629E+02  0.93960096836E+02  0.00000000000E+00 0.  1.
</event>
<event>
 4    1  0.1602044E+006  0.3067851E+02  0.7546771E-02  0.1413790E+00
         21   -1    0    0  503  501  0.00000000000E+00  0.00000000000E+00  0.33031945531E+03  0.33031945531E+03  0.00000000000E+00 0.  1.
         21   -1    0    0  504  502 -0.00000000000E+00 -0.00000000000E+00 -0.11157060736E+02  0.11157060736E+02  0.00000000000E+00 0.  1.
         21    1    1    2  503  502 -0.30497512375E+02  0.33275438142E+01  0.30691371268E+03  0.30844318414E+03  0.00000000000E+00 0.  1.
         21    1    1    2  504  501  0.30497512375E+02 -0.33275438142E+01  0.12248681895E+02  0.33033331910E+02  0.00000000000E+00 0.  1.
</event>
<event>
 4    1  0.1602044E+006  0.2791754E+02  0.7546771E-02  0.1438603E+00
         21   -1    0    0  504  501  0.00000000000E+00  0.00000000000E+00  0.25046591660E+02  0.25046591660E+02  0.00000000000E+00 0. -1.
         21   -1    0    0  503  502 -0.00000000000E+00 -0.00000000000E+00 -0.44616792823E+02  0.44616792823E+02  0.00000000000E+00 0. -1.
         21    1    1    2  503  501  0.89961347798E+01 -0.26428366527E+02 -0.28944409004E+02  0.40214025052E+02  0.00000000000E+00 0. -1.
         21    1    1    2  504  502 -0.89961347798E+01  0.26428366527E+02  0.93742078414E+01  0.29449359431E+02  0.00000000000E+00 0. -1.
</event>
<event>
 4    1  0.1602044E+006  0.2100133E+02  0.7546771E-02  0.1519246E+00
         21   -1    0    0  504  501  0.00000000000E+00  0.00000000000E+00  0.20707966213E+01  0.20707966213E+01  0.00000000000E+00 0. -1.
         21   -1    0    0  501  502 -0.00000000000E+00 -0.00000000000E+00 -0.88113725635E+03  0.88113725635E+03  0.00000000000E+00 0.  1.
         21    1    1    2  503  502  0.19551896381E+02  0.76667703443E+01 -0.82407878907E+03  0.82434635113E+03  0.00000000000E+00 0.  1.
         21    1    1    2  504  503 -0.19551896381E+02 -0.76667703443E+01 -0.54987670653E+02  0.58861701839E+02  0.00000000000E+00 0. -1.
</event>
<event>
 4    1  0.1602044E+006  0.2377819E+02  0.7546771E-02  0.1482951E+00
         21   -1    0    0  504  501  0.00000000000E+00  0.00000000000E+00  0.23894069527E+03  0.23894069527E+03  0.00000000000E+00 0.  1.
         21   -1    0    0  503  502 -0.00000000000E+00 -0.00000000000E+00 -0.10642868149E+02  0.10642868149E+02  0.00000000000E+00 0. -1.
         21    1    1    2  503  501  0.85103714589E+01 -0.22203060628E+02  0.22419690652E+03  0.22545433067E+03  0.00000000000E+00 0.  1.
         21    1    1    2  504  502 -0.85103714589E+01  0.22203060628E+02  0.41009206057E+01  0.24129232757E+02  0.00000000000E+00 0. -1.
</event>
<event>
 4    1  0.1602044E+006  0.2044075E+02  0.7546771E-02  0.1527401E+00
         21   -1    0    0  502  501  0.00000000000E+00  0.00000000000E+00  0.10725960483E+03  0.10725960483E+03  0.00000000000E+00 0.  1.
         21   -1    0    0  504  502 -0.00000000000E+00 -0.00000000000E+00 -0.45784604005E+02  0.45784604005E+02  0.00000000000E+00 0.  1.
         21    1    1    2  503  501  0.15074560994E+02 -0.13805136624E+02  0.10393192150E+03  0.10592293657E+03  0.00000000000E+00 0.  1.
         21    1    1    2  504  503 -0.15074560994E+02  0.13805136624E+02 -0.42456920673E+02  0.47121272260E+02  0.00000000000E+00 0.  1.
</event>
<event>
 4    1  0.1602044E+006  0.2354097E+02  0.7546771E-02  0.1485815E+00
         21   -1    0    0  504  501  0.00000000000E+00  0.00000000000E+00  0.14883852504E+01  0.14883852504E+01  0.00000000000E+00 0.  1.
         21   -1    0    0  503  502 -0.00000000000E+00 -0.00000000000E+00 -0.38188562445E+03  0.38188562445E+03  0.00000000000E+00 0.  1.
         21    1    1    2  503  501 -0.23540483422E+02 -0.15072343970E+00 -0.22051342655E+03  0.22176642750E+03  0.00000000000E+00 0.  1.
         21    1    1    2  504  502  0.23540483422E+02  0.15072343970E+00 -0.15988381266E+03  0.16160758221E+03  0.00000000000E+00 0.  1.
</event>
<event>
 4    1  0.1602044E+006  0.2046385E+02  0.7546771E-02  0.1527059E+00
         21   -1    0    0  504  501  0.00000000000E+00  0.00000000000E+00  0.35532523531E+01  0.35532523531E+01  0.00000000000E+00 0.  1.
         21   -1    0    0  503  502 -0.00000000000E+00 -0.00000000000E+00 -0.72755403566E+03  0.72755403566E+03  0.00000000000E+00 0.  1.
         21    1    1    2  503  501  0.12345574674E+02  0.16320418961E+02 -0.69663909677E+03  0.69693959598E+03  0.00000000000E+00 0.  1.
         21    1    1    2  504  502 -0.12345574674E+02 -0.16320418961E+02 -0.27361686538E+02  0.34167692039E+02  0.00000000000E+00 0.  1.
</event>
<event>
 4    1  0.1602044E+006  0.2581318E+02  0.7546771E-02  0.1459908E+00
         21   -1    0    0  502  501  0.00000000000E+00  0.00000000000E+00  0.55989587153E+01  0.55989587153E+01  0.00000000000E+00 0. -1.
         21   -1    0    0  504  502 -0.00000000000E+00 -0.00000000000E+00 -0.18837071791E+03  0.18837071791E+03  0.00000000000E+00 0.  1.
         21    1    1    2  503  501 -0.25577294642E+02 -0.34816849822E+01 -0.32533961953E+02  0.41530456437E+02  0.00000000000E+00 0. -1.
         21    1    1    2  504  503  0.25577294642E+02  0.34816849822E+01 -0.15023779724E+03  0.15243922019E+03  0.00000000000E+00 0.  1.
</event>
<event>
 4    1  0.1602044E+006  0.2427786E+02  0.7546771E-02  0.1477046E+00
         21   -1    0    0  503  501  0.00000000000E+00  0.00000000000E+00  0.17524666470E+02  0.17524666470E+02  0.00000000000E+00 0.  1.
         21   -1    0    0  504  502 -0.00000000000E+00 -0.00000000000E+00 -0.79286750097E+03  0.79286750097E+03  0.00000000000E+00 0. -1.
         21    1    1    2  503  502 -0.18576545265E+02 -0.15630948448E+02 -0.78418016785E+03  0.78455589363E+03  0.00000000000E+00 0. -1.
         21    1    1    2  504  501  0.18576545265E+02  0.15630948448E+02  0.88373333524E+01  0.25836273805E+02  0.00000000000E+00 0.  1.
</event>
<event>
 4    1  0.1602044E+006  0.2641124E+02  0.7546771E-02  0.1453614E+00
         21   -1    0    0  504  501  0.00000000000E+00  0.00000000000E+00  0.85948720460E+02  0.85948720460E+02  0.00000000000E+00 0. -1.
         21   -1    0    0  503  502 -0.00000000000E+00 -0.00000000000E+00 -0.22677576901E+03  0.22677576901E+03  0.00000000000E+00 0. -1.
         21    1    1    2  503  501  0.17381568620E+02 -0.19885541384E+02  0.83125255819E+02  0.87220191692E+02  0.00000000000E+00 0. -1.
         21    1    1    2  504  502 -0.17381568620E+02  0.19885541384E+02 -0.22395230437E+03  0.22550429778E+03  0.00000000000E+00 0. -1.
</event>
<event>
 4    1  0.1602044E+006  0.2367108E+02  0.7546771E-02  0.1484239E+00
         21   -1    0    0  504  501  0.00000000000E+00  0.00000000000E+00  0.46077739733E+02  0.46077739733E+02  0.00000000000E+00 0.  1.
         21   -1    0    0  501  502 -0.00000000000E+00 -0.00000000000E+00 -0.24036592490E+02  0.24036592490E+02  0.00000000000E+00 0.  1.
         21    1    1    2  503  502 -0.30347830709E+01 -0.23475735744E+02 -0.13621680176E+02  0.27310625182E+02  0.00000000000E+00 0.  1.
         21    1    1    2  504  503  0.30347830709E+01  0.23475735744E+02  0.35662827419E+02  0.42803707042E+02  0.00000000000E+00 0.  1.
</event>
<event>
 4    1  0.1602044E+006  0.3372128E+02  0.7546771E-02  0.1389783E+00
         21   -1    0    0  504  501  0.00000000000E+00  0.00000000000E+00  0.17033229028E+03  0.17033229028E+03  0.00000000000E+00 0. -1.
         21   -1    0    0  501  502 -0.00000000000E+00 -0.00000000000E+00 -0.68199790794E+01  0.68199790794E+01  0.00000000000E+00 0. -1.
         21    1    1    2  503  502  0.11225611605E+02 -0.31797958794E+02  0.68882635196E+02  0.76693819639E+02  0.00000000000E+00 0. -1.
         21    1    1    2  504  503 -0.11225611605E+02  0.31797958794E+02  0.94629676004E+02  0.10045844972E+03  0.00000000000E+00 0. -1.
</event>
<event>
 4    1  0.1602044E+006  0.2178535E+02  0.7546771E-02  0.1508341E+00
         21   -1    0    0  503  501  0.00000000000E+00  0.00000000000E+00  0.24249349164E+04  0.24249349164E+04  0.00000000000E+00 0. -1.
         21   -1    0    0  504  502 -0.00000000000E+00 -0.00000000000E+00 -0.20128235727E+00  0.20128235727E+00  0.00000000000E+00 0. -1.
         21    1    1    2  503  502 -0.13546069573E+02 -0.17061812439E+02  0.10107427150E+04  0.10109774663E+04  0.00000000000E+00 0. -1.
         21    1    1    2  504  501  0.13546069573E+02  0.17061812439E+02  0.14139909190E+04  0.14141587324E+04  0.00000000000E+00 0. -1.
</event>
<event>
 4    1  0.1602044E+006  0.2476017E+02  0.7546771E-02  0.1471504E+00
         21   -1    0    0  504  501  0.00000000000E+00  0.00000000000E+00  0.27436898779E+03  0.27436898779E+03  0.00000000000E+00 0. -1.
         21   -1    0    0  503  502 -0.00000000000E+00 -0.00000000000E+00 -0.33850656663E+02  0.33850656663E+02  0.00000000000E+00 0. -1.
         21    1    1    2  503  501 -0.31794582259E+01 -0.24555179065E+02 -0.28677491456E+02  0.37887521557E+02  0.00000000000E+00 0. -1.
         21    1    1    2  504  502  0.31794582259E+01  0.24555179065E+02  0.26919582258E+03  0.27033212289E+03  0.00000000000E+00 0. -1.
</event>
<event>
 4    1  0.1602044E+006  0.2688405E+02  0.7546771E-02  0.1448776E+00
         21   -1    0    0  503  501  0.00000000000E+00  0.00000000000E+00  0.58492103709E+03  0.58492103709E+03  0.00000000000E+00 0.  1.
         21   -1    0    0  504  502 -0.00000000000E+00 -0.00000000000E+00 -0.34251675781E+01  0.34251675781E+01  0.00000000000E+00 0. -1.
         21    1    1    2  503  502 -0.14426957098E+02 -0.22685127144E+02  0.55547990177E+02  0.61711678776E+02  0.00000000000E+00 0. -1.
         21    1    1    2  504  501  0.14426957098E+02  0.22685127144E+02  0.52594787934E+03  0.52663452589E+03  0.00000000000E+00 0.  1.
</event>
<event>
 4    1  0.1602044E+006  0.3843061E+02  0.7546771E-02  0.1357936E+00
         21   -1    0    0  502  501  0.00000000000E+00  0.00000000000E+00  0.29441556283E+03  0.29441556283E+03  0.00000000000E+00 0.  1.
         21   -1    0    0  504  502 -0.00000000000E+00 -0.00000000000E+00 -0.50340370661E+01  0.50340370661E+01  0.00000000000E+00 0.  1.
         21    1    1    2  503  501  0.90256536567E+01  0.37355716922E+02  0.13583335165E+03  0.14116519199E+03  0.00000000000E+00 0.  1.
         21    1    1    2  504  503 -0.90256536567E+01 -0.37355716922E+02  0.15354817411E+03  0.15828440790E+03  0.00000000000E+00 0.  1.
</event>
<event>
 4    1  0.1602044E+006  0.2050651E+02  0.7546771E-02  0.1526429E+00
         21   -1    0    0  503  501  0.00000000000E+00  0.00000000000E+00  0.76490281292E+01  0.76490281292E+01  0.00000000000E+00 0.  1.
         21   -1    0    0  504  502 -0.00000000000E+00 -0.00000000000E+00 -0.66198770883E+02  0.66198770883E+02  0.00000000000E+00 0.  1.
         21    1    1    2  503  502  0.41169460669E+01  0.20088994531E+02 -0.44477636591E+02  0.48977312124E+02  0.00000000000E+00 0.  1.
         21    1    1    2  504  501 -0.41169460669E+01 -0.20088994531E+02 -0.14072106163E+02  0.24870486888E+02  0.00000000000E+00 0.  1.
</event>
<event>
 4    1  0.1602044E+006  0.3170479E+02  0.7546771E-02  0.1405338E+00
         21   -1    0    0  503  501  0.00000000000E+00  0.00000000000E+00  0.90954101951E+01  0.90954101951E+01  0.00000000000E+00 0. -1.
         21   -1    0    0  504  502 -0.00000000000E+00 -0.00000000000E+00 -0.11124753862E+03  0.11124753862E+03  0.00000000000E+00 0. -1.
         21    1    1    2  503  502 -0.27814786479E+02  0.15216155681E+02 -0.55953462043E+02  0.64311613688E+02  0.00000000000E+00 0. -1.
         21    1    1    2  504  501  0.27814786479E+02 -0.15216155681E+02 -0.46198666380E+02  0.56031335125E+02  0.00000000000E+00 0. -1.
</event>
<event>
 4    1  0.1602044E+006  0.3762159E+02  0.7546771E-02  0.1363016E+00
         21   -1    0    0  504  501  0.00000000000E+00  0.00000000000E+00  0.97400315038E+01  0.97400315038E+01  0.00000000000E+00 0. -1.
         21   -1    0    0  501  502 -0.00000000000E+00 -0.00000000000E+00 -0.17701807823E+03  0.17701807823E+03  0.00000000000E+00 0. -1.
         21    1    1    2  503  502  0.13548330157E+02 -0.35097393120E+02 -0.12315595710E+03  0.12877412016E+03  0.00000000000E+00 0. -1.
         21    1    1    2  504  503 -0.13548330157E+02  0.35097393120E+02 -0.44122089627E+02  0.57983989574E+02  0.00000000000E+00 0. -1.
</event>
<event>
 4    1  0.1602044E+006  0.2172573E+02  0.7546771E-02  0.1509151E+00
         21   -1    0    0  502  501  0.00000000000E+00  0.00000000000E+00  0.91549687542E+02  0.91549687542E+02  0.00000000000E+00 0.  1.
         21   -1    0    0  504  502 -0.00000000000E+00 -0.00000000000E+00 -0.10106356265E+02  0.10106356265E+02  0.00000000000E+00 0.  1.
         21    1    1    2  503  501 -0.19368716331E+02 -0.98417459034E+01  0.76295868721E+02  0.79328851742E+02  0.00000000000E+00 0.  1.
         21    1    1    2  504  503  0.19368716331E+02  0.98417459034E+01  0.51474625563E+01  0.22327192065E+02  0.00000000000E+00 0.  1.
</event>
<event>
 4    1  0.1602044E+006  0.3690045E+02  0.7546771E-02  0.1367673E+00
         21   -1    0    0  504  501  0.00000000000E+00  0.00000000000E+00  0.12759809980E+02  0.12759809980E+02  0.00000000000E+00 0.  1.
         21   -1    0    0  503  502 -0.00000000000E+00 -0.00000000000E+00 -0.38539864475E+03  0.38539864475E+03  0.00000000000E+00 0. -1.
         21    1    1    2  503  501  0.10564173394E+02  0.35355926098E+02 -0.17030780449E+02  0.40640998419E+02  0.00000000000E+00 0.  1.
         21    1    1    2  504  502 -0.10564173394E+02 -0.35355926098E+02 -0.35560805432E+03  0.35751745631E+03  0.00000000000E+00 0. -1.
</event>
<event>
 4    1  0.1602044E+006  0.2076573E+02  0.7546771E-02  0.1522636E+00
         21   -1    0    0  504  501  0.00000000000E+00  0.00000000000E+00  0.56970991183E+03  0.56970991183E+03  0.00000000000E+00 0. -1.
         21   -1    0    0  501  502 -0.00000000000E+00 -0.00000000000E+00 -0.92635824404E+01  0.92635824404E+01  0.00000000000E+00 0.  1.
         21    1    1    2  503  502 -0.12190552582E+02  0.16810890899E+02  0.28150167255E+01  0.20955666160E+02  0.00000000000E+00 0.  1.
         21    1    1    2  504  503  0.12190552582E+02 -0.16810890899E+02  0.55763131267E+03  0.55801782811E+03  0.00000000000E+00 0. -1.
</event>
<event>
 4    1  0.1602044E+006  0.2479828E+02  0.7546771E-02  0.1471073E+00
         21   -1    0    0  504  501  0.00000000000E+00  0.00000000000E+00  0.21414491704E+03  0.21414491704E+03  0.00000000000E+00 0. -1.
         21   -1    0    0  501  502 -0.00000000000E+00 -0.00000000000E+00 -0.25866504222E+02  0.25866504222E+02  0.00000000000E+00 0. -1.
         21    1    1    2  503  502 -0.15847278983E+02 -0.19074023841E+02 -0.19009120433E+02  0.31245820461E+02  0.00000000000E+00 0. -1.
         21    1    1    2  504  503  0.15847278983E+02  0.19074023841E+02  0.20728753325E+03  0.20876560080E+03  0.00000000000E+00 0. -1.
</event>
<event>
 4    1  0.1602044E+006  0.2185120E+02  0.7546771E-02  0.1507450E+00
         21   -1    0    0  504  501  0.00000000000E+00  0.00000000000E+00  0.56423716155E+02  0.56423716155E+02  0.00000000000E+00 0. -1.
         21   -1    0    0  501  502 -0.00000000000E+00 -0.00000000000E+00 -0.13569392452E+02  0.13569392452E+02  0.00000000000E+00 0. -1.
         21    1    1    2  503  502 -0.21841238398E+02 -0.65981140736E+00 -0.42809661178E-01  0.21851244324E+02  0.00000000000E+00 0. -1.
         21    1    1    2  504  503  0.21841238398E+02  0.65981140736E+00  0.42897133363E+02  0.48141864283E+02  0.00000000000E+00 0. -1.
</event>
<event>
 4    1  0.1602044E+006  0.2631459E+02  0.7546771E-02  0.1454617E+00
         21   -1    0    0  503  501  0.00000000000E+00  0.00000000000E+00  0.45524212381E+01  0.45524212381E+01  0.00000000000E+00 0.  1.
         21   -1    0    0  501  502 -0.00000000000E+00 -0.00000000000E+00 -0.16609480436E+03  0.16609480436E+03  0.00000000000E+00 0.  1.
         21    1    1    2  503  504  0.83246670109E+01 -0.24963119642E+02 -0.56010761014E+02  0.61884269184E+02  0.00000000000E+00 0.  1.
         21    1    1    2  504  502 -0.83246670109E+01  0.24963119642E+02 -0.10553162211E+03  0.10876295641E+03  0.00000000000E+00 0.  1.
</event>
<event>
 4    1  0.1602044E+006  0.2009715E+02  0.7546771E-02  0.1532556E+00
         21   -1    0    0  503  501  0.00000000000E+00  0.00000000000E+00  0.50058283058E+01  0.50058283058E+01  0.00000000000E+00 0. -1.
         21   -1    0    0  504  502 -0.00000000000E+00 -0.00000000000E+00 -0.11385926772E+03  0.11385926772E+03  0.00000000000E+00 0. -1.
         21    1    1    2  503  502  0.15707178247E+02  0.12537140699E+02 -0.22346250358E+02  0.30054122021E+02  0.00000000000E+00 0. -1.
         21    1    1    2  504  501 -0.15707178247E+02 -0.12537140699E+02 -0.86507189054E+02  0.88810974003E+02  0.00000000000E+00 0. -1.
</event>
<event>
 4    1  0.1602044E+006  0.2260495E+02  0.7546771E-02  0.1497519E+00
         21   -1    0    0  502  501  0.00000000000E+00  0.00000000000E+00  0.99102995334E+03  0.99102995334E+03  0.00000000000E+00 0.  1.
         21   -1    0    0  504  502 -0.00000000000E+00 -0.00000000000E+00 -0.26351077067E+01  0.26351077067E+01  0.00000000000E+00 0.  1.
         21    1    1    2  503  501  0.21351208567E+02  0.74235911621E+01  0.93977921074E+03  0.94005103519E+03  0.00000000000E+00 0.  1.
         21    1    1    2  504  503 -0.21351208567E+02 -0.74235911621E+01  0.48615634891E+02  0.53614025859E+02  0.00000000000E+00 0.  1.
</event>
<event>
 4    1  0.1602044E+006  0.2337289E+02  0.7546771E-02  0.1487868E+00
         21   -1    0    0  503  501  0.00000000000E+00  0.00000000000E+00  0.39980522286E+01  0.39980522286E+01  0.00000000000E+00 0.  1.
         21   -1    0    0  504  502 -0.00000000000E+00 -0.00000000000E+00 -0.35899276145E+03  0.35899276145E+03  0.00000000000E+00 0. -1.
         21    1    1    2  503  502 -0.50266524793E+01  0.22825968997E+02 -0.32033559338E+03  0.32118714869E+03  0.00000000000E+00 0. -1.
         21    1    1    2  504  501  0.50266524793E+01 -0.22825968997E+02 -0.34659115841E+02  0.41803664991E+02  0.00000000000E+00 0.  1.
</event>
<event>
 4    1  0.1602044E+006  0.2538098E+02  0.7546771E-02  0.1464586E+00
         21   -1    0    0  502  501  0.00000000000E+00  0.00000000000E+00  0.62169915930E+02  0.62169915930E+02  0.00000000000E+00 0.  1.
         21   -1    0    0  504  502 -0.00000000000E+00 -0.00000000000E+00 -0.14563472424E+02  0.14563472424E+02  0.00000000000E+00 0. -1.
         21    1    1    2  503  501  0.22203249446E+02  0.12296735528E+02  0.44411017778E+02  0.51152052654E+02  0.00000000000E+00 0.  1.
         21    1    1    2  504  503 -0.22203249446E+02 -0.12296735528E+02  0.31954257276E+01  0.25581335700E+02  0.00000000000E+00 0. -1.
</event>
<event>
 4    1  0.1602044E+006  0.2104201E+02  0.7546771E-02  0.1518666E+00
         21   -1    0    0  503  501  0.00000000000E+00  0.00000000000E+00  0.35053896469E+01  0.35053896469E+01  0.00000000000E+00 0.  1.
         21   -1    0    0  504  502 -0.00000000000E+00 -0.00000000000E+00 -0.16004649894E+03  0.16004649894E+03  0.00000000000E+00 0.  1.
         21    1    1    2  503  502  0.13203099205E+02 -0.16384269907E+02 -0.40725579766E+02  0.45840364050E+02  0.00000000000E+00 0.  1.
         21    1    1    2  504  501 -0.13203099205E+02  0.16384269907E+02 -0.11581552953E+03  0.11771152454E+03  0.00000000000E+00 0.  1.
</event>
<event>
 4    1  0.1602044E+006  0.2940473E+02  0.7546771E-02  0.1424841E+00
         21   -1    0    0  504  501  0.00000000000E+00  0.00000000000E+00  0.71798326105E+01  0.71798326105E+01  0.00000000000E+00 0.  1.
         21   -1    0    0  503  502 -0.00000000000E+00 -0.00000000000E+00 -0.20919401616E+03  0.20919401616E+03  0.00000000000E+00 0.  1.
         21    1    1    2  503  501 -0.13374537387E+02  0.26187014399E+02 -0.17148103782E+03  0.17398386220E+03  0.00000000000E+00 0.  1.
         21    1    1    2  504  502  0.13374537387E+02 -0.26187014399E+02 -0.30533145728E+02  0.42389986572E+02  0.00000000000E+00 0.  1.
</event>
<event>
 4    1  0.1602044E+006  0.2981086E+02  0.7546771E-02  0.1421247E+00
         21   -1    0    0  503  501  0.00000000000E+00  0.00000000000E+00  0.31033556053E+02  0.31033556053E+02  0.00000000000E+00 0. -1.
         21   -1    0    0  504  502 -0.00000000000E+00 -0.00000000000E+00 -0.30420888248E+02  0.30420888248E+02  0.00000000000E+00 0. -1.
         21    1    1    2  503  502  0.11324220444E+02 -0.27576245718E+02 -0.71358800788E+01  0.30653027274E+02  0.00000000000E+00 0. -1.
         21    1    1    2  504  501 -0.11324220444E+02  0.27576245718E+02  0.77485478842E+01  0.30801417027E+02  0.00000000000E+00 0. -1.
</event>
<event>
 4    1  0.1602044E+006  0.2548790E+02  0.7546771E-02  0.1463419E+00
         21   -1    0    0  503  501  0.00000000000E+00  0.00000000000E+00  0.35250998659E+03  0.35250998659E+03  0.00000000000E+00 0. -1.
         21   -1    0    0  504  502 -0.00000000000E+00 -0.00000000000E+00 -0.14436523356E+02  0.14436523356E+02  0.00000000000E+00 0. -1.
         21    1    1    2  503  502  0.22599593192E+02  0.11785213391E+02  0.34039978347E+03  0.34135267020E+03  0.00000000000E+00 0. -1.
         21    1    1    2  504  501 -0.22599593192E+02 -0.11785213391E+02 -0.23263202352E+01  0.25593839746E+02  0.00000000000E+00 0. -1.
</event>
<event>
 4    1  0.1602044E+006  0.2665693E+02  0.7546771E-02  0.1451085E+00
         21   -1    0    0  502  501  0.00000000000E+00  0.00000000000E+00  0.38561492247E+03  0.38561492247E+03  0.00000000000E+00 0.  1.
         21   -1    0    0  503  502 -0.00000000000E+00 -0.00000000000E+00 -0.33240709133E+01  0.33240709133E+01  0.00000000000E+00 0.  1.
         21    1    1    2  503  504  0.15393648039E+02 -0.21762985091E+02  0.61325630767E+02  0.66868713977E+02  0.00000000000E+00 0.  1.
         21    1    1    2  504  501 -0.15393648039E+02  0.21762985091E+02  0.32096522079E+03  0.32207027941E+03  0.00000000000E+00 0.  1.
</event>
<event>
 4    1  0.1602044E+006  0.2300801E+02  0.7546771E-02  0.1492398E+00
         21   -1    0    0  502  501  0.00000000000E+00  0.00000000000E+00  0.30140674992E+02  0.30140674992E+02  0.00000000000E+00 0. -1.
         21   -1    0    0  504  502 -0.00000000000E+00 -0.00000000000E+00 -0.69259027561E+02  0.69259027561E+02  0.00000000000E+00 0. -1.
         21    1    1    2  503  501 -0.14748771240E+02  0.17659051093E+02  0.23379080853E+02  0.32801673130E+02  0.00000000000E+00 0. -1.
         21    1    1    2  504  503  0.14748771240E+02 -0.17659051093E+02 -0.62497433423E+02  0.66598029423E+02  0.00000000000E+00 0. -1.
</event>
<event>
 4    1  0.1602044E+006  0.3495783E+02  0.7546771E-02  0.1380860E+00
         21   -1    0    0  502  501  0.00000000000E+00  0.00000000000E+00  0.19415089919E+02  0.19415089919E+02  0.00000000000E+00 0. -1.
         21   -1    0    0  503  502 -0.00000000000E+00 -0.00000000000E+00 -0.12753967717E+03  0.12753967717E+03  0.00000000000E+00 0.  1.
         21    1    1    2  503  504 -0.26878544953E+02 -0.22351598320E+02 -0.10635426994E+03  0.11195213647E+03  0.00000000000E+00 0.  1.
         21    1    1    2  504  501  0.26878544953E+02  0.22351598320E+02 -0.17703173038E+01  0.35002630610E+02  0.00000000000E+00 0. -1.
</event>
<event>
 4    1  0.1602044E+006  0.2435821E+02  0.7546771E-02  0.1476113E+00
         21   -1    0    0  503  501  0.00000000000E+00  0.00000000000E+00  0.14956089844E+02  0.14956089844E+02  0.00000000000E+00 0.  1.
         21   -1    0    0  504  502 -0.00000000000E+00 -0.00000000000E+00 -0.39671442197E+02  0.39671442197E+02  0.00000000000E+00 0.  1.
         21    1    1    2  503  502 -0.79608330055E+01  0.23020592408E+02 -0.12263079512E+02  0.27270967274E+02  0.00000000000E+00 0.  1.
         21    1    1    2  504  501  0.79608330055E+01 -0.23020592408E+02 -0.12452272841E+02  0.27356564767E+02  0.00000000000E+00 0.  1.
</event>
<event>
 4    1  0.1602044E+006  0.2259992E+02  0.7546771E-02  0.1497584E+00
         21   -1    0    0  504  501  0.00000000000E+00  0.00000000000E+00  0.81308605911E+02  0.81308605911E+02  0.00000000000E+00 0. -1.
         21   -1    0    0  503  502 -0.00000000000E+00 -0.00000000000E+00 -0.63982288375E+01  0.63982288375E+01  0.00000000000E+00 0. -1.
         21    1    1    2  503  501 -0.73947009866E+01  0.21355904525E+02  0.31536977177E+02  0.38798675109E+02  0.00000000000E+00 0. -1.
         21    1    1    2  504  502  0.73947009866E+01 -0.21355904525E+02  0.43373399896E+02  0.48908159639E+02  0.00000000000E+00 0. -1.
</event>
<event>
 4    1  0.1602044E+006  0.2094662E+02  0.7546771E-02  0.1520028E+00
         21   -1    0    0  504  501  0.00000000000E+00  0.00000000000E+00  0.16761314436E+02  0.16761314436E+02  0.00000000000E+00 0. -1.
         21   -1    0    0  503  502 -0.00000000000E+00 -0.00000000000E+00 -0.29898271377E+02  0.29898271377E+02  0.00000000000E+00 0.  1.
         21    1    1    2  503  501 -0.45560289644E+00  0.20941666196E+02  0.16621578806E+01  0.21012465964E+02  0.00000000000E+00 0. -1.
         21    1    1    2  504  502  0.45560289644E+00 -0.20941666196E+02 -0.14799114822E+02  0.25647119849E+02  0.00000000000E+00 0.  1.
</event>
<event>
 4    1  0.1602044E+006  0.2127707E+02  0.7546771E-02  0.1515346E+00
         21   -1    0    0  503  501  0.00000000000E+00  0.00000000000E+00  0.46509255822E+01  0.46509255822E+01  0.00000000000E+00 0.  1.
         21   -1    0    0  501  502 -0.00000000000E+00 -0.00000000000E+00 -0.24759775754E+03  0.24759775754E+03  0.00000000000E+00 0. -1.
         21    1    1    2  503  504 -0.81889937561E+01  0.19638076502E+02 -0.23220303182E+02  0.31494382790E+02  0.00000000000E+00 0.  1.
         21    1    1    2  504  502  0.81889937561E+01 -0.19638076502E+02 -0.21972652878E+03  0.22075430034E+03  0.00000000000E+00 0. -1.
</event>
<event>
 4    1  0.1602044E+006  0.2986770E+02  0.7546771E-02  0.1420750E+00
         21   -1    0    0  502  501  0.00000000000E+00  0.00000000000E+00  0.57105818057E+02  0.57105818057E+02  0.00000000000E+00 0.  1.
         21   -1    0    0  503  502 -0.00000000000E+00 -0.00000000000E+00 -0.25819448508E+03  0.25819448508E+03  0.00000000000E+00 0. -1.
         21    1    1    2  503  504  0.11329486901E+02  0.27635522759E+02 -0.25335093423E+03  0.25510541991E+03  0.00000000000E+00 0. -1.
         21    1    1    2  504  501 -0.11329486901E+02 -0.27635522759E+02  0.52262267215E+02  0.60194883221E+02  0.00000000000E+00 0.  1.
</event>
<event>
 4    1  0.1602044E+006  0.3113715E+02  0.7546771E-02  0.1409965E+00
         21   -1    0    0  504  501  0.00000000000E+00  0.00000000000E+00  0.10191570795E+03  0.10191570795E+03  0.00000000000E+00 0. -1.
         21   -1    0    0  503  502 -0.00000000000E+00 -0.00000000000E+00 -0.36492031683E+02  0.36492031683E+02  0.00000000000E+00 0.  1.
         21    1    1    2  503  501  0.21737923203E+02  0.22293150020E+02 -0.26791964227E+02  0.41077137073E+02  0.00000000000E+00 0.  1.
         21    1    1    2  504  502 -0.21737923203E+02 -0.22293150020E+02  0.92215640495E+02  0.97330602561E+02  0.00000000000E+00 0. -1.
</event>
<event>
 4    1  0.1602044E+006  0.2863742E+02  0.7546771E-02  0.1431819E+00
         21   -1    0    0  504  501  0.00000000000E+00  0.00000000000E+00  0.24667553504E+03  0.24667553504E+03  0.00000000000E+00 0.  1.
         21   -1    0    0  503  502 -0.00000000000E+00 -0.00000000000E+00 -0.87825959958E+02  0.87825959958E+02  0.00000000000E+00 0. -1.
         21    1    1    2  503  501 -0.19973384950E+02  0.20522316812E+02  0.24347939090E+03  0.24515773573E+03  0.00000000000E+00 0.  1.
         21    1    1    2  504  502  0.19973384950E+02 -0.20522316812E+02 -0.84629815822E+02  0.89343759266E+02  0.00000000000E+00 0. -1.
</event>
<event>
 4    1  0.1602044E+006  0.2787403E+02  0.7546771E-02  0.1439020E+00
         21   -1    0    0  502  501  0.00000000000E+00  0.00000000000E+00  0.28715822857E+01  0.28715822857E+01  0.00000000000E+00 0. -1.
         21   -1    0    0  504  502 -0.00000000000E+00 -0.00000000000E+00 -0.29514009469E+03  0.29514009469E+03  0.00000000000E+00 0. -1.
         21    1    1    2  503  501 -0.13734819210E+02  0.24255231822E+02 -0.10314100813E+03  0.10684113949E+03  0.00000000000E+00 0. -1.
         21    1    1    2  504  503  0.13734819210E+02 -0.24255231822E+02 -0.18912750427E+03  0.19117053748E+03  0.00000000000E+00 0. -1.
</event>
<event>
 4    1  0.1602044E+006  0.3008648E+02  0.7546771E-02  0.1418846E+00
         21   -1    0    0  503  501  0.00000000000E+00  0.00000000000E+00  0.43302977775E+03  0.43302977775E+03  0.00000000000E+00 0.  1.
         21   -1    0    0  501  502 -0.00000000000E+00 -0.00000000000E+00 -0.27933387320E+02  0.27933387320E+02  0.00000000000E+00 0.  1.
         21    1    1    2  503  504  0.24238778461E+02  0.17823523898E+02  0.42423812136E+03  0.42530363271E+03  0.00000000000E+00 0.  1.
         21    1    1    2  504  502 -0.24238778461E+02 -0.17823523898E+02 -0.19141730924E+02  0.35659532361E+02  0.00000000000E+00 0.  1.
</event>
<event>
 4    1  0.1602044E+006  0.3724103E+02  0.7546771E-02  0.1365458E+00
         21   -1    0    0  502  501  0.00000000000E+00  0.00000000000E+00  0.43908781826E+02  0.43908781826E+02  0.00000000000E+00 0. -1.
         21   -1    0    0  503  502 -0.00000000000E+00 -0.00000000000E+00 -0.15638354386E+03  0.15638354386E+03  0.00000000000E+00 0. -1.
         21    1    1    2  503  504 -0.36018405791E+02 -0.94640838995E+01 -0.14570010923E+03  0.15038422879E+03  0.00000000000E+00 0. -1.
         21    1    1    2  504  501  0.36018405791E+02  0.94640838995E+01  0.33225347193E+02  0.49908096897E+02  0.00000000000E+00 0. -1.
</event>
<event>
 4    1  0.1602044E+006  0.2730910E+02  0.7546771E-02  0.1444528E+00
         21   -1    0    0  503  501  0.00000000000E+00  0.00000000000E+00  0.16875234886E+02  0.16875234886E+02  0.00000000000E+00 0.  1.
         21   -1    0    0  504  502 -0.00000000000E+00 -0.00000000000E+00 -0.51797714125E+02  0.51797714125E+02  0.00000000000E+00 0. -1.
         21    1    1    2  503  502  0.27120461376E+02 -0.32042649707E+01 -0.30616785703E+02  0.41026507359E+02  0.00000000000E+00 0. -1.
         21    1    1    2  504  501 -0.27120461376E+02  0.32042649707E+01 -0.43056935362E+01  0.27646441653E+02  0.00000000000E+00 0.  1.
</event>
<event>
 4    1  0.1602044E+006  0.2530574E+02  0.7546771E-02  0.1465412E+00
         21   -1    0    0  502  501  0.00000000000E+00  0.00000000000E+00  0.64617544093E+02  0.64617544093E+02  0.00000000000E+00 0. -1.
         21   -1    0    0  503  502 -0.00000000000E+00 -0.00000000000E+00 -0.12918658912E+02  0.12918658912E+02  0.00000000000E+00 0. -1.
         21    1    1    2  503  504  0.11408148226E+02 -0.22588369989E+02  0.71413521413E+01  0.26294090878E+02  0.00000000000E+00 0. -1.
         21    1    1    2  504  501 -0.11408148226E+02  0.22588369989E+02  0.44557533040E+02  0.51242112128E+02  0.00000000000E+00 0. -1.
</event>
<event>
 4    1  0.1602044E+006  0.3654796E+02  0.7546771E-02  0.1369995E+00
         21   -1    0    0  503  501  0.00000000000E+00  0.00000000000E+00  0.48782155278E+02  0.48782155278E+02  0.00000000000E+00 0.  1.
         21   -1    0    0  504  502 -0.00000000000E+00 -0.00000000000E+00 -0.10756283027E+03  0.10756283027E+03  0.00000000000E+00 0.  1.
         21    1    1    2  503  502 -0.31201681364E+02 -0.19031784032E+02 -0.96883236621E+02  0.10354764730E+03  0.00000000000E+00 0.  1.
         21    1    1    2  504  501  0.31201681364E+02  0.19031784032E+02  0.38102561628E+02  0.52797338247E+02  0.00000000000E+00 0.  1.
</event>
<event>
 4    1  0.1602044E+006  0.2367862E+02  0.7546771E-02  0.1484148E+00
         21   -1    0    0  503  501  0.00000000000E+00  0.00000000000E+00  0.20031372973E+03  0.20031372973E+03  0.00000000000E+00 0. -1.
         21   -1    0    0  504  502 -0.00000000000E+00 -0.00000000000E+00 -0.29464483299E+01  0.29464483299E+01  0.00000000000E+00 0. -1.
         21    1    1    2  503  502  0.23596667557E+02  0.19682758283E+01  0.12141902908E+03  0.12370633554E+03  0.00000000000E+00 0. -1.
         21    1    1    2  504  501 -0.23596667557E+02 -0.19682758283E+01  0.75948252320E+02  0.79553842521E+02  0.00000000000E+00 0. -1.
</event>
<event>
 4    1  0.1602044E+006  0.2130134E+02  0.7546771E-02  0.1515006E+00
         21   -1    0    0  504  501  0.00000000000E+00  0.00000000000E+00  0.23984406190E+03  0.23984406190E+03  0.00000000000E+00 0.  1.
         21   -1    0    0  503  502 -0.00000000000E+00 -0.00000000000E+00 -0.52651480107E+01  0.52651480107E+01  0.00000000000E+00 0.  1.
         21    1    1    2  503  501  0.19867124998E+02  0.76840240758E+01  0.19193239199E+02  0.28672762557E+02  0.00000000000E+00 0.  1.
         21    1    1    2  504  502 -0.19867124998E+02 -0.76840240758E+01  0.21538567469E+03  0.21643644736E+03  0.00000000000E+00 0.  1.
</event>
<event>
 4    1  0.1602044E+006  0.2329594E+02  0.7546771E-02  0.1488815E+00
         21   -1    0    0  504  501  0.00000000000E+00  0.00000000000E+00  0.93442782489E+01  0.93442782489E+01  0.00000000000E+00 0. -1.
         21   -1    0    0  501  502 -0.00000000000E+00 -0.00000000000E+00 -0.61957275941E+02  0.61957275941E+02  0.00000000000E+00 0. -1.
         21    1    1    2  503  502  0.77705490050E+01  0.21961769057E+02 -0.35226723160E+02  0.42232958179E+02  0.00000000000E+00 0. -1.
         21    1    1    2  504  503 -0.77705490050E+01 -0.21961769057E+02 -0.17386274532E+02  0.29068596011E+02  0.00000000000E+00 0. -1.
</event>
<event>
 4    1  0.1602044E+006  0.2345492E+02  0.7546771E-02  0.1486863E+00
         21   -1    0    0  504  501  0.00000000000E+00  0.00000000000E+00  0.36214325033E+01  0.36214325033E+01  0.00000000000E+00 0.  1.
         21   -1    0    0  503  502 -0.00000000000E+00 -0.00000000000E+00 -0.18130605283E+03  0.18130605283E+03  0.00000000000E+00 0. -1.
         21    1    1    2  503  501 -0.41124682748E+01  0.23091574035E+02 -0.12607350908E+03  0.12823674543E+03  0.00000000000E+00 0. -1.
         21    1    1    2  504  502  0.41124682748E+01 -0.23091574035E+02 -0.51611111251E+02  0.56690739907E+02  0.00000000000E+00 0.  1.
</event>
<event>
 4    1  0.1602044E+006  0.5503218E+02  0.7546771E-02  0.1277714E+00
         21   -1    0    0  504  501  0.00000000000E+00  0.00000000000E+00  0.39732227142E+03  0.39732227142E+03  0.00000000000E+00 0.  1.
         21   -1    0    0  503  502 -0.00000000000E+00 -0.00000000000E+00 -0.10470074351E+02  0.10470074351E+02  0.00000000000E+00 0.  1.
         21    1    1    2  503  501 -0.52845541812E+02  0.15358698926E+02  0.29976225471E+03  0.30477196438E+03  0.00000000000E+00 0.  1.
         21    1    1    2  504  502  0.52845541812E+02 -0.15358698926E+02  0.87089942362E+02  0.10302038139E+03  0.00000000000E+00 0.  1.
</event>
<event>
 4    1  0.1602044E+006  0.2093616E+02  0.7546771E-02  0.1520178E+00
         21   -1    0    0  503  501  0.00000000000E+00  0.00000000000E+00  0.11054546166E+03  0.11054546166E+03  0.00000000000E+00 0.  1.
         21   -1    0    0  501  502 -0.00000000000E+00 -0.00000000000E+00 -0.49825140100E+01  0.49825140100E+01  0.00000000000E+00 0.  1.
         21    1    1    2  503  504 -0.17060396113E+02  0.12135300806E+02  0.78884088778E+02  0.81615085024E+02  0.00000000000E+00 0.  1.
         21    1    1    2  504  502  0.17060396113E+02 -0.12135300806E+02  0.26678858867E+02  0.33912890641E+02  0.00000000000E+00 0.  1.
</event>
<event>
 4    1  0.1602044E+006  0.2352015E+02  0.7546771E-02  0.1486068E+00
         21   -1    0    0  502  501  0.00000000000E+00  0.00000000000E+00  0.97611175780E+02  0.97611175780E+02  0.00000000000E+00 0. -1.
         21   -1    0    0  503  502 -0.00000000000E+00 -0.00000000000E+00 -0.14810414610E+02  0.14810414610E+02  0.00000000000E+00 0. -1.
         21    1    1    2  503  504  0.23428187334E+02  0.20778392556E+01 -0.27649870247E+01  0.23682114158E+02  0.00000000000E+00 0. -1.
         21    1    1    2  504  501 -0.23428187334E+02 -0.20778392556E+01  0.85565748195E+02  0.88739476232E+02  0.00000000000E+00 0. -1.
</event>
<event>
 4    1  0.1602044E+006  0.3016495E+02  0.7546771E-02  0.1418168E+00
         21   -1    0    0  503  501  0.00000000000E+00  0.00000000000E+00  0.37414328758E+02  0.37414328758E+02  0.00000000000E+00 0.  1.
         21   -1    0    0  504  502 -0.00000000000E+00 -0.00000000000E+00 -0.30707690745E+02  0.30707690745E+02  0.00000000000E+00 0.  1.
         21    1    1    2  503  502 -0.19249047168E+02  0.23224955277E+02 -0.12181232248E+02  0.32531627435E+02  0.00000000000E+00 0.  1.
         21    1    1    2  504  501  0.19249047168E+02 -0.23224955277E+02  0.18887870261E+02  0.35590392067E+02  0.00000000000E+00 0.  1.
</event>
<event>
 4    1  0.1602044E+006  0.3002165E+02  0.7546771E-02  0.1419408E+00
         21   -1    0    0  504  501  0.00000000000E+00  0.00000000000E+00  0.50588945550E+01  0.50588945550E+01  0.00000000000E+00 0. -1.
         21   -1    0    0  501  502 -0.00000000000E+00 -0.00000000000E+00 -0.20607183531E+03  0.20607183531E+03  0.00000000000E+00 0. -1.
         21    1    1    2  503  502  0.10539489196E+02  0.28110827286E+02 -0.13935690572E+03  0.14255401297E+03  0.00000000000E+00 0. -1.
         21    1    1    2  504  503 -0.10539489196E+02 -0.28110827286E+02 -0.61656035033E+02  0.68576716889E+02  0.00000000000E+00 0. -1.
</event>
<event>
 4    1  0.1602044E+006  0.2075447E+02  0.7546771E-02  0.1522799E+00
         21   -1    0    0  504  501  0.00000000000E+00  0.00000000000E+00  0.91534437665E+02  0.91534437665E+02  0.00000000000E+00 0.  1.
         21   -1    0    0  503  502 -0.00000000000E+00 -0.00000000000E+00 -0.71314943958E+01  0.71314943958E+01  0.00000000000E+00 0. -1.
         21    1    1    2  503  501  0.14053233341E+02  0.15272672213E+02  0.13430138693E+02  0.24720770805E+02  0.00000000000E+00 0. -1.
         21    1    1    2  504  502 -0.14053233341E+02 -0.15272672213E+02  0.70972804576E+02  0.73945161256E+02  0.00000000000E+00 0.  1.
</event>
<event>
 4    1  0.1602044E+006  0.3327294E+02  0.7546771E-02  0.1393129E+00
         21   -1    0    0  503  501  0.00000000000E+00  0.00000000000E+00  0.60422677644E+01  0.60422677644E+01  0.00000000000E+00 0. -1.
         21   -1    0    0  504  502 -0.00000000000E+00 -0.00000000000E+00 -0.18359643784E+03  0.18359643784E+03  0.00000000000E+00 0. -1.
         21    1    1    2  503  502 -0.23959129254E+01  0.33186563966E+02 -0.93047753340E+02  0.98817877068E+02  0.00000000000E+00 0. -1.
         21    1    1    2  504  501  0.23959129254E+01 -0.33186563966E+02 -0.84506416740E+02  0.90820828541E+02  0.00000000000E+00 0. -1.
</event>
<event>
 4    1  0.1602044E+006  0.2411679E+02  0.7546771E-02  0.1478931E+00
         21   -1    0    0  502  501  0.00000000000E+00  0.00000000000E+00  0.56461411994E+02  0.56461411994E+02  0.00000000000E+00 0. -1.
         21   -1    0    0  504  502 -0.00000000000E+00 -0.00000000000E+00 -0.26610018175E+02  0.26610018175E+02  0.00000000000E+00 0. -1.
         21    1    1    2  503  501 -0.23920745941E+02 -0.30688294021E+01  0.47442696742E+02  0.53220571910E+02  0.00000000000E+00 0. -1.
         21    1    1    2  504  503  0.23920745941E+02  0.30688294021E+01 -0.17591302922E+02  0.29850858259E+02  0.00000000000E+00 0. -1.
</event>
<event>
 4    1  0.1602044E+006  0.2052544E+02  0.7546771E-02  0.1526149E+00
         21   -1    0    0  504  501  0.00000000000E+00  0.00000000000E+00  0.28410150249E+02  0.28410150249E+02  0.00000000000E+00 0.  1.
         21   -1    0    0  503  502 -0.00000000000E+00 -0.00000000000E+00 -0.15644793512E+02  0.15644793512E+02  0.00000000000E+00 0.  1.
         21    1    1    2  503  501 -0.41280498693E+01 -0.20106039013E+02  0.11412756261E+02  0.23484986821E+02  0.00000000000E+00 0.  1.
         21    1    1    2  504  502  0.41280498693E+01  0.20106039013E+02  0.13526004762E+01  0.20569956941E+02  0.00000000000E+00 0.  1.
</event>
<event>
 4    1  0.1602044E+006  0.3281753E+02  0.7546771E-02  0.1396592E+00
         21   -1    0    0  504  501  0.00000000000E+00  0.00000000000E+00  0.18741293036E+04  0.18741293036E+04  0.00000000000E+00 0. -1.
         21   -1    0    0  501  502 -0.00000000000E+00 -0.00000000000E+00 -0.64834968576E+00  0.64834968576E+00  0.00000000000E+00 0. -1.
         21    1    1    2  503  502 -0.32040002034E+02 -0.71013121626E+01  0.62072131953E+03  0.62158824546E+03  0.00000000000E+00 0. -1.
         21    1    1    2  504  503  0.32040002034E+02  0.71013121626E+01  0.12527596344E+04  0.12531894078E+04  0.00000000000E+00 0. -1.
</event>
<event>
 4    1  0.1602044E+006  0.2002531E+02  0.7546771E-02  0.1533649E+00
         21   -1    0    0  504  501  0.00000000000E+00  0.00000000000E+00  0.43815181955E+01  0.43815181955E+01  0.00000000000E+00 0. -1.
         21   -1    0    0  503  502 -0.00000000000E+00 -0.00000000000E+00 -0.14994331709E+03  0.14994331709E+03  0.00000000000E+00 0. -1.
         21    1    1    2  503  501 -0.13976902112E+02  0.14340829552E+02 -0.12094475656E+03  0.12259138357E+03  0.00000000000E+00 0. -1.
         21    1    1    2  504  502  0.13976902112E+02 -0.14340829552E+02 -0.24617042337E+02  0.31733451724E+02  0.00000000000E+00 0. -1.
</event>
<event>
 4    1  0.1602044E+006  0.2318229E+02  0.7546771E-02  0.1490222E+00
         21   -1    0    0  502  501  0.00000000000E+00  0.00000000000E+00  0.15135859210E+01  0.15135859210E+01  0.00000000000E+00 0. -1.
         21   -1    0    0  504  502 -0.00000000000E+00 -0.00000000000E+00 -0.51592940447E+03  0.51592940447E+03  0.00000000000E+00 0. -1.
         21    1    1    2  503  501  0.16335637770E+02  0.16448875254E+02 -0.11274050461E+03  0.11509926124E+03  0.00000000000E+00 0. -1.
         21    1    1    2  504  503 -0.16335637770E+02 -0.16448875254E+02 -0.40167531394E+03  0.40234372915E+03  0.00000000000E+00 0. -1.
</event>
<event>
 4    1  0.1602044E+006  0.2075306E+02  0.7546771E-02  0.1522820E+00
         21   -1    0    0  503  501  0.00000000000E+00  0.00000000000E+00  0.23943149490E+02  0.23943149490E+02  0.00000000000E+00 0.  1.
         21   -1    0    0  504  502 -0.00000000000E+00 -0.00000000000E+00 -0.18272672585E+02  0.18272672585E+02  0.00000000000E+00 0.  1.
         21    1    1    2  503  502 -0.20430147728E+02  0.36467172393E+01  0.54698315167E+01  0.21461792554E+02  0.00000000000E+00 0.  1.
         21    1    1    2  504  501  0.20430147728E+02 -0.36467172393E+01  0.20064538783E+00  0.20754029521E+02  0.00000000000E+00 0.  1.
</event>
<event>
 4    1  0.1602044E+006  0.4851035E+02  0.7546771E-02  0.1304764E+00
         21   -1    0    0  502  501  0.00000000000E+00  0.00000000000E+00  0.58172585255E+03  0.58172585255E+03  0.00000000000E+00 0. -1.
         21   -1    0    0  503  502 -0.00000000000E+00 -0.00000000000E+00 -0.29334431479E+02  0.29334431479E+02  0.00000000000E+00 0.  1.
         21    1    1    2  503  504 -0.34806906730E+02  0.33789541930E+02 -0.74865677937E+01  0.49084647267E+02  0.00000000000E+00 0.  1.
         21    1    1    2  504  501  0.34806906730E+02 -0.33789541930E+02  0.55987798887E+03  0.56197563676E+03  0.00000000000E+00 0. -1.
</event>
<event>
 4    1  0.1602044E+006  0.2020651E+02  0.7546771E-02  0.1530902E+00
         21   -1    0    0  503  501  0.00000000000E+00  0.00000000000E+00  0.10121124176E+02  0.10121124176E+02  0.00000000000E+00 0. -1.
         21   -1    0    0  504  502 -0.00000000000E+00 -0.00000000000E+00 -0.10598642346E+03  0.10598642346E+03  0.00000000000E+00 0. -1.
         21    1    1    2  503  502 -0.53445335932E+01 -0.19486895240E+02 -0.93620983916E+02  0.95776780876E+02  0.00000000000E+00 0. -1.
         21    1    1    2  504  501  0.53445335932E+01  0.19486895240E+02 -0.22443153632E+01  0.20330766755E+02  0.00000000000E+00 0. -1.
</event>
<event>
 4    1  0.1602044E+006  0.2355410E+02  0.7546771E-02  0.1485655E+00
         21   -1    0    0  503  501  0.00000000000E+00  0.00000000000E+00  0.39565243073E+03  0.39565243073E+03  0.00000000000E+00 0. -1.
         21   -1    0    0  501  502 -0.00000000000E+00 -0.00000000000E+00 -0.58010665360E+02  0.58010665360E+02  0.00000000000E+00 0.  1.
         21    1    1    2  503  504  0.12400063346E+01  0.23521432888E+02  0.39289418350E+03  0.39359958695E+03  0.00000000000E+00 0. -1.
         21    1    1    2  504  502 -0.12400063346E+01 -0.23521432888E+02 -0.55252418129E+02  0.60063509138E+02  0.00000000000E+00 0.  1.
</event>
<event>
 4    1  0.1602044E+006  0.2115196E+02  0.7546771E-02  0.1517106E+00
         21   -1    0    0  504  501  0.00000000000E+00  0.00000000000E+00  0.65048785547E+03  0.65048785547E+03  0.00000000000E+00 0. -1.
         21   -1    0    0  501  502 -0.00000000000E+00 -0.00000000000E+00 -0.61983082651E+01  0.61983082651E+01  0.00000000000E+00 0. -1.
         21    1    1    2  503  502 -0.10546572453E+02 -0.18335078575E+02  0.12554627844E+02  0.24597235153E+02  0.00000000000E+00 0. -1.
         21    1    1    2  504  503  0.10546572453E+02  0.18335078575E+02  0.63173491936E+03  0.63208892859E+03  0.00000000000E+00 0. -1.
</event>
<event>
 4    1  0.1602044E+006  0.2484632E+02  0.7546771E-02  0.1470530E+00
         21   -1    0    0  504  501  0.00000000000E+00  0.00000000000E+00  0.53044056045E+02  0.53044056045E+02  0.00000000000E+00 0. -1.
         21   -1    0    0  503  502 -0.00000000000E+00 -0.00000000000E+00 -0.30573777588E+02  0.30573777588E+02  0.00000000000E+00 0. -1.
         21    1    1    2  503  501 -0.10211879763E+02 -0.22650760505E+02  0.44137964261E+02  0.50650758424E+02  0.00000000000E+00 0. -1.
         21    1    1    2  504  502  0.10211879763E+02  0.22650760505E+02 -0.21667685804E+02  0.32967075210E+02  0.00000000000E+00 0. -1.
</event>
<event>
 4    1  0.1602044E+006  0.5119901E+02  0.7546771E-02  0.1293056E+00
         21   -1    0    0  503  501  0.00000000000E+00  0.00000000000E+00  0.90705480202E+02  0.90705480202E+02  0.00000000000E+00 0.  1.
         21   -1    0    0  504  502 -0.00000000000E+00 -0.00000000000E+00 -0.35704843958E+02  0.35704843958E+02  0.00000000000E+00 0. -1.
         21    1    1    2  503  502 -0.45044614520E+02  0.24337655232E+02  0.55094372792E+02  0.75211227040E+02  0.00000000000E+00 0.  1.
         21    1    1    2  504  501  0.45044614520E+02 -0.24337655232E+02 -0.93736548046E-01  0.51199097121E+02  0.00000000000E+00 0. -1.
</event>
<event>
 4    1  0.1602044E+006  0.2978942E+02  0.7546771E-02  0.1421435E+00
         21   -1    0    0  503  501  0.00000000000E+00  0.00000000000E+00  0.79242798512E+03  0.79242798512E+03  0.00000000000E+00 0. -1.
         21   -1    0    0  504  502 -0.00000000000E+00 -0.00000000000E+00 -0.11320021303E+01  0.11320021303E+01  0.00000000000E+00 0. -1.
         21    1    1    2  503  502  0.87593536089E+01  0.28472497518E+02  0.35455655637E+03  0.35580579121E+03  0.00000000000E+00 0. -1.
         21    1    1    2  504  501 -0.87593536089E+01 -0.28472497518E+02  0.43673942661E+03  0.43775419604E+03  0.00000000000E+00 0. -1.
</event>
<event>
 4    1  0.1602044E+006  0.2159457E+02  0.7546771E-02  0.1510943E+00
         21   -1    0    0  503  501  0.00000000000E+00  0.00000000000E+00  0.10744805732E+02  0.10744805732E+02  0.00000000000E+00 0.  1.
         21   -1    0    0  504  502 -0.00000000000E+00 -0.00000000000E+00 -0.27728953589E+03  0.27728953589E+03  0.00000000000E+00 0.  1.
         21    1    1    2  503  502 -0.24772101839E+01  0.21452014945E+02 -0.26553977490E+03  0.26641639883E+03  0.00000000000E+00 0.  1.
         21    1    1    2  504  501  0.24772101839E+01 -0.21452014945E+02 -0.10049552659E+01  0.21617942793E+02  0.00000000000E+00 0.  1.
</event>
<event>
 4    1  0.1602044E+006  0.2670198E+02  0.7546771E-02  0.1450625E+00
         21   -1    0    0  502  501  0.00000000000E+00  0.00000000000E+00  0.26153886396E+02  0.26153886396E+02  0.00000000000E+00 0.  1.
         21   -1    0    0  503  502 -0.00000000000E+00 -0.00000000000E+00 -0.12890829584E+03  0.12890829584E+03  0.00000000000E+00 0. -1.
         21    1    1    2  503  504  0.26202840994E+02  0.51387634398E+01 -0.12022375424E+03  0.12315334689E+03  0.00000000000E+00 0. -1.
         21    1    1    2  504  501 -0.26202840994E+02 -0.51387634398E+01  0.17469344795E+02  0.31908835351E+02  0.00000000000E+00 0.  1.
</event>
<event>
 4    1  0.1602044E+006  0.2397490E+02  0.7546771E-02  0.1480606E+00
         21   -1    0    0  504  501  0.00000000000E+00  0.00000000000E+00  0.54534895908E+03  0.54534895908E+03  0.00000000000E+00 0. -1.
         21   -1    0    0  503  502 -0.00000000000E+00 -0.00000000000E+00 -0.38518429549E+01  0.38518429549E+01  0.00000000000E+00 0. -1.
         21    1    1    2  503  501  0.46064415914E+01 -0.23528206762E+02  0.36714625422E+02  0.43849282063E+02  0.00000000000E+00 0. -1.
         21    1    1    2  504  502 -0.46064415914E+01  0.23528206762E+02  0.50478249070E+03  0.50535151997E+03  0.00000000000E+00 0. -1.
</event>
<event>
 4    1  0.1602044E+006  0.2062119E+02  0.7546771E-02  0.1524743E+00
         21   -1    0    0  504  501  0.00000000000E+00  0.00000000000E+00  0.53741462605E+02  0.53741462605E+02  0.00000000000E+00 0. -1.
         21   -1    0    0  503  502 -0.00000000000E+00 -0.00000000000E+00 -0.83486807442E+01  0.83486807442E+01  0.00000000000E+00 0. -1.
         21    1    1    2  503  501 -0.20414548777E+02  0.29120209175E+01  0.29791788469E+02  0.36232365749E+02  0.00000000000E+00 0. -1.
         21    1    1    2  504  502  0.20414548777E+02 -0.29120209175E+01  0.15600993392E+02  0.25857777600E+02  0.00000000000E+00 0. -1.
</event>
<event>
 4    1  0.1602044E+006  0.2129052E+02  0.7546771E-02  0.1515157E+00
         21   -1    0    0  503  501  0.00000000000E+00  0.00000000000E+00  0.37498037194E+02  0.37498037194E+02  0.00000000000E+00 0.  1.
         21   -1    0    0  504  502 -0.00000000000E+00 -0.00000000000E+00 -0.46169550834E+02  0.46169550834E+02  0.00000000000E+00 0.  1.
         21    1    1    2  503  502  0.16738004661E+02  0.13157706155E+02 -0.40278187615E+02  0.45558955528E+02  0.00000000000E+00 0.  1.
         21    1    1    2  504  501 -0.16738004661E+02 -0.13157706155E+02  0.31606673975E+02  0.38108632500E+02  0.00000000000E+00 0.  1.
</event>
<event>
 4    1  0.1602044E+006  0.2686670E+02  0.7546771E-02  0.1448952E+00
         21   -1    0    0  503  501  0.00000000000E+00  0.00000000000E+00  0.43275253855E+03  0.43275253855E+03  0.00000000000E+00 0.  1.
         21   -1    0    0  504  502 -0.00000000000E+00 -0.00000000000E+00 -0.34036885319E+01  0.34036885319E+01  0.00000000000E+00 0. -1.
         21    1    1    2  503  502  0.24119258584E+02  0.11835579293E+02  0.58942932961E+02  0.64777225302E+02  0.00000000000E+00 0. -1.
         21    1    1    2  504  501 -0.24119258584E+02 -0.11835579293E+02  0.37040591706E+03  0.37137900178E+03  0.00000000000E+00 0.  1.
</event>
<event>
 4    1  0.1602044E+006  0.2469710E+02  0.7546771E-02  0.1472221E+00
         21   -1    0    0  504  501  0.00000000000E+00  0.00000000000E+00  0.14046931832E+01  0.14046931832E+01  0.00000000000E+00 0. -1.
         21   -1    0    0  503  502 -0.00000000000E+00 -0.00000000000E+00 -0.43830931928E+03  0.43830931928E+03  0.00000000000E+00 0. -1.
         21    1    1    2  503  501  0.24340076456E+02 -0.41841707556E+01 -0.23968709305E+03  0.24095611464E+03  0.00000000000E+00 0. -1.
         21    1    1    2  504  502 -0.24340076456E+02  0.41841707556E+01 -0.19721753305E+03  0.19875789782E+03  0.00000000000E+00 0. -1.
</event>
<event>
 4    1  0.1602044E+006  0.2284932E+02  0.7546771E-02  0.1494399E+00
         21   -1    0    0  503  501  0.00000000000E+00  0.00000000000E+00  0.35214104398E+02  0.35214104398E+02  0.00000000000E+00 0. -1.
         21   -1    0    0  504  502 -0.00000000000E+00 -0.00000000000E+00 -0.61122058362E+02  0.61122058362E+02  0.00000000000E+00 0. -1.
         21    1    1    2  503  502 -0.17309057646E+02 -0.14916032885E+02  0.28967001546E+02  0.36894155258E+02  0.00000000000E+00 0. -1.
         21    1    1    2  504  501  0.17309057646E+02  0.14916032885E+02 -0.54874955510E+02  0.59442007502E+02  0.00000000000E+00 0. -1.
</event>
<event>
 4    1  0.1602044E+006  0.2162520E+02  0.7546771E-02  0.1510523E+00
         21   -1    0    0  503  501  0.00000000000E+00  0.00000000000E+00  0.11380484238E+03  0.11380484238E+03  0.00000000000E+00 0.  1.
         21   -1    0    0  501  502 -0.00000000000E+00 -0.00000000000E+00 -0.79311460866E+01  0.79311460866E+01  0.00000000000E+00 0. -1.
         21    1    1    2  503  504 -0.13515704546E+02  0.16881209129E+02  0.95190279176E+02  0.97615770963E+02  0.00000000000E+00 0.  1.
         21    1    1    2  504  502  0.13515704546E+02 -0.16881209129E+02  0.10683417114E+02  0.24120217500E+02  0.00000000000E+00 0. -1.
</event>
<event>
 4    1  0.1602044E+006  0.2124321E+02  0.7546771E-02  0.1515821E+00
         21   -1    0    0  503  501  0.00000000000E+00  0.00000000000E+00  0.44641111848E+01  0.44641111848E+01  0.00000000000E+00 0. -1.
         21   -1    0    0  504  502 -0.00000000000E+00 -0.00000000000E+00 -0.14606113455E+03  0.14606113455E+03  0.00000000000E+00 0.  1.
         21    1    1    2  503  502  0.21242306951E+02  0.19611259261E+00 -0.29036432645E+02  0.35977610892E+02  0.00000000000E+00 0. -1.
         21    1    1    2  504  501 -0.21242306951E+02 -0.19611259261E+00 -0.11256059072E+03  0.11454763484E+03  0.00000000000E+00 0.  1.
</event>
<event>
 4    1  0.1602044E+006  0.2387884E+02  0.7546771E-02  0.1481748E+00
         21   -1    0    0  503  501  0.00000000000E+00  0.00000000000E+00  0.10185466269E+02  0.10185466269E+02  0.00000000000E+00 0.  1.
         21   -1    0    0  501  502 -0.00000000000E+00 -0.00000000000E+00 -0.89393389387E+02  0.89393389387E+02  0.00000000000E+00 0.  1.
         21    1    1    2  503  504  0.22910276944E+02 -0.67318904350E+01 -0.91647064629E+01  0.25577157446E+02  0.00000000000E+00 0.  1.
         21    1    1    2  504  502 -0.22910276944E+02  0.67318904350E+01 -0.70043216656E+02  0.74001698210E+02  0.00000000000E+00 0.  1.
</event>
<event>
 4    1  0.1602044E+006  0.2066058E+02  0.7546771E-02  0.1524166E+00
         21   -1    0    0  503  501  0.00000000000E+00  0.00000000000E+00  0.83004642240E+01  0.83004642240E+01  0.00000000000E+00 0.  1.
         21   -1    0    0  504  502 -0.00000000000E+00 -0.00000000000E+00 -0.74784913661E+03  0.74784913661E+03  0.00000000000E+00 0.  1.
         21    1    1    2  503  502  0.19758157496E+02  0.60394410856E+01 -0.49302340650E+01  0.21240688412E+02  0.00000000000E+00 0.  1.
         21    1    1    2  504  501 -0.19758157496E+02 -0.60394410856E+01 -0.73461843833E+03  0.73490891243E+03  0.00000000000E+00 0.  1.
</event>
<event>
 4    1  0.1602044E+006  0.3636251E+02  0.7546771E-02  0.1371229E+00
         21   -1    0    0  503  501  0.00000000000E+00  0.00000000000E+00  0.15244799408E+03  0.15244799408E+03  0.00000000000E+00 0. -1.
         21   -1    0    0  504  502 -0.00000000000E+00 -0.00000000000E+00 -0.10386666784E+02  0.10386666784E+02  0.00000000000E+00 0. -1.
         21    1    1    2  503  502  0.27975244172E+02 -0.23229670144E+02  0.37963263996E+02  0.52568443716E+02  0.00000000000E+00 0. -1.
         21    1    1    2  504  501 -0.27975244172E+02  0.23229670144E+02  0.10409806330E+03  0.11026621715E+03  0.00000000000E+00 0. -1.
</event>
<event>
 4    1  0.1602044E+006  0.2520044E+02  0.7546771E-02  0.1466573E+00
         21   -1    0    0  504  501  0.00000000000E+00  0.00000000000E+00  0.90681322854E+01  0.90681322854E+01  0.00000000000E+00 0.  1.
         21   -1    0    0  503  502 -0.00000000000E+00 -0.00000000000E+00 -0.48932063256E+03  0.48932063256E+03  0.00000000000E+00 0.  1.
         21    1    1    2  503  501  0.26335913665E+01  0.25062448185E+02 -0.94526598974E+01  0.26914956653E+02  0.00000000000E+00 0.  1.
         21    1    1    2  504  502 -0.26335913665E+01 -0.25062448185E+02 -0.47079984038E+03  0.47147380820E+03  0.00000000000E+00 0.  1.
</event>
<event>
 4    1  0.1602044E+006  0.2306272E+02  0.7546771E-02  0.1491712E+00
         21   -1    0    0  503  501  0.00000000000E+00  0.00000000000E+00  0.30102357891E+01  0.30102357891E+01  0.00000000000E+00 0.  1.
         21   -1    0    0  504  502 -0.00000000000E+00 -0.00000000000E+00 -0.21931075503E+03  0.21931075503E+03  0.00000000000E+00 0.  1.
         21    1    1    2  503  502 -0.22823579408E+02  0.33126115927E+01 -0.15715218200E+03  0.15883544151E+03  0.00000000000E+00 0.  1.
         21    1    1    2  504  501  0.22823579408E+02 -0.33126115927E+01 -0.59148337237E+02  0.63485549305E+02  0.00000000000E+00 0.  1.
</event>
<event>
 4    1  0.1602044E+006  0.2450090E+02  0.7546771E-02  0.1474465E+00
         21   -1    0    0  502  501  0.00000000000E+00  0.00000000000E+00  0.34914922217E+01  0.34914922217E+01  0.00000000000E+00 0. -1.
         21   -1    0    0  503  502 -0.00000000000E+00 -0.00000000000E+00 -0.17298359707E+03  0.17298359707E+03  0.00000000000E+00 0. -1.
         21    1    1    2  503  504 -0.10010669005E+02  0.22362487156E+02 -0.91630452816E+02  0.94849534575E+02  0.00000000000E+00 0. -1.
         21    1    1    2  504  501  0.10010669005E+02 -0.22362487156E+02 -0.77861652034E+02  0.81625554719E+02  0.00000000000E+00 0. -1.
</event>
<event>
 4    1  0.1602044E+006  0.2827236E+02  0.7546771E-02  0.1435229E+00
         21   -1    0    0  504  501  0.00000000000E+00  0.00000000000E+00  0.24977602417E+02  0.24977602417E+02  0.00000000000E+00 0. -1.
         21   -1    0    0  503  502 -0.00000000000E+00 -0.00000000000E+00 -0.52716498860E+02  0.52716498860E+02  0.00000000000E+00 0. -1.
         21    1    1    2  503  501 -0.23991272913E+02  0.14958117976E+02 -0.38220898211E+02  0.47541177198E+02  0.00000000000E+00 0. -1.
         21    1    1    2  504  502  0.23991272913E+02 -0.14958117976E+02  0.10482001768E+02  0.30152924078E+02  0.00000000000E+00 0. -1.
</event>
<event>
 4    1  0.1602044E+006  0.3258193E+02  0.7546771E-02  0.1398409E+00
         21   -1    0    0  503  501  0.00000000000E+00  0.00000000000E+00  0.47021938405E+02  0.47021938405E+02  0.00000000000E+00 0.  1.
         21   -1    0    0  504  502 -0.00000000000E+00 -0.00000000000E+00 -0.27122282857E+02  0.27122282857E+02  0.00000000000E+00 0.  1.
         21    1    1    2  503  502  0.27609677128E+02  0.17299942085E+02 -0.52275657807E+01  0.32998631960E+02  0.00000000000E+00 0.  1.
         21    1    1    2  504  501 -0.27609677128E+02 -0.17299942085E+02  0.25127221329E+02  0.41145589302E+02  0.00000000000E+00 0.  1.
</event>
<event>
 4    1  0.1602044E+006  0.4249875E+02  0.7546771E-02  0.1334434E+00
         21   -1    0    0  503  501  0.00000000000E+00  0.00000000000E+00  0.27561519609E+02  0.27561519609E+02  0.00000000000E+00 0.  1.
         21   -1    0    0  501  502 -0.00000000000E+00 -0.00000000000E+00 -0.65535631545E+02  0.65535631545E+02  0.00000000000E+00 0.  1.
         21    1    1    2  503  504  0.42210680281E+02 -0.49398902738E+01 -0.19362568237E+02  0.46701746161E+02  0.00000000000E+00 0.  1.
         21    1    1    2  504  502 -0.42210680281E+02  0.49398902738E+01 -0.18611543699E+02  0.46395404994E+02  0.00000000000E+00 0.  1.
</event>
<event>
 4    1  0.1602044E+006  0.5633764E+02  0.7546771E-02  0.1272811E+00
         21   -1    0    0  503  501  0.00000000000E+00  0.00000000000E+00  0.36981346929E+03  0.36981346929E+03  0.00000000000E+00 0. -1.
         21   -1    0    0  504  502 -0.00000000000E+00 -0.00000000000E+00 -0.38733845672E+03  0.38733845672E+03  0.00000000000E+00 0.  1.
         21    1    1    2  503  502  0.18639699319E+02 -0.53164754140E+02  0.36559579589E+03  0.36991109127E+03  0.00000000000E+00 0. -1.
         21    1    1    2  504  501 -0.18639699319E+02  0.53164754140E+02 -0.38312078332E+03  0.38724083474E+03  0.00000000000E+00 0.  1.
</event>
<event>
 4    1  0.1602044E+006  0.2151622E+02  0.7546771E-02  0.1512021E+00
         21   -1    0    0  503  501  0.00000000000E+00  0.00000000000E+00  0.53219406010E+01  0.53219406010E+01  0.00000000000E+00 0. -1.
         21   -1    0    0  504  502 -0.00000000000E+00 -0.00000000000E+00 -0.82007237704E+03  0.82007237704E+03  0.00000000000E+00 0.  1.
         21    1    1    2  503  502 -0.20321996543E+02  0.70685385696E+01 -0.79757067900E+03  0.79786084988E+03  0.00000000000E+00 0.  1.
         21    1    1    2  504  501  0.20321996543E+02 -0.70685385696E+01 -0.17179757443E+02  0.27533467759E+02  0.00000000000E+00 0. -1.
</event>
<event>
 4    1  0.1602044E+006  0.2011369E+02  0.7546771E-02  0.1532305E+00
         21   -1    0    0  502  501  0.00000000000E+00  0.00000000000E+00  0.21314632335E+02  0.21314632335E+02  0.00000000000E+00 0.  1.
         21   -1    0    0  503  502 -0.00000000000E+00 -0.00000000000E+00 -0.15208748548E+03  0.15208748548E+03  0.00000000000E+00 0. -1.
         21    1    1    2  503  504  0.19631504157E+02  0.43777536826E+01 -0.14649713894E+03  0.14787147257E+03  0.00000000000E+00 0. -1.
         21    1    1    2  504  501 -0.19631504157E+02 -0.43777536826E+01  0.15724285795E+02  0.25530645243E+02  0.00000000000E+00 0.  1.
</event>
<event>
 4    1  0.1602044E+006  0.2360760E+02  0.7546771E-02  0.1485006E+00
         21   -1    0    0  504  501  0.00000000000E+00  0.00000000000E+00  0.22334316065E+02  0.22334316065E+02  0.00000000000E+00 0.  1.
         21   -1    0    0  503  502 -0.00000000000E+00 -0.00000000000E+00 -0.18582280532E+03  0.18582280532E+03  0.00000000000E+00 0.  1.
         21    1    1    2  503  501  0.96707819482E+01  0.21535897553E+02 -0.17858282004E+03  0.18013645528E+03  0.00000000000E+00 0.  1.
         21    1    1    2  504  502 -0.96707819482E+01 -0.21535897553E+02  0.15094330788E+02  0.28020666103E+02  0.00000000000E+00 0.  1.
</event>
<event>
 4    1  0.1602044E+006  0.2068264E+02  0.7546771E-02  0.1523845E+00
         21   -1    0    0  502  501  0.00000000000E+00  0.00000000000E+00  0.26415698447E+03  0.26415698447E+03  0.00000000000E+00 0.  1.
         21   -1    0    0  503  502 -0.00000000000E+00 -0.00000000000E+00 -0.72523884180E+02  0.72523884180E+02  0.00000000000E+00 0. -1.
         21    1    1    2  503  504  0.15063196598E+02 -0.14172916023E+02 -0.70633839930E+02  0.73599665649E+02  0.00000000000E+00 0. -1.
         21    1    1    2  504  501 -0.15063196598E+02  0.14172916023E+02  0.26226694022E+03  0.26308120300E+03  0.00000000000E+00 0.  1.
</event>
<event>
 4    1  0.1602044E+006  0.2298176E+02  0.7546771E-02  0.1492727E+00
         21   -1    0    0  503  501  0.00000000000E+00  0.00000000000E+00  0.68073584232E+03  0.68073584232E+03  0.00000000000E+00 0.  1.
         21   -1    0    0  501  502 -0.00000000000E+00 -0.00000000000E+00 -0.77717707408E+00  0.77717707408E+00  0.00000000000E+00 0.  1.
         21    1    1    2  503  504 -0.14908216950E+02  0.17490181934E+02  0.35396257052E+03  0.35470785546E+03  0.00000000000E+00 0.  1.
         21    1    1    2  504  502  0.14908216950E+02 -0.17490181934E+02  0.32599609473E+03  0.32680516394E+03  0.00000000000E+00 0.  1.
</event>
<event>
 4    1  0.1602044E+006  0.3764120E+02  0.7546771E-02  0.1362892E+00
         21   -1    0    0  504  501  0.00000000000E+00  0.00000000000E+00  0.21859110111E+02  0.21859110111E+02  0.00000000000E+00 0. -1.
         21   -1    0    0  503  502 -0.00000000000E+00 -0.00000000000E+00 -0.11535621189E+03  0.11535621189E+03  0.00000000000E+00 0. -1.
         21    1    1    2  503  501  0.31189523303E+02 -0.21073056652E+02 -0.92159730913E+02  0.99550369575E+02  0.00000000000E+00 0. -1.
         21    1    1    2  504  502 -0.31189523303E+02  0.21073056652E+02 -0.13373708679E+01  0.37664952428E+02  0.00000000000E+00 0. -1.
</event>
<event>
 4    1  0.1602044E+006  0.2202658E+02  0.7546771E-02  0.1505097E+00
         21   -1    0    0  503  501  0.00000000000E+00  0.00000000000E+00  0.29769476948E+02  0.29769476948E+02  0.00000000000E+00 0.  1.
         21   -1    0    0  501  502 -0.00000000000E+00 -0.00000000000E+00 -0.23129736213E+02  0.23129736213E+02  0.00000000000E+00 0.  1.
         21    1    1    2  503  504 -0.24440162127E+00  0.22025221089E+02  0.17695044996E+02  0.28253932710E+02  0.00000000000E+00 0.  1.
         21    1    1    2  504  502  0.24440162127E+00 -0.22025221089E+02 -0.11055304261E+02  0.24645280450E+02  0.00000000000E+00 0.  1.
</event>
<event>
 4    1  0.1602044E+006  0.2438402E+02  0.7546771E-02  0.1475814E+00
         21   -1    0    0  504  501  0.00000000000E+00  0.00000000000E+00  0.16818140615E+02  0.16818140615E+02  0.00000000000E+00 0.  1.
         21   -1    0    0  503  502 -0.00000000000E+00 -0.00000000000E+00 -0.12184718025E+03  0.12184718025E+03  0.00000000000E+00 0.  1.
         21    1    1    2  503  501 -0.23352834631E+02 -0.70160981461E+01 -0.11092923379E+03  0.11357761851E+03  0.00000000000E+00 0.  1.
         21    1    1    2  504  502  0.23352834631E+02  0.70160981461E+01  0.59001941485E+01  0.25087702355E+02  0.00000000000E+00 0.  1.
</event>
<event>
 4    1  0.1602044E+006  0.2679189E+02  0.7546771E-02  0.1449710E+00
         21   -1    0    0  504  501  0.00000000000E+00  0.00000000000E+00  0.58562150574E+02  0.58562150574E+02  0.00000000000E+00 0.  1.
         21   -1    0    0  503  502 -0.00000000000E+00 -0.00000000000E+00 -0.12608378741E+03  0.12608378741E+03  0.00000000000E+00 0. -1.
         21    1    1    2  503  501 -0.12486460540E+02 -0.23704293597E+02 -0.12148151811E+03  0.12440082184E+03  0.00000000000E+00 0. -1.
         21    1    1    2  504  502  0.12486460540E+02  0.23704293597E+02  0.53959881276E+02  0.60245116143E+02  0.00000000000E+00 0.  1.
</event>
<event>
 4    1  0.1602044E+006  0.2562792E+02  0.7546771E-02  0.1461900E+00
         21   -1    0    0  503  501  0.00000000000E+00  0.00000000000E+00  0.10183006226E+03  0.10183006226E+03  0.00000000000E+00 0.  1.
         21   -1    0    0  501  502 -0.00000000000E+00 -0.00000000000E+00 -0.82928614571E+01  0.82928614571E+01  0.00000000000E+00 0.  1.
         21    1    1    2  503  504  0.26969204157E+00 -0.25626503618E+02  0.72725778320E+02  0.77109203431E+02  0.00000000000E+00 0.  1.
         21    1    1    2  504  502 -0.26969204157E+00  0.25626503618E+02  0.20811422488E+02  0.33013720291E+02  0.00000000000E+00 0.  1.
</event>
<event>
 4    1  0.1602044E+006  0.2114637E+02  0.7546771E-02  0.1517185E+00
         21   -1    0    0  503  501  0.00000000000E+00  0.00000000000E+00  0.28479720395E+01  0.28479720395E+01  0.00000000000E+00 0.  1.
         21   -1    0    0  504  502 -0.00000000000E+00 -0.00000000000E+00 -0.19164420814E+03  0.19164420814E+03  0.00000000000E+00 0.  1.
         21    1    1    2  503  502  0.20155458429E+02 -0.63973653464E+01 -0.13573691008E+03  0.13737422446E+03  0.00000000000E+00 0.  1.
         21    1    1    2  504  501 -0.20155458429E+02  0.63973653464E+01 -0.53059326021E+02  0.57117955720E+02  0.00000000000E+00 0.  1.
</event>
<event>
 4    1  0.1602044E+006  0.2559670E+02  0.7546771E-02  0.1462238E+00
         21   -1    0    0  504  501  0.00000000000E+00  0.00000000000E+00  0.11179494196E+02  0.11179494196E+02  0.00000000000E+00 0. -1.
         21   -1    0    0  503  502 -0.00000000000E+00 -0.00000000000E+00 -0.74933807590E+02  0.74933807590E+02  0.00000000000E+00 0. -1.
         21    1    1    2  503  501  0.14588889487E+02  0.21032248588E+02 -0.51975416390E+02  0.57936474574E+02  0.00000000000E+00 0. -1.
         21    1    1    2  504  502 -0.14588889487E+02 -0.21032248588E+02 -0.11778897003E+02  0.28176827212E+02  0.00000000000E+00 0. -1.
</event>
<event>
 4    1  0.1602044E+006  0.2156406E+02  0.7546771E-02  0.1511362E+00
         21   -1    0    0  503  501  0.00000000000E+00  0.00000000000E+00  0.26023270246E+01  0.26023270246E+01  0.00000000000E+00 0. -1.
         21   -1    0    0  501  502 -0.00000000000E+00 -0.00000000000E+00 -0.27382844789E+03  0.27382844789E+03  0.00000000000E+00 0. -1.
         21    1    1    2  503  504  0.98825207094E+01 -0.19166230160E+02 -0.54143341905E+02  0.58279585335E+02  0.00000000000E+00 0. -1.
         21    1    1    2  504  502 -0.98825207094E+01  0.19166230160E+02 -0.21708277896E+03  0.21815118958E+03  0.00000000000E+00 0. -1.
</event>
<event>
 4    1  0.1602044E+006  0.2475529E+02  0.7546771E-02  0.1471560E+00
         21   -1    0    0  504  501  0.00000000000E+00  0.00000000000E+00  0.32340068996E+02  0.32340068996E+02  0.00000000000E+00 0.  1.
         21   -1    0    0  501  502 -0.00000000000E+00 -0.00000000000E+00 -0.77774055485E+02  0.77774055485E+02  0.00000000000E+00 0. -1.
         21    1    1    2  503  502  0.57557602252E+01  0.24076863991E+02 -0.70599341736E+02  0.74813710034E+02  0.00000000000E+00 0. -1.
         21    1    1    2  504  503 -0.57557602252E+01 -0.24076863991E+02  0.25165355248E+02  0.35300414447E+02  0.00000000000E+00 0.  1.
</event>
<event>
 4    1  0.1602044E+006  0.2688341E+02  0.7546771E-02  0.1448783E+00
         21   -1    0    0  504  501  0.00000000000E+00  0.00000000000E+00  0.10853951362E+02  0.10853951362E+02  0.00000000000E+00 0. -1.
         21   -1    0    0  503  502 -0.00000000000E+00 -0.00000000000E+00 -0.74908382999E+02  0.74908382999E+02  0.00000000000E+00 0. -1.
         21    1    1    2  503  501  0.97583641121E+01  0.25049787236E+02 -0.17733862889E+02  0.32205704520E+02  0.00000000000E+00 0. -1.
         21    1    1    2  504  502 -0.97583641121E+01 -0.25049787236E+02 -0.46320568749E+02  0.53556629841E+02  0.00000000000E+00 0. -1.
</event>
<event>
 4    1  0.1602044E+006  0.2316783E+02  0.7546771E-02  0.1490401E+00
         21   -1    0    0  503  501  0.00000000000E+00  0.00000000000E+00  0.66501121547E+01  0.66501121547E+01  0.00000000000E+00 0. -1.
         21   -1    0    0  504  502 -0.00000000000E+00 -0.00000000000E+00 -0.16815384628E+03  0.16815384628E+03  0.00000000000E+00 0. -1.
         21    1    1    2  503  502 -0.23110068663E+02  0.16349662727E+01 -0.17724983993E+02  0.29170592142E+02  0.00000000000E+00 0. -1.
         21    1    1    2  504  501  0.23110068663E+02 -0.16349662727E+01 -0.14377875013E+03  0.14563336629E+03  0.00000000000E+00 0. -1.
</event>
<event>
 4    1  0.1602044E+006  0.3872782E+02  0.7546771E-02  0.1356106E+00
         21   -1    0    0  503  501  0.00000000000E+00  0.00000000000E+00  0.23421975160E+02  0.23421975160E+02  0.00000000000E+00 0.  1.
         21   -1    0    0  504  502 -0.00000000000E+00 -0.00000000000E+00 -0.65825749889E+02  0.65825749889E+02  0.00000000000E+00 0. -1.
         21    1    1    2  503  502  0.26529054312E+02  0.28214411165E+02 -0.28560499073E+02  0.48120118738E+02  0.00000000000E+00 0. -1.
         21    1    1    2  504  501 -0.26529054312E+02 -0.28214411165E+02 -0.13843275656E+02  0.41127606312E+02  0.00000000000E+00 0.  1.
</event>
<event>
 4    1  0.1602044E+006  0.2674667E+02  0.7546771E-02  0.1450170E+00
         21   -1    0    0  502  501  0.00000000000E+00  0.00000000000E+00  0.67181992737E+02  0.67181992737E+02  0.00000000000E+00 0.  1.
         21   -1    0    0  503  502 -0.00000000000E+00 -0.00000000000E+00 -0.12639069055E+02  0.12639069055E+02  0.00000000000E+00 0.  1.
         21    1    1    2  503  504  0.17005327957E+02  0.20644684664E+02  0.11432602989E+02  0.29087602082E+02  0.00000000000E+00 0.  1.
         21    1    1    2  504  501 -0.17005327957E+02 -0.20644684664E+02  0.43110320693E+02  0.50733459709E+02  0.00000000000E+00 0.  1.
</event>
<event>
 4    1  0.1602044E+006  0.2150978E+02  0.7546771E-02  0.1512109E+00
         21   -1    0    0  504  501  0.00000000000E+00  0.00000000000E+00  0.76468214664E+02  0.76468214664E+02  0.00000000000E+00 0. -1.
         21   -1    0    0  503  502 -0.00000000000E+00 -0.00000000000E+00 -0.64122062857E+01  0.64122062857E+01  0.00000000000E+00 0. -1.
         21    1    1    2  503  501  0.13312259546E+02  0.16895396369E+02  0.25185666084E+02  0.33120815944E+02  0.00000000000E+00 0. -1.
         21    1    1    2  504  502 -0.13312259546E+02 -0.16895396369E+02  0.44870342295E+02  0.49759605006E+02  0.00000000000E+00 0. -1.
</event>
<event>
 4    1  0.1602044E+006  0.2142759E+02  0.7546771E-02  0.1513247E+00
         21   -1    0    0  502  501  0.00000000000E+00  0.00000000000E+00  0.25118632059E+02  0.25118632059E+02  0.00000000000E+00 0.  1.
         21   -1    0    0  504  502 -0.00000000000E+00 -0.00000000000E+00 -0.95543063862E+02  0.95543063862E+02  0.00000000000E+00 0.  1.
         21    1    1    2  503  501 -0.48103315342E+01 -0.20880673098E+02  0.19041415009E+02  0.28665611524E+02  0.00000000000E+00 0.  1.
         21    1    1    2  504  503  0.48103315342E+01  0.20880673098E+02 -0.89465846812E+02  0.91996084397E+02  0.00000000000E+00 0.  1.
</event>
<event>
 4    1  0.1602044E+006  0.2020399E+02  0.7546771E-02  0.1530940E+00
         21   -1    0    0  504  501  0.00000000000E+00  0.00000000000E+00  0.17901198608E+04  0.17901198608E+04  0.00000000000E+00 0.  1.
         21   -1    0    0  503  502 -0.00000000000E+00 -0.00000000000E+00 -0.40163141761E+00  0.40163141761E+00  0.00000000000E+00 0.  1.
         21    1    1    2  503  501 -0.13480531680E+02 -0.15049135369E+02  0.14834482116E+04  0.14835857905E+04  0.00000000000E+00 0.  1.
         21    1    1    2  504  502  0.13480531680E+02  0.15049135369E+02  0.30627001773E+03  0.30693570168E+03  0.00000000000E+00 0.  1.
</event>
<event>
 4    1  0.1602044E+006  0.2503277E+02  0.7546771E-02  0.1468437E+00
         21   -1    0    0  504  501  0.00000000000E+00  0.00000000000E+00  0.40478969350E+02  0.40478969350E+02  0.00000000000E+00 0.  1.
         21   -1    0    0  503  502 -0.00000000000E+00 -0.00000000000E+00 -0.22799154217E+02  0.22799154217E+02  0.00000000000E+00 0.  1.
         21    1    1    2  503  501 -0.49774074175E+00 -0.25027821206E+02  0.26765612964E+02  0.36647477642E+02  0.00000000000E+00 0.  1.
         21    1    1    2  504  502  0.49774074175E+00  0.25027821206E+02 -0.90857978311E+01  0.26630645926E+02  0.00000000000E+00 0.  1.
</event>
<event>
 4    1  0.1602044E+006  0.2121291E+02  0.7546771E-02  0.1516247E+00
         21   -1    0    0  502  501  0.00000000000E+00  0.00000000000E+00  0.15575291517E+01  0.15575291517E+01  0.00000000000E+00 0.  1.
         21   -1    0    0  503  502 -0.00000000000E+00 -0.00000000000E+00 -0.34711309528E+03  0.34711309528E+03  0.00000000000E+00 0.  1.
         21    1    1    2  503  504  0.25052794153E+01  0.21064456716E+02 -0.24416461023E+03  0.24508436231E+03  0.00000000000E+00 0.  1.
         21    1    1    2  504  501 -0.25052794153E+01 -0.21064456716E+02 -0.10139095590E+03  0.10358626212E+03  0.00000000000E+00 0.  1.
</event>
<event>
 4    1  0.1602044E+006  0.2074599E+02  0.7546771E-02  0.1522923E+00
         21   -1    0    0  504  501  0.00000000000E+00  0.00000000000E+00  0.89678964251E+01  0.89678964251E+01  0.00000000000E+00 0. -1.
         21   -1    0    0  503  502 -0.00000000000E+00 -0.00000000000E+00 -0.20624638316E+03  0.20624638316E+03  0.00000000000E+00 0.  1.
         21    1    1    2  503  501 -0.20022524746E+02  0.54309076338E+01 -0.19289858860E+03  0.19401098355E+03  0.00000000000E+00 0.  1.
         21    1    1    2  504  502  0.20022524746E+02 -0.54309076338E+01 -0.43798981324E+01  0.21203296031E+02  0.00000000000E+00 0. -1.
</event>
<event>
 4    1  0.1602044E+006  0.2174288E+02  0.7546771E-02  0.1508917E+00
         21   -1    0    0  504  501  0.00000000000E+00  0.00000000000E+00  0.10602356169E+03  0.10602356169E+03  0.00000000000E+00 0.  1.
         21   -1    0    0  503  502 -0.00000000000E+00 -0.00000000000E+00 -0.10484095288E+03  0.10484095288E+03  0.00000000000E+00 0. -1.
         21    1    1    2  503  501 -0.77277435931E+01  0.20323256027E+02  0.10375715752E+03  0.10601085083E+03  0.00000000000E+00 0.  1.
         21    1    1    2  504  502  0.77277435931E+01 -0.20323256027E+02 -0.10257454872E+03  0.10485366375E+03  0.00000000000E+00 0. -1.
</event>
<event>
 4    1  0.1602044E+006  0.2532478E+02  0.7546771E-02  0.1465203E+00
         21   -1    0    0  504  501  0.00000000000E+00  0.00000000000E+00  0.65900997604E+01  0.65900997604E+01  0.00000000000E+00 0.  1.
         21   -1    0    0  503  502 -0.00000000000E+00 -0.00000000000E+00 -0.11744034224E+03  0.11744034224E+03  0.00000000000E+00 0.  1.
         21    1    1    2  503  501  0.24925533421E+02  0.44791025998E+01 -0.29755836758E+02  0.39073704682E+02  0.00000000000E+00 0.  1.
         21    1    1    2  504  502 -0.24925533421E+02 -0.44791025998E+01 -0.81094405721E+02  0.84956737317E+02  0.00000000000E+00 0.  1.
</event>
<event>
 4    1  0.1602044E+006  0.3139765E+02  0.7546771E-02  0.1407828E+00
         21   -1    0    0  502  501  0.00000000000E+00  0.00000000000E+00  0.84919901925E+03  0.84919901925E+03  0.00000000000E+00 0.  1.
         21   -1    0    0  503  502 -0.00000000000E+00 -0.00000000000E+00 -0.51217195481E+01  0.51217195481E+01  0.00000000000E+00 0.  1.
         21    1    1    2  503  504 -0.30584922208E+02 -0.70975128080E+01  0.46394120173E+02  0.56019876305E+02  0.00000000000E+00 0.  1.
         21    1    1    2  504  501  0.30584922208E+02  0.70975128080E+01  0.79768317953E+03  0.79830086249E+03  0.00000000000E+00 0.  1.
</event>
<event>
 4    1  0.1602044E+006  0.2027593E+02  0.7546771E-02  0.1529859E+00
         21   -1    0    0  503  501  0.00000000000E+00  0.00000000000E+00  0.11995776140E+03  0.11995776140E+03  0.00000000000E+00 0. -1.
         21   -1    0    0  504  502 -0.00000000000E+00 -0.00000000000E+00 -0.76362907581E+01  0.76362907581E+01  0.00000000000E+00 0. -1.
         21    1    1    2  503  502  0.17577849587E+02  0.10106062635E+02  0.10352555703E+03  0.10549243696E+03  0.00000000000E+00 0. -1.
         21    1    1    2  504  501 -0.17577849587E+02 -0.10106062635E+02  0.87959136169E+01  0.22101615200E+02  0.00000000000E+00 0. -1.
</event>
<event>
 4    1  0.1602044E+006  0.2483793E+02  0.7546771E-02  0.1470625E+00
         21   -1    0    0  503  501  0.00000000000E+00  0.00000000000E+00  0.38167021782E+03  0.38167021782E+03  0.00000000000E+00 0. -1.
         21   -1    0    0  504  502 -0.00000000000E+00 -0.00000000000E+00 -0.11448940782E+03  0.11448940782E+03  0.00000000000E+00 0. -1.
         21    1    1    2  503  502  0.73583792150E+01  0.23722920292E+02 -0.11273197137E+03  0.11543578328E+03  0.00000000000E+00 0. -1.
         21    1    1    2  504  501 -0.73583792150E+01 -0.23722920292E+02  0.37991278138E+03  0.38072384236E+03  0.00000000000E+00 0. -1.
</event>
<event>
 4    1  0.1602044E+006  0.2222242E+02  0.7546771E-02  0.1502500E+00
         21   -1    0    0  503  501  0.00000000000E+00  0.00000000000E+00  0.14159972894E+03  0.14159972894E+03  0.00000000000E+00 0. -1.
         21   -1    0    0  501  502 -0.00000000000E+00 -0.00000000000E+00 -0.34228671980E+02  0.34228671980E+02  0.00000000000E+00 0. -1.
         21    1    1    2  503  504  0.52732580140E+01 -0.21587700975E+02  0.13700065644E+03  0.13879126755E+03  0.00000000000E+00 0. -1.
         21    1    1    2  504  502 -0.52732580140E+01  0.21587700975E+02 -0.29629599475E+02  0.37037133374E+02  0.00000000000E+00 0. -1.
</event>
<event>
 4    1  0.1602044E+006  0.6539457E+02  0.7546771E-02  0.1242529E+00
         21   -1    0    0  503  501  0.00000000000E+00  0.00000000000E+00  0.45801262925E+03  0.45801262925E+03  0.00000000000E+00 0. -1.
         21   -1    0    0  504  502 -0.00000000000E+00 -0.00000000000E+00 -0.11575746714E+02  0.11575746714E+02  0.00000000000E+00 0. -1.
         21    1    1    2  503  502  0.10935196038E+02 -0.64473799666E+02  0.32647517889E+03  0.33296019550E+03  0.00000000000E+00 0. -1.
         21    1    1    2  504  501 -0.10935196038E+02  0.64473799666E+02  0.11996170365E+03  0.13662818047E+03  0.00000000000E+00 0. -1.
</event>
<event>
 4    1  0.1602044E+006  0.2206955E+02  0.7546771E-02  0.1504524E+00
         21   -1    0    0  503  501  0.00000000000E+00  0.00000000000E+00  0.36392497813E+01  0.36392497813E+01  0.00000000000E+00 0. -1.
         21   -1    0    0  504  502 -0.00000000000E+00 -0.00000000000E+00 -0.70461661231E+03  0.70461661231E+03  0.00000000000E+00 0.  1.
         21    1    1    2  503  502  0.21688854705E+02 -0.40814760649E+01 -0.66921513915E+03  0.66957894780E+03  0.00000000000E+00 0.  1.
         21    1    1    2  504  501 -0.21688854705E+02  0.40814760649E+01 -0.31762223372E+02  0.38676914288E+02  0.00000000000E+00 0. -1.
</event>
<event>
 4    1  0.1602044E+006  0.2401694E+02  0.7546771E-02  0.1480108E+00
         21   -1    0    0  504  501  0.00000000000E+00  0.00000000000E+00  0.24044260272E+03  0.24044260272E+03  0.00000000000E+00 0. -1.
         21   -1    0    0  503  502 -0.00000000000E+00 -0.00000000000E+00 -0.77542094278E+01  0.77542094278E+01  0.00000000000E+00 0.  1.
         21    1    1    2  503  501  0.23777188349E+02  0.33850723502E+01  0.13213705223E+02  0.27411957360E+02  0.00000000000E+00 0.  1.
         21    1    1    2  504  502 -0.23777188349E+02 -0.33850723502E+01  0.21947468807E+03  0.22078485479E+03  0.00000000000E+00 0. -1.
</event>
<event>
 4    1  0.1602044E+006  0.2038465E+02  0.7546771E-02  0.1528235E+00
         21   -1    0    0  502  501  0.00000000000E+00  0.00000000000E+00  0.73523933507E+02  0.73523933507E+02  0.00000000000E+00 0.  1.
         21   -1    0    0  504  502 -0.00000000000E+00 -0.00000000000E+00 -0.10036428277E+02  0.10036428277E+02  0.00000000000E+00 0. -1.
         21    1    1    2  503  501 -0.19387229382E+02  0.62983501313E+01  0.59359256171E+02  0.62761892664E+02  0.00000000000E+00 0.  1.
         21    1    1    2  504  503  0.19387229382E+02 -0.62983501313E+01  0.41282490582E+01  0.20798469121E+02  0.00000000000E+00 0. -1.
</event>
<event>
 4    1  0.1602044E+006  0.3051961E+02  0.7546771E-02  0.1415134E+00
         21   -1    0    0  503  501  0.00000000000E+00  0.00000000000E+00  0.28562214573E+02  0.28562214573E+02  0.00000000000E+00 0.  1.
         21   -1    0    0  504  502 -0.00000000000E+00 -0.00000000000E+00 -0.43718039699E+02  0.43718039699E+02  0.00000000000E+00 0.  1.
         21    1    1    2  503  502  0.70078407333E+01  0.29704157493E+02 -0.25794015401E+02  0.39959705136E+02  0.00000000000E+00 0.  1.
         21    1    1    2  504  501 -0.70078407333E+01 -0.29704157493E+02  0.10638190274E+02  0.32320549135E+02  0.00000000000E+00 0.  1.
</event>
<event>
 4    1  0.1602044E+006  0.2014973E+02  0.7546771E-02  0.1531759E+00
         21   -1    0    0  503  501  0.00000000000E+00  0.00000000000E+00  0.62591278465E+02  0.62591278465E+02  0.00000000000E+00 0. -1.
         21   -1    0    0  504  502 -0.00000000000E+00 -0.00000000000E+00 -0.14937760565E+02  0.14937760565E+02  0.00000000000E+00 0. -1.
         21    1    1    2  503  502  0.18379263388E+02  0.82591970405E+01 -0.53305159762E+01  0.20842889891E+02  0.00000000000E+00 0. -1.
         21    1    1    2  504  501 -0.18379263388E+02 -0.82591970405E+01  0.52984033876E+02  0.56686149139E+02  0.00000000000E+00 0. -1.
</event>
<event>
 4    1  0.1602044E+006  0.2846495E+02  0.7546771E-02  0.1433423E+00
         21   -1    0    0  503  501  0.00000000000E+00  0.00000000000E+00  0.11889330035E+03  0.11889330035E+03  0.00000000000E+00 0. -1.
         21   -1    0    0  504  502 -0.00000000000E+00 -0.00000000000E+00 -0.33355140450E+02  0.33355140450E+02  0.00000000000E+00 0. -1.
         21    1    1    2  503  502  0.23711675559E+02 -0.15748328035E+02 -0.25134611683E+02  0.37973702719E+02  0.00000000000E+00 0. -1.
         21    1    1    2  504  501 -0.23711675559E+02  0.15748328035E+02  0.11067277158E+03  0.11427473808E+03  0.00000000000E+00 0. -1.
</event>
<event>
 4    1  0.1602044E+006  0.3111955E+02  0.7546771E-02  0.1410111E+00
         21   -1    0    0  503  501  0.00000000000E+00  0.00000000000E+00  0.21713294852E+02  0.21713294852E+02  0.00000000000E+00 0. -1.
         21   -1    0    0  501  502 -0.00000000000E+00 -0.00000000000E+00 -0.23776560001E+03  0.23776560001E+03  0.00000000000E+00 0.  1.
         21    1    1    2  503  504 -0.24654409143E+02  0.18989116242E+02  0.89134812136E+01  0.32370921723E+02  0.00000000000E+00 0. -1.
         21    1    1    2  504  502  0.24654409143E+02 -0.18989116242E+02 -0.22496578637E+03  0.22710797314E+03  0.00000000000E+00 0.  1.
</event>
<event>
 4    1  0.1602044E+006  0.2511101E+02  0.7546771E-02  0.1467565E+00
         21   -1    0    0  504  501  0.00000000000E+00  0.00000000000E+00  0.77004934233E+03  0.77004934233E+03  0.00000000000E+00 0. -1.
         21   -1    0    0  503  502 -0.00000000000E+00 -0.00000000000E+00 -0.91463187736E+01  0.91463187736E+01  0.00000000000E+00 0.  1.
         21    1    1    2  503  501  0.17402264698E+02  0.18103150938E+02  0.75220033209E+03  0.75261936096E+03  0.00000000000E+00 0. -1.
         21    1    1    2  504  502 -0.17402264698E+02 -0.18103150938E+02  0.87026914598E+01  0.26576300140E+02  0.00000000000E+00 0.  1.
</event>
<event>
 4    1  0.1602044E+006  0.6265334E+02  0.7546771E-02  0.1251074E+00
         21   -1    0    0  504  501  0.00000000000E+00  0.00000000000E+00  0.18350951020E+02  0.18350951020E+02  0.00000000000E+00 0.  1.
         21   -1    0    0  503  502 -0.00000000000E+00 -0.00000000000E+00 -0.27628121982E+03  0.27628121982E+03  0.00000000000E+00 0.  1.
         21    1    1    2  503  501 -0.19028334374E+02 -0.59693918948E+02 -0.58969880739E+02  0.86040038952E+02  0.00000000000E+00 0.  1.
         21    1    1    2  504  502  0.19028334374E+02  0.59693918948E+02 -0.19896038807E+03  0.20859213189E+03  0.00000000000E+00 0.  1.
</event>
<event>
 4    1  0.1602044E+006  0.2075201E+02  0.7546771E-02  0.1522835E+00
         21   -1    0    0  502  501  0.00000000000E+00  0.00000000000E+00  0.95203440191E+01  0.95203440191E+01  0.00000000000E+00 0.  1.
         21   -1    0    0  504  502 -0.00000000000E+00 -0.00000000000E+00 -0.61327681573E+03  0.61327681573E+03  0.00000000000E+00 0.  1.
         21    1    1    2  503  501 -0.19785360813E+02  0.62598221843E+01 -0.21837280686E+01  0.20866589193E+02  0.00000000000E+00 0.  1.
         21    1    1    2  504  503  0.19785360813E+02 -0.62598221843E+01 -0.60157274365E+03  0.60193057056E+03  0.00000000000E+00 0.  1.
</event>
<event>
 4    1  0.1602044E+006  0.2225432E+02  0.7546771E-02  0.1502080E+00
         21   -1    0    0  503  501  0.00000000000E+00  0.00000000000E+00  0.26386054965E+02  0.26386054965E+02  0.00000000000E+00 0.  1.
         21   -1    0    0  504  502 -0.00000000000E+00 -0.00000000000E+00 -0.43908858403E+02  0.43908858403E+02  0.00000000000E+00 0.  1.
         21    1    1    2  503  502  0.17898412675E+02 -0.13225042170E+02 -0.35356054097E+02  0.41776853376E+02  0.00000000000E+00 0.  1.
         21    1    1    2  504  501 -0.17898412675E+02  0.13225042170E+02  0.17833250658E+02  0.28518059992E+02  0.00000000000E+00 0.  1.
</event>
<event>
 4    1  0.1602044E+006  0.2525848E+02  0.7546771E-02  0.1465932E+00
         21   -1    0    0  502  501  0.00000000000E+00  0.00000000000E+00  0.54522079878E+02  0.54522079878E+02  0.00000000000E+00 0.  1.
         21   -1    0    0  503  502 -0.00000000000E+00 -0.00000000000E+00 -0.72618070677E+03  0.72618070677E+03  0.00000000000E+00 0. -1.
         21    1    1    2  503  504  0.19150110104E+02 -0.16470095182E+02 -0.72302291710E+03  0.72346397934E+03  0.00000000000E+00 0. -1.
         21    1    1    2  504  501 -0.19150110104E+02  0.16470095182E+02  0.51364290213E+02  0.57238807302E+02  0.00000000000E+00 0.  1.
</event>
<event>
 4    1  0.1602044E+006  0.2635389E+02  0.7546771E-02  0.1454209E+00
         21   -1    0    0  503  501  0.00000000000E+00  0.00000000000E+00  0.11629499579E+03  0.11629499579E+03  0.00000000000E+00 0.  1.
         21   -1    0    0  504  502 -0.00000000000E+00 -0.00000000000E+00 -0.78905343475E+01  0.78905343475E+01  0.00000000000E+00 0.  1.
         21    1    1    2  503  502  0.37277965185E+01 -0.26088901778E+02  0.84819002438E+02  0.88818863072E+02  0.00000000000E+00 0.  1.
         21    1    1    2  504  501 -0.37277965185E+01  0.26088901778E+02  0.23585459006E+02  0.35366667067E+02  0.00000000000E+00 0.  1.
</event>
<event>
 4    1  0.1602044E+006  0.3115656E+02  0.7546771E-02  0.1409805E+00
         21   -1    0    0  503  501  0.00000000000E+00  0.00000000000E+00  0.74922327730E+02  0.74922327730E+02  0.00000000000E+00 0.  1.
         21   -1    0    0  504  502 -0.00000000000E+00 -0.00000000000E+00 -0.25910843967E+02  0.25910843967E+02  0.00000000000E+00 0.  1.
         21    1    1    2  503  502  0.12935078460E+02  0.28344571894E+02  0.60154170740E+02  0.67744042307E+02  0.00000000000E+00 0.  1.
         21    1    1    2  504  501 -0.12935078460E+02 -0.28344571894E+02 -0.11142686977E+02  0.33089129389E+02  0.00000000000E+00 0.  1.
</event>
<event>
 4    1  0.1602044E+006  0.2081705E+02  0.7546771E-02  0.1521893E+00
         21   -1    0    0  503  501  0.00000000000E+00  0.00000000000E+00  0.75966631378E+00  0.75966631378E+00  0.00000000000E+00 0.  1.
         21   -1    0    0  504  502 -0.00000000000E+00 -0.00000000000E+00 -0.59380074378E+03  0.59380074378E+03  0.00000000000E+00 0.  1.
         21    1    1    2  503  502 -0.11885762446E+02 -0.17090293652E+02 -0.35547578457E+03  0.35608479735E+03  0.00000000000E+00 0.  1.
         21    1    1    2  504  501  0.11885762446E+02  0.17090293652E+02 -0.23756529289E+03  0.23847561274E+03  0.00000000000E+00 0.  1.
</event>
<event>
 4    1  0.1602044E+006  0.2667128E+02  0.7546771E-02  0.1450938E+00
         21   -1    0    0  504  501  0.00000000000E+00  0.00000000000E+00  0.24491381553E+02  0.24491381553E+02  0.00000000000E+00 0.  1.
         21   -1    0    0  503  502 -0.00000000000E+00 -0.00000000000E+00 -0.46253951647E+02  0.46253951647E+02  0.00000000000E+00 0.  1.
         21    1    1    2  503  501 -0.26157889412E+02  0.52079038065E+01  0.10694563013E+02  0.28735537555E+02  0.00000000000E+00 0.  1.
         21    1    1    2  504  502  0.26157889412E+02 -0.52079038065E+01 -0.32457133107E+02  0.42009795645E+02  0.00000000000E+00 0.  1.
</event>
<event>
 4    1  0.1602044E+006  0.3016646E+02  0.7546771E-02  0.1418155E+00
         21   -1    0    0  504  501  0.00000000000E+00  0.00000000000E+00  0.39672459017E+02  0.39672459017E+02  0.00000000000E+00 0.  1.
         21   -1    0    0  503  502 -0.00000000000E+00 -0.00000000000E+00 -0.44937543743E+02  0.44937543743E+02  0.00000000000E+00 0. -1.
         21    1    1    2  503  501 -0.18937078879E+02 -0.23481954526E+02  0.26967465417E+02  0.40463061375E+02  0.00000000000E+00 0.  1.
         21    1    1    2  504  502  0.18937078879E+02  0.23481954526E+02 -0.32232550144E+02  0.44146941385E+02  0.00000000000E+00 0. -1.
</event>
<event>
 4    1  0.1602044E+006  0.2757784E+02  0.7546771E-02  0.1441888E+00
         21   -1    0    0  504  501  0.00000000000E+00  0.00000000000E+00  0.15779284360E+02  0.15779284360E+02  0.00000000000E+00 0.  1.
         21   -1    0    0  503  502 -0.00000000000E+00 -0.00000000000E+00 -0.69148735221E+02  0.69148735221E+02  0.00000000000E+00 0.  1.
         21    1    1    2  503  501  0.22303392471E+02  0.16220224185E+02 -0.33112178599E+01  0.27775909563E+02  0.00000000000E+00 0.  1.
         21    1    1    2  504  502 -0.22303392471E+02 -0.16220224185E+02 -0.50058233001E+02  0.57152110018E+02  0.00000000000E+00 0.  1.
</event>
<event>
 4    1  0.1602044E+006  0.2305277E+02  0.7546771E-02  0.1491837E+00
         21   -1    0    0  503  501  0.00000000000E+00  0.00000000000E+00  0.41744474204E+03  0.41744474204E+03  0.00000000000E+00 0. -1.
         21   -1    0    0  504  502 -0.00000000000E+00 -0.00000000000E+00 -0.11520831079E+03  0.11520831079E+03  0.00000000000E+00 0. -1.
         21    1    1    2  503  502 -0.22507322436E+02 -0.49850563890E+01 -0.11373276489E+03  0.11604556071E+03  0.00000000000E+00 0. -1.
         21    1    1    2  504  501  0.22507322436E+02  0.49850563890E+01  0.41596919614E+03  0.41660749212E+03  0.00000000000E+00 0. -1.
</event>
<event>
 4    1  0.1602044E+006  0.2361807E+02  0.7546771E-02  0.1484879E+00
         21   -1    0    0  504  501  0.00000000000E+00  0.00000000000E+00  0.12599810514E+03  0.12599810514E+03  0.00000000000E+00 0. -1.
         21   -1    0    0  503  502 -0.00000000000E+00 -0.00000000000E+00 -0.87317898918E+01  0.87317898918E+01  0.00000000000E+00 0. -1.
         21    1    1    2  503  501  0.22692862531E+02  0.65457777128E+01  0.11334319977E+02  0.26196946865E+02  0.00000000000E+00 0. -1.
         21    1    1    2  504  502 -0.22692862531E+02 -0.65457777128E+01  0.10593199527E+03  0.10853294817E+03  0.00000000000E+00 0. -1.
</event>
<event>
 4    1  0.1602044E+006  0.2281617E+02  0.7546771E-02  0.1494820E+00
         21   -1    0    0  504  501  0.00000000000E+00  0.00000000000E+00  0.85465050188E+01  0.85465050188E+01  0.00000000000E+00 0. -1.
         21   -1    0    0  503  502 -0.00000000000E+00 -0.00000000000E+00 -0.99203375332E+02  0.99203375332E+02  0.00000000000E+00 0. -1.
         21    1    1    2  503  501  0.19151962430E+01 -0.22735644452E+02 -0.11856652556E+02  0.25712987285E+02  0.00000000000E+00 0. -1.
         21    1    1    2  504  502 -0.19151962430E+01  0.22735644452E+02 -0.78800217758E+02  0.82036893066E+02  0.00000000000E+00 0. -1.
</event>
<event>
 4    1  0.1602044E+006  0.2639551E+02  0.7546771E-02  0.1453777E+00
         21   -1    0    0  503  501  0.00000000000E+00  0.00000000000E+00  0.28415829332E+03  0.28415829332E+03  0.00000000000E+00 0. -1.
         21   -1    0    0  504  502 -0.00000000000E+00 -0.00000000000E+00 -0.10282201519E+02  0.10282201519E+02  0.00000000000E+00 0. -1.
         21    1    1    2  503  502 -0.23754352003E+02  0.11508863129E+02  0.26541172893E+03  0.26672103221E+03  0.00000000000E+00 0. -1.
         21    1    1    2  504  501  0.23754352003E+02 -0.11508863129E+02  0.84643628693E+01  0.27719462628E+02  0.00000000000E+00 0. -1.
</event>
<event>
 4    1  0.1602044E+006  0.3361549E+02  0.7546771E-02  0.1390567E+00
         21   -1    0    0  502  501  0.00000000000E+00  0.00000000000E+00  0.22925574130E+02  0.22925574130E+02  0.00000000000E+00 0.  1.
         21   -1    0    0  503  502 -0.00000000000E+00 -0.00000000000E+00 -0.63089902410E+03  0.63089902410E+03  0.00000000000E+00 0.  1.
         21    1    1    2  503  504 -0.11731825503E+02  0.31501833473E+02 -0.61786908209E+03  0.61878284062E+03  0.00000000000E+00 0.  1.
         21    1    1    2  504  501  0.11731825503E+02 -0.31501833473E+02  0.98956321167E+01  0.35041757615E+02  0.00000000000E+00 0.  1.
</event>
<event>
 4    1  0.1602044E+006  0.2671213E+02  0.7546771E-02  0.1450521E+00
         21   -1    0    0  503  501  0.00000000000E+00  0.00000000000E+00  0.33888985610E+02  0.33888985610E+02  0.00000000000E+00 0.  1.
         21   -1    0    0  501  502 -0.00000000000E+00 -0.00000000000E+00 -0.17561603476E+03  0.17561603476E+03  0.00000000000E+00 0. -1.
         21    1    1    2  503  504  0.13019579418E+02  0.23324420327E+02  0.27409005668E+02  0.38272596247E+02  0.00000000000E+00 0.  1.
         21    1    1    2  504  502 -0.13019579418E+02 -0.23324420327E+02 -0.16913605481E+03  0.17123242412E+03  0.00000000000E+00 0. -1.
</event>
<event>
 4    1  0.1602044E+006  0.2371773E+02  0.7546771E-02  0.1483677E+00
         21   -1    0    0  502  501  0.00000000000E+00  0.00000000000E+00  0.13471808014E+03  0.13471808014E+03  0.00000000000E+00 0.  1.
         21   -1    0    0  503  502 -0.00000000000E+00 -0.00000000000E+00 -0.16291970301E+02  0.16291970301E+02  0.00000000000E+00 0.  1.
         21    1    1    2  503  504  0.12984317411E+02  0.19847872677E+02 -0.59010523206E+01  0.24440805366E+02  0.00000000000E+00 0.  1.
         21    1    1    2  504  501 -0.12984317411E+02 -0.19847872677E+02  0.12432716216E+03  0.12656924508E+03  0.00000000000E+00 0.  1.
</event>
<event>
 4    1  0.1602044E+006  0.3767219E+02  0.7546771E-02  0.1362694E+00
         21   -1    0    0  502  501  0.00000000000E+00  0.00000000000E+00  0.47362310573E+02  0.47362310573E+02  0.00000000000E+00 0.  1.
         21   -1    0    0  503  502 -0.00000000000E+00 -0.00000000000E+00 -0.31267729570E+02  0.31267729570E+02  0.00000000000E+00 0.  1.
         21    1    1    2  503  504 -0.29893993535E+02  0.22924725311E+02  0.21275889943E-01  0.37672195751E+02  0.00000000000E+00 0.  1.
         21    1    1    2  504  501  0.29893993535E+02 -0.22924725311E+02  0.16073305113E+02  0.40957844392E+02  0.00000000000E+00 0.  1.
</event>
<event>
 4    1  0.1602044E+006  0.2110995E+02  0.7546771E-02  0.1517701E+00
         21   -1    0    0  504  501  0.00000000000E+00  0.00000000000E+00  0.71914708449E+02  0.71914708449E+02  0.00000000000E+00 0. -1.
         21   -1    0    0  503  502 -0.00000000000E+00 -0.00000000000E+00 -0.15273542137E+02  0.15273542137E+02  0.00000000000E+00 0.  1.
         21    1    1    2  503  501 -0.12850834575E+02 -0.16747721994E+02 -0.52861824699E+01  0.21761752374E+02  0.00000000000E+00 0.  1.
         21    1    1    2  504  502  0.12850834575E+02  0.16747721994E+02  0.61927348782E+02  0.65426498213E+02  0.00000000000E+00 0. -1.
</event>
<event>
 4    1  0.1602044E+006  0.2165725E+02  0.7546771E-02  0.1510084E+00
         21   -1    0    0  504  501  0.00000000000E+00  0.00000000000E+00  0.45630125213E+03  0.45630125213E+03  0.00000000000E+00 0.  1.
         21   -1    0    0  503  502 -0.00000000000E+00 -0.00000000000E+00 -0.39119281565E+02  0.39119281565E+02  0.00000000000E+00 0.  1.
         21    1    1    2  503  501  0.20978138413E+02 -0.53809105400E+01  0.45302513400E+03  0.45354251016E+03  0.00000000000E+00 0.  1.
         21    1    1    2  504  502 -0.20978138413E+02  0.53809105400E+01 -0.35843163438E+02  0.41878023530E+02  0.00000000000E+00 0.  1.
</event>
<event>
 4    1  0.1602044E+006  0.2162147E+02  0.7546771E-02  0.1510574E+00
         21   -1    0    0  503  501  0.00000000000E+00  0.00000000000E+00  0.57193066467E+01  0.57193066467E+01  0.00000000000E+00 0. -1.
         21   -1    0    0  504  502 -0.00000000000E+00 -0.00000000000E+00 -0.17064480379E+03  0.17064480379E+03  0.00000000000E+00 0.  1.
         21    1    1    2  503  502  0.17600038473E+02  0.12558930729E+02 -0.18812555482E+02  0.28660082678E+02  0.00000000000E+00 0. -1.
         21    1    1    2  504  501 -0.17600038473E+02 -0.12558930729E+02 -0.14611294166E+03  0.14770402776E+03  0.00000000000E+00 0.  1.
</event>
<event>
 4    1  0.1602044E+006  0.2238720E+02  0.7546771E-02  0.1500340E+00
         21   -1    0    0  504  501  0.00000000000E+00  0.00000000000E+00  0.15233605445E+03  0.15233605445E+03  0.00000000000E+00 0. -1.
         21   -1    0    0  503  502 -0.00000000000E+00 -0.00000000000E+00 -0.38230984004E+01  0.38230984004E+01  0.00000000000E+00 0. -1.
         21    1    1    2  503  501 -0.21450799825E+02 -0.64070183427E+01  0.45100305082E+02  0.50351010076E+02  0.00000000000E+00 0. -1.
         21    1    1    2  504  502  0.21450799825E+02  0.64070183427E+01  0.10341265097E+03  0.10580814278E+03  0.00000000000E+00 0. -1.
</event>
<event>
 4    1  0.1602044E+006  0.2952977E+02  0.7546771E-02  0.1423727E+00
         21   -1    0    0  503  501  0.00000000000E+00  0.00000000000E+00  0.39719217605E+01  0.39719217605E+01  0.00000000000E+00 0.  1.
         21   -1    0    0  501  502 -0.00000000000E+00 -0.00000000000E+00 -0.31972440332E+03  0.31972440332E+03  0.00000000000E+00 0. -1.
         21    1    1    2  503  504 -0.24406923458E+02 -0.16622548374E+02 -0.67279252852E+02  0.73474518654E+02  0.00000000000E+00 0.  1.
         21    1    1    2  504  502  0.24406923458E+02  0.16622548374E+02 -0.24847322871E+03  0.25022180642E+03  0.00000000000E+00 0. -1.
</event>
<event>
 4    1  0.1602044E+006  0.2845181E+02  0.7546771E-02  0.1433545E+00
         21   -1    0    0  504  501  0.00000000000E+00  0.00000000000E+00  0.35897352338E+03  0.35897352338E+03  0.00000000000E+00 0. -1.
         21   -1    0    0  501  502 -0.00000000000E+00 -0.00000000000E+00 -0.46404093257E+01  0.46404093257E+01  0.00000000000E+00 0. -1.
         21    1    1    2  503  502  0.30206766947E+01  0.28291008588E+02  0.46817267559E+02  0.54784689433E+02  0.00000000000E+00 0. -1.
         21    1    1    2  504  503 -0.30206766947E+01 -0.28291008588E+02  0.30751584650E+03  0.30882924328E+03  0.00000000000E+00 0. -1.
</event>
<event>
 4    1  0.1602044E+006  0.3491520E+02  0.7546771E-02  0.1381160E+00
         21   -1    0    0  502  501  0.00000000000E+00  0.00000000000E+00  0.34954566008E+03  0.34954566008E+03  0.00000000000E+00 0. -1.
         21   -1    0    0  504  502 -0.00000000000E+00 -0.00000000000E+00 -0.47367178161E+02  0.47367178161E+02  0.00000000000E+00 0.  1.
         21    1    1    2  503  501 -0.27507096144E+02  0.21504197375E+02  0.34209993447E+03  0.34387706525E+03  0.00000000000E+00 0. -1.
         21    1    1    2  504  503  0.27507096144E+02 -0.21504197375E+02 -0.39921452549E+02  0.53035772990E+02  0.00000000000E+00 0.  1.
</event>
<event>
 4    1  0.1602044E+006  0.2315994E+02  0.7546771E-02  0.1490499E+00
         21   -1    0    0  504  501  0.00000000000E+00  0.00000000000E+00  0.97225107228E+02  0.97225107228E+02  0.00000000000E+00 0. -1.
         21   -1    0    0  503  502 -0.00000000000E+00 -0.00000000000E+00 -0.63691789767E+01  0.63691789767E+01  0.00000000000E+00 0.  1.
         21    1    1    2  503  501  0.15515453802E+02 -0.17194580313E+02  0.64375402390E+02  0.68414730371E+02  0.00000000000E+00 0. -1.
         21    1    1    2  504  502 -0.15515453802E+02  0.17194580313E+02  0.26480525862E+02  0.35179555835E+02  0.00000000000E+00 0.  1.
</event>
<event>
 4    1  0.1602044E+006  0.2675083E+02  0.7546771E-02  0.1450127E+00
         21   -1    0    0  503  501  0.00000000000E+00  0.00000000000E+00  0.21072224936E+02  0.21072224936E+02  0.00000000000E+00 0.  1.
         21   -1    0    0  504  502 -0.00000000000E+00 -0.00000000000E+00 -0.46776581328E+02  0.46776581328E+02  0.00000000000E+00 0.  1.
         21    1    1    2  503  502  0.72505822959E+01 -0.25749483646E+02  0.49056080746E+01  0.27196908690E+02  0.00000000000E+00 0.  1.
         21    1    1    2  504  501 -0.72505822959E+01  0.25749483646E+02 -0.30609964467E+02  0.40651897574E+02  0.00000000000E+00 0.  1.
</event>
<event>
 4    1  0.1602044E+006  0.2220704E+02  0.7546771E-02  0.1502703E+00
         21   -1    0    0  502  501  0.00000000000E+00  0.00000000000E+00  0.91372605822E+01  0.91372605822E+01  0.00000000000E+00 0.  1.
         21   -1    0    0  503  502 -0.00000000000E+00 -0.00000000000E+00 -0.82530186287E+02  0.82530186287E+02  0.00000000000E+00 0.  1.
         21    1    1    2  503  504 -0.20265373514E+02 -0.90811537218E+01 -0.63658143507E+02  0.67420411978E+02  0.00000000000E+00 0.  1.
         21    1    1    2  504  501  0.20265373514E+02  0.90811537218E+01 -0.97347821981E+01  0.24247034891E+02  0.00000000000E+00 0.  1.
</event>
<event>
 4    1  0.1602044E+006  0.2428171E+02  0.7546771E-02  0.1477002E+00
         21   -1    0    0  504  501  0.00000000000E+00  0.00000000000E+00  0.13563521432E+02  0.13563521432E+02  0.00000000000E+00 0.  1.
         21   -1    0    0  503  502 -0.00000000000E+00 -0.00000000000E+00 -0.84116062827E+02  0.84116062827E+02  0.00000000000E+00 0.  1.
         21    1    1    2  503  501  0.11395163758E+02 -0.21441815543E+02 -0.69226723886E+02  0.73361710114E+02  0.00000000000E+00 0.  1.
         21    1    1    2  504  502 -0.11395163758E+02  0.21441815543E+02 -0.13258175088E+01  0.24317874145E+02  0.00000000000E+00 0.  1.
</event>
<event>
 4    1  0.1602044E+006  0.2184765E+02  0.7546771E-02  0.1507498E+00
         21   -1    0    0  503  501  0.00000000000E+00  0.00000000000E+00  0.16637510741E+02  0.16637510741E+02  0.00000000000E+00 0.  1.
         21   -1    0    0  501  502 -0.00000000000E+00 -0.00000000000E+00 -0.42836134572E+02  0.42836134572E+02  0.00000000000E+00 0.  1.
         21    1    1    2  503  504  0.12880901627E+02 -0.17646593182E+02  0.39897343782E+01  0.22208958960E+02  0.00000000000E+00 0.  1.
         21    1    1    2  504  502 -0.12880901627E+02  0.17646593182E+02 -0.30188358209E+02  0.37264686353E+02  0.00000000000E+00 0.  1.
</event>
<event>
 4    1  0.1602044E+006  0.2242749E+02  0.7546771E-02  0.1499815E+00
         21   -1    0    0  502  501  0.00000000000E+00  0.00000000000E+00  0.15095276604E+03  0.15095276604E+03  0.00000000000E+00 0.  1.
         21   -1    0    0  504  502 -0.00000000000E+00 -0.00000000000E+00 -0.12782610424E+02  0.12782610424E+02  0.00000000000E+00 0.  1.
         21    1    1    2  503  501  0.22180419590E+02  0.33198588393E+01  0.13947815693E+03  0.14126977290E+03  0.00000000000E+00 0.  1.
         21    1    1    2  504  503 -0.22180419590E+02 -0.33198588393E+01 -0.13080013141E+01  0.22465603560E+02  0.00000000000E+00 0.  1.
</event>
<event>
 4    1  0.1602044E+006  0.2791577E+02  0.7546771E-02  0.1438620E+00
         21   -1    0    0  504  501  0.00000000000E+00  0.00000000000E+00  0.32438207918E+03  0.32438207918E+03  0.00000000000E+00 0. -1.
         21   -1    0    0  503  502 -0.00000000000E+00 -0.00000000000E+00 -0.26910920971E+02  0.26910920971E+02  0.00000000000E+00 0.  1.
         21    1    1    2  503  501  0.19328911014E+02 -0.20141587467E+02  0.31635869629E+03  0.31758796430E+03  0.00000000000E+00 0. -1.
         21    1    1    2  504  502 -0.19328911014E+02  0.20141587467E+02 -0.18887538087E+02  0.33705035850E+02  0.00000000000E+00 0.  1.
</event>
<event>
 4    1  0.1602044E+006  0.2767173E+02  0.7546771E-02  0.1440975E+00
         21   -1    0    0  502  501  0.00000000000E+00  0.00000000000E+00  0.65419015544E+03  0.65419015544E+03  0.00000000000E+00 0.  1.
         21   -1    0    0  503  502 -0.00000000000E+00 -0.00000000000E+00 -0.16342712782E+01  0.16342712782E+01  0.00000000000E+00 0. -1.
         21    1    1    2  503  504 -0.16992607150E+02 -0.21839779034E+02  0.15159480924E+03  0.15409967824E+03  0.00000000000E+00 0. -1.
         21    1    1    2  504  501  0.16992607150E+02  0.21839779034E+02  0.50096107492E+03  0.50172474847E+03  0.00000000000E+00 0.  1.
</event>
<event>
 4    1  0.1602044E+006  0.2335711E+02  0.7546771E-02  0.1488062E+00
         21   -1    0    0  504  501  0.00000000000E+00  0.00000000000E+00  0.43091396822E+01  0.43091396822E+01  0.00000000000E+00 0. -1.
         21   -1    0    0  503  502 -0.00000000000E+00 -0.00000000000E+00 -0.13091089212E+03  0.13091089212E+03  0.00000000000E+00 0. -1.
         21    1    1    2  503  501  0.21155726753E+02  0.98989823576E+01 -0.51037739637E+02  0.56128473108E+02  0.00000000000E+00 0. -1.
         21    1    1    2  504  502 -0.21155726753E+02 -0.98989823576E+01 -0.75564012805E+02  0.79091558699E+02  0.00000000000E+00 0. -1.
</event>
<event>
 4    1  0.1602044E+006  0.3095556E+02  0.7546771E-02  0.1411470E+00
         21   -1    0    0  503  501  0.00000000000E+00  0.00000000000E+00  0.96386915742E+02  0.96386915742E+02  0.00000000000E+00 0.  1.
         21   -1    0    0  504  502 -0.00000000000E+00 -0.00000000000E+00 -0.86487815594E+02  0.86487815594E+02  0.00000000000E+00 0.  1.
         21    1    1    2  503  502 -0.30755684889E+02 -0.35120292140E+01 -0.81072129277E+02  0.86780969387E+02  0.00000000000E+00 0.  1.
         21    1    1    2  504  501  0.30755684889E+02  0.35120292140E+01  0.90971229426E+02  0.96093761949E+02  0.00000000000E+00 0.  1.
</event>
<event>
 4    1  0.1602044E+006  0.2142887E+02  0.7546771E-02  0.1513229E+00
         21   -1    0    0  502  501  0.00000000000E+00  0.00000000000E+00  0.19180262102E+02  0.19180262102E+02  0.00000000000E+00 0. -1.
         21   -1    0    0  503  502 -0.00000000000E+00 -0.00000000000E+00 -0.27840597197E+02  0.27840597197E+02  0.00000000000E+00 0. -1.
         21    1    1    2  503  504 -0.18572861629E+02 -0.10688559214E+02 -0.13129016207E+02  0.25131007813E+02  0.00000000000E+00 0. -1.
         21    1    1    2  504  501  0.18572861629E+02  0.10688559214E+02  0.44686811123E+01  0.21889851485E+02  0.00000000000E+00 0. -1.
</event>
<event>
 4    1  0.1602044E+006  0.2562447E+02  0.7546771E-02  0.1461937E+00
         21   -1    0    0  503  501  0.00000000000E+00  0.00000000000E+00  0.28543698493E+02  0.28543698493E+02  0.00000000000E+00 0. -1.
         21   -1    0    0  501  502 -0.00000000000E+00 -0.00000000000E+00 -0.44005652309E+02  0.44005652309E+02  0.00000000000E+00 0. -1.
         21    1    1    2  503  504 -0.25482609736E+02 -0.26926401129E+01  0.17328848377E+02  0.30933843858E+02  0.00000000000E+00 0. -1.
         21    1    1    2  504  502  0.25482609736E+02  0.26926401129E+01 -0.32790802193E+02  0.41615506945E+02  0.00000000000E+00 0. -1.
</event>
<event>
 4    1  0.1602044E+006  0.2448392E+02  0.7546771E-02  0.1474660E+00
         21   -1    0    0  503  501  0.00000000000E+00  0.00000000000E+00  0.32613133944E+02  0.32613133944E+02  0.00000000000E+00 0. -1.
         21   -1    0    0  504  502 -0.00000000000E+00 -0.00000000000E+00 -0.33990097449E+02  0.33990097449E+02  0.00000000000E+00 0.  1.
         21    1    1    2  503  502 -0.97461242868E+00 -0.24464510221E+02 -0.23255695736E+02  0.33768173090E+02  0.00000000000E+00 0.  1.
         21    1    1    2  504  501  0.97461242868E+00  0.24464510221E+02  0.21878732231E+02  0.32835058303E+02  0.00000000000E+00 0. -1.
</event>
<event>
 4    1  0.1602044E+006  0.2296423E+02  0.7546771E-02  0.1492948E+00
         21   -1    0    0  504  501  0.00000000000E+00  0.00000000000E+00  0.11725288778E+03  0.11725288778E+03  0.00000000000E+00 0. -1.
         21   -1    0    0  503  502 -0.00000000000E+00 -0.00000000000E+00 -0.10722220585E+02  0.10722220585E+02  0.00000000000E+00 0. -1.
         21    1    1    2  503  501 -0.41193262177E+00  0.22960537243E+02  0.45113877050E+01  0.23403174528E+02  0.00000000000E+00 0. -1.
         21    1    1    2  504  502  0.41193262177E+00 -0.22960537243E+02  0.10201927949E+03  0.10457193384E+03  0.00000000000E+00 0. -1.
</event>
<event>
 4    1  0.1602044E+006  0.5202329E+02  0.7546771E-02  0.1289631E+00
         21   -1    0    0  502  501  0.00000000000E+00  0.00000000000E+00  0.27939888978E+02  0.27939888978E+02  0.00000000000E+00 0. -1.
         21   -1    0    0  504  502 -0.00000000000E+00 -0.00000000000E+00 -0.10768383884E+03  0.10768383884E+03  0.00000000000E+00 0. -1.
         21    1    1    2  503  501 -0.49642398869E+02 -0.15558126649E+02 -0.18378716414E+02  0.55174271969E+02  0.00000000000E+00 0. -1.
         21    1    1    2  504  503  0.49642398869E+02  0.15558126649E+02 -0.61365233447E+02  0.80449455848E+02  0.00000000000E+00 0. -1.
</event>
<event>
 4    1  0.1602044E+006  0.2034094E+02  0.7546771E-02  0.1528886E+00
         21   -1    0    0  502  501  0.00000000000E+00  0.00000000000E+00  0.22435891121E+03  0.22435891121E+03  0.00000000000E+00 0. -1.
         21   -1    0    0  503  502 -0.00000000000E+00 -0.00000000000E+00 -0.19728140497E+01  0.19728140497E+01  0.00000000000E+00 0. -1.
         21    1    1    2  503  504  0.19869743127E+02 -0.43528219059E+01  0.82293973956E+02  0.84770583930E+02  0.00000000000E+00 0. -1.
         21    1    1    2  504  501 -0.19869743127E+02  0.43528219059E+01  0.14009212320E+03  0.14156114133E+03  0.00000000000E+00 0. -1.
</event>
<event>
 4    1  0.1602044E+006  0.2158751E+02  0.7546771E-02  0.1511040E+00
         21   -1    0    0  504  501  0.00000000000E+00  0.00000000000E+00  0.31174630633E+02  0.31174630633E+02  0.00000000000E+00 0.  1.
         21   -1    0    0  503  502 -0.00000000000E+00 -0.00000000000E+00 -0.98559835914E+02  0.98559835914E+02  0.00000000000E+00 0.  1.
         21    1    1    2  503  501  0.66728406523E+00  0.21577192946E+02 -0.93438408565E+02  0.95899722203E+02  0.00000000000E+00 0.  1.
         21    1    1    2  504  502 -0.66728406523E+00 -0.21577192946E+02  0.26053203284E+02  0.33834744344E+02  0.00000000000E+00 0.  1.
</event>
<event>
 4    1  0.1602044E+006  0.2055965E+02  0.7546771E-02  0.1525646E+00
         21   -1    0    0  504  501  0.00000000000E+00  0.00000000000E+00  0.10183235884E+02  0.10183235884E+02  0.00000000000E+00 0.  1.
         21   -1    0    0  501  502 -0.00000000000E+00 -0.00000000000E+00 -0.84417642992E+02  0.84417642992E+02  0.00000000000E+00 0.  1.
         21    1    1    2  503  502 -0.12497212867E+02  0.16325411565E+02 -0.70839662759E+02  0.73762844386E+02  0.00000000000E+00 0.  1.
         21    1    1    2  504  503  0.12497212867E+02 -0.16325411565E+02 -0.33947443497E+01  0.20838034490E+02  0.00000000000E+00 0.  1.
</event>
<event>
 4    1  0.1602044E+006  0.2156080E+02  0.7546771E-02  0.1511407E+00
         21   -1    0    0  504  501  0.00000000000E+00  0.00000000000E+00  0.18159128944E+02  0.18159128944E+02  0.00000000000E+00 0. -1.
         21   -1    0    0  503  502 -0.00000000000E+00 -0.00000000000E+00 -0.44518530350E+02  0.44518530350E+02  0.00000000000E+00 0. -1.
         21    1    1    2  503  501 -0.93091419645E+01  0.19447569282E+02 -0.33609289164E+02  0.39930594701E+02  0.00000000000E+00 0. -1.
         21    1    1    2  504  502  0.93091419645E+01 -0.19447569282E+02  0.72498877573E+01  0.22747064593E+02  0.00000000000E+00 0. -1.
</event>
<event>
 4    1  0.1602044E+006  0.2819974E+02  0.7546771E-02  0.1435915E+00
         21   -1    0    0  503  501  0.00000000000E+00  0.00000000000E+00  0.13427539363E+02  0.13427539363E+02  0.00000000000E+00 0.  1.
         21   -1    0    0  504  502 -0.00000000000E+00 -0.00000000000E+00 -0.14471458648E+03  0.14471458648E+03  0.00000000000E+00 0.  1.
         21    1    1    2  503  502 -0.51920909274E+01  0.27717636828E+02 -0.12641810400E+03  0.12952514126E+03  0.00000000000E+00 0.  1.
         21    1    1    2  504  501  0.51920909274E+01 -0.27717636828E+02 -0.48689431183E+01  0.28616984583E+02  0.00000000000E+00 0.  1.
</event>
<event>
 4    1  0.1602044E+006  0.2264844E+02  0.7546771E-02  0.1496961E+00
         21   -1    0    0  504  501  0.00000000000E+00  0.00000000000E+00  0.19749549033E+01  0.19749549033E+01  0.00000000000E+00 0.  1.
         21   -1    0    0  503  502 -0.00000000000E+00 -0.00000000000E+00 -0.27478427482E+03  0.27478427482E+03  0.00000000000E+00 0.  1.
         21    1    1    2  503  501 -0.15766715910E+02 -0.16259228113E+02 -0.16879604552E+03  0.17030871032E+03  0.00000000000E+00 0.  1.
         21    1    1    2  504  502  0.15766715910E+02  0.16259228113E+02 -0.10401327440E+03  0.10645051940E+03  0.00000000000E+00 0.  1.
</event>
<event>
 4    1  0.1602044E+006  0.2108273E+02  0.7546771E-02  0.1518087E+00
         21   -1    0    0  503  501  0.00000000000E+00  0.00000000000E+00  0.71095499139E+03  0.71095499139E+03  0.00000000000E+00 0.  1.
         21   -1    0    0  504  502 -0.00000000000E+00 -0.00000000000E+00 -0.32133732029E+02  0.32133732029E+02  0.00000000000E+00 0. -1.
         21    1    1    2  503  502 -0.20732852823E+02 -0.38249638457E+01 -0.28501621120E+02  0.35451712808E+02  0.00000000000E+00 0. -1.
         21    1    1    2  504  501  0.20732852823E+02  0.38249638457E+01  0.70732288048E+03  0.70763701061E+03  0.00000000000E+00 0.  1.
</event>
<event>
 4    1  0.1602044E+006  0.2938901E+02  0.7546771E-02  0.1424981E+00
         21   -1    0    0  503  501  0.00000000000E+00  0.00000000000E+00  0.16642866064E+02  0.16642866064E+02  0.00000000000E+00 0. -1.
         21   -1    0    0  504  502 -0.00000000000E+00 -0.00000000000E+00 -0.59637569540E+02  0.59637569540E+02  0.00000000000E+00 0. -1.
         21    1    1    2  503  502  0.90741513615E+01  0.27953064952E+02 -0.77565860152E+01  0.30395372835E+02  0.00000000000E+00 0. -1.
         21    1    1    2  504  501 -0.90741513615E+01 -0.27953064952E+02 -0.35238117460E+02  0.45885062769E+02  0.00000000000E+00 0. -1.
</event>
<event>
 4    1  0.1602044E+006  0.2378714E+02  0.7546771E-02  0.1482844E+00
         21   -1    0    0  504  501  0.00000000000E+00  0.00000000000E+00  0.68896638446E+02  0.68896638446E+02  0.00000000000E+00 0.  1.
         21   -1    0    0  503  502 -0.00000000000E+00 -0.00000000000E+00 -0.15156800962E+03  0.15156800962E+03  0.00000000000E+00 0. -1.
         21    1    1    2  503  501 -0.19753176114E+02 -0.13252927680E+02  0.65868580382E+02  0.70032120775E+02  0.00000000000E+00 0.  1.
         21    1    1    2  504  502  0.19753176114E+02  0.13252927680E+02 -0.14853995156E+03  0.15043252729E+03  0.00000000000E+00 0. -1.
</event>
<event>
 4    1  0.1602044E+006  0.2170080E+02  0.7546771E-02  0.1509490E+00
         21   -1    0    0  503  501  0.00000000000E+00  0.00000000000E+00  0.11015854147E+03  0.11015854147E+03  0.00000000000E+00 0. -1.
         21   -1    0    0  501  502 -0.00000000000E+00 -0.00000000000E+00 -0.69677769923E+01  0.69677769923E+01  0.00000000000E+00 0. -1.
         21    1    1    2  503  504 -0.28160635948E+01  0.21517303637E+02  0.88001964328E+02  0.90638128266E+02  0.00000000000E+00 0. -1.
         21    1    1    2  504  502  0.28160635948E+01 -0.21517303637E+02  0.15188800153E+02  0.26488190200E+02  0.00000000000E+00 0. -1.
</event>
<event>
 4    1  0.1602044E+006  0.2097613E+02  0.7546771E-02  0.1519606E+00
         21   -1    0    0  504  501  0.00000000000E+00  0.00000000000E+00  0.10868453746E+03  0.10868453746E+03  0.00000000000E+00 0. -1.
         21   -1    0    0  503  502 -0.00000000000E+00 -0.00000000000E+00 -0.45875416036E+01  0.45875416036E+01  0.00000000000E+00 0. -1.
         21    1    1    2  503  501  0.12550771546E+02 -0.16807031944E+02  0.32632694138E+02  0.38792923528E+02  0.00000000000E+00 0. -1.
         21    1    1    2  504  502 -0.12550771546E+02  0.16807031944E+02  0.71464301714E+02  0.74479155531E+02  0.00000000000E+00 0. -1.
</event>
<event>
 4    1  0.1602044E+006  0.2369865E+02  0.7546771E-02  0.1483907E+00
         21   -1    0    0  503  501  0.00000000000E+00  0.00000000000E+00  0.54408201989E+03  0.54408201989E+03  0.00000000000E+00 0.  1.
         21   -1    0    0  501  502 -0.00000000000E+00 -0.00000000000E+00 -0.11101996138E+03  0.11101996138E+03  0.00000000000E+00 0. -1.
         21    1    1    2  503  504  0.17878337791E+02  0.15556068990E+02  0.54255570582E+03  0.54307303391E+03  0.00000000000E+00 0.  1.
         21    1    1    2  504  502 -0.17878337791E+02 -0.15556068990E+02 -0.10949364731E+03  0.11202894736E+03  0.00000000000E+00 0. -1.
</event>
<event>
 4    1  0.1602044E+006  0.4144572E+02  0.7546771E-02  0.1340216E+00
         21   -1    0    0  503  501  0.00000000000E+00  0.00000000000E+00  0.21302503183E+03  0.21302503183E+03  0.00000000000E+00 0. -1.
         21   -1    0    0  504  502 -0.00000000000E+00 -0.00000000000E+00 -0.87297358442E+01  0.87297358442E+01  0.00000000000E+00 0. -1.
         21    1    1    2  503  502 -0.40163537098E+02  0.10229266317E+02  0.71519169743E+02  0.82660384964E+02  0.00000000000E+00 0. -1.
         21    1    1    2  504  501  0.40163537098E+02 -0.10229266317E+02  0.13277612624E+03  0.13909438271E+03  0.00000000000E+00 0. -1.
</event>
<event>
 4    1  0.1602044E+006  0.2159623E+02  0.7546771E-02  0.1510920E+00
         21   -1    0    0  504  501  0.00000000000E+00  0.00000000000E+00  0.54352752161E+02  0.54352752161E+02  0.00000000000E+00 0. -1.
         21   -1    0    0  503  502 -0.00000000000E+00 -0.00000000000E+00 -0.71715483609E+02  0.71715483609E+02  0.00000000000E+00 0. -1.
         21    1    1    2  503  501  0.18392623214E+02 -0.11318503382E+02  0.50461555870E+02  0.54888666666E+02  0.00000000000E+00 0. -1.
         21    1    1    2  504  502 -0.18392623214E+02  0.11318503382E+02 -0.67824287319E+02  0.71179569104E+02  0.00000000000E+00 0. -1.
</event>
<event>
 4    1  0.1602044E+006  0.2318109E+02  0.7546771E-02  0.1490237E+00
         21   -1    0    0  502  501  0.00000000000E+00  0.00000000000E+00  0.47905840038E+02  0.47905840038E+02  0.00000000000E+00 0.  1.
         21   -1    0    0  503  502 -0.00000000000E+00 -0.00000000000E+00 -0.15259516363E+02  0.15259516363E+02  0.00000000000E+00 0.  1.
         21    1    1    2  503  504 -0.23045929992E+02 -0.24996361621E+01  0.67644120082E-01  0.23181191640E+02  0.00000000000E+00 0.  1.
         21    1    1    2  504  501  0.23045929992E+02  0.24996361621E+01  0.32578679555E+02  0.39984164762E+02  0.00000000000E+00 0.  1.
</event>
<event>
 4    1  0.1602044E+006  0.2192768E+02  0.7546771E-02  0.1506421E+00
         21   -1    0    0  503  501  0.00000000000E+00  0.00000000000E+00  0.14389157564E+03  0.14389157564E+03  0.00000000000E+00 0.  1.
         21   -1    0    0  504  502 -0.00000000000E+00 -0.00000000000E+00 -0.34414524193E+01  0.34414524193E+01  0.00000000000E+00 0.  1.
         21    1    1    2  503  502  0.16872230805E+02 -0.14005392543E+02  0.57674807460E+02  0.61702565653E+02  0.00000000000E+00 0.  1.
         21    1    1    2  504  501 -0.16872230805E+02  0.14005392543E+02  0.82775315763E+02  0.85630462408E+02  0.00000000000E+00 0.  1.
</event>
<event>
 4    1  0.1602044E+006  0.3487596E+02  0.7546771E-02  0.1381437E+00
         21   -1    0    0  503  501  0.00000000000E+00  0.00000000000E+00  0.23957712875E+02  0.23957712875E+02  0.00000000000E+00 0.  1.
         21   -1    0    0  501  502 -0.00000000000E+00 -0.00000000000E+00 -0.14653903823E+04  0.14653903823E+04  0.00000000000E+00 0.  1.
         21    1    1    2  503  504 -0.33240223667E+01  0.34717193894E+02  0.10943995036E+02  0.36552752344E+02  0.00000000000E+00 0.  1.
         21    1    1    2  504  502  0.33240223667E+01 -0.34717193894E+02 -0.14523766644E+04  0.14527953428E+04  0.00000000000E+00 0.  1.
</event>
<event>
 4    1  0.1602044E+006  0.2056682E+02  0.7546771E-02  0.1525540E+00
         21   -1    0    0  503  501  0.00000000000E+00  0.00000000000E+00  0.90813286624E+02  0.90813286624E+02  0.00000000000E+00 0. -1.
         21   -1    0    0  504  502 -0.00000000000E+00 -0.00000000000E+00 -0.49529412304E+01  0.49529412304E+01  0.00000000000E+00 0. -1.
         21    1    1    2  503  502 -0.15739908971E+02 -0.13238182987E+02  0.54617966649E+02  0.58361943971E+02  0.00000000000E+00 0. -1.
         21    1    1    2  504  501  0.15739908971E+02  0.13238182987E+02  0.31242378744E+02  0.37404283883E+02  0.00000000000E+00 0. -1.
</event>
<event>
 4    1  0.1602044E+006  0.2071741E+02  0.7546771E-02  0.1523338E+00
         21   -1    0    0  502  501  0.00000000000E+00  0.00000000000E+00  0.47446077588E+02  0.47446077588E+02  0.00000000000E+00 0.  1.
         21   -1    0    0  503  502 -0.00000000000E+00 -0.00000000000E+00 -0.61033615902E+02  0.61033615902E+02  0.00000000000E+00 0.  1.
         21    1    1    2  503  504  0.17177579063E+02  0.11581960374E+02 -0.56852823205E+02  0.60509954016E+02  0.00000000000E+00 0.  1.
         21    1    1    2  504  501 -0.17177579063E+02 -0.11581960374E+02  0.43265284891E+02  0.47969739475E+02  0.00000000000E+00 0.  1.
</event>
<event>
 4    1  0.1602044E+006  0.2160396E+02  0.7546771E-02  0.1510814E+00
         21   -1    0    0  503  501  0.00000000000E+00  0.00000000000E+00  0.68050374802E+01  0.68050374802E+01  0.00000000000E+00 0. -1.
         21   -1    0    0  504  502 -0.00000000000E+00 -0.00000000000E+00 -0.73434014464E+02  0.73434014464E+02  0.00000000000E+00 0.  1.
         21    1    1    2  503  502  0.17913614398E+02 -0.12076160892E+02 -0.23006286732E+02  0.31559792013E+02  0.00000000000E+00 0.  1.
         21    1    1    2  504  501 -0.17913614398E+02  0.12076160892E+02 -0.43622690252E+02  0.48679259931E+02  0.00000000000E+00 0. -1.
</event>
<event>
 4    1  0.1602044E+006  0.2537850E+02  0.7546771E-02  0.1464613E+00
         21   -1    0    0  503  501  0.00000000000E+00  0.00000000000E+00  0.72683630574E+02  0.72683630574E+02  0.00000000000E+00 0. -1.
         21   -1    0    0  504  502 -0.00000000000E+00 -0.00000000000E+00 -0.11056850744E+02  0.11056850744E+02  0.00000000000E+00 0. -1.
         21    1    1    2  503  502  0.18891945021E+02  0.16945868685E+02  0.12155346289E+02  0.28139305172E+02  0.00000000000E+00 0. -1.
         21    1    1    2  504  501 -0.18891945021E+02 -0.16945868685E+02  0.49471433541E+02  0.55601176145E+02  0.00000000000E+00 0. -1.
</event>
<event>
 4    1  0.1602044E+006  0.2054185E+02  0.7546771E-02  0.1525908E+00
         21   -1    0    0  503  501  0.00000000000E+00  0.00000000000E+00  0.50901616931E+03  0.50901616931E+03  0.00000000000E+00 0. -1.
         21   -1    0    0  501  502 -0.00000000000E+00 -0.00000000000E+00 -0.20880628575E+01  0.20880628575E+01  0.00000000000E+00 0. -1.
         21    1    1    2  503  504 -0.18678992822E+02  0.85476882687E+01  0.45190608228E+03  0.45237271685E+03  0.00000000000E+00 0. -1.
         21    1    1    2  504  502  0.18678992822E+02 -0.85476882687E+01  0.55022024171E+02  0.58731515318E+02  0.00000000000E+00 0. -1.
</event>
<event>
 4    1  0.1602044E+006  0.6156253E+02  0.7546771E-02  0.1254614E+00
         21   -1    0    0  503  501  0.00000000000E+00  0.00000000000E+00  0.92529166610E+03  0.92529166610E+03  0.00000000000E+00 0. -1.
         21   -1    0    0  504  502 -0.00000000000E+00 -0.00000000000E+00 -0.54056341546E+01  0.54056341546E+01  0.00000000000E+00 0. -1.
         21    1    1    2  503  502 -0.58138488783E+01 -0.61287394039E+02  0.23088845790E+03  0.23895486080E+03  0.00000000000E+00 0. -1.
         21    1    1    2  504  501  0.58138488783E+01  0.61287394039E+02  0.68899757405E+03  0.69174243946E+03  0.00000000000E+00 0. -1.
</event>
<event>
 4    1  0.1602044E+006  0.2509977E+02  0.7546771E-02  0.1467690E+00
         21   -1    0    0  503  501  0.00000000000E+00  0.00000000000E+00  0.30439206013E+02  0.30439206013E+02  0.00000000000E+00 0.  1.
         21   -1    0    0  504  502 -0.00000000000E+00 -0.00000000000E+00 -0.23801176242E+02  0.23801176242E+02  0.00000000000E+00 0.  1.
         21    1    1    2  503  502  0.11976008823E+02 -0.22058420220E+02 -0.64752151288E+01  0.25921556683E+02  0.00000000000E+00 0.  1.
         21    1    1    2  504  501 -0.11976008823E+02  0.22058420220E+02  0.13113244900E+02  0.28318825571E+02  0.00000000000E+00 0.  1.
</event>
<event>
 4    1  0.1602044E+006  0.2334071E+02  0.7546771E-02  0.1488264E+00
         21   -1    0    0  504  501  0.00000000000E+00  0.00000000000E+00  0.81989348322E+02  0.81989348322E+02  0.00000000000E+00 0. -1.
         21   -1    0    0  501  502 -0.00000000000E+00 -0.00000000000E+00 -0.15880861485E+02  0.15880861485E+02  0.00000000000E+00 0. -1.
         21    1    1    2  503  502 -0.23078063283E+02 -0.34916810196E+01 -0.42648350806E+01  0.23727150260E+02  0.00000000000E+00 0. -1.
         21    1    1    2  504  503  0.23078063283E+02  0.34916810196E+01  0.70373321918E+02  0.74143059547E+02  0.00000000000E+00 0. -1.
</event>
<event>
 4    1  0.1602044E+006  0.2859457E+02  0.7546771E-02  0.1432216E+00
         21   -1    0    0  504  501  0.00000000000E+00  0.00000000000E+00  0.22059342532E+01  0.22059342532E+01  0.00000000000E+00 0. -1.
         21   -1    0    0  503  502 -0.00000000000E+00 -0.00000000000E+00 -0.41239480779E+03  0.41239480779E+03  0.00000000000E+00 0. -1.
         21    1    1    2  503  501 -0.26876049928E+02 -0.97635744946E+01 -0.13914702584E+03  0.14205472272E+03  0.00000000000E+00 0. -1.
         21    1    1    2  504  502  0.26876049928E+02  0.97635744946E+01 -0.27104184769E+03  0.27254601932E+03  0.00000000000E+00 0. -1.
</event>
<event>
 4    1  0.1602044E+006  0.2801440E+02  0.7546771E-02  0.1437676E+00
         21   -1    0    0  502  501  0.00000000000E+00  0.00000000000E+00  0.17449201898E+03  0.17449201898E+03  0.00000000000E+00 0. -1.
         21   -1    0    0  503  502 -0.00000000000E+00 -0.00000000000E+00 -0.45365039462E+01  0.45365039462E+01  0.00000000000E+00 0. -1.
         21    1    1    2  503  504  0.41510649949E+01 -0.27705153307E+02  0.76695314532E+02  0.81651565395E+02  0.00000000000E+00 0. -1.
         21    1    1    2  504  501 -0.41510649949E+01  0.27705153307E+02  0.93260200505E+02  0.97376957534E+02  0.00000000000E+00 0. -1.
</event>
<event>
 4    1  0.1602044E+006  0.2050456E+02  0.7546771E-02  0.1526457E+00
         21   -1    0    0  503  501  0.00000000000E+00  0.00000000000E+00  0.47728131718E+03  0.47728131718E+03  0.00000000000E+00 0.  1.
         21   -1    0    0  504  502 -0.00000000000E+00 -0.00000000000E+00 -0.49902849718E+01  0.49902849718E+01  0.00000000000E+00 0.  1.
         21    1    1    2  503  502  0.15150056348E+02 -0.13817114190E+02  0.45496574289E+03  0.45542756181E+03  0.00000000000E+00 0.  1.
         21    1    1    2  504  501 -0.15150056348E+02  0.13817114190E+02  0.17325289315E+02  0.26844040339E+02  0.00000000000E+00 0.  1.
</event>
<event>
 4    1  0.1602044E+006  0.2325212E+02  0.7546771E-02  0.1489356E+00
         21   -1    0    0  504  501  0.00000000000E+00  0.00000000000E+00  0.98083903260E+03  0.98083903260E+03  0.00000000000E+00 0. -1.
         21   -1    0    0  503  502 -0.00000000000E+00 -0.00000000000E+00 -0.31671715304E+01  0.31671715304E+01  0.00000000000E+00 0. -1.
         21    1    1    2  503  501  0.21960176327E+02 -0.76427630398E+01  0.93597913447E+03  0.93626791109E+03  0.00000000000E+00 0. -1.
         21    1    1    2  504  502 -0.21960176327E+02  0.76427630398E+01  0.41692726596E+02  0.47738293039E+02  0.00000000000E+00 0. -1.
</event>
<event>
 4    1  0.1602044E+006  0.2082066E+02  0.7546771E-02  0.1521841E+00
         21   -1    0    0  504  501  0.00000000000E+00  0.00000000000E+00  0.23679330405E+03  0.23679330405E+03  0.00000000000E+00 0.  1.
         21   -1    0    0  503  502 -0.00000000000E+00 -0.00000000000E+00 -0.31163071412E+01  0.31163071412E+01  0.00000000000E+00 0. -1.
         21    1    1    2  503  501  0.49897890989E+01 -0.20213906659E+02  0.19388445780E+03  0.19499918717E+03  0.00000000000E+00 0.  1.
         21    1    1    2  504  502 -0.49897890989E+01  0.20213906659E+02  0.39792539105E+02  0.44910424025E+02  0.00000000000E+00 0. -1.
</event>
<event>
 4    1  0.1602044E+006  0.2386603E+02  0.7546771E-02  0.1481901E+00
         21   -1    0    0  503  501  0.00000000000E+00  0.00000000000E+00  0.98237308414E+03  0.98237308414E+03  0.00000000000E+00 0.  1.
         21   -1    0    0  504  502 -0.00000000000E+00 -0.00000000000E+00 -0.43447247169E+01  0.43447247169E+01  0.00000000000E+00 0.  1.
         21    1    1    2  503  502 -0.23654141217E+02 -0.31731320316E+01  0.94827517359E+03  0.94857545404E+03  0.00000000000E+00 0.  1.
         21    1    1    2  504  501  0.23654141217E+02  0.31731320316E+01  0.29753185832E+02  0.38142354814E+02  0.00000000000E+00 0.  1.
</event>
<event>
 4    1  0.1602044E+006  0.2155621E+02  0.7546771E-02  0.1511470E+00
         21   -1    0    0  503  501  0.00000000000E+00  0.00000000000E+00  0.68627646424E+01  0.68627646424E+01  0.00000000000E+00 0. -1.
         21   -1    0    0  504  502 -0.00000000000E+00 -0.00000000000E+00 -0.14236473264E+03  0.14236473264E+03  0.00000000000E+00 0.  1.
         21    1    1    2  503  502 -0.12140619104E+02  0.17812231214E+02 -0.13719171451E+02  0.25551631618E+02  0.00000000000E+00 0. -1.
         21    1    1    2  504  501  0.12140619104E+02 -0.17812231214E+02 -0.12178279655E+03  0.12367586566E+03  0.00000000000E+00 0.  1.
</event>
<event>
 4    1  0.1602044E+006  0.3323807E+02  0.7546771E-02  0.1393392E+00
         21   -1    0    0  502  501  0.00000000000E+00  0.00000000000E+00  0.88912405028E+01  0.88912405028E+01  0.00000000000E+00 0.  1.
         21   -1    0    0  504  502 -0.00000000000E+00 -0.00000000000E+00 -0.12432304886E+03  0.12432304886E+03  0.00000000000E+00 0.  1.
         21    1    1    2  503  501 -0.14961795681E+02  0.29680200013E+02 -0.59288941524E+02  0.67970200749E+02  0.00000000000E+00 0.  1.
         21    1    1    2  504  503  0.14961795681E+02 -0.29680200013E+02 -0.56142866837E+02  0.65244088618E+02  0.00000000000E+00 0.  1.
</event>
<event>
 4    1  0.1602044E+006  0.2614813E+02  0.7546771E-02  0.1456358E+00
         21   -1    0    0  503  501  0.00000000000E+00  0.00000000000E+00  0.77543330520E+02  0.77543330520E+02  0.00000000000E+00 0.  1.
         21   -1    0    0  504  502 -0.00000000000E+00 -0.00000000000E+00 -0.15524809791E+02  0.15524809791E+02  0.00000000000E+00 0.  1.
         21    1    1    2  503  502  0.18963957808E+02 -0.18002578481E+02  0.42219324798E+00  0.26151534847E+02  0.00000000000E+00 0.  1.
         21    1    1    2  504  501 -0.18963957808E+02  0.18002578481E+02  0.61596327481E+02  0.66916605465E+02  0.00000000000E+00 0.  1.
</event>
<event>
 4    1  0.1602044E+006  0.2385016E+02  0.7546771E-02  0.1482090E+00
         21   -1    0    0  504  501  0.00000000000E+00  0.00000000000E+00  0.85537527338E+01  0.85537527338E+01  0.00000000000E+00 0.  1.
         21   -1    0    0  503  502 -0.00000000000E+00 -0.00000000000E+00 -0.88650042799E+02  0.88650042799E+02  0.00000000000E+00 0.  1.
         21    1    1    2  503  501  0.19829938632E+02  0.13251561131E+02 -0.64341886814E+02  0.68620031604E+02  0.00000000000E+00 0.  1.
         21    1    1    2  504  502 -0.19829938632E+02 -0.13251561131E+02 -0.15754403252E+02  0.28583763929E+02  0.00000000000E+00 0.  1.
</event>
<event>
 4    1  0.1602044E+006  0.2288775E+02  0.7546771E-02  0.1493913E+00
         21   -1    0    0  504  501  0.00000000000E+00  0.00000000000E+00  0.22773873000E+03  0.22773873000E+03  0.00000000000E+00 0. -1.
         21   -1    0    0  501  502 -0.00000000000E+00 -0.00000000000E+00 -0.14634818350E+02  0.14634818350E+02  0.00000000000E+00 0.  1.
         21    1    1    2  503  502 -0.14080940041E+02 -0.18043729662E+02 -0.47042059732E+01  0.23366185106E+02  0.00000000000E+00 0.  1.
         21    1    1    2  504  503  0.14080940041E+02  0.18043729662E+02  0.21780811762E+03  0.21900736324E+03  0.00000000000E+00 0. -1.
</event>
<event>
 4    1  0.1602044E+006  0.2569078E+02  0.7546771E-02  0.1461222E+00
         21   -1    0    0  503  501  0.00000000000E+00  0.00000000000E+00  0.14757485871E+03  0.14757485871E+03  0.00000000000E+00 0. -1.
         21   -1    0    0  504  502 -0.00000000000E+00 -0.00000000000E+00 -0.13439827432E+02  0.13439827432E+02  0.00000000000E+00 0. -1.
         21    1    1    2  503  502  0.25182478494E+02  0.50851929562E+01  0.13282908287E+03  0.13529073015E+03  0.00000000000E+00 0. -1.
         21    1    1    2  504  501 -0.25182478494E+02 -0.50851929562E+01  0.13059484138E+01  0.25723955990E+02  0.00000000000E+00 0. -1.
</event>
<event>
 4    1  0.1602044E+006  0.2247582E+02  0.7546771E-02  0.1499187E+00
         21   -1    0    0  504  501  0.00000000000E+00  0.00000000000E+00  0.58792166537E+01  0.58792166537E+01  0.00000000000E+00 0. -1.
         21   -1    0    0  503  502 -0.00000000000E+00 -0.00000000000E+00 -0.90593190451E+02  0.90593190451E+02  0.00000000000E+00 0. -1.
         21    1    1    2  503  501  0.22253961613E+02  0.31501646774E+01 -0.31405488149E+02  0.38619516191E+02  0.00000000000E+00 0. -1.
         21    1    1    2  504  502 -0.22253961613E+02 -0.31501646774E+01 -0.53308485648E+02  0.57852890913E+02  0.00000000000E+00 0. -1.
</event>
<event>
 4    1  0.1602044E+006  0.2068615E+02  0.7546771E-02  0.1523793E+00
         21   -1    0    0  503  501  0.00000000000E+00  0.00000000000E+00  0.15195342298E+02  0.15195342298E+02  0.00000000000E+00 0. -1.
         21   -1    0    0  504  502 -0.00000000000E+00 -0.00000000000E+00 -0.28224528156E+02  0.28224528156E+02  0.00000000000E+00 0. -1.
         21    1    1    2  503  502  0.57650154614E+01 -0.19866590928E+02 -0.54850430431E+01  0.21400993798E+02  0.00000000000E+00 0. -1.
         21    1    1    2  504  501 -0.57650154614E+01  0.19866590928E+02 -0.75441428146E+01  0.22018876655E+02  0.00000000000E+00 0. -1.
</event>
<event>
 4    1  0.1602044E+006  0.2214437E+02  0.7546771E-02  0.1503531E+00
         21   -1    0    0  504  501  0.00000000000E+00  0.00000000000E+00  0.69971335949E+02  0.69971335949E+02  0.00000000000E+00 0.  1.
         21   -1    0    0  503  502 -0.00000000000E+00 -0.00000000000E+00 -0.10136672840E+02  0.10136672840E+02  0.00000000000E+00 0.  1.
         21    1    1    2  503  501  0.17782803589E+02 -0.13196408703E+02  0.52169084665E+02  0.56674391933E+02  0.00000000000E+00 0.  1.
         21    1    1    2  504  502 -0.17782803589E+02  0.13196408703E+02  0.76655784431E+01  0.23433616857E+02  0.00000000000E+00 0.  1.
</event>
<event>
 4    1  0.1602044E+006  0.2428272E+02  0.7546771E-02  0.1476990E+00
         21   -1    0    0  504  501  0.00000000000E+00  0.00000000000E+00  0.21232089786E+03  0.21232089786E+03  0.00000000000E+00 0.  1.
         21   -1    0    0  503  502 -0.00000000000E+00 -0.00000000000E+00 -0.37783762739E+01  0.37783762739E+01  0.00000000000E+00 0.  1.
         21    1    1    2  503  501 -0.10994161990E+02  0.21651298704E+02  0.48650950853E+02  0.54374307833E+02  0.00000000000E+00 0.  1.
         21    1    1    2  504  502  0.10994161990E+02 -0.21651298704E+02  0.15989157073E+03  0.16172496630E+03  0.00000000000E+00 0.  1.
</event>
<event>
 4    1  0.1602044E+006  0.2025280E+02  0.7546771E-02  0.1530206E+00
         21   -1    0    0  504  501  0.00000000000E+00  0.00000000000E+00  0.85985329365E+03  0.85985329365E+03  0.00000000000E+00 0.  1.
         21   -1    0    0  501  502 -0.00000000000E+00 -0.00000000000E+00 -0.14269606735E+01  0.14269606735E+01  0.00000000000E+00 0.  1.
         21    1    1    2  503  502  0.27926568937E+01 -0.20059340401E+02  0.77851497558E+02  0.80442723361E+02  0.00000000000E+00 0.  1.
         21    1    1    2  504  503 -0.27926568937E+01  0.20059340401E+02  0.78057483541E+03  0.78083753096E+03  0.00000000000E+00 0.  1.
</event>
<event>
 4    1  0.1602044E+006  0.2380275E+02  0.7546771E-02  0.1482657E+00
         21   -1    0    0  503  501  0.00000000000E+00  0.00000000000E+00  0.59353243896E+02  0.59353243896E+02  0.00000000000E+00 0.  1.
         21   -1    0    0  501  502 -0.00000000000E+00 -0.00000000000E+00 -0.80137685433E+02  0.80137685433E+02  0.00000000000E+00 0. -1.
         21    1    1    2  503  504 -0.62245896229E+01 -0.22974448827E+02  0.55067649552E+02  0.59991806457E+02  0.00000000000E+00 0.  1.
         21    1    1    2  504  502  0.62245896229E+01  0.22974448827E+02 -0.75852091088E+02  0.79499122871E+02  0.00000000000E+00 0. -1.
</event>
<event>
 4    1  0.1602044E+006  0.2147799E+02  0.7546771E-02  0.1512549E+00
         21   -1    0    0  504  501  0.00000000000E+00  0.00000000000E+00  0.25742778690E+02  0.25742778690E+02  0.00000000000E+00 0. -1.
         21   -1    0    0  503  502 -0.00000000000E+00 -0.00000000000E+00 -0.99285750070E+02  0.99285750070E+02  0.00000000000E+00 0. -1.
         21    1    1    2  503  501  0.45675759789E+01  0.20986693558E+02 -0.93363761419E+02  0.95802379945E+02  0.00000000000E+00 0. -1.
         21    1    1    2  504  502 -0.45675759789E+01 -0.20986693558E+02  0.19820790039E+02  0.29226148815E+02  0.00000000000E+00 0. -1.
</event>
<event>
 4    1  0.1602044E+006  0.2296752E+02  0.7546771E-02  0.1492906E+00
         21   -1    0    0  504  501  0.00000000000E+00  0.00000000000E+00  0.13570875359E+01  0.13570875359E+01  0.00000000000E+00 0.  1.
         21   -1    0    0  503  502 -0.00000000000E+00 -0.00000000000E+00 -0.12003193508E+04  0.12003193508E+04  0.00000000000E+00 0.  1.
         21    1    1    2  503  501  0.69561265475E+01  0.21888790011E+02 -0.10541625273E+03  0.10788926343E+03  0.00000000000E+00 0.  1.
         21    1    1    2  504  502 -0.69561265475E+01 -0.21888790011E+02 -0.10935460105E+04  0.10937871749E+04  0.00000000000E+00 0.  1.
</event>
<event>
 4    1  0.1602044E+006  0.2250618E+02  0.7546771E-02  0.1498794E+00
         21   -1    0    0  503  501  0.00000000000E+00  0.00000000000E+00  0.58719356584E+02  0.58719356584E+02  0.00000000000E+00 0.  1.
         21   -1    0    0  504  502 -0.00000000000E+00 -0.00000000000E+00 -0.29833046846E+02  0.29833046846E+02  0.00000000000E+00 0. -1.
         21    1    1    2  503  502 -0.19850448928E+02  0.10606024999E+02  0.51773245868E+02  0.56453494813E+02  0.00000000000E+00 0.  1.
         21    1    1    2  504  501  0.19850448928E+02 -0.10606024999E+02 -0.22886936131E+02  0.32098908616E+02  0.00000000000E+00 0. -1.
</event>
<event>
 4    1  0.1602044E+006  0.2352492E+02  0.7546771E-02  0.1486010E+00
         21   -1    0    0  503  501  0.00000000000E+00  0.00000000000E+00  0.40398414248E+03  0.40398414248E+03  0.00000000000E+00 0. -1.
         21   -1    0    0  504  502 -0.00000000000E+00 -0.00000000000E+00 -0.16614705416E+01  0.16614705416E+01  0.00000000000E+00 0. -1.
         21    1    1    2  503  502 -0.22877704362E+02 -0.54801768504E+01  0.28612539412E+03  0.28709086167E+03  0.00000000000E+00 0. -1.
         21    1    1    2  504  501  0.22877704362E+02  0.54801768504E+01  0.11619727782E+03  0.11855475135E+03  0.00000000000E+00 0. -1.
</event>
<event>
 4    1  0.1602044E+006  0.2538309E+02  0.7546771E-02  0.1464563E+00
         21   -1    0    0  504  501  0.00000000000E+00  0.00000000000E+00  0.42814965106E+02  0.42814965106E+02  0.00000000000E+00 0.  1.
         21   -1    0    0  503  502 -0.00000000000E+00 -0.00000000000E+00 -0.22309302962E+02  0.22309302962E+02  0.00000000000E+00 0.  1.
         21    1    1    2  503  501 -0.24136355006E+02  0.78573379276E+01  0.28829246399E+02  0.38411285324E+02  0.00000000000E+00 0.  1.
         21    1    1    2  504  502  0.24136355006E+02 -0.78573379276E+01 -0.83235842546E+01  0.26712982745E+02  0.00000000000E+00 0.  1.
</event>
<event>
 4    1  0.1602044E+006  0.2008084E+02  0.7546771E-02  0.1532804E+00
         21   -1    0    0  503  501  0.00000000000E+00  0.00000000000E+00  0.20473592305E+01  0.20473592305E+01  0.00000000000E+00 0. -1.
         21   -1    0    0  501  502 -0.00000000000E+00 -0.00000000000E+00 -0.11089153396E+04  0.11089153396E+04  0.00000000000E+00 0. -1.
         21    1    1    2  503  504  0.19885053673E+02 -0.27972547497E+01 -0.49692192070E+02  0.53596212053E+02  0.00000000000E+00 0. -1.
         21    1    1    2  504  502 -0.19885053673E+02  0.27972547497E+01 -0.10571757883E+04  0.10573664868E+04  0.00000000000E+00 0. -1.
</event>
<event>
 4    1  0.1602044E+006  0.2363356E+02  0.7546771E-02  0.1484692E+00
         21   -1    0    0  504  501  0.00000000000E+00  0.00000000000E+00  0.28212296049E+02  0.28212296049E+02  0.00000000000E+00 0.  1.
         21   -1    0    0  503  502 -0.00000000000E+00 -0.00000000000E+00 -0.21680921449E+02  0.21680921449E+02  0.00000000000E+00 0.  1.
         21    1    1    2  503  501 -0.23546072818E+02 -0.20316726515E+01 -0.40861535988E+01  0.23984200845E+02  0.00000000000E+00 0.  1.
         21    1    1    2  504  502  0.23546072818E+02  0.20316726515E+01  0.10617528198E+02  0.25909016654E+02  0.00000000000E+00 0.  1.
</event>
<event>
 4    1  0.1602044E+006  0.2640732E+02  0.7546771E-02  0.1453654E+00
         21   -1    0    0  504  501  0.00000000000E+00  0.00000000000E+00  0.34161818556E+03  0.34161818556E+03  0.00000000000E+00 0. -1.
         21   -1    0    0  501  502 -0.00000000000E+00 -0.00000000000E+00 -0.56398478383E+02  0.56398478383E+02  0.00000000000E+00 0.  1.
         21    1    1    2  503  502 -0.11831528300E+02  0.23608502625E+02 -0.52763802596E+02  0.59003095872E+02  0.00000000000E+00 0.  1.
         21    1    1    2  504  503  0.11831528300E+02 -0.23608502625E+02  0.33798350977E+03  0.33901356807E+03  0.00000000000E+00 0. -1.
</event>
<event>
 4    1  0.1602044E+006  0.2069774E+02  0.7546771E-02  0.1523624E+00
         21   -1    0    0  503  501  0.00000000000E+00  0.00000000000E+00  0.38962556357E+02  0.38962556357E+02  0.00000000000E+00 0. -1.
         21   -1    0    0  504  502 -0.00000000000E+00 -0.00000000000E+00 -0.79723365755E+02  0.79723365755E+02  0.00000000000E+00 0. -1.
         21    1    1    2  503  502 -0.14768486502E+02 -0.14501321679E+02  0.34718649965E+02  0.40420059122E+02  0.00000000000E+00 0. -1.
         21    1    1    2  504  501  0.14768486502E+02  0.14501321679E+02 -0.75479459363E+02  0.78265862991E+02  0.00000000000E+00 0. -1.
</event>
<event>
 4    1  0.1602044E+006  0.3286961E+02  0.7546771E-02  0.1396193E+00
         21   -1    0    0  502  501  0.00000000000E+00  0.00000000000E+00  0.25631493528E+03  0.25631493528E+03  0.00000000000E+00 0. -1.
         21   -1    0    0  503  502 -0.00000000000E+00 -0.00000000000E+00 -0.46016066970E+01  0.46016066970E+01  0.00000000000E+00 0. -1.
         21    1    1    2  503  504  0.24750004042E+02 -0.21629808270E+02  0.88051125075E+02  0.93986232678E+02  0.00000000000E+00 0. -1.
         21    1    1    2  504  501 -0.24750004042E+02  0.21629808270E+02  0.16366220351E+03  0.16693030930E+03  0.00000000000E+00 0. -1.
</event>
<event>
 4    1  0.1602044E+006  0.2390495E+02  0.7546771E-02  0.1481437E+00
         21   -1    0    0  504  501  0.00000000000E+00  0.00000000000E+00  0.14217505368E+02  0.14217505368E+02  0.00000000000E+00 0.  1.
         21   -1    0    0  501  502 -0.00000000000E+00 -0.00000000000E+00 -0.64306703144E+02  0.64306703144E+02  0.00000000000E+00 0.  1.
         21    1    1    2  503  502 -0.18902101235E+02  0.14634102813E+02 -0.49086898736E+02  0.54598260263E+02  0.00000000000E+00 0.  1.
         21    1    1    2  504  503  0.18902101235E+02 -0.14634102813E+02 -0.10022990398E+01  0.23925948249E+02  0.00000000000E+00 0.  1.
</event>
<event>
 4    1  0.1602044E+006  0.2420265E+02  0.7546771E-02  0.1477924E+00
         21   -1    0    0  504  501  0.00000000000E+00  0.00000000000E+00  0.93014844392E+01  0.93014844392E+01  0.00000000000E+00 0.  1.
         21   -1    0    0  501  502 -0.00000000000E+00 -0.00000000000E+00 -0.16193719926E+03  0.16193719926E+03  0.00000000000E+00 0.  1.
         21    1    1    2  503  502  0.18320519456E+02 -0.15815391744E+02 -0.14324951417E+03  0.14527970044E+03  0.00000000000E+00 0.  1.
         21    1    1    2  504  503 -0.18320519456E+02  0.15815391744E+02 -0.93862006448E+01  0.25958983256E+02  0.00000000000E+00 0.  1.
</event>
<event>
 4    1  0.1602044E+006  0.2026578E+02  0.7546771E-02  0.1530011E+00
         21   -1    0    0  503  501  0.00000000000E+00  0.00000000000E+00  0.78799464923E+02  0.78799464923E+02  0.00000000000E+00 0.  1.
         21   -1    0    0  504  502 -0.00000000000E+00 -0.00000000000E+00 -0.41689241865E+02  0.41689241865E+02  0.00000000000E+00 0.  1.
         21    1    1    2  503  502  0.10968691643E+02 -0.17040821366E+02 -0.37797678435E+02  0.42887833756E+02  0.00000000000E+00 0.  1.
         21    1    1    2  504  501 -0.10968691643E+02  0.17040821366E+02  0.74907901494E+02  0.77600873032E+02  0.00000000000E+00 0.  1.
</event>
<event>
 4    1  0.1602044E+006  0.2816116E+02  0.7546771E-02  0.1436280E+00
         21   -1    0    0  503  501  0.00000000000E+00  0.00000000000E+00  0.40615856128E+02  0.40615856128E+02  0.00000000000E+00 0.  1.
         21   -1    0    0  504  502 -0.00000000000E+00 -0.00000000000E+00 -0.36038157324E+02  0.36038157324E+02  0.00000000000E+00 0.  1.
         21    1    1    2  503  502 -0.24480568031E+02  0.13919518086E+02 -0.23654739871E+02  0.36777682271E+02  0.00000000000E+00 0.  1.
         21    1    1    2  504  501  0.24480568031E+02 -0.13919518086E+02  0.28232438676E+02  0.39876331181E+02  0.00000000000E+00 0.  1.
</event>
<event>
 4    1  0.1602044E+006  0.2077403E+02  0.7546771E-02  0.1522516E+00
         21   -1    0    0  504  501  0.00000000000E+00  0.00000000000E+00  0.24561257841E+02  0.24561257841E+02  0.00000000000E+00 0. -1.
         21   -1    0    0  503  502 -0.00000000000E+00 -0.00000000000E+00 -0.53195651391E+02  0.53195651391E+02  0.00000000000E+00 0.  1.
         21    1    1    2  503  501  0.13239336501E+02  0.16008760278E+02 -0.46133343885E+02  0.50594919257E+02  0.00000000000E+00 0.  1.
         21    1    1    2  504  502 -0.13239336501E+02 -0.16008760278E+02  0.17498950334E+02  0.27161989975E+02  0.00000000000E+00 0. -1.
</event>
<event>
 4    1  0.1602044E+006  0.4338781E+02  0.7546771E-02  0.1329701E+00
         21   -1    0    0  503  501  0.00000000000E+00  0.00000000000E+00  0.56637077278E+02  0.56637077278E+02  0.00000000000E+00 0.  1.
         21   -1    0    0  501  502 -0.00000000000E+00 -0.00000000000E+00 -0.34456783303E+02  0.34456783303E+02  0.00000000000E+00 0. -1.
         21    1    1    2  503  504 -0.38644254605E+02  0.19726227231E+02  0.19656328228E+02  0.47632695642E+02  0.00000000000E+00 0.  1.
         21    1    1    2  504  502  0.38644254605E+02 -0.19726227231E+02  0.25239657470E+01  0.43461164938E+02  0.00000000000E+00 0. -1.
</event>
<event>
 4    1  0.1602044E+006  0.3932171E+02  0.7546771E-02  0.1352507E+00
         21   -1    0    0  503  501  0.00000000000E+00  0.00000000000E+00  0.54140191280E+03  0.54140191280E+03  0.00000000000E+00 0.  1.
         21   -1    0    0  504  502 -0.00000000000E+00 -0.00000000000E+00 -0.36220989709E+01  0.36220989709E+01  0.00000000000E+00 0.  1.
         21    1    1    2  503  502  0.29329399951E+02  0.26191284483E+02  0.39422492054E+03  0.39618112658E+03  0.00000000000E+00 0.  1.
         21    1    1    2  504  501 -0.29329399951E+02 -0.26191284483E+02  0.14355489329E+03  0.14884288519E+03  0.00000000000E+00 0.  1.
</event>
<event>
 4    1  0.1602044E+006  0.2394965E+02  0.7546771E-02  0.1480906E+00
         21   -1    0    0  504  501  0.00000000000E+00  0.00000000000E+00  0.11794776923E+03  0.11794776923E+03  0.00000000000E+00 0.  1.
         21   -1    0    0  503  502 -0.00000000000E+00 -0.00000000000E+00 -0.16124128905E+03  0.16124128905E+03  0.00000000000E+00 0.  1.
         21    1    1    2  503  501 -0.78041568321E+01  0.22642459259E+02  0.11582656211E+03  0.11827670233E+03  0.00000000000E+00 0.  1.
         21    1    1    2  504  502  0.78041568321E+01 -0.22642459259E+02 -0.15912008193E+03  0.16091235595E+03  0.00000000000E+00 0.  1.
</event>
<event>
 4    1  0.1602044E+006  0.3084028E+02  0.7546771E-02  0.1412432E+00
         21   -1    0    0  502  501  0.00000000000E+00  0.00000000000E+00  0.57535485801E+03  0.57535485801E+03  0.00000000000E+00 0.  1.
         21   -1    0    0  503  502 -0.00000000000E+00 -0.00000000000E+00 -0.50675877176E+01  0.50675877176E+01  0.00000000000E+00 0.  1.
         21    1    1    2  503  504  0.56683863381E+01 -0.30314886242E+02  0.46924896141E+02  0.56152193273E+02  0.00000000000E+00 0.  1.
         21    1    1    2  504  501 -0.56683863381E+01  0.30314886242E+02  0.52336237415E+03  0.52427025246E+03  0.00000000000E+00 0.  1.
</event>
<event>
 4    1  0.1602044E+006  0.2284363E+02  0.7546771E-02  0.1494471E+00
         21   -1    0    0  503  501  0.00000000000E+00  0.00000000000E+00  0.74497024304E+02  0.74497024304E+02  0.00000000000E+00 0. -1.
         21   -1    0    0  501  502 -0.00000000000E+00 -0.00000000000E+00 -0.37713781635E+02  0.37713781635E+02  0.00000000000E+00 0. -1.
         21    1    1    2  503  504 -0.64327954325E+01 -0.21919177771E+02  0.69019284096E+02  0.72701394680E+02  0.00000000000E+00 0. -1.
         21    1    1    2  504  502  0.64327954325E+01  0.21919177771E+02 -0.32236041427E+02  0.39509411260E+02  0.00000000000E+00 0. -1.
</event>
<event>
 4    1  0.1602044E+006  0.2956668E+02  0.7546771E-02  0.1423400E+00
         21   -1    0    0  504  501  0.00000000000E+00  0.00000000000E+00  0.79227369942E+02  0.79227369942E+02  0.00000000000E+00 0. -1.
         21   -1    0    0  503  502 -0.00000000000E+00 -0.00000000000E+00 -0.39377970033E+02  0.39377970033E+02  0.00000000000E+00 0. -1.
         21    1    1    2  503  501 -0.25876161373E+02 -0.14304295674E+02 -0.30388104345E+02  0.42398413742E+02  0.00000000000E+00 0. -1.
         21    1    1    2  504  502  0.25876161373E+02  0.14304295674E+02  0.70237504254E+02  0.76206926233E+02  0.00000000000E+00 0. -1.
</event>
<event>
 4    1  0.1602044E+006  0.4916916E+02  0.7546771E-02  0.1301815E+00
         21   -1    0    0  504  501  0.00000000000E+00  0.00000000000E+00  0.16944719154E+03  0.16944719154E+03  0.00000000000E+00 0.  1.
         21   -1    0    0  503  502 -0.00000000000E+00 -0.00000000000E+00 -0.60827627128E+02  0.60827627128E+02  0.00000000000E+00 0. -1.
         21    1    1    2  503  501  0.32473684077E+02 -0.36919730744E+02 -0.46423404965E+02  0.67622031944E+02  0.00000000000E+00 0. -1.
         21    1    1    2  504  502 -0.32473684077E+02  0.36919730744E+02  0.15504296938E+03  0.16265278673E+03  0.00000000000E+00 0.  1.
</event>
<event>
 4    1  0.1602044E+006  0.2673185E+02  0.7546771E-02  0.1450320E+00
         21   -1    0    0  503  501  0.00000000000E+00  0.00000000000E+00  0.12273565730E+02  0.12273565730E+02  0.00000000000E+00 0. -1.
         21   -1    0    0  504  502 -0.00000000000E+00 -0.00000000000E+00 -0.61228978819E+02  0.61228978819E+02  0.00000000000E+00 0. -1.
         21    1    1    2  503  502 -0.12644121412E+02  0.23552456242E+02 -0.16333357775E+02  0.31326834783E+02  0.00000000000E+00 0. -1.
         21    1    1    2  504  501  0.12644121412E+02 -0.23552456242E+02 -0.32622055315E+02  0.42175709766E+02  0.00000000000E+00 0. -1.
</event>
<event>
 4    1  0.1602044E+006  0.2506865E+02  0.7546771E-02  0.1468037E+00
         21   -1    0    0  503  501  0.00000000000E+00  0.00000000000E+00  0.12739352203E+01  0.12739352203E+01  0.00000000000E+00 0.  1.
         21   -1    0    0  501  502 -0.00000000000E+00 -0.00000000000E+00 -0.73509273843E+03  0.73509273843E+03  0.00000000000E+00 0. -1.
         21    1    1    2  503  504 -0.11489976164E+02  0.22280426667E+02 -0.15574954315E+03  0.15775410346E+03  0.00000000000E+00 0.  1.
         21    1    1    2  504  502  0.11489976164E+02 -0.22280426667E+02 -0.57806926005E+03  0.57861257019E+03  0.00000000000E+00 0. -1.
</event>
<event>
 4    1  0.1602044E+006  0.2393400E+02  0.7546771E-02  0.1481092E+00
         21   -1    0    0  503  501  0.00000000000E+00  0.00000000000E+00  0.24550704886E+03  0.24550704886E+03  0.00000000000E+00 0.  1.
         21   -1    0    0  504  502 -0.00000000000E+00 -0.00000000000E+00 -0.11560037659E+02  0.11560037659E+02  0.00000000000E+00 0. -1.
         21    1    1    2  503  502  0.24112024440E+01 -0.23812229584E+02  0.23180511759E+03  0.23303744059E+03  0.00000000000E+00 0.  1.
         21    1    1    2  504  501 -0.24112024440E+01  0.23812229584E+02  0.21418936029E+01  0.24029645923E+02  0.00000000000E+00 0. -1.
</event>
<event>
 4    1  0.1602044E+006  0.2118808E+02  0.7546771E-02  0.1516596E+00
         21   -1    0    0  504  501  0.00000000000E+00  0.00000000000E+00  0.27632187826E+02  0.27632187826E+02  0.00000000000E+00 0.  1.
         21   -1    0    0  503  502 -0.00000000000E+00 -0.00000000000E+00 -0.56339918302E+02  0.56339918302E+02  0.00000000000E+00 0. -1.
         21    1    1    2  503  501 -0.24008238680E+00 -0.21186724269E+02 -0.49772498916E+02  0.54094700046E+02  0.00000000000E+00 0. -1.
         21    1    1    2  504  502  0.24008238680E+00  0.21186724269E+02  0.21064768439E+02  0.29877406082E+02  0.00000000000E+00 0.  1.
</event>
<event>
 4    1  0.1602044E+006  0.2549755E+02  0.7546771E-02  0.1463314E+00
         21   -1    0    0  502  501  0.00000000000E+00  0.00000000000E+00  0.30135434129E+03  0.30135434129E+03  0.00000000000E+00 0. -1.
         21   -1    0    0  503  502 -0.00000000000E+00 -0.00000000000E+00 -0.15179312548E+02  0.15179312548E+02  0.00000000000E+00 0.  1.
         21    1    1    2  503  504 -0.16736131794E+02  0.19236080742E+02 -0.35017510544E+01  0.25736883459E+02  0.00000000000E+00 0.  1.
         21    1    1    2  504  501  0.16736131794E+02 -0.19236080742E+02  0.28967677980E+03  0.29079677038E+03  0.00000000000E+00 0. -1.
</event>
<event>
 4    1  0.1602044E+006  0.2087554E+02  0.7546771E-02  0.1521049E+00
         21   -1    0    0  503  501  0.00000000000E+00  0.00000000000E+00  0.28395148758E+03  0.28395148758E+03  0.00000000000E+00 0. -1.
         21   -1    0    0  504  502 -0.00000000000E+00 -0.00000000000E+00 -0.28885989356E+02  0.28885989356E+02  0.00000000000E+00 0. -1.
         21    1    1    2  503  502  0.64037147782E+01  0.19869084952E+02 -0.24673975661E+02  0.32320166687E+02  0.00000000000E+00 0. -1.
         21    1    1    2  504  501 -0.64037147782E+01 -0.19869084952E+02  0.27973947389E+03  0.28051731025E+03  0.00000000000E+00 0. -1.
</event>
<event>
 4    1  0.1602044E+006  0.2343128E+02  0.7546771E-02  0.1487152E+00
         21   -1    0    0  504  501  0.00000000000E+00  0.00000000000E+00  0.60371871990E+02  0.60371871990E+02  0.00000000000E+00 0.  1.
         21   -1    0    0  503  502 -0.00000000000E+00 -0.00000000000E+00 -0.11451116183E+02  0.11451116183E+02  0.00000000000E+00 0. -1.
         21    1    1    2  503  501  0.22771421000E+02 -0.55215317620E+01  0.40753161613E+02  0.47008989659E+02  0.00000000000E+00 0.  1.
         21    1    1    2  504  502 -0.22771421000E+02  0.55215317620E+01  0.81675941941E+01  0.24813998514E+02  0.00000000000E+00 0. -1.
</event>
<event>
 4    1  0.1602044E+006  0.2114900E+02  0.7546771E-02  0.1517148E+00
         21   -1    0    0  504  501  0.00000000000E+00  0.00000000000E+00  0.23105899267E+02  0.23105899267E+02  0.00000000000E+00 0.  1.
         21   -1    0    0  501  502 -0.00000000000E+00 -0.00000000000E+00 -0.57518713072E+02  0.57518713072E+02  0.00000000000E+00 0.  1.
         21    1    1    2  503  502  0.15775959881E+02  0.14085429081E+02 -0.50041801063E+02  0.54327360291E+02  0.00000000000E+00 0.  1.
         21    1    1    2  504  503 -0.15775959881E+02 -0.14085429081E+02  0.15628987258E+02  0.26297252048E+02  0.00000000000E+00 0.  1.
</event>
<event>
 4    1  0.1602044E+006  0.2051000E+02  0.7546771E-02  0.1526377E+00
         21   -1    0    0  502  501  0.00000000000E+00  0.00000000000E+00  0.11728024190E+03  0.11728024190E+03  0.00000000000E+00 0.  1.
         21   -1    0    0  503  502 -0.00000000000E+00 -0.00000000000E+00 -0.14897975093E+02  0.14897975093E+02  0.00000000000E+00 0.  1.
         21    1    1    2  503  504  0.19515283165E+02  0.63098350448E+01 -0.63953040667E+01  0.21483952369E+02  0.00000000000E+00 0.  1.
         21    1    1    2  504  501 -0.19515283165E+02 -0.63098350448E+01  0.10877757087E+03  0.11069426462E+03  0.00000000000E+00 0.  1.
</event>
<event>
 4    1  0.1602044E+006  0.2296441E+02  0.7546771E-02  0.1492946E+00
         21   -1    0    0  502  501  0.00000000000E+00  0.00000000000E+00  0.56577860592E+02  0.56577860592E+02  0.00000000000E+00 0. -1.
         21   -1    0    0  503  502 -0.00000000000E+00 -0.00000000000E+00 -0.13649522243E+02  0.13649522243E+02  0.00000000000E+00 0. -1.
         21    1    1    2  503  504 -0.99387216496E+01 -0.20702318964E+02  0.16905642899E+01  0.23026554369E+02  0.00000000000E+00 0. -1.
         21    1    1    2  504  501  0.99387216496E+01  0.20702318964E+02  0.41237774059E+02  0.47200828465E+02  0.00000000000E+00 0. -1.
</event>
<event>
 4    1  0.1602044E+006  0.2764122E+02  0.7546771E-02  0.1441271E+00
         21   -1    0    0  502  501  0.00000000000E+00  0.00000000000E+00  0.30514052128E+03  0.30514052128E+03  0.00000000000E+00 0. -1.
         21   -1    0    0  504  502 -0.00000000000E+00 -0.00000000000E+00 -0.27523968147E+01  0.27523968147E+01  0.00000000000E+00 0. -1.
         21    1    1    2  503  501  0.23765479188E+02  0.14115212420E+02  0.19745201589E+03  0.19937737033E+03  0.00000000000E+00 0. -1.
         21    1    1    2  504  503 -0.23765479188E+02 -0.14115212420E+02  0.10493610858E+03  0.10851554776E+03  0.00000000000E+00 0. -1.
</event>
<event>
 4    1  0.1602044E+006  0.2157102E+02  0.7546771E-02  0.1511266E+00
         21   -1    0    0  504  501  0.00000000000E+00  0.00000000000E+00  0.42053984391E+02  0.42053984391E+02  0.00000000000E+00 0.  1.
         21   -1    0    0  503  502 -0.00000000000E+00 -0.00000000000E+00 -0.98847477221E+02  0.98847477221E+02  0.00000000000E+00 0.  1.
         21    1    1    2  503  501  0.13900430358E+02  0.16495062859E+02 -0.94787515376E+02  0.97211018583E+02  0.00000000000E+00 0.  1.
         21    1    1    2  504  502 -0.13900430358E+02 -0.16495062859E+02  0.37994022545E+02  0.43690443029E+02  0.00000000000E+00 0.  1.
</event>
<event>
 4    1  0.1602044E+006  0.2597466E+02  0.7546771E-02  0.1458189E+00
         21   -1    0    0  502  501  0.00000000000E+00  0.00000000000E+00  0.28288116554E+03  0.28288116554E+03  0.00000000000E+00 0. -1.
         21   -1    0    0  504  502 -0.00000000000E+00 -0.00000000000E+00 -0.37829004759E+01  0.37829004759E+01  0.00000000000E+00 0. -1.
         21    1    1    2  503  501 -0.25672618111E+02  0.39496063693E+01  0.22667815004E+03  0.22816149197E+03  0.00000000000E+00 0. -1.
         21    1    1    2  504  503  0.25672618111E+02 -0.39496063693E+01  0.52420115019E+02  0.58502574044E+02  0.00000000000E+00 0. -1.
</event>
<event>
 4    1  0.1602044E+006  0.2256957E+02  0.7546771E-02  0.1497975E+00
         21   -1    0    0  504  501  0.00000000000E+00  0.00000000000E+00  0.19763874294E+02  0.19763874294E+02  0.00000000000E+00 0.  1.
         21   -1    0    0  501  502 -0.00000000000E+00 -0.00000000000E+00 -0.22811982861E+03  0.22811982861E+03  0.00000000000E+00 0.  1.
         21    1    1    2  503  502  0.55505928844E+01 -0.21876386911E+02 -0.22090840086E+03  0.22205834134E+03  0.00000000000E+00 0.  1.
         21    1    1    2  504  503 -0.55505928844E+01  0.21876386911E+02  0.12552446549E+02  0.25825361566E+02  0.00000000000E+00 0.  1.
</event>
<event>
 4    1  0.1602044E+006  0.2255959E+02  0.7546771E-02  0.1498104E+00
         21   -1    0    0  502  501  0.00000000000E+00  0.00000000000E+00  0.14015468422E+03  0.14015468422E+03  0.00000000000E+00 0.  1.
         21   -1    0    0  503  502 -0.00000000000E+00 -0.00000000000E+00 -0.39188015648E+01  0.39188015648E+01  0.00000000000E+00 0. -1.
         21    1    1    2  503  504  0.20532414892E+02 -0.93463842286E+01  0.48604014972E+02  0.53584374876E+02  0.00000000000E+00 0. -1.
         21    1    1    2  504  501 -0.20532414892E+02  0.93463842286E+01  0.87631867687E+02  0.90489110913E+02  0.00000000000E+00 0.  1.
</event>
<event>
 4    1  0.1602044E+006  0.2435099E+02  0.7546771E-02  0.1476197E+00
         21   -1    0    0  504  501  0.00000000000E+00  0.00000000000E+00  0.90161889327E+02  0.90161889327E+02  0.00000000000E+00 0. -1.
         21   -1    0    0  501  502 -0.00000000000E+00 -0.00000000000E+00 -0.33158288536E+02  0.33158288536E+02  0.00000000000E+00 0.  1.
         21    1    1    2  503  502  0.19664837761E+02  0.14361917298E+02 -0.26705727949E+02  0.36140924420E+02  0.00000000000E+00 0.  1.
         21    1    1    2  504  503 -0.19664837761E+02 -0.14361917298E+02  0.83709328741E+02  0.87179253443E+02  0.00000000000E+00 0. -1.
</event>
<event>
 4    1  0.1602044E+006  0.2094942E+02  0.7546771E-02  0.1519988E+00
         21   -1    0    0  503  501  0.00000000000E+00  0.00000000000E+00  0.72458818336E+02  0.72458818336E+02  0.00000000000E+00 0.  1.
         21   -1    0    0  504  502 -0.00000000000E+00 -0.00000000000E+00 -0.10383443577E+02  0.10383443577E+02  0.00000000000E+00 0. -1.
         21    1    1    2  503  502  0.41874206099E+01 -0.20526654391E+02  0.57775154026E+02  0.61456053034E+02  0.00000000000E+00 0.  1.
         21    1    1    2  504  501 -0.41874206099E+01  0.20526654391E+02  0.43002207330E+01  0.21386208879E+02  0.00000000000E+00 0. -1.
</event>
<event>
 4    1  0.1602044E+006  0.2330202E+02  0.7546771E-02  0.1488740E+00
         21   -1    0    0  504  501  0.00000000000E+00  0.00000000000E+00  0.26919014961E+03  0.26919014961E+03  0.00000000000E+00 0.  1.
         21   -1    0    0  503  502 -0.00000000000E+00 -0.00000000000E+00 -0.28481917151E+01  0.28481917151E+01  0.00000000000E+00 0.  1.
         21    1    1    2  503  501  0.11306764729E+02  0.20375014117E+02  0.59696023497E+02  0.64082753922E+02  0.00000000000E+00 0.  1.
         21    1    1    2  504  502 -0.11306764729E+02 -0.20375014117E+02  0.20664593439E+03  0.20795558740E+03  0.00000000000E+00 0.  1.
</event>
<event>
 4    1  0.1602044E+006  0.2502937E+02  0.7546771E-02  0.1468475E+00
         21   -1    0    0  504  501  0.00000000000E+00  0.00000000000E+00  0.13566216974E+03  0.13566216974E+03  0.00000000000E+00 0.  1.
         21   -1    0    0  503  502 -0.00000000000E+00 -0.00000000000E+00 -0.12861273214E+02  0.12861273214E+02  0.00000000000E+00 0.  1.
         21    1    1    2  503  501  0.24096489195E+02 -0.67696735954E+01  0.19470758259E+01  0.25104987082E+02  0.00000000000E+00 0.  1.
         21    1    1    2  504  502 -0.24096489195E+02  0.67696735954E+01  0.12085382071E+03  0.12341845588E+03  0.00000000000E+00 0.  1.
</event>
<event>
 4    1  0.1602044E+006  0.2029709E+02  0.7546771E-02  0.1529542E+00
         21   -1    0    0  504  501  0.00000000000E+00  0.00000000000E+00  0.18250549955E+01  0.18250549955E+01  0.00000000000E+00 0. -1.
         21   -1    0    0  503  502 -0.00000000000E+00 -0.00000000000E+00 -0.22645531695E+03  0.22645531695E+03  0.00000000000E+00 0. -1.
         21    1    1    2  503  501  0.20577743884E+01  0.20192506006E+02 -0.10586050050E+03  0.10778876240E+03  0.00000000000E+00 0. -1.
         21    1    1    2  504  502 -0.20577743884E+01 -0.20192506006E+02 -0.11876976145E+03  0.12049160954E+03  0.00000000000E+00 0. -1.
</event>
<event>
 4    1  0.1602044E+006  0.2335528E+02  0.7546771E-02  0.1488084E+00
         21   -1    0    0  504  501  0.00000000000E+00  0.00000000000E+00  0.28646514576E+03  0.28646514576E+03  0.00000000000E+00 0. -1.
         21   -1    0    0  501  502 -0.00000000000E+00 -0.00000000000E+00 -0.19056367510E+01  0.19056367510E+01  0.00000000000E+00 0. -1.
         21    1    1    2  503  502  0.11096036573E+02  0.20551085413E+02  0.14632347699E+03  0.14817566959E+03  0.00000000000E+00 0. -1.
         21    1    1    2  504  503 -0.11096036573E+02 -0.20551085413E+02  0.13823603201E+03  0.14019511292E+03  0.00000000000E+00 0. -1.
</event>
<event>
 4    1  0.1602044E+006  0.3143688E+02  0.7546771E-02  0.1407508E+00
         21   -1    0    0  504  501  0.00000000000E+00  0.00000000000E+00  0.64845170226E+02  0.64845170226E+02  0.00000000000E+00 0.  1.
         21   -1    0    0  503  502 -0.00000000000E+00 -0.00000000000E+00 -0.34071169345E+02  0.34071169345E+02  0.00000000000E+00 0.  1.
         21    1    1    2  503  501  0.23866863362E+02 -0.20460949735E+02 -0.21381553016E+02  0.38019053646E+02  0.00000000000E+00 0.  1.
         21    1    1    2  504  502 -0.23866863362E+02  0.20460949735E+02  0.52155553897E+02  0.60897285925E+02  0.00000000000E+00 0.  1.
</event>
<event>
 4    1  0.1602044E+006  0.2359481E+02  0.7546771E-02  0.1485161E+00
         21   -1    0    0  502  501  0.00000000000E+00  0.00000000000E+00  0.86970542452E+02  0.86970542452E+02  0.00000000000E+00 0.  1.
         21   -1    0    0  503  502 -0.00000000000E+00 -0.00000000000E+00 -0.12234437526E+02  0.12234437526E+02  0.00000000000E+00 0.  1.
         21    1    1    2  503  504 -0.21043561630E+02  0.10671632476E+02  0.31175800400E+01  0.23799885106E+02  0.00000000000E+00 0.  1.
         21    1    1    2  504  501  0.21043561630E+02 -0.10671632476E+02  0.71618524886E+02  0.75405094872E+02  0.00000000000E+00 0.  1.
</event>
<event>
 4    1  0.1602044E+006  0.4220772E+02  0.7546771E-02  0.1336013E+00
         21   -1    0    0  502  501  0.00000000000E+00  0.00000000000E+00  0.16258885091E+02  0.16258885091E+02  0.00000000000E+00 0.  1.
         21   -1    0    0  504  502 -0.00000000000E+00 -0.00000000000E+00 -0.25390994672E+04  0.25390994672E+04  0.00000000000E+00 0. -1.
         21    1    1    2  503  501 -0.17379926839E+02 -0.38463353091E+02 -0.11613110489E+02  0.43776200419E+02  0.00000000000E+00 0.  1.
         21    1    1    2  504  503  0.17379926839E+02  0.38463353091E+02 -0.25112274716E+04  0.25115821519E+04  0.00000000000E+00 0. -1.
</event>
<event>
 4    1  0.1602044E+006  0.2983183E+02  0.7546771E-02  0.1421064E+00
         21   -1    0    0  503  501  0.00000000000E+00  0.00000000000E+00  0.41005214706E+02  0.41005214706E+02  0.00000000000E+00 0. -1.
         21   -1    0    0  501  502 -0.00000000000E+00 -0.00000000000E+00 -0.26465701598E+02  0.26465701598E+02  0.00000000000E+00 0. -1.
         21    1    1    2  503  504  0.18887559068E+02 -0.23091086755E+02  0.21580736354E+02  0.36819374746E+02  0.00000000000E+00 0. -1.
         21    1    1    2  504  502 -0.18887559068E+02  0.23091086755E+02 -0.70412232461E+01  0.30651541558E+02  0.00000000000E+00 0. -1.
</event>
<event>
 4    1  0.1602044E+006  0.2825411E+02  0.7546771E-02  0.1435401E+00
         21   -1    0    0  502  501  0.00000000000E+00  0.00000000000E+00  0.31342635307E+02  0.31342635307E+02  0.00000000000E+00 0. -1.
         21   -1    0    0  504  502 -0.00000000000E+00 -0.00000000000E+00 -0.30728997069E+03  0.30728997069E+03  0.00000000000E+00 0. -1.
         21    1    1    2  503  501 -0.25512769882E+02  0.12140562479E+02  0.24173931151E+02  0.37184319701E+02  0.00000000000E+00 0. -1.
         21    1    1    2  504  503  0.25512769882E+02 -0.12140562479E+02 -0.30012126654E+03  0.30144828630E+03  0.00000000000E+00 0. -1.
</event>
<event>
 4    1  0.1602044E+006  0.2317004E+02  0.7546771E-02  0.1490374E+00
         21   -1    0    0  502  501  0.00000000000E+00  0.00000000000E+00  0.18895216572E+03  0.18895216572E+03  0.00000000000E+00 0.  1.
         21   -1    0    0  504  502 -0.00000000000E+00 -0.00000000000E+00 -0.12475414617E+02  0.12475414617E+02  0.00000000000E+00 0. -1.
         21    1    1    2  503  501 -0.12155379390E+02  0.19725560095E+02  0.17674374011E+03  0.17825599748E+03  0.00000000000E+00 0.  1.
         21    1    1    2  504  503  0.12155379390E+02 -0.19725560095E+02 -0.26698900456E+00  0.23171582861E+02  0.00000000000E+00 0. -1.
</event>
<event>
 4    1  0.1602044E+006  0.2049242E+02  0.7546771E-02  0.1526637E+00
         21   -1    0    0  504  501  0.00000000000E+00  0.00000000000E+00  0.64796418562E+02  0.64796418562E+02  0.00000000000E+00 0.  1.
         21   -1    0    0  503  502 -0.00000000000E+00 -0.00000000000E+00 -0.24340436868E+03  0.24340436868E+03  0.00000000000E+00 0.  1.
         21    1    1    2  503  501  0.24794380268E+00  0.20490916516E+02  0.62731034034E+02  0.65993346383E+02  0.00000000000E+00 0.  1.
         21    1    1    2  504  502 -0.24794380268E+00 -0.20490916516E+02 -0.24133898415E+03  0.24220744086E+03  0.00000000000E+00 0.  1.
</event>
<event>
 4    1  0.1602044E+006  0.4368913E+02  0.7546771E-02  0.1328126E+00
         21   -1    0    0  503  501  0.00000000000E+00  0.00000000000E+00  0.56514545507E+03  0.56514545507E+03  0.00000000000E+00 0.  1.
         21   -1    0    0  504  502 -0.00000000000E+00 -0.00000000000E+00 -0.34520132990E+01  0.34520132990E+01  0.00000000000E+00 0. -1.
         21    1    1    2  503  502 -0.10420811277E+01 -0.43676704396E+02  0.23905856787E+03  0.24301798146E+03  0.00000000000E+00 0. -1.
         21    1    1    2  504  501  0.10420811277E+01  0.43676704396E+02  0.32263487390E+03  0.32557948691E+03  0.00000000000E+00 0.  1.
</event>
<event>
 4    1  0.1602044E+006  0.2611917E+02  0.7546771E-02  0.1456663E+00
         21   -1    0    0  504  501  0.00000000000E+00  0.00000000000E+00  0.67518255089E+01  0.67518255089E+01  0.00000000000E+00 0. -1.
         21   -1    0    0  503  502 -0.00000000000E+00 -0.00000000000E+00 -0.10345093015E+03  0.10345093015E+03  0.00000000000E+00 0. -1.
         21    1    1    2  503  501  0.25946737817E+02  0.29962930743E+01 -0.39939465126E+02  0.47721817339E+02  0.00000000000E+00 0. -1.
         21    1    1    2  504  502 -0.25946737817E+02 -0.29962930743E+01 -0.56759639510E+02  0.62480938316E+02  0.00000000000E+00 0. -1.
</event>
<event>
 4    1  0.1602044E+006  0.2207835E+02  0.7546771E-02  0.1504407E+00
         21   -1    0    0  503  501  0.00000000000E+00  0.00000000000E+00  0.55294135216E+02  0.55294135216E+02  0.00000000000E+00 0.  1.
         21   -1    0    0  504  502 -0.00000000000E+00 -0.00000000000E+00 -0.91293530375E+01  0.91293530375E+01  0.00000000000E+00 0.  1.
         21    1    1    2  503  502 -0.85303964905E+01  0.20363840193E+02  0.17111285571E+02  0.27932950893E+02  0.00000000000E+00 0.  1.
         21    1    1    2  504  501  0.85303964905E+01 -0.20363840193E+02  0.29053496608E+02  0.36490537360E+02  0.00000000000E+00 0.  1.
</event>
<event>
 4    1  0.1602044E+006  0.2222194E+02  0.7546771E-02  0.1502506E+00
         21   -1    0    0  503  501  0.00000000000E+00  0.00000000000E+00  0.94001097891E+02  0.94001097891E+02  0.00000000000E+00 0. -1.
         21   -1    0    0  504  502 -0.00000000000E+00 -0.00000000000E+00 -0.72761051958E+01  0.72761051958E+01  0.00000000000E+00 0. -1.
         21    1    1    2  503  502  0.19128604209E+02  0.11309779439E+02  0.70062467953E+02  0.73502136198E+02  0.00000000000E+00 0. -1.
         21    1    1    2  504  501 -0.19128604209E+02 -0.11309779439E+02  0.16662524742E+02  0.27775066889E+02  0.00000000000E+00 0. -1.
</event>
<event>
 4    1  0.1602044E+006  0.5605050E+02  0.7546771E-02  0.1273876E+00
         21   -1    0    0  502  501  0.00000000000E+00  0.00000000000E+00  0.22899010410E+02  0.22899010410E+02  0.00000000000E+00 0.  1.
         21   -1    0    0  503  502 -0.00000000000E+00 -0.00000000000E+00 -0.51130060624E+03  0.51130060624E+03  0.00000000000E+00 0.  1.
         21    1    1    2  503  504 -0.16054621877E+02 -0.53702024197E+02 -0.47267217902E+03  0.47598387273E+03  0.00000000000E+00 0.  1.
         21    1    1    2  504  501  0.16054621877E+02  0.53702024197E+02 -0.15729416814E+02  0.58215743917E+02  0.00000000000E+00 0.  1.
</event>
<event>
 4    1  0.1602044E+006  0.2056413E+02  0.7546771E-02  0.1525580E+00
         21   -1    0    0  503  501  0.00000000000E+00  0.00000000000E+00  0.21960412384E+02  0.21960412384E+02  0.00000000000E+00 0.  1.
         21   -1    0    0  501  502 -0.00000000000E+00 -0.00000000000E+00 -0.42267176540E+03  0.42267176540E+03  0.00000000000E+00 0.  1.
         21    1    1    2  503  504  0.47467177245E+01 -0.20008803388E+02  0.16837095645E+02  0.26577647224E+02  0.00000000000E+00 0.  1.
         21    1    1    2  504  502 -0.47467177245E+01  0.20008803388E+02 -0.41754844866E+03  0.41805453056E+03  0.00000000000E+00 0.  1.
</event>
<event>
 4    1  0.1602044E+006  0.2042087E+02  0.7546771E-02  0.1527696E+00
         21   -1    0    0  504  501  0.00000000000E+00  0.00000000000E+00  0.10857227704E+03  0.10857227704E+03  0.00000000000E+00 0. -1.
         21   -1    0    0  503  502 -0.00000000000E+00 -0.00000000000E+00 -0.90282315115E+01  0.90282315115E+01  0.00000000000E+00 0.  1.
         21    1    1    2  503  501 -0.51073917883E+01 -0.19771865970E+02  0.94342888201E+02  0.96527678356E+02  0.00000000000E+00 0. -1.
         21    1    1    2  504  502  0.51073917883E+01  0.19771865970E+02  0.52011573264E+01  0.21072830194E+02  0.00000000000E+00 0.  1.
</event>
<event>
 4    1  0.1602044E+006  0.2276843E+02  0.7546771E-02  0.1495427E+00
         21   -1    0    0  502  501  0.00000000000E+00  0.00000000000E+00  0.32909733021E+03  0.32909733021E+03  0.00000000000E+00 0. -1.
         21   -1    0    0  504  502 -0.00000000000E+00 -0.00000000000E+00 -0.55000861655E+01  0.55000861655E+01  0.00000000000E+00 0.  1.
         21    1    1    2  503  501  0.22729314742E+02  0.13340815596E+01  0.30312399107E+03  0.30397788650E+03  0.00000000000E+00 0. -1.
         21    1    1    2  504  503 -0.22729314742E+02 -0.13340815596E+01  0.20473252983E+02  0.30619529878E+02  0.00000000000E+00 0.  1.
</event>
<event>
 4    1  0.1602044E+006  0.2397488E+02  0.7546771E-02  0.1480606E+00
         21   -1    0    0  503  501  0.00000000000E+00  0.00000000000E+00  0.53787350326E+02  0.53787350326E+02  0.00000000000E+00 0.  1.
         21   -1    0    0  501  502 -0.00000000000E+00 -0.00000000000E+00 -0.21334364501E+02  0.21334364501E+02  0.00000000000E+00 0. -1.
         21    1    1    2  503  504  0.23510851955E+02 -0.46941079557E+01  0.42762055931E+02  0.49024363705E+02  0.00000000000E+00 0.  1.
         21    1    1    2  504  502 -0.23510851955E+02  0.46941079557E+01 -0.10309070106E+02  0.26097351122E+02  0.00000000000E+00 0. -1.
</event>
<event>
 4    1  0.1602044E+006  0.2099522E+02  0.7546771E-02  0.1519333E+00
         21   -1    0    0  503  501  0.00000000000E+00  0.00000000000E+00  0.14189842746E+01  0.14189842746E+01  0.00000000000E+00 0. -1.
         21   -1    0    0  504  502 -0.00000000000E+00 -0.00000000000E+00 -0.68114027354E+03  0.68114027354E+03  0.00000000000E+00 0.  1.
         21    1    1    2  503  502 -0.18962024088E+02  0.90133773531E+01 -0.88160275653E+02  0.90625788450E+02  0.00000000000E+00 0. -1.
         21    1    1    2  504  501  0.18962024088E+02 -0.90133773531E+01 -0.59156101361E+03  0.59193346936E+03  0.00000000000E+00 0.  1.
</event>
<event>
 4    1  0.1602044E+006  0.2672230E+02  0.7546771E-02  0.1450418E+00
         21   -1    0    0  504  501  0.00000000000E+00  0.00000000000E+00  0.10879229069E+03  0.10879229069E+03  0.00000000000E+00 0. -1.
         21   -1    0    0  503  502 -0.00000000000E+00 -0.00000000000E+00 -0.10047203940E+02  0.10047203940E+02  0.00000000000E+00 0. -1.
         21    1    1    2  503  501 -0.59431981179E+01 -0.26053013168E+02  0.14384819429E+02  0.30348049839E+02  0.00000000000E+00 0. -1.
         21    1    1    2  504  502  0.59431981179E+01  0.26053013168E+02  0.84360267316E+02  0.88491444787E+02  0.00000000000E+00 0. -1.
</event>
<event>
 4    1  0.1602044E+006  0.3170778E+02  0.7546771E-02  0.1405314E+00
         21   -1    0    0  503  501  0.00000000000E+00  0.00000000000E+00  0.35433158006E+02  0.35433158006E+02  0.00000000000E+00 0. -1.
         21   -1    0    0  504  502 -0.00000000000E+00 -0.00000000000E+00 -0.28407755397E+02  0.28407755397E+02  0.00000000000E+00 0. -1.
         21    1    1    2  503  502  0.20886806910E+02  0.23856329340E+02  0.24136282653E+01  0.31799508704E+02  0.00000000000E+00 0. -1.
         21    1    1    2  504  501 -0.20886806910E+02 -0.23856329340E+02  0.46117743441E+01  0.32041404698E+02  0.00000000000E+00 0. -1.
</event>
<event>
 4    1  0.1602044E+006  0.2032705E+02  0.7546771E-02  0.1529094E+00
         21   -1    0    0  504  501  0.00000000000E+00  0.00000000000E+00  0.27845459611E+02  0.27845459611E+02  0.00000000000E+00 0. -1.
         21   -1    0    0  503  502 -0.00000000000E+00 -0.00000000000E+00 -0.20941938118E+02  0.20941938118E+02  0.00000000000E+00 0.  1.
         21    1    1    2  503  501  0.12963259241E+02 -0.15657033845E+02 -0.97171984674E+01  0.22530262871E+02  0.00000000000E+00 0.  1.
         21    1    1    2  504  502 -0.12963259241E+02  0.15657033845E+02  0.16620719960E+02  0.26257134858E+02  0.00000000000E+00 0. -1.
</event>
<event>
 4    1  0.1602044E+006  0.2060976E+02  0.7546771E-02  0.1524910E+00
         21   -1    0    0  504  501  0.00000000000E+00  0.00000000000E+00  0.19978503693E+01  0.19978503693E+01  0.00000000000E+00 0. -1.
         21   -1    0    0  503  502 -0.00000000000E+00 -0.00000000000E+00 -0.24350243910E+03  0.24350243910E+03  0.00000000000E+00 0. -1.
         21    1    1    2  503  501  0.62546878684E+01  0.19637750886E+02 -0.77030445440E+02  0.79739901586E+02  0.00000000000E+00 0. -1.
         21    1    1    2  504  502 -0.62546878684E+01 -0.19637750886E+02 -0.16447414329E+03  0.16576038788E+03  0.00000000000E+00 0. -1.
</event>
<event>
 4    1  0.1602044E+006  0.2977280E+02  0.7546771E-02  0.1421581E+00
         21   -1    0    0  504  501  0.00000000000E+00  0.00000000000E+00  0.31926282139E+03  0.31926282139E+03  0.00000000000E+00 0.  1.
         21   -1    0    0  503  502 -0.00000000000E+00 -0.00000000000E+00 -0.93012405420E+01  0.93012405420E+01  0.00000000000E+00 0.  1.
         21    1    1    2  503  501 -0.28407065560E+02 -0.89139250101E+01  0.29257580105E+03  0.29408675386E+03  0.00000000000E+00 0.  1.
         21    1    1    2  504  502  0.28407065560E+02  0.89139250101E+01  0.17385779792E+02  0.34477308071E+02  0.00000000000E+00 0.  1.
</event>
<event>
 4    1  0.1602044E+006  0.3840828E+02  0.7546771E-02  0.1358074E+00
         21   -1    0    0  503  501  0.00000000000E+00  0.00000000000E+00  0.78249689083E+02  0.78249689083E+02  0.00000000000E+00 0.  1.
         21   -1    0    0  501  502 -0.00000000000E+00 -0.00000000000E+00 -0.22305804956E+02  0.22305804956E+02  0.00000000000E+00 0.  1.
         21    1    1    2  503  504 -0.27671579560E+02 -0.26636059043E+02  0.47754816395E+02  0.61283916696E+02  0.00000000000E+00 0.  1.
         21    1    1    2  504  502  0.27671579560E+02  0.26636059043E+02  0.81890677316E+01  0.39271577343E+02  0.00000000000E+00 0.  1.
</event>
<event>
 4    1  0.1602044E+006  0.2534841E+02  0.7546771E-02  0.1464943E+00
         21   -1    0    0  504  501  0.00000000000E+00  0.00000000000E+00  0.85260065365E+02  0.85260065365E+02  0.00000000000E+00 0. -1.
         21   -1    0    0  501  502 -0.00000000000E+00 -0.00000000000E+00 -0.47048044359E+03  0.47048044359E+03  0.00000000000E+00 0.  1.
         21    1    1    2  503  502 -0.20756877613E+02 -0.14549700614E+02 -0.46824596664E+03  0.46893158033E+03  0.00000000000E+00 0.  1.
         21    1    1    2  504  503  0.20756877613E+02  0.14549700614E+02  0.83025588418E+02  0.86808928622E+02  0.00000000000E+00 0. -1.
</event>
<event>
 4    1  0.1602044E+006  0.2821023E+02  0.7546771E-02  0.1435816E+00
         21   -1    0    0  503  501  0.00000000000E+00  0.00000000000E+00  0.15840559678E+01  0.15840559678E+01  0.00000000000E+00 0. -1.
         21   -1    0    0  504  502 -0.00000000000E+00 -0.00000000000E+00 -0.51294187297E+03  0.51294187297E+03  0.00000000000E+00 0. -1.
         21    1    1    2  503  502 -0.35916213885E+01 -0.27980656928E+02 -0.21878381459E+03  0.22059504626E+03  0.00000000000E+00 0. -1.
         21    1    1    2  504  501  0.35916213885E+01  0.27980656928E+02 -0.29257400241E+03  0.29393088268E+03  0.00000000000E+00 0. -1.
</event>
<event>
 4    1  0.1602044E+006  0.2490937E+02  0.7546771E-02  0.1469820E+00
         21   -1    0    0  504  501  0.00000000000E+00  0.00000000000E+00  0.16574618957E+03  0.16574618957E+03  0.00000000000E+00 0.  1.
         21   -1    0    0  503  502 -0.00000000000E+00 -0.00000000000E+00 -0.26297682771E+03  0.26297682771E+03  0.00000000000E+00 0.  1.
         21    1    1    2  503  501 -0.63282248202E+01 -0.24092122185E+02 -0.26144561616E+03  0.26262956230E+03  0.00000000000E+00 0.  1.
         21    1    1    2  504  502  0.63282248202E+01  0.24092122185E+02  0.16421497802E+03  0.16609345498E+03  0.00000000000E+00 0.  1.
</event>
<event>
 4    1  0.1602044E+006  0.2508817E+02  0.7546771E-02  0.1467819E+00
         21   -1    0    0  503  501  0.00000000000E+00  0.00000000000E+00  0.27769069876E+02  0.27769069876E+02  0.00000000000E+00 0.  1.
         21   -1    0    0  501  502 -0.00000000000E+00 -0.00000000000E+00 -0.12305990663E+03  0.12305990663E+03  0.00000000000E+00 0. -1.
         21    1    1    2  503  504  0.11073321648E+02 -0.22512172577E+02  0.20470712323E+02  0.32380031338E+02  0.00000000000E+00 0.  1.
         21    1    1    2  504  502 -0.11073321648E+02  0.22512172577E+02 -0.11576154908E+03  0.11844894517E+03  0.00000000000E+00 0. -1.
</event>
<event>
 4    1  0.1602044E+006  0.4001647E+02  0.7546771E-02  0.1348389E+00
         21   -1    0    0  504  501  0.00000000000E+00  0.00000000000E+00  0.12804478585E+03  0.12804478585E+03  0.00000000000E+00 0.  1.
         21   -1    0    0  501  502 -0.00000000000E+00 -0.00000000000E+00 -0.10181284137E+03  0.10181284137E+03  0.00000000000E+00 0. -1.
         21    1    1    2  503  502  0.27750902904E+02  0.28830627897E+02 -0.94523164571E+02  0.10264475806E+03  0.00000000000E+00 0. -1.
         21    1    1    2  504  503 -0.27750902904E+02 -0.28830627897E+02  0.12075510905E+03  0.12721286915E+03  0.00000000000E+00 0.  1.
</event>
<event>
 4    1  0.1602044E+006  0.2367256E+02  0.7546771E-02  0.1484221E+00
         21   -1    0    0  504  501  0.00000000000E+00  0.00000000000E+00  0.22819750887E+03  0.22819750887E+03  0.00000000000E+00 0.  1.
         21   -1    0    0  503  502 -0.00000000000E+00 -0.00000000000E+00 -0.49440536209E+01  0.49440536209E+01  0.00000000000E+00 0. -1.
         21    1    1    2  503  501  0.19969312894E+02  0.12712858689E+02  0.19432606396E+03  0.19576263527E+03  0.00000000000E+00 0.  1.
         21    1    1    2  504  502 -0.19969312894E+02 -0.12712858689E+02  0.28927391293E+02  0.37378927226E+02  0.00000000000E+00 0. -1.
</event>
<event>
 4    1  0.1602044E+006  0.3175170E+02  0.7546771E-02  0.1404961E+00
         21   -1    0    0  504  501  0.00000000000E+00  0.00000000000E+00  0.61004217412E+02  0.61004217412E+02  0.00000000000E+00 0.  1.
         21   -1    0    0  503  502 -0.00000000000E+00 -0.00000000000E+00 -0.28196934306E+03  0.28196934306E+03  0.00000000000E+00 0. -1.
         21    1    1    2  503  501  0.26964343449E+02 -0.16765879966E+02  0.55902915690E+02  0.64290796630E+02  0.00000000000E+00 0.  1.
         21    1    1    2  504  502 -0.26964343449E+02  0.16765879966E+02 -0.27686804134E+03  0.27868276384E+03  0.00000000000E+00 0. -1.
</event>
<event>
 4    1  0.1602044E+006  0.2777411E+02  0.7546771E-02  0.1439983E+00
         21   -1    0    0  503  501  0.00000000000E+00  0.00000000000E+00  0.21001581751E+02  0.21001581751E+02  0.00000000000E+00 0.  1.
         21   -1    0    0  504  502 -0.00000000000E+00 -0.00000000000E+00 -0.57052988229E+02  0.57052988229E+02  0.00000000000E+00 0.  1.
         21    1    1    2  503  502 -0.73584677583E+00  0.27764363742E+02 -0.41318207026E+02  0.49785495843E+02  0.00000000000E+00 0.  1.
         21    1    1    2  504  501  0.73584677583E+00 -0.27764363742E+02  0.52668005489E+01  0.28269074136E+02  0.00000000000E+00 0.  1.
</event>
<event>
 4    1  0.1602044E+006  0.2141891E+02  0.7546771E-02  0.1513367E+00
         21   -1    0    0  502  501  0.00000000000E+00  0.00000000000E+00  0.29473126592E+02  0.29473126592E+02  0.00000000000E+00 0.  1.
         21   -1    0    0  504  502 -0.00000000000E+00 -0.00000000000E+00 -0.17578751369E+02  0.17578751369E+02  0.00000000000E+00 0.  1.
         21    1    1    2  503  501  0.20487994529E+02  0.62459496385E+01  0.13908424180E+02  0.25538482137E+02  0.00000000000E+00 0.  1.
         21    1    1    2  504  503 -0.20487994529E+02 -0.62459496385E+01 -0.20140489564E+01  0.21513395824E+02  0.00000000000E+00 0.  1.
</event>
<event>
 4    1  0.1602044E+006  0.4547747E+02  0.7546771E-02  0.1319069E+00
         21   -1    0    0  504  501  0.00000000000E+00  0.00000000000E+00  0.81624398548E+01  0.81624398548E+01  0.00000000000E+00 0. -1.
         21   -1    0    0  503  502 -0.00000000000E+00 -0.00000000000E+00 -0.70895750705E+03  0.70895750705E+03  0.00000000000E+00 0. -1.
         21    1    1    2  503  501 -0.43911850436E+02 -0.11830023707E+02 -0.62967080633E+02  0.77672732108E+02  0.00000000000E+00 0. -1.
         21    1    1    2  504  502  0.43911850436E+02  0.11830023707E+02 -0.63782798656E+03  0.63944721480E+03  0.00000000000E+00 0. -1.
</event>
<event>
 4    1  0.1602044E+006  0.2001857E+02  0.7546771E-02  0.1533752E+00
         21   -1    0    0  503  501  0.00000000000E+00  0.00000000000E+00  0.35353116986E+02  0.35353116986E+02  0.00000000000E+00 0. -1.
         21   -1    0    0  504  502 -0.00000000000E+00 -0.00000000000E+00 -0.44267257665E+02  0.44267257665E+02  0.00000000000E+00 0.  1.
         21    1    1    2  503  502  0.11139985678E+02  0.16632610117E+02 -0.38793946993E+02  0.43654476558E+02  0.00000000000E+00 0.  1.
         21    1    1    2  504  501 -0.11139985678E+02 -0.16632610117E+02  0.29879806315E+02  0.35965898093E+02  0.00000000000E+00 0. -1.
</event>
<event>
 4    1  0.1602044E+006  0.2306595E+02  0.7546771E-02  0.1491672E+00
         21   -1    0    0  503  501  0.00000000000E+00  0.00000000000E+00  0.28531662216E+03  0.28531662216E+03  0.00000000000E+00 0. -1.
         21   -1    0    0  501  502 -0.00000000000E+00 -0.00000000000E+00 -0.43598198921E+02  0.43598198921E+02  0.00000000000E+00 0. -1.
         21    1    1    2  503  504  0.20212981838E+02  0.11111853083E+02  0.28176120560E+03  0.28270375819E+03  0.00000000000E+00 0. -1.
         21    1    1    2  504  502 -0.20212981838E+02 -0.11111853083E+02 -0.40042782364E+02  0.46211062887E+02  0.00000000000E+00 0. -1.
</event>
<event>
 4    1  0.1602044E+006  0.2326884E+02  0.7546771E-02  0.1489150E+00
         21   -1    0    0  504  501  0.00000000000E+00  0.00000000000E+00  0.92405125082E+02  0.92405125082E+02  0.00000000000E+00 0. -1.
         21   -1    0    0  501  502 -0.00000000000E+00 -0.00000000000E+00 -0.16929034012E+02  0.16929034012E+02  0.00000000000E+00 0. -1.
         21    1    1    2  503  502 -0.23036155811E+02  0.32824142304E+01 -0.64674627621E+01  0.24150917007E+02  0.00000000000E+00 0. -1.
         21    1    1    2  504  503  0.23036155811E+02 -0.32824142304E+01  0.81943553833E+02  0.85183242087E+02  0.00000000000E+00 0. -1.
</event>
<event>
 4    1  0.1602044E+006  0.2474304E+02  0.7546771E-02  0.1471699E+00
         21   -1    0    0  502  501  0.00000000000E+00  0.00000000000E+00  0.22552477784E+03  0.22552477784E+03  0.00000000000E+00 0.  1.
         21   -1    0    0  504  502 -0.00000000000E+00 -0.00000000000E+00 -0.65941674155E+02  0.65941674155E+02  0.00000000000E+00 0. -1.
         21    1    1    2  503  501 -0.20581945535E+02 -0.13733219610E+02  0.22249353587E+03  0.22386511856E+03  0.00000000000E+00 0.  1.
         21    1    1    2  504  503  0.20581945535E+02  0.13733219610E+02 -0.62910432193E+02  0.67601333430E+02  0.00000000000E+00 0. -1.
</event>
<event>
 4    1  0.1602044E+006  0.2346635E+02  0.7546771E-02  0.1486724E+00
         21   -1    0    0  504  501  0.00000000000E+00  0.00000000000E+00  0.65152141983E+03  0.65152141983E+03  0.00000000000E+00 0. -1.
         21   -1    0    0  503  502 -0.00000000000E+00 -0.00000000000E+00 -0.13633941300E+01  0.13633941300E+01  0.00000000000E+00 0. -1.
         21    1    1    2  503  501 -0.16554046644E+02 -0.16632288441E+02  0.52633082825E+03  0.52685368960E+03  0.00000000000E+00 0. -1.
         21    1    1    2  504  502  0.16554046644E+02  0.16632288441E+02  0.12382719745E+03  0.12603112436E+03  0.00000000000E+00 0. -1.
</event>
<event>
 4    1  0.1602044E+006  0.2155431E+02  0.7546771E-02  0.1511496E+00
         21   -1    0    0  504  501  0.00000000000E+00  0.00000000000E+00  0.60661731657E+01  0.60661731657E+01  0.00000000000E+00 0. -1.
         21   -1    0    0  501  502 -0.00000000000E+00 -0.00000000000E+00 -0.52248446766E+03  0.52248446766E+03  0.00000000000E+00 0.  1.
         21    1    1    2  503  502  0.21311764283E+02 -0.32244117138E+01 -0.50234837667E+03  0.50281058031E+03  0.00000000000E+00 0.  1.
         21    1    1    2  504  503 -0.21311764283E+02  0.32244117138E+01 -0.14069917821E+02  0.25740060514E+02  0.00000000000E+00 0. -1.
</event>
<event>
 4    1  0.1602044E+006  0.2011360E+02  0.7546771E-02  0.1532306E+00
         21   -1    0    0  503  501  0.00000000000E+00  0.00000000000E+00  0.53584574411E+03  0.53584574411E+03  0.00000000000E+00 0.  1.
         21   -1    0    0  504  502 -0.00000000000E+00 -0.00000000000E+00 -0.72012665858E+01  0.72012665858E+01  0.00000000000E+00 0. -1.
         21    1    1    2  503  502 -0.13195693993E+01  0.20070266954E+02  0.74261235396E+01  0.21440713371E+02  0.00000000000E+00 0. -1.
         21    1    1    2  504  501  0.13195693993E+01 -0.20070266954E+02  0.52121835399E+03  0.52160629733E+03  0.00000000000E+00 0.  1.
</event>
<event>
 4    1  0.1602044E+006  0.3155845E+02  0.7546771E-02  0.1406520E+00
         21   -1    0    0  502  501  0.00000000000E+00  0.00000000000E+00  0.41030969338E+03  0.41030969338E+03  0.00000000000E+00 0. -1.
         21   -1    0    0  504  502 -0.00000000000E+00 -0.00000000000E+00 -0.24151740555E+02  0.24151740555E+02  0.00000000000E+00 0.  1.
         21    1    1    2  503  501  0.20035243650E+02  0.24382879037E+02  0.39910474203E+03  0.40035051004E+03  0.00000000000E+00 0. -1.
         21    1    1    2  504  503 -0.20035243650E+02 -0.24382879037E+02 -0.12946789206E+02  0.34110923895E+02  0.00000000000E+00 0.  1.
</event>
<event>
 4    1  0.1602044E+006  0.3261646E+02  0.7546771E-02  0.1398142E+00
         21   -1    0    0  504  501  0.00000000000E+00  0.00000000000E+00  0.96408203506E+02  0.96408203506E+02  0.00000000000E+00 0. -1.
         21   -1    0    0  503  502 -0.00000000000E+00 -0.00000000000E+00 -0.13431954726E+03  0.13431954726E+03  0.00000000000E+00 0. -1.
         21    1    1    2  503  501 -0.29406300766E+02  0.14110389437E+02  0.91567951468E+02  0.97203515116E+02  0.00000000000E+00 0. -1.
         21    1    1    2  504  502  0.29406300766E+02 -0.14110389437E+02 -0.12947929522E+03  0.13352423565E+03  0.00000000000E+00 0. -1.
</event>
<event>
 4    1  0.1602044E+006  0.2117764E+02  0.7546771E-02  0.1516744E+00
         21   -1    0    0  502  501  0.00000000000E+00  0.00000000000E+00  0.22353316494E+02  0.22353316494E+02  0.00000000000E+00 0. -1.
         21   -1    0    0  503  502 -0.00000000000E+00 -0.00000000000E+00 -0.25241380179E+02  0.25241380179E+02  0.00000000000E+00 0.  1.
         21    1    1    2  503  504 -0.36281129276E+01  0.20864544688E+02 -0.12221965744E+02  0.24451357327E+02  0.00000000000E+00 0.  1.
         21    1    1    2  504  501  0.36281129276E+01 -0.20864544688E+02  0.93339020583E+01  0.23143339346E+02  0.00000000000E+00 0. -1.
</event>
<event>
 4    1  0.1602044E+006  0.2522091E+02  0.7546771E-02  0.1466347E+00
         21   -1    0    0  504  501  0.00000000000E+00  0.00000000000E+00  0.66971818317E+02  0.66971818317E+02  0.00000000000E+00 0. -1.
         21   -1    0    0  501  502 -0.00000000000E+00 -0.00000000000E+00 -0.46883427801E+02  0.46883427801E+02  0.00000000000E+00 0. -1.
         21    1    1    2  503  502 -0.10207098800E+01  0.25200242112E+02 -0.40791049720E+02  0.47958354730E+02  0.00000000000E+00 0. -1.
         21    1    1    2  504  503  0.10207098800E+01 -0.25200242112E+02  0.60879440236E+02  0.65896891388E+02  0.00000000000E+00 0. -1.
</event>
<event>
 4    1  0.1602044E+006  0.2403894E+02  0.7546771E-02  0.1479848E+00
         21   -1    0    0  504  501  0.00000000000E+00  0.00000000000E+00  0.17703503082E+03  0.17703503082E+03  0.00000000000E+00 0.  1.
         21   -1    0    0  503  502 -0.00000000000E+00 -0.00000000000E+00 -0.21757799724E+02  0.21757799724E+02  0.00000000000E+00 0.  1.
         21    1    1    2  503  501  0.15283920191E+02 -0.18554585659E+02 -0.13999134522E+02  0.27818099014E+02  0.00000000000E+00 0.  1.
         21    1    1    2  504  502 -0.15283920191E+02  0.18554585659E+02  0.16927636561E+03  0.17097473153E+03  0.00000000000E+00 0.  1.
</event>
<event>
 4    1  0.1602044E+006  0.4512677E+02  0.7546771E-02  0.1320807E+00
         21   -1    0    0  503  501  0.00000000000E+00  0.00000000000E+00  0.27609734005E+02  0.27609734005E+02  0.00000000000E+00 0.  1.
         21   -1    0    0  504  502 -0.00000000000E+00 -0.00000000000E+00 -0.15283923275E+03  0.15283923275E+03  0.00000000000E+00 0.  1.
         21    1    1    2  503  502  0.34507331927E+02 -0.29080396495E+02 -0.12751479796E+03  0.13526436750E+03  0.00000000000E+00 0.  1.
         21    1    1    2  504  501 -0.34507331927E+02  0.29080396495E+02  0.22852992150E+01  0.45184599252E+02  0.00000000000E+00 0.  1.
</event>
<event>
 4    1  0.1602044E+006  0.2194558E+02  0.7546771E-02  0.1506181E+00
         21   -1    0    0  504  501  0.00000000000E+00  0.00000000000E+00  0.66079335444E+02  0.66079335444E+02  0.00000000000E+00 0. -1.
         21   -1    0    0  503  502 -0.00000000000E+00 -0.00000000000E+00 -0.15586994016E+02  0.15586994016E+02  0.00000000000E+00 0. -1.
         21    1    1    2  503  501  0.37797044081E+01  0.21617640502E+02 -0.45483039374E+01  0.22411952503E+02  0.00000000000E+00 0. -1.
         21    1    1    2  504  502 -0.37797044081E+01 -0.21617640502E+02  0.55040645366E+02  0.59254376957E+02  0.00000000000E+00 0. -1.
</event>
<event>
 4    1  0.1602044E+006  0.2311004E+02  0.7546771E-02  0.1491121E+00
         21   -1    0    0  502  501  0.00000000000E+00  0.00000000000E+00  0.18073983449E+02  0.18073983449E+02  0.00000000000E+00 0.  1.
         21   -1    0    0  503  502 -0.00000000000E+00 -0.00000000000E+00 -0.59425150833E+02  0.59425150833E+02  0.00000000000E+00 0.  1.
         21    1    1    2  503  504 -0.22046772585E+01  0.23004639714E+02 -0.48150833696E+02  0.53409520086E+02  0.00000000000E+00 0.  1.
         21    1    1    2  504  501  0.22046772585E+01 -0.23004639714E+02  0.67996663119E+01  0.24089614196E+02  0.00000000000E+00 0.  1.
</event>
<event>
 4    1  0.1602044E+006  0.2189192E+02  0.7546771E-02  0.1506902E+00
         21   -1    0    0  503  501  0.00000000000E+00  0.00000000000E+00  0.26944642246E+02  0.26944642246E+02  0.00000000000E+00 0.  1.
         21   -1    0    0  501  502 -0.00000000000E+00 -0.00000000000E+00 -0.21165963446E+02  0.21165963446E+02  0.00000000000E+00 0.  1.
         21    1    1    2  503  504 -0.11347428161E+02 -0.18721436525E+02  0.12501095241E+02  0.25209793606E+02  0.00000000000E+00 0.  1.
         21    1    1    2  504  502  0.11347428161E+02  0.18721436525E+02 -0.67224164413E+01  0.22900812087E+02  0.00000000000E+00 0.  1.
</event>
<event>
 4    1  0.1602044E+006  0.2224495E+02  0.7546771E-02  0.1502203E+00
         21   -1    0    0  503  501  0.00000000000E+00  0.00000000000E+00  0.26989651300E+03  0.26989651300E+03  0.00000000000E+00 0. -1.
         21   -1    0    0  504  502 -0.00000000000E+00 -0.00000000000E+00 -0.23639438242E+01  0.23639438242E+01  0.00000000000E+00 0. -1.
         21    1    1    2  503  502  0.18782307145E+02  0.11919004362E+02  0.69277783445E+02  0.72761590181E+02  0.00000000000E+00 0. -1.
         21    1    1    2  504  501 -0.18782307145E+02 -0.11919004362E+02  0.19825478573E+03  0.19949886664E+03  0.00000000000E+00 0. -1.
</event>
<event>
 4    1  0.1602044E+006  0.3217060E+02  0.7546771E-02  0.1401626E+00
         21   -1    0    0  503  501  0.00000000000E+00  0.00000000000E+00  0.10430068563E+02  0.10430068563E+02  0.00000000000E+00 0. -1.
         21   -1    0    0  504  502 -0.00000000000E+00 -0.00000000000E+00 -0.15311249190E+03  0.15311249190E+03  0.00000000000E+00 0. -1.
         21    1    1    2  503  502  0.31744439161E+02  0.52190389469E+01 -0.11985108136E+03  0.12409363194E+03  0.00000000000E+00 0. -1.
         21    1    1    2  504  501 -0.31744439161E+02 -0.52190389469E+01 -0.22831341981E+02  0.39448928526E+02  0.00000000000E+00 0. -1.
</event>
<event>
 4    1  0.1602044E+006  0.2609297E+02  0.7546771E-02  0.1456938E+00
         21   -1    0    0  504  501  0.00000000000E+00  0.00000000000E+00  0.15367438272E+03  0.15367438272E+03  0.00000000000E+00 0.  1.
         21   -1    0    0  501  502 -0.00000000000E+00 -0.00000000000E+00 -0.26262371133E+03  0.26262371133E+03  0.00000000000E+00 0. -1.
         21    1    1    2  503  502 -0.25585015444E+02  0.51234793133E+01 -0.26086052036E+03  0.26216226681E+03  0.00000000000E+00 0. -1.
         21    1    1    2  504  503  0.25585015444E+02 -0.51234793133E+01  0.15191119176E+03  0.15413582724E+03  0.00000000000E+00 0.  1.
</event>
<event>
 4    1  0.1602044E+006  0.2221353E+02  0.7546771E-02  0.1502617E+00
         21   -1    0    0  503  501  0.00000000000E+00  0.00000000000E+00  0.31547613162E+03  0.31547613162E+03  0.00000000000E+00 0.  1.
         21   -1    0    0  504  502 -0.00000000000E+00 -0.00000000000E+00 -0.16750800645E+01  0.16750800645E+01  0.00000000000E+00 0.  1.
         21    1    1    2  503  502 -0.19780588892E+02 -0.10107868604E+02  0.19771491003E+03  0.19895885592E+03  0.00000000000E+00 0.  1.
         21    1    1    2  504  501  0.19780588892E+02  0.10107868604E+02  0.11608614153E+03  0.11819235576E+03  0.00000000000E+00 0.  1.
</event>
<event>
 4    1  0.1602044E+006  0.2167867E+02  0.7546771E-02  0.1509792E+00
         21   -1    0    0  503  501  0.00000000000E+00  0.00000000000E+00  0.32333157263E+03  0.32333157263E+03  0.00000000000E+00 0.  1.
         21   -1    0    0  504  502 -0.00000000000E+00 -0.00000000000E+00 -0.23692694686E+01  0.23692694686E+01  0.00000000000E+00 0.  1.
         21    1    1    2  503  502  0.21122059456E+02  0.48808961014E+01  0.59236242285E+02  0.63078498258E+02  0.00000000000E+00 0.  1.
         21    1    1    2  504  501 -0.21122059456E+02 -0.48808961014E+01  0.26172606088E+03  0.26262234384E+03  0.00000000000E+00 0.  1.
</event>
<event>
 4    1  0.1602044E+006  0.3416626E+02  0.7546771E-02  0.1386521E+00
         21   -1    0    0  503  501  0.00000000000E+00  0.00000000000E+00  0.59558784961E+01  0.59558784961E+01  0.00000000000E+00 0.  1.
         21   -1    0    0  504  502 -0.00000000000E+00 -0.00000000000E+00 -0.93919075431E+03  0.93919075431E+03  0.00000000000E+00 0.  1.
         21    1    1    2  503  502  0.37648535805E+01 -0.33958200561E+02 -0.88699870690E+03  0.88765648736E+03  0.00000000000E+00 0.  1.
         21    1    1    2  504  501 -0.37648535805E+01  0.33958200561E+02 -0.46236168917E+02  0.57490145451E+02  0.00000000000E+00 0.  1.
</event>
<event>
 4    1  0.1602044E+006  0.2317233E+02  0.7546771E-02  0.1490345E+00
         21   -1    0    0  504  501  0.00000000000E+00  0.00000000000E+00  0.93650885116E+01  0.93650885116E+01  0.00000000000E+00 0.  1.
         21   -1    0    0  503  502 -0.00000000000E+00 -0.00000000000E+00 -0.61424930436E+02  0.61424930436E+02  0.00000000000E+00 0.  1.
         21    1    1    2  503  501  0.20503048234E+02 -0.10797317919E+02 -0.35162061657E+02  0.42110896940E+02  0.00000000000E+00 0.  1.
         21    1    1    2  504  502 -0.20503048234E+02  0.10797317919E+02 -0.16897780267E+02  0.28679122007E+02  0.00000000000E+00 0.  1.
</event>
<event>
 4    1  0.1602044E+006  0.2087967E+02  0.7546771E-02  0.1520990E+00
         21   -1    0    0  503  501  0.00000000000E+00  0.00000000000E+00  0.46363913526E+02  0.46363913526E+02  0.00000000000E+00 0. -1.
         21   -1    0    0  504  502 -0.00000000000E+00 -0.00000000000E+00 -0.78476523987E+02  0.78476523987E+02  0.00000000000E+00 0.  1.
         21    1    1    2  503  502 -0.38355971282E+01 -0.20524345025E+02 -0.74617667223E+02  0.77483913207E+02  0.00000000000E+00 0.  1.
         21    1    1    2  504  501  0.38355971282E+01  0.20524345025E+02  0.42505056762E+02  0.47356524306E+02  0.00000000000E+00 0. -1.
</event>
<event>
 4    1  0.1602044E+006  0.2350963E+02  0.7546771E-02  0.1486196E+00
         21   -1    0    0  502  501  0.00000000000E+00  0.00000000000E+00  0.92447088556E+02  0.92447088556E+02  0.00000000000E+00 0.  1.
         21   -1    0    0  503  502 -0.00000000000E+00 -0.00000000000E+00 -0.12819061139E+02  0.12819061139E+02  0.00000000000E+00 0. -1.
         21    1    1    2  503  504  0.19624220391E+02 -0.12945766628E+02  0.13660133890E+01  0.23549286446E+02  0.00000000000E+00 0. -1.
         21    1    1    2  504  501 -0.19624220391E+02  0.12945766628E+02  0.78262014028E+02  0.81716863249E+02  0.00000000000E+00 0.  1.
</event>
<event>
 4    1  0.1602044E+006  0.2560169E+02  0.7546771E-02  0.1462184E+00
         21   -1    0    0  502  501  0.00000000000E+00  0.00000000000E+00  0.24803865515E+03  0.24803865515E+03  0.00000000000E+00 0.  1.
         21   -1    0    0  503  502 -0.00000000000E+00 -0.00000000000E+00 -0.82127572756E+01  0.82127572756E+01  0.00000000000E+00 0.  1.
         21    1    1    2  503  504 -0.36359269444E+01  0.25342186358E+02  0.14394416793E+02  0.29370829218E+02  0.00000000000E+00 0.  1.
         21    1    1    2  504  501  0.36359269444E+01 -0.25342186358E+02  0.22543148108E+03  0.22688058320E+03  0.00000000000E+00 0.  1.
</event>
<event>
 4    1  0.1602044E+006  0.2207272E+02  0.7546771E-02  0.1504482E+00
         21   -1    0    0  504  501  0.00000000000E+00  0.00000000000E+00  0.12756720005E+02  0.12756720005E+02  0.00000000000E+00 0.  1.
         21   -1    0    0  503  502 -0.00000000000E+00 -0.00000000000E+00 -0.39016684749E+02  0.39016684749E+02  0.00000000000E+00 0.  1.
         21    1    1    2  503  501 -0.11165999220E+02 -0.19040101682E+02 -0.16893449218E+02  0.27795568660E+02  0.00000000000E+00 0.  1.
         21    1    1    2  504  502  0.11165999220E+02  0.19040101682E+02 -0.93665155265E+01  0.23977836094E+02  0.00000000000E+00 0.  1.
</event>
<event>
 4    1  0.1602044E+006  0.2759973E+02  0.7546771E-02  0.1441675E+00
         21   -1    0    0  504  501  0.00000000000E+00  0.00000000000E+00  0.36444363190E+02  0.36444363190E+02  0.00000000000E+00 0. -1.
         21   -1    0    0  503  502 -0.00000000000E+00 -0.00000000000E+00 -0.33969249941E+02  0.33969249941E+02  0.00000000000E+00 0.  1.
         21    1    1    2  503  501 -0.69210770232E+01 -0.26717854711E+02 -0.20598921722E+02  0.34439231171E+02  0.00000000000E+00 0.  1.
         21    1    1    2  504  502  0.69210770232E+01  0.26717854711E+02  0.23074034971E+02  0.35974381960E+02  0.00000000000E+00 0. -1.
</event>
<event>
 4    1  0.1602044E+006  0.2476360E+02  0.7546771E-02  0.1471465E+00
         21   -1    0    0  503  501  0.00000000000E+00  0.00000000000E+00  0.18199496699E+03  0.18199496699E+03  0.00000000000E+00 0.  1.
         21   -1    0    0  501  502 -0.00000000000E+00 -0.00000000000E+00 -0.39429511860E+01  0.39429511860E+01  0.00000000000E+00 0.  1.
         21    1    1    2  503  504 -0.23650122321E+02  0.73421784427E+01  0.12448019476E+03  0.12691948140E+03  0.00000000000E+00 0.  1.
         21    1    1    2  504  502  0.23650122321E+02 -0.73421784427E+01  0.53571821041E+02  0.59018436778E+02  0.00000000000E+00 0.  1.
</event>
<event>
 4    1  0.1602044E+006  0.2249003E+02  0.7546771E-02  0.1499003E+00
         21   -1    0    0  504  501  0.00000000000E+00  0.00000000000E+00  0.21561187192E+03  0.21561187192E+03  0.00000000000E+00 0.  1.
         21   -1    0    0  503  502 -0.00000000000E+00 -0.00000000000E+00 -0.34886545310E+01  0.34886545310E+01  0.00000000000E+00 0.  1.
         21    1    1    2  503  501 -0.10457255247E+02 -0.19910985882E+02  0.16876095095E+03  0.17025292982E+03  0.00000000000E+00 0.  1.
         21    1    1    2  504  502  0.10457255247E+02  0.19910985882E+02  0.43362266438E+02  0.48847596632E+02  0.00000000000E+00 0.  1.
</event>
<event>
 4    1  0.1602044E+006  0.2156561E+02  0.7546771E-02  0.1511341E+00
         21   -1    0    0  503  501  0.00000000000E+00  0.00000000000E+00  0.45798726672E+03  0.45798726672E+03  0.00000000000E+00 0.  1.
         21   -1    0    0  504  502 -0.00000000000E+00 -0.00000000000E+00 -0.17356716356E+01  0.17356716356E+01  0.00000000000E+00 0. -1.
         21    1    1    2  503  502  0.28536685951E+01 -0.21375965671E+02  0.80059072851E+02  0.82912788390E+02  0.00000000000E+00 0. -1.
         21    1    1    2  504  501 -0.28536685951E+01  0.21375965671E+02  0.37619252224E+03  0.37681014997E+03  0.00000000000E+00 0.  1.
</event>
<event>
 4    1  0.1602044E+006  0.2212453E+02  0.7546771E-02  0.1503794E+00
         21   -1    0    0  504  501  0.00000000000E+00  0.00000000000E+00  0.24222217402E+03  0.24222217402E+03  0.00000000000E+00 0. -1.
         21   -1    0    0  503  502 -0.00000000000E+00 -0.00000000000E+00 -0.12572061534E+02  0.12572061534E+02  0.00000000000E+00 0. -1.
         21    1    1    2  503  501 -0.20532671049E+01  0.22029050380E+02 -0.18847893129E+01  0.22204670617E+02  0.00000000000E+00 0. -1.
         21    1    1    2  504  502  0.20532671049E+01 -0.22029050380E+02  0.23153490180E+03  0.23258956494E+03  0.00000000000E+00 0. -1.
</event>
<event>
 4    1  0.1602044E+006  0.2037613E+02  0.7546771E-02  0.1528361E+00
         21   -1    0    0  503  501  0.00000000000E+00  0.00000000000E+00  0.10871194504E+03  0.10871194504E+03  0.00000000000E+00 0. -1.
         21   -1    0    0  504  502 -0.00000000000E+00 -0.00000000000E+00 -0.44703982127E+01  0.44703982127E+01  0.00000000000E+00 0. -1.
         21    1    1    2  503  502 -0.41109030385E+01 -0.19957129606E+02  0.30520913486E+02  0.36697584470E+02  0.00000000000E+00 0. -1.
         21    1    1    2  504  501  0.41109030385E+01  0.19957129606E+02  0.73720633345E+02  0.76484758787E+02  0.00000000000E+00 0. -1.
</event>
<event>
 4    1  0.1602044E+006  0.2611212E+02  0.7546771E-02  0.1456737E+00
         21   -1    0    0  502  501  0.00000000000E+00  0.00000000000E+00  0.37602662025E+03  0.37602662025E+03  0.00000000000E+00 0. -1.
         21   -1    0    0  503  502 -0.00000000000E+00 -0.00000000000E+00 -0.85086155484E+01  0.85086155484E+01  0.00000000000E+00 0. -1.
         21    1    1    2  503  504 -0.25140114522E+02  0.70581326046E+01  0.13204660934E+02  0.29260992198E+02  0.00000000000E+00 0. -1.
         21    1    1    2  504  501  0.25140114522E+02 -0.70581326046E+01  0.35431334377E+03  0.35527424360E+03  0.00000000000E+00 0. -1.
</event>
<event>
 4    1  0.1602044E+006  0.2082311E+02  0.7546771E-02  0.1521805E+00
         21   -1    0    0  504  501  0.00000000000E+00  0.00000000000E+00  0.35704238959E+01  0.35704238959E+01  0.00000000000E+00 0.  1.
         21   -1    0    0  503  502 -0.00000000000E+00 -0.00000000000E+00 -0.19975869299E+03  0.19975869299E+03  0.00000000000E+00 0.  1.
         21    1    1    2  503  501 -0.18407541632E+02  0.97346923316E+01 -0.34437739901E+02  0.40243754214E+02  0.00000000000E+00 0.  1.
         21    1    1    2  504  502  0.18407541632E+02 -0.97346923316E+01 -0.16175052920E+03  0.16308536267E+03  0.00000000000E+00 0.  1.
</event>
<event>
 4    1  0.1602044E+006  0.2112420E+02  0.7546771E-02  0.1517499E+00
         21   -1    0    0  502  501  0.00000000000E+00  0.00000000000E+00  0.18690443905E+03  0.18690443905E+03  0.00000000000E+00 0.  1.
         21   -1    0    0  504  502 -0.00000000000E+00 -0.00000000000E+00 -0.84860576384E+01  0.84860576384E+01  0.00000000000E+00 0. -1.
         21    1    1    2  503  501  0.20545138612E+02 -0.49121482715E+01  0.17202904867E+03  0.17332116290E+03  0.00000000000E+00 0.  1.
         21    1    1    2  504  503 -0.20545138612E+02  0.49121482715E+01  0.63893327440E+01  0.22069333795E+02  0.00000000000E+00 0. -1.
</event>
<event>
 4    1  0.1602044E+006  0.2508271E+02  0.7546771E-02  0.1467880E+00
         21   -1    0    0  504  501  0.00000000000E+00  0.00000000000E+00  0.12624992217E+02  0.12624992217E+02  0.00000000000E+00 0. -1.
         21   -1    0    0  503  502 -0.00000000000E+00 -0.00000000000E+00 -0.19426122346E+03  0.19426122346E+03  0.00000000000E+00 0.  1.
         21    1    1    2  503  501 -0.21516327694E+02 -0.12891464086E+02 -0.18001186485E+03  0.18175096613E+03  0.00000000000E+00 0.  1.
         21    1    1    2  504  502  0.21516327694E+02  0.12891464086E+02 -0.16243663981E+01  0.25135249549E+02  0.00000000000E+00 0. -1.
</event>
<event>
 4    1  0.1602044E+006  0.3228205E+02  0.7546771E-02  0.1400749E+00
         21   -1    0    0  502  501  0.00000000000E+00  0.00000000000E+00  0.11488012303E+02  0.11488012303E+02  0.00000000000E+00 0. -1.
         21   -1    0    0  503  502 -0.00000000000E+00 -0.00000000000E+00 -0.14934598106E+03  0.14934598106E+03  0.00000000000E+00 0.  1.
         21    1    1    2  503  504 -0.20729086753E+02  0.24747443818E+02 -0.11931568915E+03  0.12360568228E+03  0.00000000000E+00 0.  1.
         21    1    1    2  504  501  0.20729086753E+02 -0.24747443818E+02 -0.18542279599E+02  0.37228311080E+02  0.00000000000E+00 0. -1.
</event>
<event>
 4    1  0.1602044E+006  0.2043710E+02  0.7546771E-02  0.1527455E+00
         21   -1    0    0  502  501  0.00000000000E+00  0.00000000000E+00  0.65715563608E+02  0.65715563608E+02  0.00000000000E+00 0.  1.
         21   -1    0    0  504  502 -0.00000000000E+00 -0.00000000000E+00 -0.15567564103E+02  0.15567564103E+02  0.00000000000E+00 0.  1.
         21    1    1    2  503  501 -0.15656102304E+02  0.13136268019E+02  0.56337057188E+02  0.59929450936E+02  0.00000000000E+00 0.  1.
         21    1    1    2  504  503  0.15656102304E+02 -0.13136268019E+02 -0.61890576830E+01  0.21353676775E+02  0.00000000000E+00 0.  1.
</event>
<event>
 4    1  0.1602044E+006  0.2247166E+02  0.7546771E-02  0.1499241E+00
         21   -1    0    0  504  501  0.00000000000E+00  0.00000000000E+00  0.37432322504E+03  0.37432322504E+03  0.00000000000E+00 0. -1.
         21   -1    0    0  503  502 -0.00000000000E+00 -0.00000000000E+00 -0.63235381282E+01  0.63235381282E+01  0.00000000000E+00 0. -1.
         21    1    1    2  503  501 -0.18452559833E+02 -0.12824916036E+02  0.15194226548E+02  0.27126370124E+02  0.00000000000E+00 0. -1.
         21    1    1    2  504  502  0.18452559833E+02  0.12824916036E+02  0.35280546036E+03  0.35352039305E+03  0.00000000000E+00 0. -1.
</event>
<event>
 4    1  0.1602044E+006  0.2635071E+02  0.7546771E-02  0.1454242E+00
         21   -1    0    0  503  501  0.00000000000E+00  0.00000000000E+00  0.53131329086E+02  0.53131329086E+02  0.00000000000E+00 0.  1.
         21   -1    0    0  504  502 -0.00000000000E+00 -0.00000000000E+00 -0.50264471233E+02  0.50264471233E+02  0.00000000000E+00 0. -1.
         21    1    1    2  503  502 -0.26249940833E+02  0.23022716417E+01  0.45905654038E+02  0.52930982620E+02  0.00000000000E+00 0.  1.
         21    1    1    2  504  501  0.26249940833E+02 -0.23022716417E+01 -0.43038796184E+02  0.50464817699E+02  0.00000000000E+00 0. -1.
</event>
<event>
 4    1  0.1602044E+006  0.2134896E+02  0.7546771E-02  0.1514340E+00
         21   -1    0    0  504  501  0.00000000000E+00  0.00000000000E+00  0.19951311829E+03  0.19951311829E+03  0.00000000000E+00 0.  1.
         21   -1    0    0  503  502 -0.00000000000E+00 -0.00000000000E+00 -0.92972164121E+01  0.92972164121E+01  0.00000000000E+00 0.  1.
         21    1    1    2  503  501  0.65567693561E+00 -0.21338893418E+02  0.44324160076E+01  0.21804233447E+02  0.00000000000E+00 0.  1.
         21    1    1    2  504  502 -0.65567693561E+00  0.21338893418E+02  0.18578348587E+03  0.18700610126E+03  0.00000000000E+00 0.  1.
</event>
<event>
 4    1  0.1602044E+006  0.2799944E+02  0.7546771E-02  0.1437819E+00
         21   -1    0    0  503  501  0.00000000000E+00  0.00000000000E+00  0.83788250578E+01  0.83788250578E+01  0.00000000000E+00 0.  1.
         21   -1    0    0  504  502 -0.00000000000E+00 -0.00000000000E+00 -0.19556615828E+03  0.19556615828E+03  0.00000000000E+00 0. -1.
         21    1    1    2  503  502 -0.25186203303E+02  0.12232079258E+02 -0.19949600905E+02  0.34379574984E+02  0.00000000000E+00 0.  1.
         21    1    1    2  504  501  0.25186203303E+02 -0.12232079258E+02 -0.16723773232E+03  0.16956540836E+03  0.00000000000E+00 0. -1.
</event>
<event>
 4    1  0.1602044E+006  0.2232266E+02  0.7546771E-02  0.1501183E+00
         21   -1    0    0  504  501  0.00000000000E+00  0.00000000000E+00  0.34886114715E+02  0.34886114715E+02  0.00000000000E+00 0.  1.
         21   -1    0    0  503  502 -0.00000000000E+00 -0.00000000000E+00 -0.23923480084E+02  0.23923480084E+02  0.00000000000E+00 0. -1.
         21    1    1    2  503  501 -0.20337489560E+02 -0.92025933747E+01 -0.13184224617E+02  0.25925373386E+02  0.00000000000E+00 0. -1.
         21    1    1    2  504  502  0.20337489560E+02  0.92025933747E+01  0.24146859248E+02  0.32884221414E+02  0.00000000000E+00 0.  1.
</event>
<event>
 4    1  0.1602044E+006  0.1637097E+03  0.7546771E-02  0.1084340E+00
         21   -1    0    0  504  501  0.00000000000E+00  0.00000000000E+00  0.35810567680E+03  0.35810567680E+03  0.00000000000E+00 0.  1.
         21   -1    0    0  503  502 -0.00000000000E+00 -0.00000000000E+00 -0.11522217310E+03  0.11522217310E+03  0.00000000000E+00 0.  1.
         21    1    1    2  503  501 -0.99040848016E+02 -0.13035246004E+03 -0.18663850919E+02  0.16477012091E+03  0.00000000000E+00 0.  1.
         21    1    1    2  504  502  0.99040848016E+02  0.13035246004E+03  0.26154735462E+03  0.30855772900E+03  0.00000000000E+00 0.  1.
</event>
<event>
 4    1  0.1602044E+006  0.2741032E+02  0.7546771E-02  0.1443529E+00
         21   -1    0    0  503  501  0.00000000000E+00  0.00000000000E+00  0.59232476811E+01  0.59232476811E+01  0.00000000000E+00 0. -1.
         21   -1    0    0  504  502 -0.00000000000E+00 -0.00000000000E+00 -0.13618080838E+03  0.13618080838E+03  0.00000000000E+00 0. -1.
         21    1    1    2  503  502  0.26478423223E+02  0.70865327252E+01 -0.46523856256E+02  0.53998102220E+02  0.00000000000E+00 0. -1.
         21    1    1    2  504  501 -0.26478423223E+02 -0.70865327252E+01 -0.83733704441E+02  0.88105953839E+02  0.00000000000E+00 0. -1.
</event>
<event>
 4    1  0.1602044E+006  0.2058090E+02  0.7546771E-02  0.1525333E+00
         21   -1    0    0  503  501  0.00000000000E+00  0.00000000000E+00  0.80770631839E+02  0.80770631839E+02  0.00000000000E+00 0.  1.
         21   -1    0    0  504  502 -0.00000000000E+00 -0.00000000000E+00 -0.22528401975E+02  0.22528401975E+02  0.00000000000E+00 0.  1.
         21    1    1    2  503  502 -0.36620000136E+01 -0.20252485829E+02  0.74361505611E+02  0.77157027827E+02  0.00000000000E+00 0.  1.
         21    1    1    2  504  501  0.36620000136E+01  0.20252485829E+02 -0.16119275748E+02  0.26142005986E+02  0.00000000000E+00 0.  1.
</event>
<event>
 4    1  0.1602044E+006  0.2128830E+02  0.7546771E-02  0.1515188E+00
         21   -1    0    0  503  501  0.00000000000E+00  0.00000000000E+00  0.58101331324E+02  0.58101331324E+02  0.00000000000E+00 0. -1.
         21   -1    0    0  501  502 -0.00000000000E+00 -0.00000000000E+00 -0.62844561515E+02  0.62844561515E+02  0.00000000000E+00 0. -1.
         21    1    1    2  503  504  0.20272114177E+02 -0.64987073822E+01  0.54224209303E+02  0.58253383467E+02  0.00000000000E+00 0. -1.
         21    1    1    2  504  502 -0.20272114177E+02  0.64987073822E+01 -0.58967439494E+02  0.62692509372E+02  0.00000000000E+00 0. -1.
</event>
<event>
 4    1  0.1602044E+006  0.2127210E+02  0.7546771E-02  0.1515415E+00
         21   -1    0    0  502  501  0.00000000000E+00  0.00000000000E+00  0.13043616969E+03  0.13043616969E+03  0.00000000000E+00 0. -1.
         21   -1    0    0  503  502 -0.00000000000E+00 -0.00000000000E+00 -0.67772433869E+01  0.67772433869E+01  0.00000000000E+00 0. -1.
         21    1    1    2  503  504 -0.26092373215E+01  0.21111467641E+02  0.13897067146E+02  0.25409263284E+02  0.00000000000E+00 0. -1.
         21    1    1    2  504  501  0.26092373215E+01 -0.21111467641E+02  0.10976185916E+03  0.11180414979E+03  0.00000000000E+00 0. -1.
</event>
<event>
 4    1  0.1602044E+006  0.2160973E+02  0.7546771E-02  0.1510735E+00
         21   -1    0    0  504  501  0.00000000000E+00  0.00000000000E+00  0.75923612689E+01  0.75923612689E+01  0.00000000000E+00 0. -1.
         21   -1    0    0  503  502 -0.00000000000E+00 -0.00000000000E+00 -0.33846549258E+03  0.33846549258E+03  0.00000000000E+00 0. -1.
         21    1    1    2  503  501 -0.10387768608E+02  0.18949263082E+02 -0.89168052147E+01  0.23377119653E+02  0.00000000000E+00 0. -1.
         21    1    1    2  504  502  0.10387768608E+02 -0.18949263082E+02 -0.32195632610E+03  0.32268073420E+03  0.00000000000E+00 0. -1.
</event>
<event>
 4    1  0.1602044E+006  0.2096601E+02  0.7546771E-02  0.1519751E+00
         21   -1    0    0  503  501  0.00000000000E+00  0.00000000000E+00  0.14367644347E+03  0.14367644347E+03  0.00000000000E+00 0. -1.
         21   -1    0    0  504  502 -0.00000000000E+00 -0.00000000000E+00 -0.50535403669E+02  0.50535403669E+02  0.00000000000E+00 0.  1.
         21    1    1    2  503  502 -0.16469478567E+01 -0.20901221569E+02 -0.47550065423E+02  0.51967126359E+02  0.00000000000E+00 0.  1.
         21    1    1    2  504  501  0.16469478567E+01  0.20901221569E+02  0.14069110522E+03  0.14224472077E+03  0.00000000000E+00 0. -1.
</event>
<event>
 4    1  0.1602044E+006  0.2573752E+02  0.7546771E-02  0.1460719E+00
         21   -1    0    0  502  501  0.00000000000E+00  0.00000000000E+00  0.36621657151E+03  0.36621657151E+03  0.00000000000E+00 0. -1.
         21   -1    0    0  504  502 -0.00000000000E+00 -0.00000000000E+00 -0.56400130169E+02  0.56400130169E+02  0.00000000000E+00 0.  1.
         21    1    1    2  503  501 -0.79970266899E+01  0.24463597815E+02  0.36280050148E+03  0.36371228179E+03  0.00000000000E+00 0. -1.
         21    1    1    2  504  503  0.79970266899E+01 -0.24463597815E+02 -0.52984060135E+02  0.58904419888E+02  0.00000000000E+00 0.  1.
</event>
<event>
 4    1  0.1602044E+006  0.4591694E+02  0.7546771E-02  0.1316917E+00
         21   -1    0    0  503  501  0.00000000000E+00  0.00000000000E+00  0.71255143905E+02  0.71255143905E+02  0.00000000000E+00 0.  1.
         21   -1    0    0  501  502 -0.00000000000E+00 -0.00000000000E+00 -0.11492559604E+03  0.11492559604E+03  0.00000000000E+00 0. -1.
         21    1    1    2  503  504 -0.45691322744E+02  0.45462912845E+01  0.58381351442E+02  0.74274813596E+02  0.00000000000E+00 0.  1.
         21    1    1    2  504  502  0.45691322744E+02 -0.45462912845E+01 -0.10205180357E+03  0.11190592634E+03  0.00000000000E+00 0. -1.
</event>
<event>
 4    1  0.1602044E+006  0.3077171E+02  0.7546771E-02  0.1413006E+00
         21   -1    0    0  503  501  0.00000000000E+00  0.00000000000E+00  0.14779177500E+02  0.14779177500E+02  0.00000000000E+00 0. -1.
         21   -1    0    0  504  502 -0.00000000000E+00 -0.00000000000E+00 -0.33681789194E+03  0.33681789194E+03  0.00000000000E+00 0. -1.
         21    1    1    2  503  502 -0.21668821904E+02  0.21848581624E+02 -0.28222396169E+01  0.30900864036E+02  0.00000000000E+00 0. -1.
         21    1    1    2  504  501  0.21668821904E+02 -0.21848581624E+02 -0.31921647482E+03  0.32069620540E+03  0.00000000000E+00 0. -1.
</event>
<event>
 4    1  0.1602044E+006  0.2102747E+02  0.7546771E-02  0.1518873E+00
         21   -1    0    0  504  501  0.00000000000E+00  0.00000000000E+00  0.37323262373E+02  0.37323262373E+02  0.00000000000E+00 0. -1.
         21   -1    0    0  503  502 -0.00000000000E+00 -0.00000000000E+00 -0.14092492694E+02  0.14092492694E+02  0.00000000000E+00 0. -1.
         21    1    1    2  503  501  0.20828960578E+02 -0.28824814496E+01  0.13525953530E+01  0.21070923384E+02  0.00000000000E+00 0. -1.
         21    1    1    2  504  502 -0.20828960578E+02  0.28824814496E+01  0.21878174326E+02  0.30344831684E+02  0.00000000000E+00 0. -1.
</event>
<event>
 4    1  0.1602044E+006  0.3516799E+02  0.7546771E-02  0.1379386E+00
         21   -1    0    0  504  501  0.00000000000E+00  0.00000000000E+00  0.13068002376E+02  0.13068002376E+02  0.00000000000E+00 0. -1.
         21   -1    0    0  501  502 -0.00000000000E+00 -0.00000000000E+00 -0.32382582073E+03  0.32382582073E+03  0.00000000000E+00 0. -1.
         21    1    1    2  503  502  0.23003319527E+02 -0.26601402310E+02 -0.29708838739E+03  0.29916266016E+03  0.00000000000E+00 0. -1.
         21    1    1    2  504  503 -0.23003319527E+02  0.26601402310E+02 -0.13669430964E+02  0.37731162943E+02  0.00000000000E+00 0. -1.
</event>
<event>
 4    1  0.1602044E+006  0.4377853E+02  0.7546771E-02  0.1327661E+00
         21   -1    0    0  504  501  0.00000000000E+00  0.00000000000E+00  0.64270883712E+02  0.64270883712E+02  0.00000000000E+00 0.  1.
         21   -1    0    0  503  502 -0.00000000000E+00 -0.00000000000E+00 -0.40446903437E+02  0.40446903437E+02  0.00000000000E+00 0.  1.
         21    1    1    2  503  501  0.18666530691E+02 -0.39599500093E+02 -0.14926034387E+02  0.46253067770E+02  0.00000000000E+00 0.  1.
         21    1    1    2  504  502 -0.18666530691E+02  0.39599500093E+02  0.38750014662E+02  0.58464719378E+02  0.00000000000E+00 0.  1.
</event>
<event>
 4    1  0.1602044E+006  0.2292052E+02  0.7546771E-02  0.1493499E+00
         21   -1    0    0  503  501  0.00000000000E+00  0.00000000000E+00  0.34047390893E+02  0.34047390893E+02  0.00000000000E+00 0. -1.
         21   -1    0    0  504  502 -0.00000000000E+00 -0.00000000000E+00 -0.14712057055E+03  0.14712057055E+03  0.00000000000E+00 0. -1.
         21    1    1    2  503  502 -0.12388767189E+01 -0.22887010221E+02 -0.14223881516E+03  0.14407369847E+03  0.00000000000E+00 0. -1.
         21    1    1    2  504  501  0.12388767189E+01  0.22887010221E+02  0.29165635495E+02  0.37094262983E+02  0.00000000000E+00 0. -1.
</event>
<event>
 4    1  0.1602044E+006  0.2615752E+02  0.7546771E-02  0.1456260E+00
         21   -1    0    0  504  501  0.00000000000E+00  0.00000000000E+00  0.13030536163E+02  0.13030536163E+02  0.00000000000E+00 0. -1.
         21   -1    0    0  503  502 -0.00000000000E+00 -0.00000000000E+00 -0.52510309907E+02  0.52510309907E+02  0.00000000000E+00 0. -1.
         21    1    1    2  503  501  0.16257949310E+02 -0.20491339753E+02 -0.19923887422E+02  0.32881259262E+02  0.00000000000E+00 0. -1.
         21    1    1    2  504  502 -0.16257949310E+02  0.20491339753E+02 -0.19555886322E+02  0.32659586808E+02  0.00000000000E+00 0. -1.
</event>
<event>
 4    1  0.1602044E+006  0.2018591E+02  0.7546771E-02  0.1531213E+00
         21   -1    0    0  504  501  0.00000000000E+00  0.00000000000E+00  0.53987352907E+03  0.53987352907E+03  0.00000000000E+00 0.  1.
         21   -1    0    0  503  502 -0.00000000000E+00 -0.00000000000E+00 -0.74968308395E+01  0.74968308395E+01  0.00000000000E+00 0. -1.
         21    1    1    2  503  501  0.15085631078E+02 -0.13412479236E+02  0.66453466142E+01  0.21251623371E+02  0.00000000000E+00 0. -1.
         21    1    1    2  504  502 -0.15085631078E+02  0.13412479236E+02  0.52573135162E+03  0.52611873654E+03  0.00000000000E+00 0.  1.
</event>
<event>
 4    1  0.1602044E+006  0.2294450E+02  0.7546771E-02  0.1493196E+00
         21   -1    0    0  504  501  0.00000000000E+00  0.00000000000E+00  0.17154083462E+03  0.17154083462E+03  0.00000000000E+00 0.  1.
         21   -1    0    0  503  502 -0.00000000000E+00 -0.00000000000E+00 -0.93355122168E+01  0.93355122168E+01  0.00000000000E+00 0.  1.
         21    1    1    2  503  501 -0.66809350713E+01 -0.21950293490E+02  0.70062152112E+01  0.23990359091E+02  0.00000000000E+00 0.  1.
         21    1    1    2  504  502  0.66809350713E+01  0.21950293490E+02  0.15519910719E+03  0.15688598774E+03  0.00000000000E+00 0.  1.
</event>
<event>
 4    1  0.1602044E+006  0.3014740E+02  0.7546771E-02  0.1418320E+00
         21   -1    0    0  503  501  0.00000000000E+00  0.00000000000E+00  0.31043490546E+02  0.31043490546E+02  0.00000000000E+00 0.  1.
         21   -1    0    0  504  502 -0.00000000000E+00 -0.00000000000E+00 -0.11309963858E+03  0.11309963858E+03  0.00000000000E+00 0.  1.
         21    1    1    2  503  502  0.24574394848E+02 -0.17463247860E+02 -0.10307403780E+03  0.10739237951E+03  0.00000000000E+00 0.  1.
         21    1    1    2  504  501 -0.24574394848E+02  0.17463247860E+02  0.21017889760E+02  0.36750749624E+02  0.00000000000E+00 0.  1.
</event>
<event>
 4    1  0.1602044E+006  0.6817062E+02  0.7546771E-02  0.1234343E+00
         21   -1    0    0  503  501  0.00000000000E+00  0.00000000000E+00  0.22105158132E+03  0.22105158132E+03  0.00000000000E+00 0. -1.
         21   -1    0    0  501  502 -0.00000000000E+00 -0.00000000000E+00 -0.32875086599E+02  0.32875086599E+02  0.00000000000E+00 0. -1.
         21    1    1    2  503  504  0.31192072699E+02  0.60615900634E+02  0.17032016620E+03  0.18345623953E+03  0.00000000000E+00 0. -1.
         21    1    1    2  504  502 -0.31192072699E+02 -0.60615900634E+02  0.17856328522E+02  0.70470428388E+02  0.00000000000E+00 0. -1.
</event>
<event>
 4    1  0.1602044E+006  0.3306546E+02  0.7546771E-02  0.1394699E+00
         21   -1    0    0  503  501  0.00000000000E+00  0.00000000000E+00  0.57891797897E+02  0.57891797897E+02  0.00000000000E+00 0.  1.
         21   -1    0    0  501  502 -0.00000000000E+00 -0.00000000000E+00 -0.30350218851E+02  0.30350218851E+02  0.00000000000E+00 0.  1.
         21    1    1    2  503  504 -0.32368286334E+02  0.67541820499E+01  0.40887883714E+02  0.52584636254E+02  0.00000000000E+00 0.  1.
         21    1    1    2  504  502  0.32368286334E+02 -0.67541820499E+01 -0.13346304669E+02  0.35657380494E+02  0.00000000000E+00 0.  1.
</event>
<event>
 4    1  0.1602044E+006  0.2689076E+02  0.7546771E-02  0.1448708E+00
         21   -1    0    0  503  501  0.00000000000E+00  0.00000000000E+00  0.59227283373E+01  0.59227283373E+01  0.00000000000E+00 0. -1.
         21   -1    0    0  504  502 -0.00000000000E+00 -0.00000000000E+00 -0.28339714936E+03  0.28339714936E+03  0.00000000000E+00 0.  1.
         21    1    1    2  503  502  0.13613532969E+02  0.23190190491E+02 -0.24787513355E+03  0.24932949093E+03  0.00000000000E+00 0.  1.
         21    1    1    2  504  501 -0.13613532969E+02 -0.23190190491E+02 -0.29599287473E+02  0.39990386768E+02  0.00000000000E+00 0. -1.
</event>
<event>
 4    1  0.1602044E+006  0.2097590E+02  0.7546771E-02  0.1519609E+00
         21   -1    0    0  504  501  0.00000000000E+00  0.00000000000E+00  0.17121894993E+01  0.17121894993E+01  0.00000000000E+00 0.  1.
         21   -1    0    0  503  502 -0.00000000000E+00 -0.00000000000E+00 -0.38469617657E+03  0.38469617657E+03  0.00000000000E+00 0. -1.
         21    1    1    2  503  501 -0.20781887284E+02  0.28463228184E+01 -0.30281643854E+03  0.30354206272E+03  0.00000000000E+00 0. -1.
         21    1    1    2  504  502  0.20781887284E+02 -0.28463228184E+01 -0.80167548531E+02  0.82866303346E+02  0.00000000000E+00 0.  1.
</event>
<event>
 4    1  0.1602044E+006  0.3657456E+02  0.7546771E-02  0.1369819E+00
         21   -1    0    0  503  501  0.00000000000E+00  0.00000000000E+00  0.79140014190E+02  0.79140014190E+02  0.00000000000E+00 0.  1.
         21   -1    0    0  504  502 -0.00000000000E+00 -0.00000000000E+00 -0.17660294997E+02  0.17660294997E+02  0.00000000000E+00 0.  1.
         21    1    1    2  503  502  0.24577592932E+02 -0.27085799204E+02  0.40762881369E+02  0.54765966534E+02  0.00000000000E+00 0.  1.
         21    1    1    2  504  501 -0.24577592932E+02  0.27085799204E+02  0.20716837824E+02  0.42034342653E+02  0.00000000000E+00 0.  1.
</event>
<event>
 4    1  0.1602044E+006  0.2124640E+02  0.7546771E-02  0.1515776E+00
         21   -1    0    0  504  501  0.00000000000E+00  0.00000000000E+00  0.21783148446E+02  0.21783148446E+02  0.00000000000E+00 0. -1.
         21   -1    0    0  503  502 -0.00000000000E+00 -0.00000000000E+00 -0.21167477269E+02  0.21167477269E+02  0.00000000000E+00 0. -1.
         21    1    1    2  503  501 -0.13597406680E+02 -0.16325447651E+02 -0.28044915956E+01  0.21430699535E+02  0.00000000000E+00 0. -1.
         21    1    1    2  504  502  0.13597406680E+02  0.16325447651E+02  0.34201627730E+01  0.21519926181E+02  0.00000000000E+00 0. -1.
</event>
<event>
 4    1  0.1602044E+006  0.3153076E+02  0.7546771E-02  0.1406745E+00
         21   -1    0    0  504  501  0.00000000000E+00  0.00000000000E+00  0.14053496570E+02  0.14053496570E+02  0.00000000000E+00 0.  1.
         21   -1    0    0  501  502 -0.00000000000E+00 -0.00000000000E+00 -0.11491505812E+03  0.11491505812E+03  0.00000000000E+00 0. -1.
         21    1    1    2  503  502  0.31188370843E+02 -0.46340364979E+01 -0.90410376000E+02  0.95750847821E+02  0.00000000000E+00 0. -1.
         21    1    1    2  504  503 -0.31188370843E+02  0.46340364979E+01 -0.10451185548E+02  0.33217706866E+02  0.00000000000E+00 0.  1.
</event>
<event>
 4    1  0.1602044E+006  0.2503902E+02  0.7546771E-02  0.1468367E+00
         21   -1    0    0  504  501  0.00000000000E+00  0.00000000000E+00  0.20220230294E+02  0.20220230294E+02  0.00000000000E+00 0.  1.
         21   -1    0    0  501  502 -0.00000000000E+00 -0.00000000000E+00 -0.31864022022E+03  0.31864022022E+03  0.00000000000E+00 0. -1.
         21    1    1    2  503  502  0.55380690115E+01  0.24418889384E+02 -0.31018584323E+03  0.31119480990E+03  0.00000000000E+00 0. -1.
         21    1    1    2  504  503 -0.55380690115E+01 -0.24418889384E+02  0.11765853300E+02  0.27665640621E+02  0.00000000000E+00 0.  1.
</event>
<event>
 4    1  0.1602044E+006  0.2993854E+02  0.7546771E-02  0.1420131E+00
         21   -1    0    0  504  501  0.00000000000E+00  0.00000000000E+00  0.91069909324E+01  0.91069909324E+01  0.00000000000E+00 0.  1.
         21   -1    0    0  503  502 -0.00000000000E+00 -0.00000000000E+00 -0.11232395684E+03  0.11232395684E+03  0.00000000000E+00 0.  1.
         21    1    1    2  503  501  0.97894876338E+01 -0.28292787311E+02 -0.72969522880E+02  0.78872473978E+02  0.00000000000E+00 0.  1.
         21    1    1    2  504  502 -0.97894876338E+01  0.28292787311E+02 -0.30247443025E+02  0.42558473792E+02  0.00000000000E+00 0.  1.
</event>
<event>
 4    1  0.1602044E+006  0.2804526E+02  0.7546771E-02  0.1437382E+00
         21   -1    0    0  503  501  0.00000000000E+00  0.00000000000E+00  0.13159107883E+03  0.13159107883E+03  0.00000000000E+00 0.  1.
         21   -1    0    0  504  502 -0.00000000000E+00 -0.00000000000E+00 -0.66291530282E+01  0.66291530282E+01  0.00000000000E+00 0.  1.
         21    1    1    2  503  502 -0.25666706682E+02  0.11302951518E+02  0.84155267891E+02  0.88705386864E+02  0.00000000000E+00 0.  1.
         21    1    1    2  504  501  0.25666706682E+02 -0.11302951518E+02  0.40806657909E+02  0.49514844992E+02  0.00000000000E+00 0.  1.
</event>
<event>
 4    1  0.1602044E+006  0.2379685E+02  0.7546771E-02  0.1482727E+00
         21   -1    0    0  504  501  0.00000000000E+00  0.00000000000E+00  0.55117843213E+03  0.55117843213E+03  0.00000000000E+00 0. -1.
         21   -1    0    0  503  502 -0.00000000000E+00 -0.00000000000E+00 -0.11347048180E+02  0.11347048180E+02  0.00000000000E+00 0. -1.
         21    1    1    2  503  501 -0.71391765234E+01 -0.22700706494E+02  0.53814291214E+03  0.53866880716E+03  0.00000000000E+00 0. -1.
         21    1    1    2  504  502  0.71391765234E+01  0.22700706494E+02  0.16884718069E+01  0.23856673150E+02  0.00000000000E+00 0. -1.
</event>
<event>
 4    1  0.1602044E+006  0.2319240E+02  0.7546771E-02  0.1490096E+00
         21   -1    0    0  502  501  0.00000000000E+00  0.00000000000E+00  0.21859555023E+03  0.21859555023E+03  0.00000000000E+00 0.  1.
         21   -1    0    0  504  502 -0.00000000000E+00 -0.00000000000E+00 -0.14069248650E+02  0.14069248650E+02  0.00000000000E+00 0. -1.
         21    1    1    2  503  501 -0.13357682117E+02 -0.18959425490E+02  0.20793397671E+03  0.20922338817E+03  0.00000000000E+00 0.  1.
         21    1    1    2  504  503  0.13357682117E+02  0.18959425490E+02 -0.34076751280E+01  0.23441410713E+02  0.00000000000E+00 0. -1.
</event>
<event>
 4    1  0.1602044E+006  0.2976354E+02  0.7546771E-02  0.1421663E+00
         21   -1    0    0  502  501  0.00000000000E+00  0.00000000000E+00  0.59704271764E+03  0.59704271764E+03  0.00000000000E+00 0.  1.
         21   -1    0    0  503  502 -0.00000000000E+00 -0.00000000000E+00 -0.29220050408E+01  0.29220050408E+01  0.00000000000E+00 0. -1.
         21    1    1    2  503  504  0.21788063489E+02  0.20276801098E+02  0.86599364269E+02  0.91571383440E+02  0.00000000000E+00 0. -1.
         21    1    1    2  504  501 -0.21788063489E+02 -0.20276801098E+02  0.50752134833E+03  0.50839333924E+03  0.00000000000E+00 0.  1.
</event>
<event>
 4    1  0.1602044E+006  0.2254344E+02  0.7546771E-02  0.1498312E+00
         21   -1    0    0  503  501  0.00000000000E+00  0.00000000000E+00  0.44980850568E+02  0.44980850568E+02  0.00000000000E+00 0. -1.
         21   -1    0    0  504  502 -0.00000000000E+00 -0.00000000000E+00 -0.15826791498E+02  0.15826791498E+02  0.00000000000E+00 0. -1.
         21    1    1    2  503  502 -0.19118241815E+02  0.11945694279E+02 -0.16862786304E+01  0.22606422042E+02  0.00000000000E+00 0. -1.
         21    1    1    2  504  501  0.19118241815E+02 -0.11945694279E+02  0.30840337700E+02  0.38201220024E+02  0.00000000000E+00 0. -1.
</event>
<event>
 4    1  0.1602044E+006  0.2403401E+02  0.7546771E-02  0.1479907E+00
         21   -1    0    0  503  501  0.00000000000E+00  0.00000000000E+00  0.44213318548E+03  0.44213318548E+03  0.00000000000E+00 0.  1.
         21   -1    0    0  501  502 -0.00000000000E+00 -0.00000000000E+00 -0.59159140994E+01  0.59159140994E+01  0.00000000000E+00 0.  1.
         21    1    1    2  503  504 -0.23853034428E+02  0.29438893617E+01  0.41585520629E+03  0.41654914036E+03  0.00000000000E+00 0.  1.
         21    1    1    2  504  502  0.23853034428E+02 -0.29438893617E+01  0.20362065087E+02  0.31499959216E+02  0.00000000000E+00 0.  1.
</event>
<event>
 4    1  0.1602044E+006  0.2125557E+02  0.7546771E-02  0.1515647E+00
         21   -1    0    0  504  501  0.00000000000E+00  0.00000000000E+00  0.59131508335E+01  0.59131508335E+01  0.00000000000E+00 0. -1.
         21   -1    0    0  503  502 -0.00000000000E+00 -0.00000000000E+00 -0.96810761937E+02  0.96810761937E+02  0.00000000000E+00 0. -1.
         21    1    1    2  503  501  0.16893390261E+02  0.12900094920E+02 -0.69029007427E+02  0.72227439036E+02  0.00000000000E+00 0. -1.
         21    1    1    2  504  502 -0.16893390261E+02 -0.12900094920E+02 -0.21868603677E+02  0.30496473734E+02  0.00000000000E+00 0. -1.
</event>
<event>
 4    1  0.1602044E+006  0.2541576E+02  0.7546771E-02  0.1464206E+00
         21   -1    0    0  503  501  0.00000000000E+00  0.00000000000E+00  0.18073630392E+03  0.18073630392E+03  0.00000000000E+00 0. -1.
         21   -1    0    0  501  502 -0.00000000000E+00 -0.00000000000E+00 -0.15920231516E+03  0.15920231516E+03  0.00000000000E+00 0. -1.
         21    1    1    2  503  504 -0.22200729752E+02 -0.12372888362E+02  0.17881759051E+03  0.18061475976E+03  0.00000000000E+00 0. -1.
         21    1    1    2  504  502  0.22200729752E+02  0.12372888362E+02 -0.15728360175E+03  0.15932385932E+03  0.00000000000E+00 0. -1.
</event>
<event>
 4    1  0.1602044E+006  0.2001245E+02  0.7546771E-02  0.1533845E+00
         21   -1    0    0  504  501  0.00000000000E+00  0.00000000000E+00  0.40244717118E+02  0.40244717118E+02  0.00000000000E+00 0.  1.
         21   -1    0    0  503  502 -0.00000000000E+00 -0.00000000000E+00 -0.10892213036E+03  0.10892213036E+03  0.00000000000E+00 0. -1.
         21    1    1    2  503  501 -0.17350496274E+02  0.99728944223E+01 -0.10543341131E+03  0.10731590080E+03  0.00000000000E+00 0. -1.
         21    1    1    2  504  502  0.17350496274E+02 -0.99728944223E+01  0.36755998066E+02  0.41850946679E+02  0.00000000000E+00 0.  1.
</event>
<event>
 4    1  0.1602044E+006  0.2152763E+02  0.7546771E-02  0.1511863E+00
         21   -1    0    0  502  501  0.00000000000E+00  0.00000000000E+00  0.30868358750E+02  0.30868358750E+02  0.00000000000E+00 0.  1.
         21   -1    0    0  503  502 -0.00000000000E+00 -0.00000000000E+00 -0.24596041057E+03  0.24596041057E+03  0.00000000000E+00 0.  1.
         21    1    1    2  503  504  0.10088983705E+02 -0.19017135766E+02 -0.24166949978E+03  0.24262643337E+03  0.00000000000E+00 0.  1.
         21    1    1    2  504  501 -0.10088983705E+02  0.19017135766E+02  0.26577447957E+02  0.34202335956E+02  0.00000000000E+00 0.  1.
</event>
<event>
 4    1  0.1602044E+006  0.2010610E+02  0.7546771E-02  0.1532420E+00
         21   -1    0    0  504  501  0.00000000000E+00  0.00000000000E+00  0.13452503361E+01  0.13452503361E+01  0.00000000000E+00 0.  1.
         21   -1    0    0  501  502 -0.00000000000E+00 -0.00000000000E+00 -0.41247936107E+03  0.41247936107E+03  0.00000000000E+00 0.  1.
         21    1    1    2  503  502 -0.17413432275E+02  0.10051240847E+02 -0.31337322613E+03  0.31401756945E+03  0.00000000000E+00 0.  1.
         21    1    1    2  504  503  0.17413432275E+02 -0.10051240847E+02 -0.97760884606E+02  0.99807041961E+02  0.00000000000E+00 0.  1.
</event>
<event>
 4    1  0.1602044E+006  0.2111678E+02  0.7546771E-02  0.1517604E+00
         21   -1    0    0  503  501  0.00000000000E+00  0.00000000000E+00  0.78114762364E+03  0.78114762364E+03  0.00000000000E+00 0.  1.
         21   -1    0    0  501  502 -0.00000000000E+00 -0.00000000000E+00 -0.84265390427E+01  0.84265390427E+01  0.00000000000E+00 0.  1.
         21    1    1    2  503  504  0.18536050363E+02 -0.10115989160E+02  0.76754084123E+03  0.76783127141E+03  0.00000000000E+00 0.  1.
         21    1    1    2  504  502 -0.18536050363E+02  0.10115989160E+02  0.51802433735E+01  0.21742891278E+02  0.00000000000E+00 0.  1.
</event>
<event>
 4    1  0.1602044E+006  0.2149306E+02  0.7546771E-02  0.1512340E+00
         21   -1    0    0  504  501  0.00000000000E+00  0.00000000000E+00  0.18732239907E+02  0.18732239907E+02  0.00000000000E+00 0.  1.
         21   -1    0    0  503  502 -0.00000000000E+00 -0.00000000000E+00 -0.12933725377E+03  0.12933725377E+03  0.00000000000E+00 0.  1.
         21    1    1    2  503  501 -0.15692697513E+02  0.14686424031E+02  0.11301184869E+02  0.24283092585E+02  0.00000000000E+00 0.  1.
         21    1    1    2  504  502  0.15692697513E+02 -0.14686424031E+02 -0.12190619873E+03  0.12378640109E+03  0.00000000000E+00 0.  1.
</event>
<event>
 4    1  0.1602044E+006  0.2056197E+02  0.7546771E-02  0.1525612E+00
         21   -1    0    0  503  501  0.00000000000E+00  0.00000000000E+00  0.56745198490E+03  0.56745198490E+03  0.00000000000E+00 0. -1.
         21   -1    0    0  504  502 -0.00000000000E+00 -0.00000000000E+00 -0.14704118886E+01  0.14704118886E+01  0.00000000000E+00 0.  1.
         21    1    1    2  503  502 -0.39330053498E+01  0.20182316661E+02  0.83200975346E+02  0.85704123211E+02  0.00000000000E+00 0.  1.
         21    1    1    2  504  501  0.39330053498E+01 -0.20182316661E+02  0.48278059767E+03  0.48321827358E+03  0.00000000000E+00 0. -1.
</event>
<event>
 4    1  0.1602044E+006  0.2135828E+02  0.7546771E-02  0.1514211E+00
         21   -1    0    0  503  501  0.00000000000E+00  0.00000000000E+00  0.37583924816E+01  0.37583924816E+01  0.00000000000E+00 0.  1.
         21   -1    0    0  504  502 -0.00000000000E+00 -0.00000000000E+00 -0.22185240168E+03  0.22185240168E+03  0.00000000000E+00 0. -1.
         21    1    1    2  503  502  0.19217698312E+02 -0.93196619681E+01 -0.33131347829E+02  0.39419059307E+02  0.00000000000E+00 0.  1.
         21    1    1    2  504  501 -0.19217698312E+02  0.93196619681E+01 -0.18496266137E+03  0.18619173485E+03  0.00000000000E+00 0. -1.
</event>
<event>
 4    1  0.1602044E+006  0.2633427E+02  0.7546771E-02  0.1454413E+00
         21   -1    0    0  504  501  0.00000000000E+00  0.00000000000E+00  0.11695317744E+03  0.11695317744E+03  0.00000000000E+00 0.  1.
         21   -1    0    0  503  502 -0.00000000000E+00 -0.00000000000E+00 -0.28762105382E+02  0.28762105382E+02  0.00000000000E+00 0. -1.
         21    1    1    2  503  501 -0.26091780065E+02  0.35655204509E+01  0.10900991038E+03  0.11214568420E+03  0.00000000000E+00 0.  1.
         21    1    1    2  504  502  0.26091780065E+02 -0.35655204509E+01 -0.20818838319E+02  0.33569598627E+02  0.00000000000E+00 0. -1.
</event>
<event>
 4    1  0.1602044E+006  0.2519052E+02  0.7546771E-02  0.1466683E+00
         21   -1    0    0  503  501  0.00000000000E+00  0.00000000000E+00  0.10687750048E+04  0.10687750048E+04  0.00000000000E+00 0. -1.
         21   -1    0    0  504  502 -0.00000000000E+00 -0.00000000000E+00 -0.89200411778E+01  0.89200411778E+01  0.00000000000E+00 0.  1.
         21    1    1    2  503  502 -0.24335911770E+02  0.65058119729E+01  0.10505330621E+04  0.10508350378E+04  0.00000000000E+00 0. -1.
         21    1    1    2  504  501  0.24335911770E+02 -0.65058119729E+01  0.93219015799E+01  0.26860008194E+02  0.00000000000E+00 0.  1.
</event>
<event>
 4    1  0.1602044E+006  0.2396419E+02  0.7546771E-02  0.1480733E+00
         21   -1    0    0  504  501  0.00000000000E+00  0.00000000000E+00  0.11047672564E+03  0.11047672564E+03  0.00000000000E+00 0. -1.
         21   -1    0    0  503  502 -0.00000000000E+00 -0.00000000000E+00 -0.60176802493E+02  0.60176802493E+02  0.00000000000E+00 0. -1.
         21    1    1    2  503  501  0.20100360353E+02 -0.13048296467E+02  0.10670813369E+03  0.10936593767E+03  0.00000000000E+00 0. -1.
         21    1    1    2  504  502 -0.20100360353E+02  0.13048296467E+02 -0.56408210547E+02  0.61287590458E+02  0.00000000000E+00 0. -1.
</event>
<event>
 4    1  0.1602044E+006  0.5853069E+02  0.7546771E-02  0.1264908E+00
         21   -1    0    0  502  501  0.00000000000E+00  0.00000000000E+00  0.26925845556E+03  0.26925845556E+03  0.00000000000E+00 0. -1.
         21   -1    0    0  503  502 -0.00000000000E+00 -0.00000000000E+00 -0.71132786021E+02  0.71132786021E+02  0.00000000000E+00 0.  1.
         21    1    1    2  503  504 -0.56667277771E+02  0.14651336458E+02 -0.55162371081E+02  0.80428410485E+02  0.00000000000E+00 0.  1.
         21    1    1    2  504  501  0.56667277771E+02 -0.14651336458E+02  0.25328804062E+03  0.25996283109E+03  0.00000000000E+00 0. -1.
</event>
<event>
 4    1  0.1602044E+006  0.2027497E+02  0.7546771E-02  0.1529873E+00
         21   -1    0    0  502  501  0.00000000000E+00  0.00000000000E+00  0.15647277878E+02  0.15647277878E+02  0.00000000000E+00 0.  1.
         21   -1    0    0  503  502 -0.00000000000E+00 -0.00000000000E+00 -0.29704609982E+02  0.29704609982E+02  0.00000000000E+00 0.  1.
         21    1    1    2  503  504 -0.12553339916E+02  0.15921306713E+02 -0.14737876081E+02  0.25065501030E+02  0.00000000000E+00 0.  1.
         21    1    1    2  504  501  0.12553339916E+02 -0.15921306713E+02  0.68054397657E+00  0.20286386830E+02  0.00000000000E+00 0.  1.
</event>
<event>
 4    1  0.1602044E+006  0.2963886E+02  0.7546771E-02  0.1422761E+00
         21   -1    0    0  504  501  0.00000000000E+00  0.00000000000E+00  0.24390343063E+03  0.24390343063E+03  0.00000000000E+00 0.  1.
         21   -1    0    0  503  502 -0.00000000000E+00 -0.00000000000E+00 -0.36667790391E+01  0.36667790391E+01  0.00000000000E+00 0.  1.
         21    1    1    2  503  501  0.27900222262E+02  0.10001978866E+02  0.10362474278E+03  0.10778009695E+03  0.00000000000E+00 0.  1.
         21    1    1    2  504  502 -0.27900222262E+02 -0.10001978866E+02  0.13661190882E+03  0.13979011272E+03  0.00000000000E+00 0.  1.
</event>
<event>
 4    1  0.1602044E+006  0.4840173E+02  0.7546771E-02  0.1305255E+00
         21   -1    0    0  504  501  0.00000000000E+00  0.00000000000E+00  0.25994782560E+03  0.25994782560E+03  0.00000000000E+00 0.  1.
         21   -1    0    0  503  502 -0.00000000000E+00 -0.00000000000E+00 -0.10310601588E+02  0.10310601588E+02  0.00000000000E+00 0.  1.
         21    1    1    2  503  501 -0.46371570461E+02 -0.13871005560E+02  0.76867870456E+02  0.90837199707E+02  0.00000000000E+00 0.  1.
         21    1    1    2  504  502  0.46371570461E+02  0.13871005560E+02  0.17276935356E+03  0.17942122748E+03  0.00000000000E+00 0.  1.
</event>
<event>
 4    1  0.1602044E+006  0.2132610E+02  0.7546771E-02  0.1514660E+00
         21   -1    0    0  504  501  0.00000000000E+00  0.00000000000E+00  0.14975120665E+01  0.14975120665E+01  0.00000000000E+00 0.  1.
         21   -1    0    0  503  502 -0.00000000000E+00 -0.00000000000E+00 -0.35689590206E+03  0.35689590206E+03  0.00000000000E+00 0.  1.
         21    1    1    2  503  501 -0.67594417219E+01  0.20226524961E+02 -0.24687857441E+03  0.24779796784E+03  0.00000000000E+00 0.  1.
         21    1    1    2  504  502  0.67594417219E+01 -0.20226524961E+02 -0.10851981558E+03  0.11059544628E+03  0.00000000000E+00 0.  1.
</event>
<event>
 4    1  0.1602044E+006  0.2012942E+02  0.7546771E-02  0.1532066E+00
         21   -1    0    0  503  501  0.00000000000E+00  0.00000000000E+00  0.68326442317E+02  0.68326442317E+02  0.00000000000E+00 0. -1.
         21   -1    0    0  504  502 -0.00000000000E+00 -0.00000000000E+00 -0.80482247151E+01  0.80482247151E+01  0.00000000000E+00 0. -1.
         21    1    1    2  503  502  0.88726808774E+01  0.18068456009E+02  0.10549369948E+02  0.22726257387E+02  0.00000000000E+00 0. -1.
         21    1    1    2  504  501 -0.88726808774E+01 -0.18068456009E+02  0.49728847654E+02  0.53648409646E+02  0.00000000000E+00 0. -1.
</event>
<event>
 4    1  0.1602044E+006  0.2002368E+02  0.7546771E-02  0.1533674E+00
         21   -1    0    0  502  501  0.00000000000E+00  0.00000000000E+00  0.42091013089E+02  0.42091013089E+02  0.00000000000E+00 0. -1.
         21   -1    0    0  503  502 -0.00000000000E+00 -0.00000000000E+00 -0.15622403262E+03  0.15622403262E+03  0.00000000000E+00 0.  1.
         21    1    1    2  503  504 -0.18711592477E+02 -0.71290955749E+01 -0.15315343332E+03  0.15445686075E+03  0.00000000000E+00 0.  1.
         21    1    1    2  504  501  0.18711592477E+02  0.71290955749E+01  0.39020413780E+02  0.43858184964E+02  0.00000000000E+00 0. -1.
</event>
<event>
 4    1  0.1602044E+006  0.2887377E+02  0.7546771E-02  0.1429642E+00
         21   -1    0    0  504  501  0.00000000000E+00  0.00000000000E+00  0.80378062345E+02  0.80378062345E+02  0.00000000000E+00 0. -1.
         21   -1    0    0  503  502 -0.00000000000E+00 -0.00000000000E+00 -0.10511252514E+02  0.10511252514E+02  0.00000000000E+00 0.  1.
         21    1    1    2  503  501  0.28862861782E+02 -0.79368934037E+00  0.40160924069E+02  0.49463062532E+02  0.00000000000E+00 0. -1.
         21    1    1    2  504  502 -0.28862861782E+02  0.79368934037E+00  0.29705885762E+02  0.41426252327E+02  0.00000000000E+00 0.  1.
</event>
<event>
 4    1  0.1602044E+006  0.2307622E+02  0.7546771E-02  0.1491543E+00
         21   -1    0    0  502  501  0.00000000000E+00  0.00000000000E+00  0.14753203045E+02  0.14753203045E+02  0.00000000000E+00 0. -1.
         21   -1    0    0  503  502 -0.00000000000E+00 -0.00000000000E+00 -0.62261486242E+02  0.62261486242E+02  0.00000000000E+00 0. -1.
         21    1    1    2  503  504  0.11737600840E+02 -0.19868081573E+02 -0.48717861683E+02  0.53906789793E+02  0.00000000000E+00 0. -1.
         21    1    1    2  504  501 -0.11737600840E+02  0.19868081573E+02  0.12095784862E+01  0.23107899493E+02  0.00000000000E+00 0. -1.
</event>
<event>
 4    1  0.1602044E+006  0.2035599E+02  0.7546771E-02  0.1528661E+00
         21   -1    0    0  504  501  0.00000000000E+00  0.00000000000E+00  0.41634829325E+01  0.41634829325E+01  0.00000000000E+00 0.  1.
         21   -1    0    0  503  502 -0.00000000000E+00 -0.00000000000E+00 -0.38971635561E+03  0.38971635561E+03  0.00000000000E+00 0.  1.
         21    1    1    2  503  501 -0.18080582186E+02 -0.93519553241E+01 -0.22833775028E+02  0.30589995139E+02  0.00000000000E+00 0.  1.
         21    1    1    2  504  502  0.18080582186E+02  0.93519553241E+01 -0.36271909765E+03  0.36328984340E+03  0.00000000000E+00 0.  1.
</event>
<event>
 4    1  0.1602044E+006  0.2417128E+02  0.7546771E-02  0.1478292E+00
         21   -1    0    0  503  501  0.00000000000E+00  0.00000000000E+00  0.56614474355E+03  0.56614474355E+03  0.00000000000E+00 0.  1.
         21   -1    0    0  504  502 -0.00000000000E+00 -0.00000000000E+00 -0.10322307389E+01  0.10322307389E+01  0.00000000000E+00 0.  1.
         21    1    1    2  503  502  0.45224814188E+00  0.24167047090E+02  0.28696615243E+03  0.28798233163E+03  0.00000000000E+00 0.  1.
         21    1    1    2  504  501 -0.45224814188E+00 -0.24167047090E+02  0.27814636039E+03  0.27919464266E+03  0.00000000000E+00 0.  1.
</event>
<event>
 4    1  0.1602044E+006  0.3389733E+02  0.7546771E-02  0.1388485E+00
         21   -1    0    0  503  501  0.00000000000E+00  0.00000000000E+00  0.21768577362E+03  0.21768577362E+03  0.00000000000E+00 0.  1.
         21   -1    0    0  504  502 -0.00000000000E+00 -0.00000000000E+00 -0.42944418758E+02  0.42944418758E+02  0.00000000000E+00 0. -1.
         21    1    1    2  503  502 -0.33601216335E+02 -0.44707367639E+01  0.20941464353E+03  0.21214033598E+03  0.00000000000E+00 0.  1.
         21    1    1    2  504  501  0.33601216335E+02  0.44707367639E+01 -0.34673288666E+02  0.48489856396E+02  0.00000000000E+00 0. -1.
</event>
<event>
 4    1  0.1602044E+006  0.2982720E+02  0.7546771E-02  0.1421104E+00
         21   -1    0    0  503  501  0.00000000000E+00  0.00000000000E+00  0.23186202299E+02  0.23186202299E+02  0.00000000000E+00 0.  1.
         21   -1    0    0  504  502 -0.00000000000E+00 -0.00000000000E+00 -0.93604186174E+02  0.93604186174E+02  0.00000000000E+00 0.  1.
         21    1    1    2  503  502  0.29727480867E+02  0.24369117759E+01 -0.80066201254E+02  0.85441548681E+02  0.00000000000E+00 0.  1.
         21    1    1    2  504  501 -0.29727480867E+02 -0.24369117759E+01  0.96482173792E+01  0.31348839792E+02  0.00000000000E+00 0.  1.
</event>
<event>
 4    1  0.1602044E+006  0.2232739E+02  0.7546771E-02  0.1501121E+00
         21   -1    0    0  503  501  0.00000000000E+00  0.00000000000E+00  0.15457440664E+02  0.15457440664E+02  0.00000000000E+00 0.  1.
         21   -1    0    0  504  502 -0.00000000000E+00 -0.00000000000E+00 -0.15191379197E+03  0.15191379197E+03  0.00000000000E+00 0.  1.
         21    1    1    2  503  502  0.18042324705E+02 -0.13152448971E+02  0.60450748771E+01  0.23131262935E+02  0.00000000000E+00 0.  1.
         21    1    1    2  504  501 -0.18042324705E+02  0.13152448971E+02 -0.14250142618E+03  0.14423996970E+03  0.00000000000E+00 0.  1.
</event>
<event>
 4    1  0.1602044E+006  0.2530876E+02  0.7546771E-02  0.1465379E+00
         21   -1    0    0  502  501  0.00000000000E+00  0.00000000000E+00  0.11721756522E+02  0.11721756522E+02  0.00000000000E+00 0.  1.
         21   -1    0    0  504  502 -0.00000000000E+00 -0.00000000000E+00 -0.12223168518E+03  0.12223168518E+03  0.00000000000E+00 0.  1.
         21    1    1    2  503  501 -0.25305949534E+02  0.37697424028E+00 -0.54510868687E+01  0.25889139411E+02  0.00000000000E+00 0.  1.
         21    1    1    2  504  503  0.25305949534E+02 -0.37697424028E+00 -0.10505884179E+03  0.10806430229E+03  0.00000000000E+00 0.  1.
</event>
<event>
 4    1  0.1602044E+006  0.3043322E+02  0.7546771E-02  0.1415868E+00
         21   -1    0    0  504  501  0.00000000000E+00  0.00000000000E+00  0.11532117528E+03  0.11532117528E+03  0.00000000000E+00 0.  1.
         21   -1    0    0  501  502 -0.00000000000E+00 -0.00000000000E+00 -0.10934021892E+02  0.10934021892E+02  0.00000000000E+00 0.  1.
         21    1    1    2  503  502  0.22119929727E+01 -0.30352723217E+02  0.19667560885E+02  0.36235254529E+02  0.00000000000E+00 0.  1.
         21    1    1    2  504  503 -0.22119929727E+01  0.30352723217E+02  0.84719592506E+02  0.90019942646E+02  0.00000000000E+00 0.  1.
</event>
<event>
 4    1  0.1602044E+006  0.2212626E+02  0.7546771E-02  0.1503771E+00
         21   -1    0    0  502  501  0.00000000000E+00  0.00000000000E+00  0.11959141045E+03  0.11959141045E+03  0.00000000000E+00 0. -1.
         21   -1    0    0  503  502 -0.00000000000E+00 -0.00000000000E+00 -0.53562662243E+01  0.53562662243E+01  0.00000000000E+00 0. -1.
         21    1    1    2  503  504  0.14603792231E+02 -0.16622291468E+02  0.26786047051E+02  0.34742821385E+02  0.00000000000E+00 0. -1.
         21    1    1    2  504  501 -0.14603792231E+02  0.16622291468E+02  0.87449097180E+02  0.90204855294E+02  0.00000000000E+00 0. -1.
</event>
<event>
 4    1  0.1602044E+006  0.2510335E+02  0.7546771E-02  0.1467651E+00
         21   -1    0    0  503  501  0.00000000000E+00  0.00000000000E+00  0.16186129918E+02  0.16186129918E+02  0.00000000000E+00 0.  1.
         21   -1    0    0  504  502 -0.00000000000E+00 -0.00000000000E+00 -0.10470037881E+03  0.10470037881E+03  0.00000000000E+00 0.  1.
         21    1    1    2  503  502 -0.23489015106E+02  0.88568711681E+01 -0.92161842192E+02  0.95519543308E+02  0.00000000000E+00 0.  1.
         21    1    1    2  504  501  0.23489015106E+02 -0.88568711681E+01  0.36475933039E+01  0.25366965416E+02  0.00000000000E+00 0.  1.
</event>
<event>
 4    1  0.1602044E+006  0.2076010E+02  0.7546771E-02  0.1522718E+00
         21   -1    0    0  502  501  0.00000000000E+00  0.00000000000E+00  0.16093601780E+03  0.16093601780E+03  0.00000000000E+00 0. -1.
         21   -1    0    0  504  502 -0.00000000000E+00 -0.00000000000E+00 -0.19703305895E+02  0.19703305895E+02  0.00000000000E+00 0.  1.
         21    1    1    2  503  501  0.91421756651E+01 -0.18638738251E+02  0.15457406677E+03  0.15596193144E+03  0.00000000000E+00 0. -1.
         21    1    1    2  504  503 -0.91421756651E+01  0.18638738251E+02 -0.13341354859E+02  0.24677392264E+02  0.00000000000E+00 0.  1.
</event>
<event>
 4    1  0.1602044E+006  0.2122782E+02  0.7546771E-02  0.1516037E+00
         21   -1    0    0  504  501  0.00000000000E+00  0.00000000000E+00  0.12247205728E+03  0.12247205728E+03  0.00000000000E+00 0. -1.
         21   -1    0    0  503  502 -0.00000000000E+00 -0.00000000000E+00 -0.48492455793E+01  0.48492455793E+01  0.00000000000E+00 0. -1.
         21    1    1    2  503  501  0.82267190631E+01 -0.19568886639E+02  0.27543161498E+02  0.34774214242E+02  0.00000000000E+00 0. -1.
         21    1    1    2  504  502 -0.82267190631E+01  0.19568886639E+02  0.90079650199E+02  0.92547088613E+02  0.00000000000E+00 0. -1.
</event>
<event>
 4    1  0.1602044E+006  0.2158722E+02  0.7546771E-02  0.1511044E+00
         21   -1    0    0  503  501  0.00000000000E+00  0.00000000000E+00  0.39013227924E+02  0.39013227924E+02  0.00000000000E+00 0.  1.
         21   -1    0    0  504  502 -0.00000000000E+00 -0.00000000000E+00 -0.15652042215E+02  0.15652042215E+02  0.00000000000E+00 0.  1.
         21    1    1    2  503  502  0.13516773609E+02 -0.16831669117E+02 -0.16214058310E+01  0.21648030186E+02  0.00000000000E+00 0.  1.
         21    1    1    2  504  501 -0.13516773609E+02  0.16831669117E+02  0.24982591540E+02  0.33017239953E+02  0.00000000000E+00 0.  1.
</event>
<event>
 4    1  0.1602044E+006  0.3492947E+02  0.7546771E-02  0.1381060E+00
         21   -1    0    0  502  501  0.00000000000E+00  0.00000000000E+00  0.14151031442E+02  0.14151031442E+02  0.00000000000E+00 0.  1.
         21   -1    0    0  504  502 -0.00000000000E+00 -0.00000000000E+00 -0.15592787915E+03  0.15592787915E+03  0.00000000000E+00 0.  1.
         21    1    1    2  503  501 -0.31315053748E+02 -0.15473696502E+02 -0.14028402905E+02  0.37641253469E+02  0.00000000000E+00 0.  1.
         21    1    1    2  504  503  0.31315053748E+02  0.15473696502E+02 -0.12774844480E+03  0.13243765712E+03  0.00000000000E+00 0.  1.
</event>
<event>
 4    1  0.1602044E+006  0.3986339E+02  0.7546771E-02  0.1349288E+00
         21   -1    0    0  504  501  0.00000000000E+00  0.00000000000E+00  0.17722852437E+02  0.17722852437E+02  0.00000000000E+00 0. -1.
         21   -1    0    0  503  502 -0.00000000000E+00 -0.00000000000E+00 -0.45835764514E+03  0.45835764514E+03  0.00000000000E+00 0. -1.
         21    1    1    2  503  501 -0.18879060433E+02  0.35109415757E+02 -0.43380928311E+03  0.43563698661E+03  0.00000000000E+00 0. -1.
         21    1    1    2  504  502  0.18879060433E+02 -0.35109415757E+02 -0.68255095952E+01  0.40443510961E+02  0.00000000000E+00 0. -1.
</event>
<event>
 4    1  0.1602044E+006  0.2178226E+02  0.7546771E-02  0.1508383E+00
         21   -1    0    0  504  501  0.00000000000E+00  0.00000000000E+00  0.33454214678E+02  0.33454214678E+02  0.00000000000E+00 0.  1.
         21   -1    0    0  501  502 -0.00000000000E+00 -0.00000000000E+00 -0.28483864793E+03  0.28483864793E+03  0.00000000000E+00 0. -1.
         21    1    1    2  503  502  0.19936474502E+02  0.87751706149E+01 -0.28082598471E+03  0.28166948774E+03  0.00000000000E+00 0. -1.
         21    1    1    2  504  503 -0.19936474502E+02 -0.87751706149E+01  0.29441551456E+02  0.36623374872E+02  0.00000000000E+00 0.  1.
</event>
<event>
 4    1  0.1602044E+006  0.2625536E+02  0.7546771E-02  0.1455235E+00
         21   -1    0    0  503  501  0.00000000000E+00  0.00000000000E+00  0.49561075512E+03  0.49561075512E+03  0.00000000000E+00 0. -1.
         21   -1    0    0  501  502 -0.00000000000E+00 -0.00000000000E+00 -0.15091677322E+01  0.15091677322E+01  0.00000000000E+00 0. -1.
         21    1    1    2  503  504 -0.14485586235E+02  0.21897752096E+02  0.31663331481E+03  0.31772000221E+03  0.00000000000E+00 0. -1.
         21    1    1    2  504  502  0.14485586235E+02 -0.21897752096E+02  0.17746827258E+03  0.17939992064E+03  0.00000000000E+00 0. -1.
</event>
<event>
 4    1  0.1602044E+006  0.2258199E+02  0.7546771E-02  0.1497815E+00
         21   -1    0    0  502  501  0.00000000000E+00  0.00000000000E+00  0.43091496799E+03  0.43091496799E+03  0.00000000000E+00 0.  1.
         21   -1    0    0  503  502 -0.00000000000E+00 -0.00000000000E+00 -0.48493431432E+01  0.48493431432E+01  0.00000000000E+00 0.  1.
         21    1    1    2  503  504 -0.14371853822E+02  0.17418266990E+02  0.23592295332E+02  0.32657963903E+02  0.00000000000E+00 0.  1.
         21    1    1    2  504  501  0.14371853822E+02 -0.17418266990E+02  0.40247332952E+03  0.40310634723E+03  0.00000000000E+00 0.  1.
</event>
<event>
 4    1  0.1602044E+006  0.5884191E+02  0.7546771E-02  0.1263819E+00
         21   -1    0    0  503  501  0.00000000000E+00  0.00000000000E+00  0.10048050858E+03  0.10048050858E+03  0.00000000000E+00 0.  1.
         21   -1    0    0  504  502 -0.00000000000E+00 -0.00000000000E+00 -0.42426541675E+03  0.42426541675E+03  0.00000000000E+00 0. -1.
         21    1    1    2  503  502  0.58779692943E+02 -0.27051659484E+01 -0.41338507148E+03  0.41755189803E+03  0.00000000000E+00 0. -1.
         21    1    1    2  504  501 -0.58779692943E+02  0.27051659484E+01  0.89600163311E+02  0.10719402731E+03  0.00000000000E+00 0.  1.
</event>
<event>
 4    1  0.1602044E+006  0.2627155E+02  0.7546771E-02  0.1455066E+00
         21   -1    0    0  502  501  0.00000000000E+00  0.00000000000E+00  0.12047124802E+01  0.12047124802E+01  0.00000000000E+00 0. -1.
         21   -1    0    0  504  502 -0.00000000000E+00 -0.00000000000E+00 -0.62094608449E+03  0.62094608449E+03  0.00000000000E+00 0.  1.
         21    1    1    2  503  501 -0.26085277345E+02 -0.31229180199E+01 -0.22335134588E+03  0.22489112481E+03  0.00000000000E+00 0.  1.
         21    1    1    2  504  503  0.26085277345E+02  0.31229180199E+01 -0.39639002613E+03  0.39725967216E+03  0.00000000000E+00 0. -1.
</event>
<event>
 4    1  0.1602044E+006  0.2019172E+02  0.7546771E-02  0.1531125E+00
         21   -1    0    0  503  501  0.00000000000E+00  0.00000000000E+00  0.55833791103E+02  0.55833791103E+02  0.00000000000E+00 0. -1.
         21   -1    0    0  501  502 -0.00000000000E+00 -0.00000000000E+00 -0.35428313610E+02  0.35428313610E+02  0.00000000000E+00 0.  1.
         21    1    1    2  503  504  0.19820749751E+02 -0.38527226270E+01  0.50860236765E+02  0.54721744088E+02  0.00000000000E+00 0. -1.
         21    1    1    2  504  502 -0.19820749751E+02  0.38527226270E+01 -0.30454759271E+02  0.36540360625E+02  0.00000000000E+00 0.  1.
</event>
<event>
 4    1  0.1602044E+006  0.4364892E+02  0.7546771E-02  0.1328335E+00
         21   -1    0    0  503  501  0.00000000000E+00  0.00000000000E+00  0.22444432360E+04  0.22444432360E+04  0.00000000000E+00 0.  1.
         21   -1    0    0  501  502 -0.00000000000E+00 -0.00000000000E+00 -0.19876272478E+01  0.19876272478E+01  0.00000000000E+00 0. -1.
         21    1    1    2  503  504 -0.31669437269E+02 -0.30037894147E+02  0.19714103865E+04  0.19718935418E+04  0.00000000000E+00 0.  1.
         21    1    1    2  504  502  0.31669437269E+02  0.30037894147E+02  0.27104522232E+03  0.27453732148E+03  0.00000000000E+00 0. -1.
</event>
<event>
 4    1  0.1602044E+006  0.2259160E+02  0.7546771E-02  0.1497691E+00
         21   -1    0    0  502  501  0.00000000000E+00  0.00000000000E+00  0.13200792174E+02  0.13200792174E+02  0.00000000000E+00 0.  1.
         21   -1    0    0  504  502 -0.00000000000E+00 -0.00000000000E+00 -0.64567705212E+02  0.64567705212E+02  0.00000000000E+00 0.  1.
         21    1    1    2  503  501 -0.17497217176E+02 -0.14290820940E+02 -0.10538956323E+01  0.22616163867E+02  0.00000000000E+00 0.  1.
         21    1    1    2  504  503  0.17497217176E+02  0.14290820940E+02 -0.50313017406E+02  0.55152333518E+02  0.00000000000E+00 0.  1.
</event>
<event>
 4    1  0.1602044E+006  0.3873392E+02  0.7546771E-02  0.1356069E+00
         21   -1    0    0  502  501  0.00000000000E+00  0.00000000000E+00  0.70363498198E+02  0.70363498198E+02  0.00000000000E+00 0. -1.
         21   -1    0    0  503  502 -0.00000000000E+00 -0.00000000000E+00 -0.77498744034E+02  0.77498744034E+02  0.00000000000E+00 0. -1.
         21    1    1    2  503  504 -0.22953042163E+02 -0.31200554224E+02 -0.66511979943E+02  0.76968566339E+02  0.00000000000E+00 0. -1.
         21    1    1    2  504  501  0.22953042163E+02  0.31200554224E+02  0.59376734106E+02  0.70893675893E+02  0.00000000000E+00 0. -1.
</event>
<event>
 4    1  0.1602044E+006  0.2583347E+02  0.7546771E-02  0.1459692E+00
         21   -1    0    0  504  501  0.00000000000E+00  0.00000000000E+00  0.35367294974E+03  0.35367294974E+03  0.00000000000E+00 0. -1.
         21   -1    0    0  503  502 -0.00000000000E+00 -0.00000000000E+00 -0.55491524407E+01  0.55491524407E+01  0.00000000000E+00 0. -1.
         21    1    1    2  503  501  0.25670998750E+02 -0.28927826654E+01  0.31997356909E+03  0.32101472440E+03  0.00000000000E+00 0. -1.
         21    1    1    2  504  502 -0.25670998750E+02  0.28927826654E+01  0.28150228214E+02  0.38207377781E+02  0.00000000000E+00 0. -1.
</event>
<event>
 4    1  0.1602044E+006  0.2108867E+02  0.7546771E-02  0.1518003E+00
         21   -1    0    0  503  501  0.00000000000E+00  0.00000000000E+00  0.16209255784E+02  0.16209255784E+02  0.00000000000E+00 0.  1.
         21   -1    0    0  504  502 -0.00000000000E+00 -0.00000000000E+00 -0.42831887461E+02  0.42831887461E+02  0.00000000000E+00 0.  1.
         21    1    1    2  503  502  0.12742382012E+02  0.16803680450E+02  0.43869458371E+01  0.21540131610E+02  0.00000000000E+00 0.  1.
         21    1    1    2  504  501 -0.12742382012E+02 -0.16803680450E+02 -0.31009577514E+02  0.37501011635E+02  0.00000000000E+00 0.  1.
</event>
<event>
 4    1  0.1602044E+006  0.4702239E+02  0.7546771E-02  0.1311626E+00
         21   -1    0    0  504  501  0.00000000000E+00  0.00000000000E+00  0.12874890971E+04  0.12874890971E+04  0.00000000000E+00 0. -1.
         21   -1    0    0  503  502 -0.00000000000E+00 -0.00000000000E+00 -0.45561234739E+01  0.45561234739E+01  0.00000000000E+00 0.  1.
         21    1    1    2  503  501 -0.70213263050E+01 -0.46495226609E+02  0.11513996097E+04  0.11523593912E+04  0.00000000000E+00 0. -1.
         21    1    1    2  504  502  0.70213263050E+01  0.46495226609E+02  0.13153336394E+03  0.13968582946E+03  0.00000000000E+00 0.  1.
</event>
<event>
 4    1  0.1602044E+006  0.2321975E+02  0.7546771E-02  0.1489757E+00
         21   -1    0    0  502  501  0.00000000000E+00  0.00000000000E+00  0.49209915743E+01  0.49209915743E+01  0.00000000000E+00 0.  1.
         21   -1    0    0  504  502 -0.00000000000E+00 -0.00000000000E+00 -0.11046212590E+03  0.11046212590E+03  0.00000000000E+00 0.  1.
         21    1    1    2  503  501  0.33988479474E+00 -0.23217261691E+02 -0.47564545127E+02  0.52929601503E+02  0.00000000000E+00 0.  1.
         21    1    1    2  504  503 -0.33988479474E+00  0.23217261691E+02 -0.57976589199E+02  0.62453515972E+02  0.00000000000E+00 0.  1.
</event>
<event>
 4    1  0.1602044E+006  0.2154079E+02  0.7546771E-02  0.1511682E+00
         21   -1    0    0  504  501  0.00000000000E+00  0.00000000000E+00  0.71118895194E+01  0.71118895194E+01  0.00000000000E+00 0. -1.
         21   -1    0    0  503  502 -0.00000000000E+00 -0.00000000000E+00 -0.23598118233E+03  0.23598118233E+03  0.00000000000E+00 0. -1.
         21    1    1    2  503  501 -0.13109485513E+02  0.17092302596E+02 -0.21782224254E+03  0.21888475224E+03  0.00000000000E+00 0. -1.
         21    1    1    2  504  502  0.13109485513E+02 -0.17092302596E+02 -0.11047050266E+02  0.24208319604E+02  0.00000000000E+00 0. -1.
</event>
<event>
 4    1  0.1602044E+006  0.2549186E+02  0.7546771E-02  0.1463376E+00
         21   -1    0    0  502  501  0.00000000000E+00  0.00000000000E+00  0.10963967718E+01  0.10963967718E+01  0.00000000000E+00 0.  1.
         21   -1    0    0  503  502 -0.00000000000E+00 -0.00000000000E+00 -0.64142725871E+03  0.64142725871E+03  0.00000000000E+00 0.  1.
         21    1    1    2  503  504 -0.66288805396E+01 -0.24614889398E+02 -0.40871154304E+03  0.40950575118E+03  0.00000000000E+00 0.  1.
         21    1    1    2  504  501  0.66288805396E+01  0.24614889398E+02 -0.23161931890E+03  0.23301790431E+03  0.00000000000E+00 0.  1.
</event>
<event>
 4    1  0.1602044E+006  0.3025057E+02  0.7546771E-02  0.1417431E+00
         21   -1    0    0  503  501  0.00000000000E+00  0.00000000000E+00  0.70702573371E+02  0.70702573371E+02  0.00000000000E+00 0. -1.
         21   -1    0    0  504  502 -0.00000000000E+00 -0.00000000000E+00 -0.32006813765E+03  0.32006813765E+03  0.00000000000E+00 0.  1.
         21    1    1    2  503  502 -0.80741963384E+00  0.30239792509E+02  0.66711312782E+02  0.73249547647E+02  0.00000000000E+00 0. -1.
         21    1    1    2  504  501  0.80741963384E+00 -0.30239792509E+02 -0.31607687707E+03  0.31752116338E+03  0.00000000000E+00 0.  1.
</event>
<event>
 4    1  0.1602044E+006  0.3528734E+02  0.7546771E-02  0.1378554E+00
         21   -1    0    0  503  501  0.00000000000E+00  0.00000000000E+00  0.25365079456E+02  0.25365079456E+02  0.00000000000E+00 0. -1.
         21   -1    0    0  501  502 -0.00000000000E+00 -0.00000000000E+00 -0.80815376814E+02  0.80815376814E+02  0.00000000000E+00 0. -1.
         21    1    1    2  503  504 -0.19007762441E+02  0.29730483802E+02  0.55380685781E+01  0.35719279160E+02  0.00000000000E+00 0. -1.
         21    1    1    2  504  502  0.19007762441E+02 -0.29730483802E+02 -0.60988365937E+02  0.70461177110E+02  0.00000000000E+00 0. -1.
</event>
<event>
 4    1  0.1602044E+006  0.2296642E+02  0.7546771E-02  0.1492920E+00
         21   -1    0    0  504  501  0.00000000000E+00  0.00000000000E+00  0.18434137854E+02  0.18434137854E+02  0.00000000000E+00 0.  1.
         21   -1    0    0  503  502 -0.00000000000E+00 -0.00000000000E+00 -0.32486211208E+02  0.32486211208E+02  0.00000000000E+00 0. -1.
         21    1    1    2  503  501  0.21968979629E+02 -0.66948149245E+01  0.17651100682E+01  0.23034153477E+02  0.00000000000E+00 0.  1.
         21    1    1    2  504  502 -0.21968979629E+02  0.66948149245E+01 -0.15817183422E+02  0.27886195586E+02  0.00000000000E+00 0. -1.
</event>
<event>
 4    1  0.1602044E+006  0.2233352E+02  0.7546771E-02  0.1501041E+00
         21   -1    0    0  503  501  0.00000000000E+00  0.00000000000E+00  0.45856263084E+02  0.45856263084E+02  0.00000000000E+00 0. -1.
         21   -1    0    0  504  502 -0.00000000000E+00 -0.00000000000E+00 -0.12668802377E+02  0.12668802377E+02  0.00000000000E+00 0. -1.
         21    1    1    2  503  502  0.19083978134E+01 -0.22251832535E+02  0.55892517524E+01  0.23022288516E+02  0.00000000000E+00 0. -1.
         21    1    1    2  504  501 -0.19083978134E+01  0.22251832535E+02  0.27598208954E+02  0.35502776945E+02  0.00000000000E+00 0. -1.
</event>
<event>
 4    1  0.1602044E+006  0.2166903E+02  0.7546771E-02  0.1509923E+00
         21   -1    0    0  504  501  0.00000000000E+00  0.00000000000E+00  0.37860477183E+01  0.37860477183E+01  0.00000000000E+00 0.  1.
         21   -1    0    0  503  502 -0.00000000000E+00 -0.00000000000E+00 -0.16739012032E+03  0.16739012032E+03  0.00000000000E+00 0.  1.
         21    1    1    2  503  501 -0.13426671636E+02  0.17007975923E+02 -0.12536748871E+03  0.12722638870E+03  0.00000000000E+00 0.  1.
         21    1    1    2  504  502  0.13426671636E+02 -0.17007975923E+02 -0.38236583895E+02  0.43949779341E+02  0.00000000000E+00 0.  1.
</event>
<event>
 4    1  0.1602044E+006  0.2160462E+02  0.7546771E-02  0.1510805E+00
         21   -1    0    0  503  501  0.00000000000E+00  0.00000000000E+00  0.70560110393E+02  0.70560110393E+02  0.00000000000E+00 0. -1.
         21   -1    0    0  504  502 -0.00000000000E+00 -0.00000000000E+00 -0.67461474263E+01  0.67461474263E+01  0.00000000000E+00 0. -1.
         21    1    1    2  503  502  0.10020419032E+02  0.19140295538E+02  0.26518962554E+02  0.34205483271E+02  0.00000000000E+00 0. -1.
         21    1    1    2  504  501 -0.10020419032E+02 -0.19140295538E+02  0.37295000413E+02  0.43100774548E+02  0.00000000000E+00 0. -1.
</event>
<event>
 4    1  0.1602044E+006  0.2283118E+02  0.7546771E-02  0.1494629E+00
         21   -1    0    0  503  501  0.00000000000E+00  0.00000000000E+00  0.40440112184E+03  0.40440112184E+03  0.00000000000E+00 0. -1.
         21   -1    0    0  504  502 -0.00000000000E+00 -0.00000000000E+00 -0.34031467526E+01  0.34031467526E+01  0.00000000000E+00 0. -1.
         21    1    1    2  503  502 -0.11889856135E+02 -0.19490866731E+02  0.39785746212E+02  0.45871212830E+02  0.00000000000E+00 0. -1.
         21    1    1    2  504  501  0.11889856135E+02  0.19490866731E+02  0.36121222888E+03  0.36193305577E+03  0.00000000000E+00 0. -1.
</event>
<event>
 4    1  0.1602044E+006  0.4039847E+02  0.7546771E-02  0.1346166E+00
         21   -1    0    0  504  501  0.00000000000E+00  0.00000000000E+00  0.18769039893E+03  0.18769039893E+03  0.00000000000E+00 0. -1.
         21   -1    0    0  503  502 -0.00000000000E+00 -0.00000000000E+00 -0.24310519735E+02  0.24310519735E+02  0.00000000000E+00 0.  1.
         21    1    1    2  503  501 -0.96724884548E+01 -0.39223455125E+02  0.16664392860E+03  0.17147080044E+03  0.00000000000E+00 0. -1.
         21    1    1    2  504  502  0.96724884548E+01  0.39223455125E+02 -0.32640494020E+01  0.40530118225E+02  0.00000000000E+00 0.  1.
</event>
<event>
 4    1  0.1602044E+006  0.2235666E+02  0.7546771E-02  0.1500739E+00
         21   -1    0    0  504  501  0.00000000000E+00  0.00000000000E+00  0.58811205303E+02  0.58811205303E+02  0.00000000000E+00 0. -1.
         21   -1    0    0  503  502 -0.00000000000E+00 -0.00000000000E+00 -0.25821301624E+02  0.25821301624E+02  0.00000000000E+00 0. -1.
         21    1    1    2  503  501  0.48612092923E+01 -0.21821753415E+02 -0.18164715196E+02  0.28805852809E+02  0.00000000000E+00 0. -1.
         21    1    1    2  504  502 -0.48612092923E+01  0.21821753415E+02  0.51154618874E+02  0.55826654119E+02  0.00000000000E+00 0. -1.
</event>
<event>
 4    1  0.1602044E+006  0.2963132E+02  0.7546771E-02  0.1422828E+00
         21   -1    0    0  503  501  0.00000000000E+00  0.00000000000E+00  0.85956816666E+01  0.85956816666E+01  0.00000000000E+00 0. -1.
         21   -1    0    0  504  502 -0.00000000000E+00 -0.00000000000E+00 -0.13006677148E+03  0.13006677148E+03  0.00000000000E+00 0.  1.
         21    1    1    2  503  502 -0.26194061037E+02  0.13852305061E+02 -0.28613085679E+02  0.41191308078E+02  0.00000000000E+00 0. -1.
         21    1    1    2  504  501  0.26194061037E+02 -0.13852305061E+02 -0.92858004138E+02  0.97471145072E+02  0.00000000000E+00 0.  1.
</event>
<event>
 4    1  0.1602044E+006  0.2115275E+02  0.7546771E-02  0.1517095E+00
         21   -1    0    0  502  501  0.00000000000E+00  0.00000000000E+00  0.19598334673E+02  0.19598334673E+02  0.00000000000E+00 0. -1.
         21   -1    0    0  503  502 -0.00000000000E+00 -0.00000000000E+00 -0.24025250218E+02  0.24025250218E+02  0.00000000000E+00 0. -1.
         21    1    1    2  503  504 -0.20655822408E+02 -0.45580633480E+01 -0.70775716712E+01  0.22305402072E+02  0.00000000000E+00 0. -1.
         21    1    1    2  504  501  0.20655822408E+02  0.45580633480E+01  0.26506561262E+01  0.21318182820E+02  0.00000000000E+00 0. -1.
</event>
<event>
 4    1  0.1602044E+006  0.2943079E+02  0.7546771E-02  0.1424608E+00
         21   -1    0    0  503  501  0.00000000000E+00  0.00000000000E+00  0.17440430457E+02  0.17440430457E+02  0.00000000000E+00 0.  1.
         21   -1    0    0  501  502 -0.00000000000E+00 -0.00000000000E+00 -0.87884392430E+02  0.87884392430E+02  0.00000000000E+00 0.  1.
         21    1    1    2  503  504  0.26918904316E+02  0.11897229536E+02 -0.49322740853E+00  0.29434924044E+02  0.00000000000E+00 0.  1.
         21    1    1    2  504  502 -0.26918904316E+02 -0.11897229536E+02 -0.69950734564E+02  0.75889898842E+02  0.00000000000E+00 0.  1.
</event>
<event>
 4    1  0.1602044E+006  0.2495496E+02  0.7546771E-02  0.1469308E+00
         21   -1    0    0  504  501  0.00000000000E+00  0.00000000000E+00  0.35392110589E+02  0.35392110589E+02  0.00000000000E+00 0.  1.
         21   -1    0    0  503  502 -0.00000000000E+00 -0.00000000000E+00 -0.18069805564E+02  0.18069805564E+02  0.00000000000E+00 0.  1.
         21    1    1    2  503  501  0.95713829003E+01  0.23046447708E+02  0.43314279527E+01  0.25328075148E+02  0.00000000000E+00 0.  1.
         21    1    1    2  504  502 -0.95713829003E+01 -0.23046447708E+02  0.12990877073E+02  0.28133841005E+02  0.00000000000E+00 0.  1.
</event>
<event>
 4    1  0.1602044E+006  0.2430947E+02  0.7546771E-02  0.1476679E+00
         21   -1    0    0  503  501  0.00000000000E+00  0.00000000000E+00  0.28063112207E+03  0.28063112207E+03  0.00000000000E+00 0. -1.
         21   -1    0    0  504  502 -0.00000000000E+00 -0.00000000000E+00 -0.93107700967E+01  0.93107700967E+01  0.00000000000E+00 0. -1.
         21    1    1    2  503  502  0.13365467401E+02  0.20305536920E+02  0.26318787624E+03  0.26430817004E+03  0.00000000000E+00 0. -1.
         21    1    1    2  504  501 -0.13365467401E+02 -0.20305536920E+02  0.81324757261E+01  0.25633722123E+02  0.00000000000E+00 0. -1.
</event>
<event>
 4    1  0.1602044E+006  0.2204511E+02  0.7546771E-02  0.1504850E+00
         21   -1    0    0  502  501  0.00000000000E+00  0.00000000000E+00  0.22519782007E+02  0.22519782007E+02  0.00000000000E+00 0. -1.
         21   -1    0    0  504  502 -0.00000000000E+00 -0.00000000000E+00 -0.31707575879E+02  0.31707575879E+02  0.00000000000E+00 0. -1.
         21    1    1    2  503  501  0.15388380281E+02  0.15785585598E+02  0.10729325257E+02  0.24517450536E+02  0.00000000000E+00 0. -1.
         21    1    1    2  504  503 -0.15388380281E+02 -0.15785585598E+02 -0.19917119129E+02  0.29709907350E+02  0.00000000000E+00 0. -1.
</event>
<event>
 4    1  0.1602044E+006  0.5454824E+02  0.7546771E-02  0.1279572E+00
         21   -1    0    0  504  501  0.00000000000E+00  0.00000000000E+00  0.89175112830E+02  0.89175112830E+02  0.00000000000E+00 0. -1.
         21   -1    0    0  501  502 -0.00000000000E+00 -0.00000000000E+00 -0.36262694404E+02  0.36262694404E+02  0.00000000000E+00 0. -1.
         21    1    1    2  503  502 -0.49218281217E+02 -0.23517469383E+02  0.87330584112E+01  0.55242889871E+02  0.00000000000E+00 0. -1.
         21    1    1    2  504  503  0.49218281217E+02  0.23517469383E+02  0.44179360015E+02  0.70194917362E+02  0.00000000000E+00 0. -1.
</event>
<event>
 4    1  0.1602044E+006  0.2079685E+02  0.7546771E-02  0.1522185E+00
         21   -1    0    0  503  501  0.00000000000E+00  0.00000000000E+00  0.21960761927E+02  0.21960761927E+02  0.00000000000E+00 0. -1.
         21   -1    0    0  504  502 -0.00000000000E+00 -0.00000000000E+00 -0.52784800313E+02  0.52784800313E+02  0.00000000000E+00 0. -1.
         21    1    1    2  503  502  0.11029284346E+02  0.17631330416E+02 -0.45002397906E+02  0.49575444957E+02  0.00000000000E+00 0. -1.
         21    1    1    2  504  501 -0.11029284346E+02 -0.17631330416E+02  0.14178359519E+02  0.25170117283E+02  0.00000000000E+00 0. -1.
</event>
<event>
 4    1  0.1602044E+006  0.2032455E+02  0.7546771E-02  0.1529131E+00
         21   -1    0    0  504  501  0.00000000000E+00  0.00000000000E+00  0.75219982661E+00  0.75219982661E+00  0.00000000000E+00 0. -1.
         21   -1    0    0  503  502 -0.00000000000E+00 -0.00000000000E+00 -0.54927838521E+03  0.54927838521E+03  0.00000000000E+00 0. -1.
         21    1    1    2  503  501 -0.80546479581E+01 -0.18660380867E+02 -0.27808844427E+03  0.27883018130E+03  0.00000000000E+00 0. -1.
         21    1    1    2  504  502  0.80546479581E+01  0.18660380867E+02 -0.27043774111E+03  0.27120040373E+03  0.00000000000E+00 0. -1.
</event>
<event>
 4    1  0.1602044E+006  0.4322388E+02  0.7546771E-02  0.1330563E+00
         21   -1    0    0  503  501  0.00000000000E+00  0.00000000000E+00  0.31424014572E+03  0.31424014572E+03  0.00000000000E+00 0. -1.
         21   -1    0    0  504  502 -0.00000000000E+00 -0.00000000000E+00 -0.87400639533E+01  0.87400639533E+01  0.00000000000E+00 0. -1.
         21    1    1    2  503  502 -0.43222755870E+02  0.31222309409E+00  0.61433746804E+02  0.75115972700E+02  0.00000000000E+00 0. -1.
         21    1    1    2  504  501  0.43222755870E+02 -0.31222309409E+00  0.24406633496E+03  0.24786423697E+03  0.00000000000E+00 0. -1.
</event>
<event>
 4    1  0.1602044E+006  0.2078531E+02  0.7546771E-02  0.1522352E+00
         21   -1    0    0  504  501  0.00000000000E+00  0.00000000000E+00  0.15489647932E+02  0.15489647932E+02  0.00000000000E+00 0.  1.
         21   -1    0    0  503  502 -0.00000000000E+00 -0.00000000000E+00 -0.19178468460E+03  0.19178468460E+03  0.00000000000E+00 0. -1.
         21    1    1    2  503  501  0.17220006629E+02 -0.11640467709E+02 -0.18395271119E+03  0.18512328073E+03  0.00000000000E+00 0. -1.
         21    1    1    2  504  502 -0.17220006629E+02  0.11640467709E+02  0.76576745181E+01  0.22151051799E+02  0.00000000000E+00 0.  1.
</event>
<event>
 4    1  0.1602044E+006  0.2073046E+02  0.7546771E-02  0.1523148E+00
         21   -1    0    0  504  501  0.00000000000E+00  0.00000000000E+00  0.35774891936E+03  0.35774891936E+03  0.00000000000E+00 0.  1.
         21   -1    0    0  503  502 -0.00000000000E+00 -0.00000000000E+00 -0.20080784706E+01  0.20080784706E+01  0.00000000000E+00 0.  1.
         21    1    1    2  503  501  0.12242303551E+02 -0.16729554362E+02  0.29188881879E+03  0.29262404980E+03  0.00000000000E+00 0.  1.
         21    1    1    2  504  502 -0.12242303551E+02  0.16729554362E+02  0.63852022100E+02  0.67132948033E+02  0.00000000000E+00 0.  1.
</event>
<event>
 4    1  0.1602044E+006  0.2434633E+02  0.7546771E-02  0.1476251E+00
         21   -1    0    0  504  501  0.00000000000E+00  0.00000000000E+00  0.34743550104E+02  0.34743550104E+02  0.00000000000E+00 0.  1.
         21   -1    0    0  503  502 -0.00000000000E+00 -0.00000000000E+00 -0.20028475693E+02  0.20028475693E+02  0.00000000000E+00 0. -1.
         21    1    1    2  503  501  0.13315055147E+02 -0.20382664382E+02 -0.31846847692E+01  0.24553735316E+02  0.00000000000E+00 0. -1.
         21    1    1    2  504  502 -0.13315055147E+02  0.20382664382E+02  0.17899759181E+02  0.30218290481E+02  0.00000000000E+00 0.  1.
</event>
<event>
 4    1  0.1602044E+006  0.2027069E+02  0.7546771E-02  0.1529937E+00
         21   -1    0    0  504  501  0.00000000000E+00  0.00000000000E+00  0.24613103741E+02  0.24613103741E+02  0.00000000000E+00 0. -1.
         21   -1    0    0  503  502 -0.00000000000E+00 -0.00000000000E+00 -0.24956969460E+03  0.24956969460E+03  0.00000000000E+00 0.  1.
         21    1    1    2  503  501 -0.72188320403E+01 -0.18941738768E+02  0.19948537762E+02  0.28440203277E+02  0.00000000000E+00 0. -1.
         21    1    1    2  504  502  0.72188320403E+01  0.18941738768E+02 -0.24490512862E+03  0.24574259507E+03  0.00000000000E+00 0.  1.
</event>
<event>
 4    1  0.1602044E+006  0.5378884E+02  0.7546771E-02  0.1282531E+00
         21   -1    0    0  503  501  0.00000000000E+00  0.00000000000E+00  0.25052662701E+03  0.25052662701E+03  0.00000000000E+00 0. -1.
         21   -1    0    0  504  502 -0.00000000000E+00 -0.00000000000E+00 -0.81838719518E+02  0.81838719518E+02  0.00000000000E+00 0. -1.
         21    1    1    2  503  502 -0.53043728188E+02  0.89220056165E+01  0.23835553390E+03  0.24434933973E+03  0.00000000000E+00 0. -1.
         21    1    1    2  504  501  0.53043728188E+02 -0.89220056165E+01 -0.69667626406E+02  0.88016006802E+02  0.00000000000E+00 0. -1.
</event>
<event>
 4    1  0.1602044E+006  0.2181108E+02  0.7546771E-02  0.1507992E+00
         21   -1    0    0  502  501  0.00000000000E+00  0.00000000000E+00  0.47384127462E+02  0.47384127462E+02  0.00000000000E+00 0. -1.
         21   -1    0    0  503  502 -0.00000000000E+00 -0.00000000000E+00 -0.24552756783E+02  0.24552756783E+02  0.00000000000E+00 0.  1.
         21    1    1    2  503  504  0.10893367402E+02  0.18895976507E+02 -0.16237848785E+02  0.27191747180E+02  0.00000000000E+00 0.  1.
         21    1    1    2  504  501 -0.10893367402E+02 -0.18895976507E+02  0.39069219464E+02  0.44745137066E+02  0.00000000000E+00 0. -1.
</event>
<event>
 4    1  0.1602044E+006  0.2174898E+02  0.7546771E-02  0.1508835E+00
         21   -1    0    0  502  501  0.00000000000E+00  0.00000000000E+00  0.86264147747E+02  0.86264147747E+02  0.00000000000E+00 0.  1.
         21   -1    0    0  503  502 -0.00000000000E+00 -0.00000000000E+00 -0.14912846462E+03  0.14912846462E+03  0.00000000000E+00 0. -1.
         21    1    1    2  503  504  0.94562757209E+01 -0.19585628593E+02 -0.14694438731E+03  0.14854518154E+03  0.00000000000E+00 0. -1.
         21    1    1    2  504  501 -0.94562757209E+01  0.19585628593E+02  0.84080070431E+02  0.86847430829E+02  0.00000000000E+00 0.  1.
</event>
<event>
 4    1  0.1602044E+006  0.2250369E+02  0.7546771E-02  0.1498826E+00
         21   -1    0    0  503  501  0.00000000000E+00  0.00000000000E+00  0.43906266599E+01  0.43906266599E+01  0.00000000000E+00 0.  1.
         21   -1    0    0  504  502 -0.00000000000E+00 -0.00000000000E+00 -0.11828335409E+03  0.11828335409E+03  0.00000000000E+00 0.  1.
         21    1    1    2  503  502 -0.22489769916E+02  0.79145375772E+00 -0.47271150471E+02  0.52354348595E+02  0.00000000000E+00 0.  1.
         21    1    1    2  504  501  0.22489769916E+02 -0.79145375772E+00 -0.66621576964E+02  0.70319632160E+02  0.00000000000E+00 0.  1.
</event>
<event>
 4    1  0.1602044E+006  0.5340231E+02  0.7546771E-02  0.1284059E+00
         21   -1    0    0  503  501  0.00000000000E+00  0.00000000000E+00  0.22246214094E+02  0.22246214094E+02  0.00000000000E+00 0.  1.
         21   -1    0    0  504  502 -0.00000000000E+00 -0.00000000000E+00 -0.17173327167E+03  0.17173327167E+03  0.00000000000E+00 0.  1.
         21    1    1    2  503  502  0.34500471911E+02 -0.40761795636E+02 -0.12358004621E+03  0.13462479106E+03  0.00000000000E+00 0.  1.
         21    1    1    2  504  501 -0.34500471911E+02  0.40761795636E+02 -0.25907011359E+02  0.59354694701E+02  0.00000000000E+00 0.  1.
</event>
<event>
 4    1  0.1602044E+006  0.2367184E+02  0.7546771E-02  0.1484230E+00
         21   -1    0    0  504  501  0.00000000000E+00  0.00000000000E+00  0.19830150185E+03  0.19830150185E+03  0.00000000000E+00 0.  1.
         21   -1    0    0  503  502 -0.00000000000E+00 -0.00000000000E+00 -0.38206813666E+02  0.38206813666E+02  0.00000000000E+00 0. -1.
         21    1    1    2  503  501  0.49146219814E+00  0.23666738422E+02  0.19384446622E+03  0.19528449280E+03  0.00000000000E+00 0.  1.
         21    1    1    2  504  502 -0.49146219814E+00 -0.23666738422E+02 -0.33749778033E+02  0.41223822723E+02  0.00000000000E+00 0. -1.
</event>
<event>
 4    1  0.1602044E+006  0.2197249E+02  0.7546771E-02  0.1505820E+00
         21   -1    0    0  503  501  0.00000000000E+00  0.00000000000E+00  0.70410943330E+02  0.70410943330E+02  0.00000000000E+00 0.  1.
         21   -1    0    0  504  502 -0.00000000000E+00 -0.00000000000E+00 -0.60631175882E+03  0.60631175882E+03  0.00000000000E+00 0.  1.
         21    1    1    2  503  502 -0.21941956408E+02  0.11579765993E+01  0.68492246819E+02  0.71930370743E+02  0.00000000000E+00 0.  1.
         21    1    1    2  504  501  0.21941956408E+02 -0.11579765993E+01 -0.60439306231E+03  0.60479233141E+03  0.00000000000E+00 0.  1.
</event>
<event>
 4    1  0.1602044E+006  0.2688471E+02  0.7546771E-02  0.1448770E+00
         21   -1    0    0  504  501  0.00000000000E+00  0.00000000000E+00  0.58797717597E+02  0.58797717597E+02  0.00000000000E+00 0.  1.
         21   -1    0    0  503  502 -0.00000000000E+00 -0.00000000000E+00 -0.18380246148E+02  0.18380246148E+02  0.00000000000E+00 0.  1.
         21    1    1    2  503  501 -0.35565551392E+01  0.26648422854E+02 -0.19990811029E+01  0.26958928954E+02  0.00000000000E+00 0.  1.
         21    1    1    2  504  502  0.35565551392E+01 -0.26648422854E+02  0.42416552552E+02  0.50219034792E+02  0.00000000000E+00 0.  1.
</event>
<event>
 4    1  0.1602044E+006  0.2116844E+02  0.7546771E-02  0.1516874E+00
         21   -1    0    0  504  501  0.00000000000E+00  0.00000000000E+00  0.79494099182E+02  0.79494099182E+02  0.00000000000E+00 0.  1.
         21   -1    0    0  501  502 -0.00000000000E+00 -0.00000000000E+00 -0.10266081619E+03  0.10266081619E+03  0.00000000000E+00 0.  1.
         21    1    1    2  503  502  0.17091320392E+02  0.12489573973E+02 -0.10012506241E+03  0.10233831547E+03  0.00000000000E+00 0.  1.
         21    1    1    2  504  503 -0.17091320392E+02 -0.12489573973E+02  0.76958345408E+02  0.79816599895E+02  0.00000000000E+00 0.  1.
</event>
<event>
 4    1  0.1602044E+006  0.2162669E+02  0.7546771E-02  0.1510502E+00
         21   -1    0    0  502  501  0.00000000000E+00  0.00000000000E+00  0.77213221818E+02  0.77213221818E+02  0.00000000000E+00 0. -1.
         21   -1    0    0  503  502 -0.00000000000E+00 -0.00000000000E+00 -0.16576573979E+02  0.16576573979E+02  0.00000000000E+00 0. -1.
         21    1    1    2  503  504  0.11757772764E+02 -0.18151269558E+02 -0.70383648372E+01  0.22743183298E+02  0.00000000000E+00 0. -1.
         21    1    1    2  504  501 -0.11757772764E+02  0.18151269558E+02  0.67675012676E+02  0.71046612499E+02  0.00000000000E+00 0. -1.
</event>
<event>
 4    1  0.1602044E+006  0.2812977E+02  0.7546771E-02  0.1436578E+00
         21   -1    0    0  503  501  0.00000000000E+00  0.00000000000E+00  0.16428058324E+02  0.16428058324E+02  0.00000000000E+00 0.  1.
         21   -1    0    0  504  502 -0.00000000000E+00 -0.00000000000E+00 -0.50463111710E+02  0.50463111710E+02  0.00000000000E+00 0.  1.
         21    1    1    2  503  502  0.43348780190E+01 -0.27793757626E+02 -0.24152358160E+02  0.37075875379E+02  0.00000000000E+00 0.  1.
         21    1    1    2  504  501 -0.43348780190E+01  0.27793757626E+02 -0.98826952263E+01  0.29815294655E+02  0.00000000000E+00 0.  1.
</event>
<event>
 4    1  0.1602044E+006  0.3067671E+02  0.7546771E-02  0.1413805E+00
         21   -1    0    0  503  501  0.00000000000E+00  0.00000000000E+00  0.40286832974E+01  0.40286832974E+01  0.00000000000E+00 0. -1.
         21   -1    0    0  504  502 -0.00000000000E+00 -0.00000000000E+00 -0.31688993935E+03  0.31688993935E+03  0.00000000000E+00 0. -1.
         21    1    1    2  503  502  0.29995807483E+02 -0.64274264522E+01 -0.74162247841E+02  0.80256459442E+02  0.00000000000E+00 0. -1.
         21    1    1    2  504  501 -0.29995807483E+02  0.64274264522E+01 -0.23869900821E+03  0.24066216320E+03  0.00000000000E+00 0. -1.
</event>
<event>
 4    1  0.1602044E+006  0.2827664E+02  0.7546771E-02  0.1435189E+00
         21   -1    0    0  503  501  0.00000000000E+00  0.00000000000E+00  0.16986982642E+03  0.16986982642E+03  0.00000000000E+00 0. -1.
         21   -1    0    0  504  502 -0.00000000000E+00 -0.00000000000E+00 -0.50302070578E+01  0.50302070578E+01  0.00000000000E+00 0. -1.
         21    1    1    2  503  502  0.22008630594E+02 -0.17753555733E+02  0.60251027588E+02  0.66556403803E+02  0.00000000000E+00 0. -1.
         21    1    1    2  504  501 -0.22008630594E+02  0.17753555733E+02  0.10458859178E+03  0.10834362968E+03  0.00000000000E+00 0. -1.
</event>
<event>
 4    1  0.1602044E+006  0.2639641E+02  0.7546771E-02  0.1453767E+00
         21   -1    0    0  503  501  0.00000000000E+00  0.00000000000E+00  0.23526992421E+04  0.23526992421E+04  0.00000000000E+00 0.  1.
         21   -1    0    0  504  502 -0.00000000000E+00 -0.00000000000E+00 -0.37615073609E+00  0.37615073609E+00  0.00000000000E+00 0.  1.
         21    1    1    2  503  502  0.26378145042E+02 -0.98183164386E+00  0.63359830810E+03  0.63414792167E+03  0.00000000000E+00 0.  1.
         21    1    1    2  504  501 -0.26378145042E+02  0.98183164386E+00  0.17187247833E+04  0.17189274712E+04  0.00000000000E+00 0.  1.
</event>
<event>
 4    1  0.1602044E+006  0.2934672E+02  0.7546771E-02  0.1425360E+00
         21   -1    0    0  504  501  0.00000000000E+00  0.00000000000E+00  0.24271715780E+03  0.24271715780E+03  0.00000000000E+00 0.  1.
         21   -1    0    0  503  502 -0.00000000000E+00 -0.00000000000E+00 -0.14275123373E+02  0.14275123373E+02  0.00000000000E+00 0.  1.
         21    1    1    2  503  501 -0.27376410299E+02  0.10571768087E+02  0.28336400538E+01  0.29483209414E+02  0.00000000000E+00 0.  1.
         21    1    1    2  504  502  0.27376410299E+02 -0.10571768087E+02  0.22560839437E+03  0.22750907176E+03  0.00000000000E+00 0.  1.
</event>
<event>
 4    1  0.1602044E+006  0.2472142E+02  0.7546771E-02  0.1471944E+00
         21   -1    0    0  504  501  0.00000000000E+00  0.00000000000E+00  0.12565950143E+03  0.12565950143E+03  0.00000000000E+00 0.  1.
         21   -1    0    0  501  502 -0.00000000000E+00 -0.00000000000E+00 -0.28447322699E+02  0.28447322699E+02  0.00000000000E+00 0.  1.
         21    1    1    2  503  502 -0.94150631789E+01  0.22858367691E+02 -0.21552044128E+02  0.32796935745E+02  0.00000000000E+00 0.  1.
         21    1    1    2  504  503  0.94150631789E+01 -0.22858367691E+02  0.11876422286E+03  0.12130988838E+03  0.00000000000E+00 0.  1.
</event>
<event>
 4    1  0.1602044E+006  0.3020319E+02  0.7546771E-02  0.1417839E+00
         21   -1    0    0  504  501  0.00000000000E+00  0.00000000000E+00  0.21389198691E+03  0.21389198691E+03  0.00000000000E+00 0.  1.
         21   -1    0    0  501  502 -0.00000000000E+00 -0.00000000000E+00 -0.18768621646E+02  0.18768621646E+02  0.00000000000E+00 0.  1.
         21    1    1    2  503  502  0.30146942744E+02  0.18424967299E+01 -0.47007339245E+01  0.30566809621E+02  0.00000000000E+00 0.  1.
         21    1    1    2  504  503 -0.30146942744E+02 -0.18424967299E+01  0.19982409919E+03  0.20209379894E+03  0.00000000000E+00 0.  1.
</event>
<event>
 4    1  0.1602044E+006  0.2273096E+02  0.7546771E-02  0.1495904E+00
         21   -1    0    0  504  501  0.00000000000E+00  0.00000000000E+00  0.12103639020E+03  0.12103639020E+03  0.00000000000E+00 0.  1.
         21   -1    0    0  503  502 -0.00000000000E+00 -0.00000000000E+00 -0.52629626694E+01  0.52629626694E+01  0.00000000000E+00 0.  1.
         21    1    1    2  503  501  0.21677980972E+02  0.68382633751E+01  0.85331181974E+02  0.88306892834E+02  0.00000000000E+00 0.  1.
         21    1    1    2  504  502 -0.21677980972E+02 -0.68382633751E+01  0.30442245558E+02  0.37992460036E+02  0.00000000000E+00 0.  1.
</event>
<event>
 4    1  0.1602044E+006  0.2247443E+02  0.7546771E-02  0.1499205E+00
         21   -1    0    0  503  501  0.00000000000E+00  0.00000000000E+00  0.15167022320E+03  0.15167022320E+03  0.00000000000E+00 0. -1.
         21   -1    0    0  504  502 -0.00000000000E+00 -0.00000000000E+00 -0.46790576670E+01  0.46790576670E+01  0.00000000000E+00 0. -1.
         21    1    1    2  503  502  0.20958777933E+02 -0.81135540294E+01  0.11546774212E+03  0.11763460206E+03  0.00000000000E+00 0. -1.
         21    1    1    2  504  501 -0.20958777933E+02  0.81135540294E+01  0.31523423408E+02  0.38714678803E+02  0.00000000000E+00 0. -1.
</event>
<event>
 4    1  0.1602044E+006  0.2097788E+02  0.7546771E-02  0.1519581E+00
         21   -1    0    0  504  501  0.00000000000E+00  0.00000000000E+00  0.32321166227E+02  0.32321166227E+02  0.00000000000E+00 0.  1.
         21   -1    0    0  503  502 -0.00000000000E+00 -0.00000000000E+00 -0.93312183593E+02  0.93312183593E+02  0.00000000000E+00 0.  1.
         21    1    1    2  503  501  0.12422138773E+02  0.16904495682E+02  0.27557625003E+02  0.34633714813E+02  0.00000000000E+00 0.  1.
         21    1    1    2  504  502 -0.12422138773E+02 -0.16904495682E+02 -0.88548642369E+02  0.90999635007E+02  0.00000000000E+00 0.  1.
</event>
<event>
 4    1  0.1602044E+006  0.3062122E+02  0.7546771E-02  0.1414273E+00
         21   -1    0    0  504  501  0.00000000000E+00  0.00000000000E+00  0.13553985990E+02  0.13553985990E+02  0.00000000000E+00 0. -1.
         21   -1    0    0  503  502 -0.00000000000E+00 -0.00000000000E+00 -0.17975795866E+03  0.17975795866E+03  0.00000000000E+00 0. -1.
         21    1    1    2  503  501  0.25950348085E+02  0.16255409545E+02 -0.15891081064E+03  0.16183418873E+03  0.00000000000E+00 0. -1.
         21    1    1    2  504  502 -0.25950348085E+02 -0.16255409545E+02 -0.72931620313E+01  0.31477755917E+02  0.00000000000E+00 0. -1.
</event>
<event>
 4    1  0.1602044E+006  0.2167826E+02  0.7546771E-02  0.1509797E+00
         21   -1    0    0  504  501  0.00000000000E+00  0.00000000000E+00  0.26684448665E+02  0.26684448665E+02  0.00000000000E+00 0.  1.
         21   -1    0    0  503  502 -0.00000000000E+00 -0.00000000000E+00 -0.18491252348E+02  0.18491252348E+02  0.00000000000E+00 0. -1.
         21    1    1    2  503  501 -0.21355303570E+02  0.37279924722E+01 -0.83093727809E+00  0.21694178371E+02  0.00000000000E+00 0.  1.
         21    1    1    2  504  502  0.21355303570E+02 -0.37279924722E+01  0.90241335959E+01  0.23481522642E+02  0.00000000000E+00 0. -1.
</event>
<event>
 4    1  0.1602044E+006  0.2002551E+02  0.7546771E-02  0.1533646E+00
         21   -1    0    0  504  501  0.00000000000E+00  0.00000000000E+00  0.15922788964E+01  0.15922788964E+01  0.00000000000E+00 0.  1.
         21   -1    0    0  503  502 -0.00000000000E+00 -0.00000000000E+00 -0.25185645833E+03  0.25185645833E+03  0.00000000000E+00 0.  1.
         21    1    1    2  503  501  0.11645908781E+02 -0.16290908465E+02 -0.12557204431E+03  0.12715879523E+03  0.00000000000E+00 0.  1.
         21    1    1    2  504  502 -0.11645908781E+02  0.16290908465E+02 -0.12469213512E+03  0.12628994201E+03  0.00000000000E+00 0.  1.
</event>
<event>
 4    1  0.1602044E+006  0.3018586E+02  0.7546771E-02  0.1417988E+00
         21   -1    0    0  504  501  0.00000000000E+00  0.00000000000E+00  0.40316355420E+03  0.40316355420E+03  0.00000000000E+00 0. -1.
         21   -1    0    0  503  502 -0.00000000000E+00 -0.00000000000E+00 -0.59718561252E+02  0.59718561252E+02  0.00000000000E+00 0.  1.
         21    1    1    2  503  501  0.21294697175E+02 -0.21394439285E+02 -0.55296797439E+02  0.62999380688E+02  0.00000000000E+00 0.  1.
         21    1    1    2  504  502 -0.21294697175E+02  0.21394439285E+02  0.39874179039E+03  0.39988273477E+03  0.00000000000E+00 0. -1.
</event>
<event>
 4    1  0.1602044E+006  0.2381507E+02  0.7546771E-02  0.1482509E+00
         21   -1    0    0  502  501  0.00000000000E+00  0.00000000000E+00  0.11081810621E+03  0.11081810621E+03  0.00000000000E+00 0. -1.
         21   -1    0    0  503  502 -0.00000000000E+00 -0.00000000000E+00 -0.18008087304E+03  0.18008087304E+03  0.00000000000E+00 0. -1.
         21    1    1    2  503  504  0.22271888214E+02 -0.84333115466E+01 -0.17799913130E+03  0.17958521234E+03  0.00000000000E+00 0. -1.
         21    1    1    2  504  501 -0.22271888214E+02  0.84333115466E+01  0.10873636446E+03  0.11131376691E+03  0.00000000000E+00 0. -1.
</event>
<event>
 4    1  0.1602044E+006  0.2040376E+02  0.7546771E-02  0.1527950E+00
         21   -1    0    0  504  501  0.00000000000E+00  0.00000000000E+00  0.57269188486E+00  0.57269188486E+00  0.00000000000E+00 0. -1.
         21   -1    0    0  503  502 -0.00000000000E+00 -0.00000000000E+00 -0.86497049208E+03  0.86497049208E+03  0.00000000000E+00 0. -1.
         21    1    1    2  503  501  0.18534907905E+02 -0.85305809593E+01 -0.25931963221E+03  0.26012109732E+03  0.00000000000E+00 0. -1.
         21    1    1    2  504  502 -0.18534907905E+02  0.85305809593E+01 -0.60507816798E+03  0.60542208664E+03  0.00000000000E+00 0. -1.
</event>
<event>
 4    1  0.1602044E+006  0.2104062E+02  0.7546771E-02  0.1518686E+00
         21   -1    0    0  502  501  0.00000000000E+00  0.00000000000E+00  0.62809565492E+01  0.62809565492E+01  0.00000000000E+00 0. -1.
         21   -1    0    0  503  502 -0.00000000000E+00 -0.00000000000E+00 -0.20309235676E+03  0.20309235676E+03  0.00000000000E+00 0. -1.
         21    1    1    2  503  504 -0.20996001233E+02 -0.13695717697E+01 -0.18299779197E+03  0.18420341924E+03  0.00000000000E+00 0. -1.
         21    1    1    2  504  501  0.20996001233E+02  0.13695717697E+01 -0.13813608236E+02  0.25169894063E+02  0.00000000000E+00 0. -1.
</event>
<event>
 4    1  0.1602044E+006  0.2227656E+02  0.7546771E-02  0.1501788E+00
         21   -1    0    0  503  501  0.00000000000E+00  0.00000000000E+00  0.12757447768E+03  0.12757447768E+03  0.00000000000E+00 0.  1.
         21   -1    0    0  504  502 -0.00000000000E+00 -0.00000000000E+00 -0.61729130109E+01  0.61729130109E+01  0.00000000000E+00 0.  1.
         21    1    1    2  503  502 -0.18297043616E+02 -0.12706818193E+02  0.10137035431E+03  0.10378917943E+03  0.00000000000E+00 0.  1.
         21    1    1    2  504  501  0.18297043616E+02  0.12706818193E+02  0.20031210365E+02  0.29958211268E+02  0.00000000000E+00 0.  1.
</event>
<event>
 4    1  0.1602044E+006  0.2418327E+02  0.7546771E-02  0.1478151E+00
         21   -1    0    0  503  501  0.00000000000E+00  0.00000000000E+00  0.24011842695E+01  0.24011842695E+01  0.00000000000E+00 0. -1.
         21   -1    0    0  504  502 -0.00000000000E+00 -0.00000000000E+00 -0.24880445340E+03  0.24880445340E+03  0.00000000000E+00 0. -1.
         21    1    1    2  503  502  0.10778641148E+02  0.21648355799E+02 -0.14143871756E+03  0.14349125841E+03  0.00000000000E+00 0. -1.
         21    1    1    2  504  501 -0.10778641148E+02 -0.21648355799E+02 -0.10496455156E+03  0.10771437926E+03  0.00000000000E+00 0. -1.
</event>
<event>
 4    1  0.1602044E+006  0.2575824E+02  0.7546771E-02  0.1460497E+00
         21   -1    0    0  503  501  0.00000000000E+00  0.00000000000E+00  0.22430789678E+03  0.22430789678E+03  0.00000000000E+00 0. -1.
         21   -1    0    0  501  502 -0.00000000000E+00 -0.00000000000E+00 -0.76525414029E+01  0.76525414029E+01  0.00000000000E+00 0. -1.
         21    1    1    2  503  504 -0.20206763586E+02  0.15974151452E+02  0.19916847903E+03  0.20082721391E+03  0.00000000000E+00 0. -1.
         21    1    1    2  504  502  0.20206763586E+02 -0.15974151452E+02  0.17486876355E+02  0.31133224277E+02  0.00000000000E+00 0. -1.
</event>
<event>
 4    1  0.1602044E+006  0.3506764E+02  0.7546771E-02  0.1380088E+00
         21   -1    0    0  503  501  0.00000000000E+00  0.00000000000E+00  0.94567473271E+02  0.94567473271E+02  0.00000000000E+00 0. -1.
         21   -1    0    0  504  502 -0.00000000000E+00 -0.00000000000E+00 -0.45445607658E+02  0.45445607658E+02  0.00000000000E+00 0. -1.
         21    1    1    2  503  502 -0.34405984979E+02 -0.67799366015E+01 -0.34587736846E+02  0.49254957952E+02  0.00000000000E+00 0. -1.
         21    1    1    2  504  501  0.34405984979E+02  0.67799366015E+01  0.83709602459E+02  0.90758122978E+02  0.00000000000E+00 0. -1.
</event>
<event>
 4    1  0.1602044E+006  0.2115791E+02  0.7546771E-02  0.1517022E+00
         21   -1    0    0  503  501  0.00000000000E+00  0.00000000000E+00  0.74403018919E+02  0.74403018919E+02  0.00000000000E+00 0. -1.
         21   -1    0    0  504  502 -0.00000000000E+00 -0.00000000000E+00 -0.61625122028E+01  0.61625122028E+01  0.00000000000E+00 0.  1.
         21    1    1    2  503  502 -0.81314221844E+00  0.21142274033E+02  0.40317677377E+02  0.45532099234E+02  0.00000000000E+00 0. -1.
         21    1    1    2  504  501  0.81314221844E+00 -0.21142274033E+02  0.27922829339E+02  0.35033431888E+02  0.00000000000E+00 0.  1.
</event>
<event>
 4    1  0.1602044E+006  0.2726522E+02  0.7546771E-02  0.1444962E+00
         21   -1    0    0  503  501  0.00000000000E+00  0.00000000000E+00  0.74230924446E+00  0.74230924446E+00  0.00000000000E+00 0. -1.
         21   -1    0    0  501  502 -0.00000000000E+00 -0.00000000000E+00 -0.10187354080E+04  0.10187354080E+04  0.00000000000E+00 0. -1.
         21    1    1    2  503  504  0.25358331263E+02 -0.10017334351E+02 -0.57537837844E+03  0.57602401888E+03  0.00000000000E+00 0. -1.
         21    1    1    2  504  502 -0.25358331263E+02  0.10017334351E+02 -0.44261472032E+03  0.44345369837E+03  0.00000000000E+00 0. -1.
</event>
<event>
 4    1  0.1602044E+006  0.2151521E+02  0.7546771E-02  0.1512035E+00
         21   -1    0    0  503  501  0.00000000000E+00  0.00000000000E+00  0.13945499857E+03  0.13945499857E+03  0.00000000000E+00 0.  1.
         21   -1    0    0  501  502 -0.00000000000E+00 -0.00000000000E+00 -0.34561490172E+01  0.34561490172E+01  0.00000000000E+00 0.  1.
         21    1    1    2  503  504 -0.21429955565E+02  0.19134305037E+01  0.82213966041E+02  0.84982588946E+02  0.00000000000E+00 0.  1.
         21    1    1    2  504  502  0.21429955565E+02 -0.19134305037E+01  0.53784883508E+02  0.57928558637E+02  0.00000000000E+00 0.  1.
</event>
<event>
 4    1  0.1602044E+006  0.2346231E+02  0.7546771E-02  0.1486773E+00
         21   -1    0    0  502  501  0.00000000000E+00  0.00000000000E+00  0.41269585080E+03  0.41269585080E+03  0.00000000000E+00 0.  1.
         21   -1    0    0  503  502 -0.00000000000E+00 -0.00000000000E+00 -0.13352531724E+01  0.13352531724E+01  0.00000000000E+00 0.  1.
         21    1    1    2  503  504  0.19741634139E+02 -0.12678629638E+02  0.21235972965E+03  0.21365190040E+03  0.00000000000E+00 0.  1.
         21    1    1    2  504  501 -0.19741634139E+02  0.12678629638E+02  0.19900086799E+03  0.20037920358E+03  0.00000000000E+00 0.  1.
</event>
<event>
 4    1  0.1602044E+006  0.2046107E+02  0.7546771E-02  0.1527100E+00
         21   -1    0    0  504  501  0.00000000000E+00  0.00000000000E+00  0.17720800077E+02  0.17720800077E+02  0.00000000000E+00 0. -1.
         21   -1    0    0  503  502 -0.00000000000E+00 -0.00000000000E+00 -0.48885013413E+02  0.48885013413E+02  0.00000000000E+00 0.  1.
         21    1    1    2  503  501 -0.18915999212E+02 -0.78000117818E+01 -0.39521350361E+02  0.44503846400E+02  0.00000000000E+00 0.  1.
         21    1    1    2  504  502  0.18915999212E+02  0.78000117818E+01  0.83571370260E+01  0.22101967090E+02  0.00000000000E+00 0. -1.
</event>
<event>
 4    1  0.1602044E+006  0.2302252E+02  0.7546771E-02  0.1492216E+00
         21   -1    0    0  503  501  0.00000000000E+00  0.00000000000E+00  0.12249558486E+03  0.12249558486E+03  0.00000000000E+00 0.  1.
         21   -1    0    0  504  502 -0.00000000000E+00 -0.00000000000E+00 -0.43634193940E+01  0.43634193940E+01  0.00000000000E+00 0.  1.
         21    1    1    2  503  502 -0.60618808985E+01  0.22210130377E+02  0.64862325720E+02  0.68827012060E+02  0.00000000000E+00 0.  1.
         21    1    1    2  504  501  0.60618808985E+01 -0.22210130377E+02  0.53269839748E+02  0.58031992196E+02  0.00000000000E+00 0.  1.
</event>
<event>
 4    1  0.1602044E+006  0.2780072E+02  0.7546771E-02  0.1439726E+00
         21   -1    0    0  502  501  0.00000000000E+00  0.00000000000E+00  0.22377746356E+04  0.22377746356E+04  0.00000000000E+00 0. -1.
         21   -1    0    0  504  502 -0.00000000000E+00 -0.00000000000E+00 -0.38328623446E+00  0.38328623446E+00  0.00000000000E+00 0.  1.
         21    1    1    2  503  501  0.16716193390E+02  0.22213711990E+02  0.14706293260E+04  0.14708920745E+04  0.00000000000E+00 0. -1.
         21    1    1    2  504  503 -0.16716193390E+02 -0.22213711990E+02  0.76676202336E+03  0.76726584740E+03  0.00000000000E+00 0.  1.
</event>
<event>
 4    1  0.1602044E+006  0.2148950E+02  0.7546771E-02  0.1512390E+00
         21   -1    0    0  503  501  0.00000000000E+00  0.00000000000E+00  0.40221747844E+01  0.40221747844E+01  0.00000000000E+00 0.  1.
         21   -1    0    0  504  502 -0.00000000000E+00 -0.00000000000E+00 -0.12028967485E+03  0.12028967485E+03  0.00000000000E+00 0.  1.
         21    1    1    2  503  502  0.13974865773E+02 -0.16324875395E+02 -0.44871349540E+02  0.49751748106E+02  0.00000000000E+00 0.  1.
         21    1    1    2  504  501 -0.13974865773E+02  0.16324875395E+02 -0.71396150526E+02  0.74560101529E+02  0.00000000000E+00 0.  1.
</event>
<event>
 4    1  0.1602044E+006  0.2131324E+02  0.7546771E-02  0.1514839E+00
         21   -1    0    0  503  501  0.00000000000E+00  0.00000000000E+00  0.59797603411E+02  0.59797603411E+02  0.00000000000E+00 0.  1.
         21   -1    0    0  504  502 -0.00000000000E+00 -0.00000000000E+00 -0.54319376935E+02  0.54319376935E+02  0.00000000000E+00 0.  1.
         21    1    1    2  503  502  0.32430772396E+01 -0.21065054592E+02 -0.50179389885E+02  0.54518118494E+02  0.00000000000E+00 0.  1.
         21    1    1    2  504  501 -0.32430772396E+01  0.21065054592E+02  0.55657616361E+02  0.59598861851E+02  0.00000000000E+00 0.  1.
</event>
<event>
 4    1  0.1602044E+006  0.2125691E+02  0.7546771E-02  0.1515628E+00
         21   -1    0    0  503  501  0.00000000000E+00  0.00000000000E+00  0.84419518216E+03  0.84419518216E+03  0.00000000000E+00 0.  1.
         21   -1    0    0  504  502 -0.00000000000E+00 -0.00000000000E+00 -0.87049345252E+01  0.87049345252E+01  0.00000000000E+00 0. -1.
         21    1    1    2  503  502 -0.18995626832E+02  0.95405540618E+01  0.46138710434E+01  0.21751869266E+02  0.00000000000E+00 0. -1.
         21    1    1    2  504  501  0.18995626832E+02 -0.95405540618E+01  0.83087637659E+03  0.83114824741E+03  0.00000000000E+00 0.  1.
</event>
<event>
 4    1  0.1602044E+006  0.2013875E+02  0.7546771E-02  0.1531925E+00
         21   -1    0    0  503  501  0.00000000000E+00  0.00000000000E+00  0.31692550283E+01  0.31692550283E+01  0.00000000000E+00 0. -1.
         21   -1    0    0  504  502 -0.00000000000E+00 -0.00000000000E+00 -0.25486827781E+03  0.25486827781E+03  0.00000000000E+00 0. -1.
         21    1    1    2  503  502  0.46959537493E+01  0.19583601415E+02 -0.21688755844E+03  0.21782052803E+03  0.00000000000E+00 0. -1.
         21    1    1    2  504  501 -0.46959537493E+01 -0.19583601415E+02 -0.34811464341E+02  0.40217004805E+02  0.00000000000E+00 0. -1.
</event>
<event>
 4    1  0.1602044E+006  0.2059386E+02  0.7546771E-02  0.1525143E+00
         21   -1    0    0  504  501  0.00000000000E+00  0.00000000000E+00  0.32771225194E+02  0.32771225194E+02  0.00000000000E+00 0. -1.
         21   -1    0    0  503  502 -0.00000000000E+00 -0.00000000000E+00 -0.84764293069E+02  0.84764293069E+02  0.00000000000E+00 0.  1.
         21    1    1    2  503  501  0.23839988937E+01 -0.20455401399E+02  0.28099319952E+02  0.34837891424E+02  0.00000000000E+00 0. -1.
         21    1    1    2  504  502 -0.23839988937E+01  0.20455401399E+02 -0.80092387826E+02  0.82697626839E+02  0.00000000000E+00 0.  1.
</event>
<event>
 4    1  0.1602044E+006  0.2067687E+02  0.7546771E-02  0.1523929E+00
         21   -1    0    0  503  501  0.00000000000E+00  0.00000000000E+00  0.34904399417E+01  0.34904399417E+01  0.00000000000E+00 0.  1.
         21   -1    0    0  504  502 -0.00000000000E+00 -0.00000000000E+00 -0.35959097775E+03  0.35959097775E+03  0.00000000000E+00 0.  1.
         21    1    1    2  503  502 -0.12370105327E+02  0.16568453400E+02 -0.30636126973E+02  0.36960863488E+02  0.00000000000E+00 0.  1.
         21    1    1    2  504  501  0.12370105327E+02 -0.16568453400E+02 -0.32546441083E+03  0.32612055420E+03  0.00000000000E+00 0.  1.
</event>
<event>
 4    1  0.1602044E+006  0.3713257E+02  0.7546771E-02  0.1366161E+00
         21   -1    0    0  502  501  0.00000000000E+00  0.00000000000E+00  0.58416763505E+02  0.58416763505E+02  0.00000000000E+00 0. -1.
         21   -1    0    0  503  502 -0.00000000000E+00 -0.00000000000E+00 -0.36655865058E+02  0.36655865058E+02  0.00000000000E+00 0. -1.
         21    1    1    2  503  504 -0.35943852742E+02  0.93202387007E+01 -0.17485804671E+02  0.41043644629E+02  0.00000000000E+00 0. -1.
         21    1    1    2  504  501  0.35943852742E+02 -0.93202387007E+01  0.39246703118E+02  0.54028983935E+02  0.00000000000E+00 0. -1.
</event>
<event>
 4    1  0.1602044E+006  0.2991908E+02  0.7546771E-02  0.1420301E+00
         21   -1    0    0  502  501  0.00000000000E+00  0.00000000000E+00  0.12633801889E+02  0.12633801889E+02  0.00000000000E+00 0. -1.
         21   -1    0    0  503  502 -0.00000000000E+00 -0.00000000000E+00 -0.84012135919E+02  0.84012135919E+02  0.00000000000E+00 0.  1.
         21    1    1    2  503  504 -0.29848768339E+02 -0.20499196801E+01 -0.54813457888E+02  0.62447308250E+02  0.00000000000E+00 0.  1.
         21    1    1    2  504  501  0.29848768339E+02  0.20499196801E+01 -0.16564876142E+02  0.34198629558E+02  0.00000000000E+00 0. -1.
</event>
<event>
 4    1  0.1602044E+006  0.2130860E+02  0.7546771E-02  0.1514904E+00
         21   -1    0    0  502  501  0.00000000000E+00  0.00000000000E+00  0.49969958076E+02  0.49969958076E+02  0.00000000000E+00 0. -1.
         21   -1    0    0  503  502 -0.00000000000E+00 -0.00000000000E+00 -0.30283306368E+03  0.30283306368E+03  0.00000000000E+00 0. -1.
         21    1    1    2  503  504  0.21306254510E+02 -0.31613990375E+00 -0.30016642045E+03  0.30092181109E+03  0.00000000000E+00 0. -1.
         21    1    1    2  504  501 -0.21306254510E+02  0.31613990375E+00  0.47303314839E+02  0.51881210669E+02  0.00000000000E+00 0. -1.
</event>
<event>
 4    1  0.1602044E+006  0.2142012E+02  0.7546771E-02  0.1513350E+00
         21   -1    0    0  504  501  0.00000000000E+00  0.00000000000E+00  0.86467597852E+03  0.86467597852E+03  0.00000000000E+00 0. -1.
         21   -1    0    0  503  502 -0.00000000000E+00 -0.00000000000E+00 -0.28712841688E+01  0.28712841688E+01  0.00000000000E+00 0.  1.
         21    1    1    2  503  501 -0.74729855427E+01  0.20074265407E+02  0.82254847106E+03  0.82282732628E+03  0.00000000000E+00 0. -1.
         21    1    1    2  504  502  0.74729855427E+01 -0.20074265407E+02  0.39256223294E+02  0.44719936403E+02  0.00000000000E+00 0.  1.
</event>
<event>
 4    1  0.1602044E+006  0.2241871E+02  0.7546771E-02  0.1499929E+00
         21   -1    0    0  504  501  0.00000000000E+00  0.00000000000E+00  0.33019379172E+02  0.33019379172E+02  0.00000000000E+00 0.  1.
         21   -1    0    0  503  502 -0.00000000000E+00 -0.00000000000E+00 -0.20617702907E+03  0.20617702907E+03  0.00000000000E+00 0. -1.
         21    1    1    2  503  501  0.10640840807E+02  0.19732490318E+02 -0.20167763634E+03  0.20291985528E+03  0.00000000000E+00 0. -1.
         21    1    1    2  504  502 -0.10640840807E+02 -0.19732490318E+02  0.28519986449E+02  0.36276552954E+02  0.00000000000E+00 0.  1.
</event>
<event>
 4    1  0.1602044E+006  0.2444587E+02  0.7546771E-02  0.1475099E+00
         21   -1    0    0  504  501  0.00000000000E+00  0.00000000000E+00  0.34278490740E+02  0.34278490740E+02  0.00000000000E+00 0. -1.
         21   -1    0    0  501  502 -0.00000000000E+00 -0.00000000000E+00 -0.25408253919E+03  0.25408253919E+03  0.00000000000E+00 0.  1.
         21    1    1    2  503  502  0.23451758117E+02  0.69004026691E+01 -0.24904822793E+03  0.25024512053E+03  0.00000000000E+00 0.  1.
         21    1    1    2  504  503 -0.23451758117E+02 -0.69004026691E+01  0.29244179479E+02  0.38115909397E+02  0.00000000000E+00 0. -1.
</event>
<event>
 4    1  0.1602044E+006  0.3051646E+02  0.7546771E-02  0.1415161E+00
         21   -1    0    0  504  501  0.00000000000E+00  0.00000000000E+00  0.21435302315E+01  0.21435302315E+01  0.00000000000E+00 0.  1.
         21   -1    0    0  503  502 -0.00000000000E+00 -0.00000000000E+00 -0.78751769414E+03  0.78751769414E+03  0.00000000000E+00 0. -1.
         21    1    1    2  503  501 -0.26735472035E+02 -0.14712872505E+02 -0.12831815924E+03  0.13189694490E+03  0.00000000000E+00 0.  1.
         21    1    1    2  504  502  0.26735472035E+02  0.14712872505E+02 -0.65705600466E+03  0.65776427947E+03  0.00000000000E+00 0. -1.
</event>
<event>
 4    1  0.1602044E+006  0.4863517E+02  0.7546771E-02  0.1304201E+00
         21   -1    0    0  503  501  0.00000000000E+00  0.00000000000E+00  0.77389827705E+02  0.77389827705E+02  0.00000000000E+00 0.  1.
         21   -1    0    0  504  502 -0.00000000000E+00 -0.00000000000E+00 -0.10599957361E+03  0.10599957361E+03  0.00000000000E+00 0.  1.
         21    1    1    2  503  502 -0.66224991804E+01 -0.48182181764E+02  0.63048433773E+02  0.79627163306E+02  0.00000000000E+00 0.  1.
         21    1    1    2  504  501  0.66224991804E+01  0.48182181764E+02 -0.91658179679E+02  0.10376223801E+03  0.00000000000E+00 0.  1.
</event>
<event>
 4    1  0.1602044E+006  0.2643595E+02  0.7546771E-02  0.1453358E+00
         21   -1    0    0  504  501  0.00000000000E+00  0.00000000000E+00  0.25232260812E+02  0.25232260812E+02  0.00000000000E+00 0.  1.
         21   -1    0    0  503  502 -0.00000000000E+00 -0.00000000000E+00 -0.14373244683E+03  0.14373244683E+03  0.00000000000E+00 0.  1.
         21    1    1    2  503  501  0.20185584672E+02  0.17070492014E+02 -0.13515744074E+03  0.13771852931E+03  0.00000000000E+00 0.  1.
         21    1    1    2  504  502 -0.20185584672E+02 -0.17070492014E+02  0.16657254720E+02  0.31246178341E+02  0.00000000000E+00 0.  1.
</event>
<event>
 4    1  0.1602044E+006  0.2697895E+02  0.7546771E-02  0.1447820E+00
         21   -1    0    0  503  501  0.00000000000E+00  0.00000000000E+00  0.40345247175E+03  0.40345247175E+03  0.00000000000E+00 0.  1.
         21   -1    0    0  501  502 -0.00000000000E+00 -0.00000000000E+00 -0.19617156517E+02  0.19617156517E+02  0.00000000000E+00 0. -1.
         21    1    1    2  503  504  0.22393168696E+02  0.15046923543E+02  0.39349104280E+03  0.39441483831E+03  0.00000000000E+00 0.  1.
         21    1    1    2  504  502 -0.22393168696E+02 -0.15046923543E+02 -0.96557275733E+01  0.28654789955E+02  0.00000000000E+00 0. -1.
</event>
<event>
 4    1  0.1602044E+006  0.2143283E+02  0.7546771E-02  0.1513174E+00
         21   -1    0    0  504  501  0.00000000000E+00  0.00000000000E+00  0.49012176630E+03  0.49012176630E+03  0.00000000000E+00 0. -1.
         21   -1    0    0  503  502 -0.00000000000E+00 -0.00000000000E+00 -0.13728663514E+01  0.13728663514E+01  0.00000000000E+00 0.  1.
         21    1    1    2  503  501  0.15383557627E+02 -0.14923554471E+02  0.10594546089E+03  0.10809166021E+03  0.00000000000E+00 0.  1.
         21    1    1    2  504  502 -0.15383557627E+02  0.14923554471E+02  0.38280343906E+03  0.38340297244E+03  0.00000000000E+00 0. -1.
</event>
<event>
 4    1  0.1602044E+006  0.2021400E+02  0.7546771E-02  0.1530789E+00
         21   -1    0    0  504  501  0.00000000000E+00  0.00000000000E+00  0.67921591183E+01  0.67921591183E+01  0.00000000000E+00 0. -1.
         21   -1    0    0  501  502 -0.00000000000E+00 -0.00000000000E+00 -0.18581615296E+03  0.18581615296E+03  0.00000000000E+00 0. -1.
         21    1    1    2  503  502  0.15509680168E+02  0.12963629857E+02 -0.16870700854E+03  0.16991368576E+03  0.00000000000E+00 0. -1.
         21    1    1    2  504  503 -0.15509680168E+02 -0.12963629857E+02 -0.10316985300E+02  0.22694626317E+02  0.00000000000E+00 0. -1.
</event>
<event>
 4    1  0.1602044E+006  0.2569908E+02  0.7546771E-02  0.1461133E+00
         21   -1    0    0  503  501  0.00000000000E+00  0.00000000000E+00  0.76624489865E+03  0.76624489865E+03  0.00000000000E+00 0.  1.
         21   -1    0    0  504  502 -0.00000000000E+00 -0.00000000000E+00 -0.86968279862E+00  0.86968279862E+00  0.00000000000E+00 0.  1.
         21    1    1    2  503  502 -0.58461571567E+01 -0.25025287425E+02  0.34645236531E+03  0.34740420837E+03  0.00000000000E+00 0.  1.
         21    1    1    2  504  501  0.58461571567E+01  0.25025287425E+02  0.41892285054E+03  0.41971037308E+03  0.00000000000E+00 0.  1.
</event>
<event>
 4    1  0.1602044E+006  0.2985626E+02  0.7546771E-02  0.1420850E+00
         21   -1    0    0  503  501  0.00000000000E+00  0.00000000000E+00  0.45058446841E+03  0.45058446841E+03  0.00000000000E+00 0. -1.
         21   -1    0    0  504  502 -0.00000000000E+00 -0.00000000000E+00 -0.44431151071E+02  0.44431151071E+02  0.00000000000E+00 0. -1.
         21    1    1    2  503  502 -0.28676779086E+02  0.83089298572E+01 -0.38858230598E+02  0.49003653530E+02  0.00000000000E+00 0. -1.
         21    1    1    2  504  501  0.28676779086E+02 -0.83089298572E+01  0.44501154794E+03  0.44601196595E+03  0.00000000000E+00 0. -1.
</event>
<event>
 4    1  0.1602044E+006  0.2057841E+02  0.7546771E-02  0.1525370E+00
         21   -1    0    0  504  501  0.00000000000E+00  0.00000000000E+00  0.15822190923E+02  0.15822190923E+02  0.00000000000E+00 0.  1.
         21   -1    0    0  503  502 -0.00000000000E+00 -0.00000000000E+00 -0.49242597537E+02  0.49242597537E+02  0.00000000000E+00 0.  1.
         21    1    1    2  503  501 -0.65355759522E+01 -0.19512996512E+02 -0.38690153034E+02  0.43822354201E+02  0.00000000000E+00 0.  1.
         21    1    1    2  504  502  0.65355759522E+01  0.19512996512E+02  0.52697464202E+01  0.21242434259E+02  0.00000000000E+00 0.  1.
</event>
<event>
 4    1  0.1602044E+006  0.2842560E+02  0.7546771E-02  0.1433790E+00
         21   -1    0    0  504  501  0.00000000000E+00  0.00000000000E+00  0.10777877455E+02  0.10777877455E+02  0.00000000000E+00 0. -1.
         21   -1    0    0  503  502 -0.00000000000E+00 -0.00000000000E+00 -0.83227479850E+02  0.83227479850E+02  0.00000000000E+00 0.  1.
         21    1    1    2  503  501 -0.27344682051E+02  0.77642122426E+01 -0.51030194145E+02  0.58413143578E+02  0.00000000000E+00 0.  1.
         21    1    1    2  504  502  0.27344682051E+02 -0.77642122426E+01 -0.21419408250E+02  0.35592213727E+02  0.00000000000E+00 0. -1.
</event>
<event>
 4    1  0.1602044E+006  0.2374538E+02  0.7546771E-02  0.1483345E+00
         21   -1    0    0  503  501  0.00000000000E+00  0.00000000000E+00  0.74499186850E+02  0.74499186850E+02  0.00000000000E+00 0. -1.
         21   -1    0    0  504  502 -0.00000000000E+00 -0.00000000000E+00 -0.28704799976E+02  0.28704799976E+02  0.00000000000E+00 0. -1.
         21    1    1    2  503  502 -0.21605326445E+02 -0.98515474447E+01  0.67176850336E+02  0.71250069045E+02  0.00000000000E+00 0. -1.
         21    1    1    2  504  501  0.21605326445E+02  0.98515474447E+01 -0.21382463462E+02  0.31953917781E+02  0.00000000000E+00 0. -1.
</event>
<event>
 4    1  0.1602044E+006  0.2141087E+02  0.7546771E-02  0.1513479E+00
         21   -1    0    0  504  501  0.00000000000E+00  0.00000000000E+00  0.16004098271E+02  0.16004098271E+02  0.00000000000E+00 0.  1.
         21   -1    0    0  503  502 -0.00000000000E+00 -0.00000000000E+00 -0.37507875056E+02  0.37507875056E+02  0.00000000000E+00 0.  1.
         21    1    1    2  503  501  0.27992806231E+01 -0.21227090628E+02 -0.23758539629E+02  0.31982707106E+02  0.00000000000E+00 0.  1.
         21    1    1    2  504  502 -0.27992806231E+01  0.21227090628E+02  0.22547628434E+01  0.21529266221E+02  0.00000000000E+00 0.  1.
</event>
<event>
 4    1  0.1602044E+006  0.6686271E+02  0.7546771E-02  0.1238144E+00
         21   -1    0    0  504  501  0.00000000000E+00  0.00000000000E+00  0.25628752477E+03  0.25628752477E+03  0.00000000000E+00 0.  1.
         21   -1    0    0  503  502 -0.00000000000E+00 -0.00000000000E+00 -0.24906074536E+02  0.24906074536E+02  0.00000000000E+00 0. -1.
         21    1    1    2  503  501  0.43531830535E+02 -0.50750389294E+02  0.38731782746E+02  0.77270778939E+02  0.00000000000E+00 0. -1.
         21    1    1    2  504  502 -0.43531830535E+02  0.50750389294E+02  0.19264966749E+03  0.20392282037E+03  0.00000000000E+00 0.  1.
</event>
<event>
 4    1  0.1602044E+006  0.3651505E+02  0.7546771E-02  0.1370214E+00
         21   -1    0    0  504  501  0.00000000000E+00  0.00000000000E+00  0.21197368477E+03  0.21197368477E+03  0.00000000000E+00 0. -1.
         21   -1    0    0  503  502 -0.00000000000E+00 -0.00000000000E+00 -0.20062832296E+02  0.20062832296E+02  0.00000000000E+00 0. -1.
         21    1    1    2  503  501  0.25426376834E+01  0.36426418799E+02 -0.17022238067E+00  0.36515448355E+02  0.00000000000E+00 0. -1.
         21    1    1    2  504  502 -0.25426376834E+01 -0.36426418799E+02  0.19208107486E+03  0.19552106871E+03  0.00000000000E+00 0. -1.
</event>
<event>
 4    1  0.1602044E+006  0.2036354E+02  0.7546771E-02  0.1528549E+00
         21   -1    0    0  504  501  0.00000000000E+00  0.00000000000E+00  0.13775949720E+02  0.13775949720E+02  0.00000000000E+00 0.  1.
         21   -1    0    0  503  502 -0.00000000000E+00 -0.00000000000E+00 -0.37616062028E+02  0.37616062028E+02  0.00000000000E+00 0.  1.
         21    1    1    2  503  501  0.18436145971E+02  0.86476836938E+01 -0.43490406075E+00  0.20368187280E+02  0.00000000000E+00 0.  1.
         21    1    1    2  504  502 -0.18436145971E+02 -0.86476836938E+01 -0.23405208248E+02  0.31023824468E+02  0.00000000000E+00 0.  1.
</event>
<event>
 4    1  0.1602044E+006  0.4939830E+02  0.7546771E-02  0.1300803E+00
         21   -1    0    0  503  501  0.00000000000E+00  0.00000000000E+00  0.16562000445E+03  0.16562000445E+03  0.00000000000E+00 0.  1.
         21   -1    0    0  501  502 -0.00000000000E+00 -0.00000000000E+00 -0.87094751897E+02  0.87094751897E+02  0.00000000000E+00 0.  1.
         21    1    1    2  503  504  0.32144461894E+01 -0.49293600547E+02  0.15443733335E+03  0.16214524862E+03  0.00000000000E+00 0.  1.
         21    1    1    2  504  502 -0.32144461894E+01  0.49293600547E+02 -0.75912080794E+02  0.90569507726E+02  0.00000000000E+00 0.  1.
</event>
<event>
 4    1  0.1602044E+006  0.2149530E+02  0.7546771E-02  0.1512309E+00
         21   -1    0    0  503  501  0.00000000000E+00  0.00000000000E+00  0.14274031185E+02  0.14274031185E+02  0.00000000000E+00 0. -1.
         21   -1    0    0  504  502 -0.00000000000E+00 -0.00000000000E+00 -0.72870177021E+02  0.72870177021E+02  0.00000000000E+00 0. -1.
         21    1    1    2  503  502  0.21413795715E+02  0.18700753385E+01  0.31854439773E+01  0.21730045606E+02  0.00000000000E+00 0. -1.
         21    1    1    2  504  501 -0.21413795715E+02 -0.18700753385E+01 -0.61781589814E+02  0.65414162600E+02  0.00000000000E+00 0. -1.
</event>
<event>
 4    1  0.1602044E+006  0.3117526E+02  0.7546771E-02  0.1409651E+00
         21   -1    0    0  502  501  0.00000000000E+00  0.00000000000E+00  0.53508687084E+02  0.53508687084E+02  0.00000000000E+00 0. -1.
         21   -1    0    0  503  502 -0.00000000000E+00 -0.00000000000E+00 -0.56720596998E+02  0.56720596998E+02  0.00000000000E+00 0. -1.
         21    1    1    2  503  504  0.27782723940E+02  0.14142738528E+02 -0.47047137551E+02  0.56438727434E+02  0.00000000000E+00 0. -1.
         21    1    1    2  504  501 -0.27782723940E+02 -0.14142738528E+02  0.43835227637E+02  0.53790556649E+02  0.00000000000E+00 0. -1.
</event>
<event>
 4    1  0.1602044E+006  0.2199412E+02  0.7546771E-02  0.1505531E+00
         21   -1    0    0  504  501  0.00000000000E+00  0.00000000000E+00  0.42127668027E+03  0.42127668027E+03  0.00000000000E+00 0.  1.
         21   -1    0    0  503  502 -0.00000000000E+00 -0.00000000000E+00 -0.25219696231E+01  0.25219696231E+01  0.00000000000E+00 0.  1.
         21    1    1    2  503  501 -0.75494844422E+00 -0.21981161215E+02  0.36576584247E+03  0.36642651776E+03  0.00000000000E+00 0.  1.
         21    1    1    2  504  502  0.75494844422E+00  0.21981161215E+02  0.52988868173E+02  0.57372132136E+02  0.00000000000E+00 0.  1.
</event>
<event>
 4    1  0.1602044E+006  0.3250818E+02  0.7546771E-02  0.1398982E+00
         21   -1    0    0  504  501  0.00000000000E+00  0.00000000000E+00  0.46605816688E+03  0.46605816688E+03  0.00000000000E+00 0. -1.
         21   -1    0    0  501  502 -0.00000000000E+00 -0.00000000000E+00 -0.36488102706E+01  0.36488102706E+01  0.00000000000E+00 0. -1.
         21    1    1    2  503  502  0.28969606431E+02 -0.14749361346E+02  0.86704385234E+02  0.92598229874E+02  0.00000000000E+00 0. -1.
         21    1    1    2  504  503 -0.28969606431E+02  0.14749361346E+02  0.37570497138E+03  0.37710874728E+03  0.00000000000E+00 0. -1.
</event>
<event>
 4    1  0.1602044E+006  0.2021846E+02  0.7546771E-02  0.1530722E+00
         21   -1    0    0  503  501  0.00000000000E+00  0.00000000000E+00  0.26575936778E+01  0.26575936778E+01  0.00000000000E+00 0.  1.
         21   -1    0    0  501  502 -0.00000000000E+00 -0.00000000000E+00 -0.22992428582E+03  0.22992428582E+03  0.00000000000E+00 0.  1.
         21    1    1    2  503  504 -0.22174277302E+01  0.20096498074E+02 -0.46727632097E+02  0.50914220234E+02  0.00000000000E+00 0.  1.
         21    1    1    2  504  502  0.22174277302E+01 -0.20096498074E+02 -0.18053906004E+03  0.18166765926E+03  0.00000000000E+00 0.  1.
</event>
<event>
 4    1  0.1602044E+006  0.3703873E+02  0.7546771E-02  0.1366771E+00
         21   -1    0    0  502  501  0.00000000000E+00  0.00000000000E+00  0.26314774820E+03  0.26314774820E+03  0.00000000000E+00 0. -1.
         21   -1    0    0  504  502 -0.00000000000E+00 -0.00000000000E+00 -0.12437900960E+02  0.12437900960E+02  0.00000000000E+00 0. -1.
         21    1    1    2  503  501 -0.13116209463E+02 -0.34638597029E+02  0.23037203765E+03  0.23333054469E+03  0.00000000000E+00 0. -1.
         21    1    1    2  504  503  0.13116209463E+02  0.34638597029E+02  0.20337809593E+02  0.42255104471E+02  0.00000000000E+00 0. -1.
</event>
<event>
 4    1  0.1602044E+006  0.2070819E+02  0.7546771E-02  0.1523472E+00
         21   -1    0    0  502  501  0.00000000000E+00  0.00000000000E+00  0.34626901870E+03  0.34626901870E+03  0.00000000000E+00 0.  1.
         21   -1    0    0  504  502 -0.00000000000E+00 -0.00000000000E+00 -0.82405424563E+02  0.82405424563E+02  0.00000000000E+00 0.  1.
         21    1    1    2  503  501 -0.18943732121E+02  0.83644679025E+01  0.34465234045E+03  0.34527389865E+03  0.00000000000E+00 0.  1.
         21    1    1    2  504  503  0.18943732121E+02 -0.83644679025E+01 -0.80788746316E+02  0.83400544611E+02  0.00000000000E+00 0.  1.
</event>
<event>
 4    1  0.1602044E+006  0.2508520E+02  0.7546771E-02  0.1467852E+00
         21   -1    0    0  504  501  0.00000000000E+00  0.00000000000E+00  0.15649219295E+03  0.15649219295E+03  0.00000000000E+00 0.  1.
         21   -1    0    0  503  502 -0.00000000000E+00 -0.00000000000E+00 -0.12816655406E+03  0.12816655406E+03  0.00000000000E+00 0. -1.
         21    1    1    2  503  501  0.19653328995E+02  0.15588908121E+02  0.15424169018E+03  0.15626825137E+03  0.00000000000E+00 0.  1.
         21    1    1    2  504  502 -0.19653328995E+02 -0.15588908121E+02 -0.12591605129E+03  0.12839049564E+03  0.00000000000E+00 0. -1.
</event>
<event>
 4    1  0.1602044E+006  0.2323774E+02  0.7546771E-02  0.1489534E+00
         21   -1    0    0  503  501  0.00000000000E+00  0.00000000000E+00  0.10640801335E+03  0.10640801335E+03  0.00000000000E+00 0.  1.
         21   -1    0    0  504  502 -0.00000000000E+00 -0.00000000000E+00 -0.51688000960E+01  0.51688000960E+01  0.00000000000E+00 0.  1.
         21    1    1    2  503  502  0.16953347365E+02 -0.15892655091E+02  0.58145590346E+02  0.62617107482E+02  0.00000000000E+00 0.  1.
         21    1    1    2  504  501 -0.16953347365E+02  0.15892655091E+02  0.43093622905E+02  0.48959705961E+02  0.00000000000E+00 0.  1.
</event>
<event>
 4    1  0.1602044E+006  0.2662636E+02  0.7546771E-02  0.1451398E+00
         21   -1    0    0  502  501  0.00000000000E+00  0.00000000000E+00  0.10849420860E+03  0.10849420860E+03  0.00000000000E+00 0.  1.
         21   -1    0    0  504  502 -0.00000000000E+00 -0.00000000000E+00 -0.82526724809E+01  0.82526724809E+01  0.00000000000E+00 0.  1.
         21    1    1    2  503  501 -0.22795973012E+02 -0.13758870260E+02  0.76755151057E+02  0.81242329547E+02  0.00000000000E+00 0.  1.
         21    1    1    2  504  503  0.22795973012E+02  0.13758870260E+02  0.23486385063E+02  0.35504551535E+02  0.00000000000E+00 0.  1.
</event>
<event>
 4    1  0.1602044E+006  0.2687751E+02  0.7546771E-02  0.1448842E+00
         21   -1    0    0  504  501  0.00000000000E+00  0.00000000000E+00  0.23640664044E+01  0.23640664044E+01  0.00000000000E+00 0.  1.
         21   -1    0    0  503  502 -0.00000000000E+00 -0.00000000000E+00 -0.31238140406E+03  0.31238140406E+03  0.00000000000E+00 0.  1.
         21    1    1    2  503  501 -0.15760497621E+02 -0.21771711801E+02 -0.13177966740E+03  0.13449268181E+03  0.00000000000E+00 0.  1.
         21    1    1    2  504  502  0.15760497621E+02  0.21771711801E+02 -0.17823767025E+03  0.18025278865E+03  0.00000000000E+00 0.  1.
</event>
<event>
 4    1  0.1602044E+006  0.2282995E+02  0.7546771E-02  0.1494645E+00
         21   -1    0    0  504  501  0.00000000000E+00  0.00000000000E+00  0.17585402873E+03  0.17585402873E+03  0.00000000000E+00 0. -1.
         21   -1    0    0  503  502 -0.00000000000E+00 -0.00000000000E+00 -0.73149731305E+01  0.73149731305E+01  0.00000000000E+00 0.  1.
         21    1    1    2  503  501  0.22814503307E+02 -0.83971856345E+00  0.15490385496E+03  0.15657717257E+03  0.00000000000E+00 0. -1.
         21    1    1    2  504  502 -0.22814503307E+02  0.83971856345E+00  0.13635200635E+02  0.26591829286E+02  0.00000000000E+00 0.  1.
</event>
<event>
 4    1  0.1602044E+006  0.2380137E+02  0.7546771E-02  0.1482673E+00
         21   -1    0    0  503  501  0.00000000000E+00  0.00000000000E+00  0.23312808175E+03  0.23312808175E+03  0.00000000000E+00 0.  1.
         21   -1    0    0  504  502 -0.00000000000E+00 -0.00000000000E+00 -0.25942237405E+03  0.25942237405E+03  0.00000000000E+00 0. -1.
         21    1    1    2  503  502 -0.22857735006E+02 -0.66354338478E+01 -0.25826622696E+03  0.25936065434E+03  0.00000000000E+00 0. -1.
         21    1    1    2  504  501  0.22857735006E+02  0.66354338478E+01  0.23197193466E+03  0.23318980145E+03  0.00000000000E+00 0.  1.
</event>
<event>
 4    1  0.1602044E+006  0.2542092E+02  0.7546771E-02  0.1464149E+00
         21   -1    0    0  504  501  0.00000000000E+00  0.00000000000E+00  0.35988557629E+02  0.35988557629E+02  0.00000000000E+00 0.  1.
         21   -1    0    0  503  502 -0.00000000000E+00 -0.00000000000E+00 -0.45456616269E+02  0.45456616269E+02  0.00000000000E+00 0. -1.
         21    1    1    2  503  501  0.64588998468E+01  0.24586696732E+02 -0.36408201780E+02  0.44404731733E+02  0.00000000000E+00 0. -1.
         21    1    1    2  504  502 -0.64588998468E+01 -0.24586696732E+02  0.26940143140E+02  0.37040442165E+02  0.00000000000E+00 0.  1.
</event>
<event>
 4    1  0.1602044E+006  0.3159850E+02  0.7546771E-02  0.1406196E+00
         21   -1    0    0  504  501  0.00000000000E+00  0.00000000000E+00  0.13460451541E+03  0.13460451541E+03  0.00000000000E+00 0. -1.
         21   -1    0    0  501  502 -0.00000000000E+00 -0.00000000000E+00 -0.17359844914E+02  0.17359844914E+02  0.00000000000E+00 0. -1.
         21    1    1    2  503  502  0.31261104012E+02  0.46053008057E+01  0.11210790982E+01  0.31618384492E+02  0.00000000000E+00 0. -1.
         21    1    1    2  504  503 -0.31261104012E+02 -0.46053008057E+01  0.11612359140E+03  0.12034597583E+03  0.00000000000E+00 0. -1.
</event>
<event>
 4    1  0.1602044E+006  0.2773473E+02  0.7546771E-02  0.1440364E+00
         21   -1    0    0  504  501  0.00000000000E+00  0.00000000000E+00  0.18630516122E+03  0.18630516122E+03  0.00000000000E+00 0. -1.
         21   -1    0    0  503  502 -0.00000000000E+00 -0.00000000000E+00 -0.98672286317E+01  0.98672286317E+01  0.00000000000E+00 0.  1.
         21    1    1    2  503  501  0.12074016123E+02  0.24968647684E+02  0.16301991259E+03  0.16536235101E+03  0.00000000000E+00 0. -1.
         21    1    1    2  504  502 -0.12074016123E+02 -0.24968647684E+02  0.13418020001E+02  0.30810038839E+02  0.00000000000E+00 0.  1.
</event>
<event>
 4    1  0.1602044E+006  0.2163763E+02  0.7546771E-02  0.1510353E+00
         21   -1    0    0  504  501  0.00000000000E+00  0.00000000000E+00  0.54556966615E+02  0.54556966615E+02  0.00000000000E+00 0.  1.
         21   -1    0    0  503  502 -0.00000000000E+00 -0.00000000000E+00 -0.38081070891E+02  0.38081070891E+02  0.00000000000E+00 0. -1.
         21    1    1    2  503  501 -0.11646656553E+02  0.18235751348E+02 -0.32529331484E+02  0.39068460974E+02  0.00000000000E+00 0. -1.
         21    1    1    2  504  502  0.11646656553E+02 -0.18235751348E+02  0.49005227208E+02  0.53569576531E+02  0.00000000000E+00 0.  1.
</event>
<event>
 4    1  0.1602044E+006  0.3781812E+02  0.7546771E-02  0.1361769E+00
         21   -1    0    0  502  501  0.00000000000E+00  0.00000000000E+00  0.34235191686E+02  0.34235191686E+02  0.00000000000E+00 0. -1.
         21   -1    0    0  503  502 -0.00000000000E+00 -0.00000000000E+00 -0.28130851712E+03  0.28130851712E+03  0.00000000000E+00 0.  1.
         21    1    1    2  503  504  0.31081575877E+02  0.21544038755E+02 -0.26912289700E+03  0.27176707610E+03  0.00000000000E+00 0.  1.
         21    1    1    2  504  501 -0.31081575877E+02 -0.21544038755E+02  0.22049571562E+02  0.43776632705E+02  0.00000000000E+00 0. -1.
</event>
<event>
 4    1  0.1602044E+006  0.2581921E+02  0.7546771E-02  0.1459844E+00
         21   -1    0    0  503  501  0.00000000000E+00  0.00000000000E+00  0.12297949105E+01  0.12297949105E+01  0.00000000000E+00 0.  1.
         21   -1    0    0  504  502 -0.00000000000E+00 -0.00000000000E+00 -0.56028516844E+03  0.56028516844E+03  0.00000000000E+00 0.  1.
         21    1    1    2  503  502 -0.14367441324E+02 -0.21452462181E+02 -0.33015402926E+03  0.33116206688E+03  0.00000000000E+00 0.  1.
         21    1    1    2  504  501  0.14367441324E+02  0.21452462181E+02 -0.22890134426E+03  0.23035289646E+03  0.00000000000E+00 0.  1.
</event>
<event>
 4    1  0.1602044E+006  0.2442882E+02  0.7546771E-02  0.1475296E+00
         21   -1    0    0  503  501  0.00000000000E+00  0.00000000000E+00  0.97044342878E+01  0.97044342878E+01  0.00000000000E+00 0.  1.
         21   -1    0    0  504  502 -0.00000000000E+00 -0.00000000000E+00 -0.67529449241E+02  0.67529449241E+02  0.00000000000E+00 0.  1.
         21    1    1    2  503  502 -0.32247264132E+01 -0.24215044771E+02 -0.40457025296E+02  0.47260323206E+02  0.00000000000E+00 0.  1.
         21    1    1    2  504  501  0.32247264132E+01  0.24215044771E+02 -0.17367989658E+02  0.29973560324E+02  0.00000000000E+00 0.  1.
</event>
<event>
 4    1  0.1602044E+006  0.2383074E+02  0.7546771E-02  0.1482322E+00
         21   -1    0    0  503  501  0.00000000000E+00  0.00000000000E+00  0.85109917226E+03  0.85109917226E+03  0.00000000000E+00 0. -1.
         21   -1    0    0  504  502 -0.00000000000E+00 -0.00000000000E+00 -0.23777242988E+02  0.23777242988E+02  0.00000000000E+00 0. -1.
         21    1    1    2  503  502  0.65192636585E+01  0.22921681766E+02  0.84491758966E+03  0.84525359367E+03  0.00000000000E+00 0. -1.
         21    1    1    2  504  501 -0.65192636585E+01 -0.22921681766E+02 -0.17595660390E+02  0.29622821577E+02  0.00000000000E+00 0. -1.
</event>
<event>
 4    1  0.1602044E+006  0.2518246E+02  0.7546771E-02  0.1466772E+00
         21   -1    0    0  503  501  0.00000000000E+00  0.00000000000E+00  0.30725655291E+02  0.30725655291E+02  0.00000000000E+00 0.  1.
         21   -1    0    0  504  502 -0.00000000000E+00 -0.00000000000E+00 -0.27996098503E+02  0.27996098503E+02  0.00000000000E+00 0. -1.
         21    1    1    2  503  502  0.97860897205E+01 -0.23203207009E+02  0.16415743880E+02  0.30060489261E+02  0.00000000000E+00 0.  1.
         21    1    1    2  504  501 -0.97860897205E+01  0.23203207009E+02 -0.13686187091E+02  0.28661264532E+02  0.00000000000E+00 0. -1.
</event>
<event>
 4    1  0.1602044E+006  0.2289715E+02  0.7546771E-02  0.1493794E+00
         21   -1    0    0  503  501  0.00000000000E+00  0.00000000000E+00  0.53427258921E+02  0.53427258921E+02  0.00000000000E+00 0. -1.
         21   -1    0    0  504  502 -0.00000000000E+00 -0.00000000000E+00 -0.23372743558E+02  0.23372743558E+02  0.00000000000E+00 0. -1.
         21    1    1    2  503  502  0.18812986519E+02 -0.13051863471E+02  0.44275700945E+02  0.49845935602E+02  0.00000000000E+00 0. -1.
         21    1    1    2  504  501 -0.18812986519E+02  0.13051863471E+02 -0.14221185583E+02  0.26954066877E+02  0.00000000000E+00 0. -1.
</event>
<event>
 4    1  0.1602044E+006  0.2252302E+02  0.7546771E-02  0.1498576E+00
         21   -1    0    0  503  501  0.00000000000E+00  0.00000000000E+00  0.32941336433E+01  0.32941336433E+01  0.00000000000E+00 0.  1.
         21   -1    0    0  504  502 -0.00000000000E+00 -0.00000000000E+00 -0.29301085390E+03  0.29301085390E+03  0.00000000000E+00 0.  1.
         21    1    1    2  503  502  0.91706386539E+01 -0.20571477493E+02 -0.42812276198E+02  0.48375378994E+02  0.00000000000E+00 0.  1.
         21    1    1    2  504  501 -0.91706386539E+01  0.20571477493E+02 -0.24690444406E+03  0.24792960855E+03  0.00000000000E+00 0.  1.
</event>
<event>
 4    1  0.1602044E+006  0.3605067E+02  0.7546771E-02  0.1373323E+00
         21   -1    0    0  503  501  0.00000000000E+00  0.00000000000E+00  0.69292557684E+03  0.69292557684E+03  0.00000000000E+00 0. -1.
         21   -1    0    0  504  502 -0.00000000000E+00 -0.00000000000E+00 -0.18959286359E+01  0.18959286359E+01  0.00000000000E+00 0. -1.
         21    1    1    2  503  502 -0.34941830962E+02  0.88723785369E+01  0.30954030353E+03  0.31163255632E+03  0.00000000000E+00 0. -1.
         21    1    1    2  504  501  0.34941830962E+02 -0.88723785369E+01  0.38148934467E+03  0.38318894915E+03  0.00000000000E+00 0. -1.
</event>
<event>
 4    1  0.1602044E+006  0.2193669E+02  0.7546771E-02  0.1506300E+00
         21   -1    0    0  503  501  0.00000000000E+00  0.00000000000E+00  0.51257201790E+03  0.51257201790E+03  0.00000000000E+00 0.  1.
         21   -1    0    0  504  502 -0.00000000000E+00 -0.00000000000E+00 -0.65092290342E+01  0.65092290342E+01  0.00000000000E+00 0. -1.
         21    1    1    2  503  502 -0.20800091107E+02 -0.69695448441E+01  0.12936075230E+02  0.25466848799E+02  0.00000000000E+00 0. -1.
         21    1    1    2  504  501  0.20800091107E+02  0.69695448441E+01  0.49312671364E+03  0.49361439814E+03  0.00000000000E+00 0.  1.
</event>
<event>
 4    1  0.1602044E+006  0.2032681E+02  0.7546771E-02  0.1529097E+00
         21   -1    0    0  503  501  0.00000000000E+00  0.00000000000E+00  0.55577279109E+03  0.55577279109E+03  0.00000000000E+00 0.  1.
         21   -1    0    0  504  502 -0.00000000000E+00 -0.00000000000E+00 -0.66382383871E+01  0.66382383871E+01  0.00000000000E+00 0.  1.
         21    1    1    2  503  502 -0.30871753680E+01 -0.20091010627E+02  0.53955891972E+03  0.53994167019E+03  0.00000000000E+00 0.  1.
         21    1    1    2  504  501  0.30871753680E+01  0.20091010627E+02  0.95756329854E+01  0.22469359288E+02  0.00000000000E+00 0.  1.
</event>
<event>
 4    1  0.1602044E+006  0.2242716E+02  0.7546771E-02  0.1499819E+00
         21   -1    0    0  504  501  0.00000000000E+00  0.00000000000E+00  0.30728722214E+03  0.30728722214E+03  0.00000000000E+00 0. -1.
         21   -1    0    0  503  502 -0.00000000000E+00 -0.00000000000E+00 -0.11861200674E+02  0.11861200674E+02  0.00000000000E+00 0. -1.
         21    1    1    2  503  501 -0.11704091956E+02  0.19130910178E+02  0.29586812069E+03  0.29671690604E+03  0.00000000000E+00 0. -1.
         21    1    1    2  504  502  0.11704091956E+02 -0.19130910178E+02 -0.44209922470E+00  0.22431516768E+02  0.00000000000E+00 0. -1.
</event>
<event>
 4    1  0.1602044E+006  0.2141446E+02  0.7546771E-02  0.1513429E+00
         21   -1    0    0  504  501  0.00000000000E+00  0.00000000000E+00  0.11639484951E+02  0.11639484951E+02  0.00000000000E+00 0. -1.
         21   -1    0    0  501  502 -0.00000000000E+00 -0.00000000000E+00 -0.53028586108E+02  0.53028586108E+02  0.00000000000E+00 0. -1.
         21    1    1    2  503  502  0.19809159340E+01  0.21322641968E+02 -0.37087346660E+02  0.42825814303E+02  0.00000000000E+00 0. -1.
         21    1    1    2  504  503 -0.19809159340E+01 -0.21322641968E+02 -0.43017544977E+01  0.21842256756E+02  0.00000000000E+00 0. -1.
</event>
<event>
 4    1  0.1602044E+006  0.2720798E+02  0.7546771E-02  0.1445530E+00
         21   -1    0    0  503  501  0.00000000000E+00  0.00000000000E+00  0.30970615066E+02  0.30970615066E+02  0.00000000000E+00 0.  1.
         21   -1    0    0  504  502 -0.00000000000E+00 -0.00000000000E+00 -0.25071615940E+02  0.25071615940E+02  0.00000000000E+00 0.  1.
         21    1    1    2  503  502 -0.76350857887E+01  0.26114739544E+02  0.90005234352E+01  0.28658045616E+02  0.00000000000E+00 0.  1.
         21    1    1    2  504  501  0.76350857887E+01 -0.26114739544E+02 -0.31015243092E+01  0.27384185390E+02  0.00000000000E+00 0.  1.
</event>
<event>
 4    1  0.1602044E+006  0.2093067E+02  0.7546771E-02  0.1520257E+00
         21   -1    0    0  503  501  0.00000000000E+00  0.00000000000E+00  0.11471178693E+02  0.11471178693E+02  0.00000000000E+00 0. -1.
         21   -1    0    0  504  502 -0.00000000000E+00 -0.00000000000E+00 -0.38380750585E+02  0.38380750585E+02  0.00000000000E+00 0. -1.
         21    1    1    2  503  502 -0.20022629829E+02  0.60981326079E+01 -0.11701019217E+02  0.23979298932E+02  0.00000000000E+00 0. -1.
         21    1    1    2  504  501  0.20022629829E+02 -0.60981326079E+01 -0.15208552675E+02  0.25872630346E+02  0.00000000000E+00 0. -1.
</event>
<event>
 4    1  0.1602044E+006  0.2704484E+02  0.7546771E-02  0.1447158E+00
         21   -1    0    0  504  501  0.00000000000E+00  0.00000000000E+00  0.13885985376E+03  0.13885985376E+03  0.00000000000E+00 0.  1.
         21   -1    0    0  503  502 -0.00000000000E+00 -0.00000000000E+00 -0.17500392895E+02  0.17500392895E+02  0.00000000000E+00 0.  1.
         21    1    1    2  503  501 -0.26812563623E+02 -0.35369225713E+01 -0.46844332458E+01  0.27447537306E+02  0.00000000000E+00 0.  1.
         21    1    1    2  504  502  0.26812563623E+02  0.35369225713E+01  0.12604389411E+03  0.12891270935E+03  0.00000000000E+00 0.  1.
</event>
<event>
 4    1  0.1602044E+006  0.2047610E+02  0.7546771E-02  0.1526878E+00
         21   -1    0    0  504  501  0.00000000000E+00  0.00000000000E+00  0.54826128411E+02  0.54826128411E+02  0.00000000000E+00 0. -1.
         21   -1    0    0  503  502 -0.00000000000E+00 -0.00000000000E+00 -0.13672061619E+03  0.13672061619E+03  0.00000000000E+00 0. -1.
         21    1    1    2  503  501  0.14399944243E+02 -0.14557208012E+02 -0.13400360069E+03  0.13555897498E+03  0.00000000000E+00 0. -1.
         21    1    1    2  504  502 -0.14399944243E+02  0.14557208012E+02  0.52109112909E+02  0.55987769624E+02  0.00000000000E+00 0. -1.
</event>
<event>
 4    1  0.1602044E+006  0.2367800E+02  0.7546771E-02  0.1484156E+00
         21   -1    0    0  503  501  0.00000000000E+00  0.00000000000E+00  0.46377582901E+02  0.46377582901E+02  0.00000000000E+00 0.  1.
         21   -1    0    0  501  502 -0.00000000000E+00 -0.00000000000E+00 -0.17522094567E+02  0.17522094567E+02  0.00000000000E+00 0.  1.
         21    1    1    2  503  504 -0.50681229955E+01  0.23129239478E+02  0.32219089145E+02  0.39983962970E+02  0.00000000000E+00 0.  1.
         21    1    1    2  504  502  0.50681229955E+01 -0.23129239478E+02 -0.33636008112E+01  0.23915714497E+02  0.00000000000E+00 0.  1.
</event>
<event>
 4    1  0.1602044E+006  0.3495055E+02  0.7546771E-02  0.1380911E+00
         21   -1    0    0  504  501  0.00000000000E+00  0.00000000000E+00  0.31489308571E+03  0.31489308571E+03  0.00000000000E+00 0.  1.
         21   -1    0    0  501  502 -0.00000000000E+00 -0.00000000000E+00 -0.84856858258E+01  0.84856858258E+01  0.00000000000E+00 0.  1.
         21    1    1    2  503  502  0.31264513327E+02  0.15622787059E+02  0.34073544799E+02  0.48811348314E+02  0.00000000000E+00 0.  1.
         21    1    1    2  504  503 -0.31264513327E+02 -0.15622787059E+02  0.27233385508E+03  0.27456742322E+03  0.00000000000E+00 0.  1.
</event>
<event>
 4    1  0.1602044E+006  0.2318354E+02  0.7546771E-02  0.1490206E+00
         21   -1    0    0  504  501  0.00000000000E+00  0.00000000000E+00  0.98656306392E+02  0.98656306392E+02  0.00000000000E+00 0. -1.
         21   -1    0    0  503  502 -0.00000000000E+00 -0.00000000000E+00 -0.12780721757E+02  0.12780721757E+02  0.00000000000E+00 0. -1.
         21    1    1    2  503  501 -0.35779065960E+01 -0.22905786746E+02  0.85141962137E+02  0.88241884605E+02  0.00000000000E+00 0. -1.
         21    1    1    2  504  502  0.35779065960E+01  0.22905786746E+02  0.73362249778E+00  0.23195143544E+02  0.00000000000E+00 0. -1.
</event>
<event>
 4    1  0.1602044E+006  0.2122311E+02  0.7546771E-02  0.1516103E+00
         21   -1    0    0  503  501  0.00000000000E+00  0.00000000000E+00  0.17068579595E+03  0.17068579595E+03  0.00000000000E+00 0.  1.
         21   -1    0    0  504  502 -0.00000000000E+00 -0.00000000000E+00 -0.71079196207E+01  0.71079196207E+01  0.00000000000E+00 0.  1.
         21    1    1    2  503  502 -0.21178578856E+02  0.13741638609E+01  0.15227803053E+03  0.15374985890E+03  0.00000000000E+00 0.  1.
         21    1    1    2  504  501  0.21178578856E+02 -0.13741638609E+01  0.11299845800E+02  0.24043856675E+02  0.00000000000E+00 0.  1.
</event>
<event>
 4    1  0.1602044E+006  0.5705648E+02  0.7546771E-02  0.1270175E+00
         21   -1    0    0  503  501  0.00000000000E+00  0.00000000000E+00  0.40128475140E+02  0.40128475140E+02  0.00000000000E+00 0.  1.
         21   -1    0    0  504  502 -0.00000000000E+00 -0.00000000000E+00 -0.13359307591E+03  0.13359307591E+03  0.00000000000E+00 0. -1.
         21    1    1    2  503  502 -0.41497253929E+02 -0.39158905670E+02 -0.10116718328E+03  0.11614749653E+03  0.00000000000E+00 0. -1.
         21    1    1    2  504  501  0.41497253929E+02  0.39158905670E+02  0.77025825076E+01  0.57574054523E+02  0.00000000000E+00 0.  1.
</event>
<event>
 4    1  0.1602044E+006  0.2119362E+02  0.7546771E-02  0.1516518E+00
         21   -1    0    0  502  501  0.00000000000E+00  0.00000000000E+00  0.40443204811E+01  0.40443204811E+01  0.00000000000E+00 0. -1.
         21   -1    0    0  503  502 -0.00000000000E+00 -0.00000000000E+00 -0.51473992625E+03  0.51473992625E+03  0.00000000000E+00 0. -1.
         21    1    1    2  503  504 -0.16341810021E+02 -0.13494993451E+02 -0.48505809437E+03  0.48552087959E+03  0.00000000000E+00 0. -1.
         21    1    1    2  504  501  0.16341810021E+02  0.13494993451E+02 -0.25637511406E+02  0.33263367149E+02  0.00000000000E+00 0. -1.
</event>
<event>
 4    1  0.1602044E+006  0.2042177E+02  0.7546771E-02  0.1527683E+00
         21   -1    0    0  503  501  0.00000000000E+00  0.00000000000E+00  0.34630320028E+03  0.34630320028E+03  0.00000000000E+00 0.  1.
         21   -1    0    0  504  502 -0.00000000000E+00 -0.00000000000E+00 -0.21892112464E+01  0.21892112464E+01  0.00000000000E+00 0.  1.
         21    1    1    2  503  502  0.77465306845E+01  0.18895499106E+02  0.28893177101E+03  0.28965257969E+03  0.00000000000E+00 0.  1.
         21    1    1    2  504  501 -0.77465306845E+01 -0.18895499106E+02  0.55182218023E+02  0.58839831832E+02  0.00000000000E+00 0.  1.
</event>
<event>
 4    1  0.1602044E+006  0.2791953E+02  0.7546771E-02  0.1438584E+00
         21   -1    0    0  503  501  0.00000000000E+00  0.00000000000E+00  0.12633838753E+02  0.12633838753E+02  0.00000000000E+00 0.  1.
         21   -1    0    0  504  502 -0.00000000000E+00 -0.00000000000E+00 -0.68265921325E+02  0.68265921325E+02  0.00000000000E+00 0.  1.
         21    1    1    2  503  502  0.19162022992E+02 -0.20305589043E+02 -0.15270671676E+02  0.31822845331E+02  0.00000000000E+00 0.  1.
         21    1    1    2  504  501 -0.19162022992E+02  0.20305589043E+02 -0.40361410896E+02  0.49076914747E+02  0.00000000000E+00 0.  1.
</event>
<event>
 4    1  0.1602044E+006  0.2005574E+02  0.7546771E-02  0.1533185E+00
         21   -1    0    0  503  501  0.00000000000E+00  0.00000000000E+00  0.83527045376E+00  0.83527045376E+00  0.00000000000E+00 0. -1.
         21   -1    0    0  504  502 -0.00000000000E+00 -0.00000000000E+00 -0.57657668050E+03  0.57657668050E+03  0.00000000000E+00 0. -1.
         21    1    1    2  503  502  0.16810559490E+02  0.10937915080E+02 -0.40507054187E+03  0.40556673530E+03  0.00000000000E+00 0. -1.
         21    1    1    2  504  501 -0.16810559490E+02 -0.10937915080E+02 -0.17067086818E+03  0.17184521565E+03  0.00000000000E+00 0. -1.
</event>
<event>
 4    1  0.1602044E+006  0.2374731E+02  0.7546771E-02  0.1483321E+00
         21   -1    0    0  504  501  0.00000000000E+00  0.00000000000E+00  0.14669143281E+03  0.14669143281E+03  0.00000000000E+00 0. -1.
         21   -1    0    0  503  502 -0.00000000000E+00 -0.00000000000E+00 -0.45607001251E+01  0.45607001251E+01  0.00000000000E+00 0. -1.
         21    1    1    2  503  501 -0.19713772016E+02 -0.13240167667E+02  0.41093413498E+02  0.47461600056E+02  0.00000000000E+00 0. -1.
         21    1    1    2  504  502  0.19713772016E+02  0.13240167667E+02  0.10103731918E+03  0.10379053288E+03  0.00000000000E+00 0. -1.
</event>
<event>
 4    1  0.1602044E+006  0.2354509E+02  0.7546771E-02  0.1485764E+00
         21   -1    0    0  504  501  0.00000000000E+00  0.00000000000E+00  0.10720050260E+04  0.10720050260E+04  0.00000000000E+00 0. -1.
         21   -1    0    0  501  502 -0.00000000000E+00 -0.00000000000E+00 -0.32912382707E+02  0.32912382707E+02  0.00000000000E+00 0.  1.
         21    1    1    2  503  502 -0.22286131907E+02  0.75960391593E+01 -0.28554950241E+02  0.37010223852E+02  0.00000000000E+00 0.  1.
         21    1    1    2  504  503  0.22286131907E+02 -0.75960391593E+01  0.10676475935E+04  0.10679071849E+04  0.00000000000E+00 0. -1.
</event>
<event>
 4    1  0.1602044E+006  0.4499311E+02  0.7546771E-02  0.1321474E+00
         21   -1    0    0  503  501  0.00000000000E+00  0.00000000000E+00  0.92393696808E+03  0.92393696808E+03  0.00000000000E+00 0. -1.
         21   -1    0    0  501  502 -0.00000000000E+00 -0.00000000000E+00 -0.70961742763E+01  0.70961742763E+01  0.00000000000E+00 0. -1.
         21    1    1    2  503  504 -0.30294563136E+02  0.33265887850E+02  0.84545393770E+03  0.84665030598E+03  0.00000000000E+00 0. -1.
         21    1    1    2  504  502  0.30294563136E+02 -0.33265887850E+02  0.71386856109E+02  0.84382836378E+02  0.00000000000E+00 0. -1.
</event>
<event>
 4    1  0.1602044E+006  0.2254984E+02  0.7546771E-02  0.1498229E+00
         21   -1    0    0  504  501  0.00000000000E+00  0.00000000000E+00  0.87821147604E+01  0.87821147604E+01  0.00000000000E+00 0. -1.
         21   -1    0    0  503  502 -0.00000000000E+00 -0.00000000000E+00 -0.74057692541E+02  0.74057692541E+02  0.00000000000E+00 0. -1.
         21    1    1    2  503  501 -0.67633776676E+01  0.21511676366E+02 -0.51984036908E+02  0.56664235553E+02  0.00000000000E+00 0. -1.
         21    1    1    2  504  502  0.67633776676E+01 -0.21511676366E+02 -0.13291540872E+02  0.26175571748E+02  0.00000000000E+00 0. -1.
</event>
<event>
 4    1  0.1602044E+006  0.2090238E+02  0.7546771E-02  0.1520663E+00
         21   -1    0    0  503  501  0.00000000000E+00  0.00000000000E+00  0.96355294721E+02  0.96355294721E+02  0.00000000000E+00 0.  1.
         21   -1    0    0  501  502 -0.00000000000E+00 -0.00000000000E+00 -0.82587605965E+03  0.82587605965E+03  0.00000000000E+00 0.  1.
         21    1    1    2  503  504  0.11009335587E+01  0.20873368260E+02  0.95087706148E+02  0.97358006439E+02  0.00000000000E+00 0.  1.
         21    1    1    2  504  502 -0.11009335587E+01 -0.20873368260E+02 -0.82460847108E+03  0.82487334793E+03  0.00000000000E+00 0.  1.
</event>
<event>
 4    1  0.1602044E+006  0.2347573E+02  0.7546771E-02  0.1486609E+00
         21   -1    0    0  502  501  0.00000000000E+00  0.00000000000E+00  0.74178173239E+02  0.74178173239E+02  0.00000000000E+00 0. -1.
         21   -1    0    0  503  502 -0.00000000000E+00 -0.00000000000E+00 -0.27079922213E+02  0.27079922213E+02  0.00000000000E+00 0.  1.
         21    1    1    2  503  504  0.16206428731E+02 -0.16984161115E+02 -0.19579091159E+02  0.30568789175E+02  0.00000000000E+00 0.  1.
         21    1    1    2  504  501 -0.16206428731E+02  0.16984161115E+02  0.66677342185E+02  0.70689306277E+02  0.00000000000E+00 0. -1.
</event>
<event>
 4    1  0.1602044E+006  0.2526221E+02  0.7546771E-02  0.1465891E+00
         21   -1    0    0  503  501  0.00000000000E+00  0.00000000000E+00  0.11964912856E+01  0.11964912856E+01  0.00000000000E+00 0. -1.
         21   -1    0    0  504  502 -0.00000000000E+00 -0.00000000000E+00 -0.71997495441E+03  0.71997495441E+03  0.00000000000E+00 0. -1.
         21    1    1    2  503  502  0.16677730079E+02 -0.18974530265E+02 -0.17581797314E+03  0.17762358840E+03  0.00000000000E+00 0. -1.
         21    1    1    2  504  501 -0.16677730079E+02  0.18974530265E+02 -0.54296048999E+03  0.54354785730E+03  0.00000000000E+00 0. -1.
</event>
<event>
 4    1  0.1602044E+006  0.2461028E+02  0.7546771E-02  0.1473211E+00
         21   -1    0    0  502  501  0.00000000000E+00  0.00000000000E+00  0.98929874129E+01  0.98929874129E+01  0.00000000000E+00 0. -1.
         21   -1    0    0  504  502 -0.00000000000E+00 -0.00000000000E+00 -0.17264757987E+03  0.17264757987E+03  0.00000000000E+00 0.  1.
         21    1    1    2  503  501 -0.23913189795E+02 -0.58159644646E+01 -0.80539841315E+01  0.25894647115E+02  0.00000000000E+00 0. -1.
         21    1    1    2  504  503  0.23913189795E+02  0.58159644646E+01 -0.15470060833E+03  0.15664592017E+03  0.00000000000E+00 0.  1.
</event>
<event>
 4    1  0.1602044E+006  0.2417971E+02  0.7546771E-02  0.1478193E+00
         21   -1    0    0  502  501  0.00000000000E+00  0.00000000000E+00  0.19349550785E+03  0.19349550785E+03  0.00000000000E+00 0.  1.
         21   -1    0    0  503  502 -0.00000000000E+00 -0.00000000000E+00 -0.27763173230E+02  0.27763173230E+02  0.00000000000E+00 0.  1.
         21    1    1    2  503  504 -0.24740779821E+01  0.24052805739E+02 -0.21569721710E+02  0.32402336651E+02  0.00000000000E+00 0.  1.
         21    1    1    2  504  501  0.24740779821E+01 -0.24052805739E+02  0.18730205633E+03  0.18885634443E+03  0.00000000000E+00 0.  1.
</event>
<event>
 4    1  0.1602044E+006  0.3050365E+02  0.7546771E-02  0.1415269E+00
         21   -1    0    0  504  501  0.00000000000E+00  0.00000000000E+00  0.28258818930E+03  0.28258818930E+03  0.00000000000E+00 0. -1.
         21   -1    0    0  503  502 -0.00000000000E+00 -0.00000000000E+00 -0.33266547771E+01  0.33266547771E+01  0.00000000000E+00 0. -1.
         21    1    1    2  503  501  0.22539220871E+02 -0.20553737933E+02  0.15407777653E+03  0.15706824580E+03  0.00000000000E+00 0. -1.
         21    1    1    2  504  502 -0.22539220871E+02  0.20553737933E+02  0.12518375799E+03  0.12884659827E+03  0.00000000000E+00 0. -1.
</event>
<event>
 4    1  0.1602044E+006  0.3180301E+02  0.7546771E-02  0.1404549E+00
         21   -1    0    0  504  501  0.00000000000E+00  0.00000000000E+00  0.54504125624E+01  0.54504125624E+01  0.00000000000E+00 0. -1.
         21   -1    0    0  503  502 -0.00000000000E+00 -0.00000000000E+00 -0.23161698851E+03  0.23161698851E+03  0.00000000000E+00 0. -1.
         21    1    1    2  503  501  0.12362657766E+02  0.29301808506E+02 -0.16593496663E+03  0.16895515511E+03  0.00000000000E+00 0. -1.
         21    1    1    2  504  502 -0.12362657766E+02 -0.29301808506E+02 -0.60231609324E+02  0.68112245966E+02  0.00000000000E+00 0. -1.
</event>
<event>
 4    1  0.1602044E+006  0.2536570E+02  0.7546771E-02  0.1464754E+00
         21   -1    0    0  503  501  0.00000000000E+00  0.00000000000E+00  0.71496967521E+02  0.71496967521E+02  0.00000000000E+00 0. -1.
         21   -1    0    0  501  502 -0.00000000000E+00 -0.00000000000E+00 -0.92612134807E+01  0.92612134807E+01  0.00000000000E+00 0. -1.
         21    1    1    2  503  504  0.98989221427E+01 -0.23354441369E+02  0.37909110865E+02  0.45612709609E+02  0.00000000000E+00 0. -1.
         21    1    1    2  504  502 -0.98989221427E+01  0.23354441369E+02  0.24326643175E+02  0.35145471393E+02  0.00000000000E+00 0. -1.
</event>
<event>
 4    1  0.1602044E+006  0.2195433E+02  0.7546771E-02  0.1506063E+00
         21   -1    0    0  504  501  0.00000000000E+00  0.00000000000E+00  0.80951579831E+01  0.80951579831E+01  0.00000000000E+00 0. -1.
         21   -1    0    0  503  502 -0.00000000000E+00 -0.00000000000E+00 -0.11697869523E+03  0.11697869523E+03  0.00000000000E+00 0. -1.
         21    1    1    2  503  501  0.20653328932E+02 -0.74453107036E+01 -0.10620778224E+02  0.24388390220E+02  0.00000000000E+00 0. -1.
         21    1    1    2  504  502 -0.20653328932E+02  0.74453107036E+01 -0.98262759024E+02  0.10068546299E+03  0.00000000000E+00 0. -1.
</event>
<event>
 4    1  0.1602044E+006  0.3099054E+02  0.7546771E-02  0.1411179E+00
         21   -1    0    0  503  501  0.00000000000E+00  0.00000000000E+00  0.93692939750E+01  0.93692939750E+01  0.00000000000E+00 0.  1.
         21   -1    0    0  504  502 -0.00000000000E+00 -0.00000000000E+00 -0.10267516728E+03  0.10267516728E+03  0.00000000000E+00 0. -1.
         21    1    1    2  503  502  0.28232920713E+02  0.12779496864E+02 -0.44382193826E+02  0.54131252349E+02  0.00000000000E+00 0.  1.
         21    1    1    2  504  501 -0.28232920713E+02 -0.12779496864E+02 -0.48923679481E+02  0.57913208908E+02  0.00000000000E+00 0. -1.
</event>
<event>
 4    1  0.1602044E+006  0.5638331E+02  0.7546771E-02  0.1272642E+00
         21   -1    0    0  502  501  0.00000000000E+00  0.00000000000E+00  0.18696660678E+02  0.18696660678E+02  0.00000000000E+00 0. -1.
         21   -1    0    0  504  502 -0.00000000000E+00 -0.00000000000E+00 -0.36586028051E+03  0.36586028051E+03  0.00000000000E+00 0.  1.
         21    1    1    2  503  501  0.29600361938E+02 -0.47988505826E+02 -0.32909727969E+02  0.65284977699E+02  0.00000000000E+00 0. -1.
         21    1    1    2  504  503 -0.29600361938E+02  0.47988505826E+02 -0.31425389187E+03  0.31927196349E+03  0.00000000000E+00 0.  1.
</event>
<event>
 4    1  0.1602044E+006  0.2525771E+02  0.7546771E-02  0.1465941E+00
         21   -1    0    0  502  501  0.00000000000E+00  0.00000000000E+00  0.12683467290E+01  0.12683467290E+01  0.00000000000E+00 0.  1.
         21   -1    0    0  504  502 -0.00000000000E+00 -0.00000000000E+00 -0.51551588419E+03  0.51551588419E+03  0.00000000000E+00 0.  1.
         21    1    1    2  503  501 -0.44767734258E+01  0.24857808902E+02 -0.21682909405E+03  0.21829523172E+03  0.00000000000E+00 0.  1.
         21    1    1    2  504  503  0.44767734258E+01 -0.24857808902E+02 -0.29741844341E+03  0.29848899920E+03  0.00000000000E+00 0.  1.
</event>
<event>
 4    1  0.1602044E+006  0.2740716E+02  0.7546771E-02  0.1443560E+00
         21   -1    0    0  504  501  0.00000000000E+00  0.00000000000E+00  0.41038912297E+02  0.41038912297E+02  0.00000000000E+00 0. -1.
         21   -1    0    0  503  502 -0.00000000000E+00 -0.00000000000E+00 -0.30044261588E+02  0.30044261588E+02  0.00000000000E+00 0. -1.
         21    1    1    2  503  501  0.26193538814E+02 -0.80654006474E+01  0.27715367722E+02  0.38978119133E+02  0.00000000000E+00 0. -1.
         21    1    1    2  504  502 -0.26193538814E+02  0.80654006474E+01 -0.16720717013E+02  0.32105054752E+02  0.00000000000E+00 0. -1.
</event>
<event>
 4    1  0.1602044E+006  0.2231850E+02  0.7546771E-02  0.1501238E+00
         21   -1    0    0  502  501  0.00000000000E+00  0.00000000000E+00  0.63708769079E+01  0.63708769079E+01  0.00000000000E+00 0.  1.
         21   -1    0    0  503  502 -0.00000000000E+00 -0.00000000000E+00 -0.29013538818E+03  0.29013538818E+03  0.00000000000E+00 0.  1.
         21    1    1    2  503  504 -0.23580148469E+01  0.22193588785E+02 -0.26859469482E+03  0.26952036232E+03  0.00000000000E+00 0.  1.
         21    1    1    2  504  501  0.23580148469E+01 -0.22193588785E+02 -0.15169816448E+02  0.26985902768E+02  0.00000000000E+00 0.  1.
</event>
<event>
 4    1  0.1602044E+006  0.2353162E+02  0.7546771E-02  0.1485928E+00
         21   -1    0    0  504  501  0.00000000000E+00  0.00000000000E+00  0.44728563317E+03  0.44728563317E+03  0.00000000000E+00 0. -1.
         21   -1    0    0  503  502 -0.00000000000E+00 -0.00000000000E+00 -0.39038068143E+03  0.39038068143E+03  0.00000000000E+00 0.  1.
         21    1    1    2  503  501  0.11587013487E+02 -0.20481168539E+02  0.44662099363E+03  0.44724048240E+03  0.00000000000E+00 0. -1.
         21    1    1    2  504  502 -0.11587013487E+02  0.20481168539E+02 -0.38971604189E+03  0.39042583220E+03  0.00000000000E+00 0.  1.
</event>
<event>
 4    1  0.1602044E+006  0.2161114E+02  0.7546771E-02  0.1510715E+00
         21   -1    0    0  503  501  0.00000000000E+00  0.00000000000E+00  0.66010212638E+02  0.66010212638E+02  0.00000000000E+00 0.  1.
         21   -1    0    0  501  502 -0.00000000000E+00 -0.00000000000E+00 -0.28052829369E+02  0.28052829369E+02  0.00000000000E+00 0.  1.
         21    1    1    2  503  504  0.27195099459E+01 -0.21439351905E+02  0.59649044304E+02  0.63443282000E+02  0.00000000000E+00 0.  1.
         21    1    1    2  504  502 -0.27195099459E+01  0.21439351905E+02 -0.21691661035E+02  0.30619760007E+02  0.00000000000E+00 0.  1.
</event>
<event>
 4    1  0.1602044E+006  0.2257353E+02  0.7546771E-02  0.1497924E+00
         21   -1    0    0  504  501  0.00000000000E+00  0.00000000000E+00  0.51314793834E+02  0.51314793834E+02  0.00000000000E+00 0. -1.
         21   -1    0    0  503  502 -0.00000000000E+00 -0.00000000000E+00 -0.14541588990E+03  0.14541588990E+03  0.00000000000E+00 0. -1.
         21    1    1    2  503  501 -0.22325412924E+02  0.33377166211E+01  0.47896822353E+02  0.52949693163E+02  0.00000000000E+00 0. -1.
         21    1    1    2  504  502  0.22325412924E+02 -0.33377166211E+01 -0.14199791842E+03  0.14378099057E+03  0.00000000000E+00 0. -1.
</event>
<event>
 4    1  0.1602044E+006  0.2516036E+02  0.7546771E-02  0.1467017E+00
         21   -1    0    0  503  501  0.00000000000E+00  0.00000000000E+00  0.13333022457E+02  0.13333022457E+02  0.00000000000E+00 0.  1.
         21   -1    0    0  504  502 -0.00000000000E+00 -0.00000000000E+00 -0.54705623657E+02  0.54705623657E+02  0.00000000000E+00 0.  1.
         21    1    1    2  503  502  0.10785111053E+01  0.25137237865E+02 -0.33050481881E+02  0.41537672856E+02  0.00000000000E+00 0.  1.
         21    1    1    2  504  501 -0.10785111053E+01 -0.25137237865E+02 -0.83221193184E+01  0.26500973258E+02  0.00000000000E+00 0.  1.
</event>
<event>
 4    1  0.1602044E+006  0.2176323E+02  0.7546771E-02  0.1508641E+00
         21   -1    0    0  504  501  0.00000000000E+00  0.00000000000E+00  0.12007228872E+03  0.12007228872E+03  0.00000000000E+00 0. -1.
         21   -1    0    0  503  502 -0.00000000000E+00 -0.00000000000E+00 -0.57822696062E+02  0.57822696062E+02  0.00000000000E+00 0. -1.
         21    1    1    2  503  501 -0.53362335188E+01  0.21098876594E+02 -0.54735153919E+02  0.58903098867E+02  0.00000000000E+00 0. -1.
         21    1    1    2  504  502  0.53362335188E+01 -0.21098876594E+02  0.11698474658E+03  0.11899188592E+03  0.00000000000E+00 0. -1.
</event>
<event>
 4    1  0.1602044E+006  0.2079026E+02  0.7546771E-02  0.1522281E+00
         21   -1    0    0  504  501  0.00000000000E+00  0.00000000000E+00  0.22500292241E+03  0.22500292241E+03  0.00000000000E+00 0.  1.
         21   -1    0    0  503  502 -0.00000000000E+00 -0.00000000000E+00 -0.54347908888E+01  0.54347908888E+01  0.00000000000E+00 0. -1.
         21    1    1    2  503  501  0.19500315755E+02  0.72091951299E+01  0.17139714197E+02  0.26944472749E+02  0.00000000000E+00 0. -1.
         21    1    1    2  504  502 -0.19500315755E+02 -0.72091951299E+01  0.20242841733E+03  0.20349324055E+03  0.00000000000E+00 0.  1.
</event>
<event>
 4    1  0.1602044E+006  0.2074935E+02  0.7546771E-02  0.1522874E+00
         21   -1    0    0  503  501  0.00000000000E+00  0.00000000000E+00  0.29076425161E+00  0.29076425161E+00  0.00000000000E+00 0.  1.
         21   -1    0    0  504  502 -0.00000000000E+00 -0.00000000000E+00 -0.16234527739E+04  0.16234527739E+04  0.00000000000E+00 0.  1.
         21    1    1    2  503  502 -0.18289010377E+02 -0.98003905458E+01 -0.10523247615E+04  0.10525293056E+04  0.00000000000E+00 0.  1.
         21    1    1    2  504  501  0.18289010377E+02  0.98003905458E+01 -0.57083724820E+03  0.57121423257E+03  0.00000000000E+00 0.  1.
</event>
<event>
 4    1  0.1602044E+006  0.3475281E+02  0.7546771E-02  0.1382309E+00
         21   -1    0    0  504  501  0.00000000000E+00  0.00000000000E+00  0.11013254556E+03  0.11013254556E+03  0.00000000000E+00 0.  1.
         21   -1    0    0  503  502 -0.00000000000E+00 -0.00000000000E+00 -0.26313027229E+02  0.26313027229E+02  0.00000000000E+00 0.  1.
         21    1    1    2  503  501 -0.34386397436E+02 -0.50332553701E+01  0.94011287267E+02  0.10022913809E+03  0.00000000000E+00 0.  1.
         21    1    1    2  504  502  0.34386397436E+02  0.50332553701E+01 -0.10191768937E+02  0.36216434699E+02  0.00000000000E+00 0.  1.
</event>
<event>
 4    1  0.1602044E+006  0.2054107E+02  0.7546771E-02  0.1525919E+00
         21   -1    0    0  503  501  0.00000000000E+00  0.00000000000E+00  0.19205585105E+01  0.19205585105E+01  0.00000000000E+00 0. -1.
         21   -1    0    0  504  502 -0.00000000000E+00 -0.00000000000E+00 -0.24995652097E+03  0.24995652097E+03  0.00000000000E+00 0.  1.
         21    1    1    2  503  502  0.20489912027E+01  0.20438623966E+02 -0.80197516679E+02  0.82786335805E+02  0.00000000000E+00 0. -1.
         21    1    1    2  504  501 -0.20489912027E+01 -0.20438623966E+02 -0.16783844578E+03  0.16909074368E+03  0.00000000000E+00 0.  1.
</event>
<event>
 4    1  0.1602044E+006  0.2382140E+02  0.7546771E-02  0.1482434E+00
         21   -1    0    0  504  501  0.00000000000E+00  0.00000000000E+00  0.50374397616E+01  0.50374397616E+01  0.00000000000E+00 0.  1.
         21   -1    0    0  503  502 -0.00000000000E+00 -0.00000000000E+00 -0.26556826086E+03  0.26556826086E+03  0.00000000000E+00 0. -1.
         21    1    1    2  503  501  0.22846815603E+02 -0.67440541529E+01 -0.27593678915E+02  0.36453674241E+02  0.00000000000E+00 0.  1.
         21    1    1    2  504  502 -0.22846815603E+02  0.67440541529E+01 -0.23293714219E+03  0.23415202638E+03  0.00000000000E+00 0. -1.
</event>
<event>
 4    1  0.1602044E+006  0.2701498E+02  0.7546771E-02  0.1447458E+00
         21   -1    0    0  502  501  0.00000000000E+00  0.00000000000E+00  0.32216693674E+01  0.32216693674E+01  0.00000000000E+00 0. -1.
         21   -1    0    0  503  502 -0.00000000000E+00 -0.00000000000E+00 -0.26418532922E+03  0.26418532922E+03  0.00000000000E+00 0. -1.
         21    1    1    2  503  504  0.23106460363E+02 -0.13996459481E+02 -0.18095881046E+03  0.18296420544E+03  0.00000000000E+00 0. -1.
         21    1    1    2  504  501 -0.23106460363E+02  0.13996459481E+02 -0.80004849389E+02  0.84442793146E+02  0.00000000000E+00 0. -1.
</event>
<event>
 4    1  0.1602044E+006  0.2489716E+02  0.7546771E-02  0.1469957E+00
         21   -1    0    0  502  501  0.00000000000E+00  0.00000000000E+00  0.23108699545E+02  0.23108699545E+02  0.00000000000E+00 0. -1.
         21   -1    0    0  504  502 -0.00000000000E+00 -0.00000000000E+00 -0.28331000386E+02  0.28331000386E+02  0.00000000000E+00 0. -1.
         21    1    1    2  503  501 -0.88308180082E+01 -0.23278424182E+02  0.33207011567E+01  0.25117631960E+02  0.00000000000E+00 0. -1.
         21    1    1    2  504  503  0.88308180082E+01  0.23278424182E+02 -0.85430019985E+01  0.26322067971E+02  0.00000000000E+00 0. -1.
</event>
<event>
 4    1  0.1602044E+006  0.2776347E+02  0.7546771E-02  0.1440086E+00
         21   -1    0    0  503  501  0.00000000000E+00  0.00000000000E+00  0.80773715635E+02  0.80773715635E+02  0.00000000000E+00 0. -1.
         21   -1    0    0  501  502 -0.00000000000E+00 -0.00000000000E+00 -0.36547107414E+02  0.36547107414E+02  0.00000000000E+00 0. -1.
         21    1    1    2  503  504  0.12258199922E+02  0.24910772476E+02  0.72537021460E+02  0.77668716566E+02  0.00000000000E+00 0. -1.
         21    1    1    2  504  502 -0.12258199922E+02 -0.24910772476E+02 -0.28310413240E+02  0.39652106483E+02  0.00000000000E+00 0. -1.
</event>
<event>
 4    1  0.1602044E+006  0.3594339E+02  0.7546771E-02  0.1374050E+00
         21   -1    0    0  502  501  0.00000000000E+00  0.00000000000E+00  0.54031850559E+02  0.54031850559E+02  0.00000000000E+00 0.  1.
         21   -1    0    0  503  502 -0.00000000000E+00 -0.00000000000E+00 -0.24190605482E+02  0.24190605482E+02  0.00000000000E+00 0.  1.
         21    1    1    2  503  504 -0.52297685914E+01 -0.35560884184E+02  0.10711788198E+02  0.37505591182E+02  0.00000000000E+00 0.  1.
         21    1    1    2  504  501  0.52297685914E+01  0.35560884184E+02  0.19129456879E+02  0.40716864860E+02  0.00000000000E+00 0.  1.
</event>
