<event>
 4    1  0.5576842E+002  0.2409440E+02  0.7546771E-02  0.1479195E+00
          2   -1    0    0  502    0  0.00000000000E+00  0.00000000000E+00  0.31268705089E+03  0.31268705089E+03  0.00000000000E+00 0. -1.
         -2   -1    0    0    0  501 -0.00000000000E+00 -0.00000000000E+00 -0.32448001194E+01  0.32448001194E+01  0.00000000000E+00 0.  1.
         21    1    1    2  502  503 -0.27301056429E+01 -0.23939229657E+02  0.25804311763E+03  0.25916556629E+03  0.00000000000E+00 0. -1.
         21    1    1    2  503  501  0.27301056429E+01  0.23939229657E+02  0.51399133141E+02  0.56766284721E+02  0.00000000000E+00 0.  1.
</event>
<event>
 4    1  0.5576842E+002  0.2489807E+02  0.7546771E-02  0.1469947E+00
          2   -1    0    0  503    0  0.00000000000E+00  0.00000000000E+00  0.78916057009E+03  0.78916057009E+03  0.00000000000E+00 0.  1.
         -2   -1    0    0    0  501 -0.00000000000E+00 -0.00000000000E+00 -0.17867913134E+01  0.17867913134E+01  0.00000000000E+00 0. -1.
         21    1    1    2  502  501  0.17434053462E+02  0.17775473328E+02  0.97644986548E+02  0.10076932604E+03  0.00000000000E+00 0. -1.
         21    1    1    2  503  502 -0.17434053462E+02 -0.17775473328E+02  0.68972879222E+03  0.69017803536E+03  0.00000000000E+00 0.  1.
</event>
<event>
 4    1  0.5576842E+002  0.2129739E+02  0.7546771E-02  0.1515061E+00
          2   -1    0    0  503    0  0.00000000000E+00  0.00000000000E+00  0.12107735347E+03  0.12107735347E+03  0.00000000000E+00 0. -1.
         -2   -1    0    0    0  501 -0.00000000000E+00 -0.00000000000E+00 -0.55629704645E+02  0.55629704645E+02  0.00000000000E+00 0.  1.
         21    1    1    2  502  501  0.19675475992E+02 -0.81519530802E+01 -0.52602928805E+02  0.56750742844E+02  0.00000000000E+00 0.  1.
         21    1    1    2  503  502 -0.19675475992E+02  0.81519530802E+01  0.11805057763E+03  0.11995631527E+03  0.00000000000E+00 0. -1.
</event>
<event>
 4    1  0.5576842E+002  0.2074719E+02  0.7546771E-02  0.1522905E+00
          2   -1    0    0  503    0  0.00000000000E+00  0.00000000000E+00  0.19708231852E+03  0.19708231852E+03  0.00000000000E+00 0. -1.
         -2   -1    0    0    0  501 -0.00000000000E+00 -0.00000000000E+00 -0.26914554251E+01  0.26914554251E+01  0.00000000000E+00 0.  1.
         21    1    1    2  502  501  0.16501890207E+02 -0.12575121035E+02  0.14056390838E+03  0.14208679878E+03  0.00000000000E+00 0. -1.
         21    1    1    2  503  502 -0.16501890207E+02  0.12575121035E+02  0.53826954718E+02  0.57686975165E+02  0.00000000000E+00 0.  1.
</event>
<event>
 4    1  0.5576842E+002  0.2487508E+02  0.7546771E-02  0.1470206E+00
          2   -1    0    0  503    0  0.00000000000E+00  0.00000000000E+00  0.52413330413E+03  0.52413330413E+03  0.00000000000E+00 0.  1.
         -2   -1    0    0    0  501 -0.00000000000E+00 -0.00000000000E+00 -0.24442496535E+01  0.24442496535E+01  0.00000000000E+00 0. -1.
         21    1    1    2  502  501 -0.49531543328E+01  0.24376956642E+02  0.71531662064E+02  0.75733403664E+02  0.00000000000E+00 0. -1.
         21    1    1    2  503  502  0.49531543328E+01 -0.24376956642E+02  0.45015739241E+03  0.45084415012E+03  0.00000000000E+00 0.  1.
</event>
<event>
 4    1  0.5576842E+002  0.3162066E+02  0.7546771E-02  0.1406017E+00
          2   -1    0    0  503    0  0.00000000000E+00  0.00000000000E+00  0.42304310364E+03  0.42304310364E+03  0.00000000000E+00 0.  1.
         -2   -1    0    0    0  501 -0.00000000000E+00 -0.00000000000E+00 -0.76849793362E+01  0.76849793362E+01  0.00000000000E+00 0. -1.
         21    1    1    2  502  501 -0.72414472469E+01  0.30780307995E+02  0.28466813654E+02  0.42546743684E+02  0.00000000000E+00 0. -1.
         21    1    1    2  503  502  0.72414472469E+01 -0.30780307995E+02  0.38689131065E+03  0.38818133930E+03  0.00000000000E+00 0.  1.
</event>
<event>
 4    1  0.5576842E+002  0.2233082E+02  0.7546771E-02  0.1501077E+00
          2   -1    0    0  502    0  0.00000000000E+00  0.00000000000E+00  0.61215128107E+03  0.61215128107E+03  0.00000000000E+00 0. -1.
         -2   -1    0    0    0  501 -0.00000000000E+00 -0.00000000000E+00 -0.99242694044E+00  0.99242694044E+00  0.00000000000E+00 0.  1.
         21    1    1    2  502  503 -0.85400777288E+01  0.20633284639E+02  0.43534753231E+03  0.43591987710E+03  0.00000000000E+00 0. -1.
         21    1    1    2  503  501  0.85400777288E+01 -0.20633284639E+02  0.17581132182E+03  0.17722383091E+03  0.00000000000E+00 0.  1.
</event>
<event>
 4    1  0.5576842E+002  0.3180151E+02  0.7546771E-02  0.1404561E+00
          2   -1    0    0  502    0  0.00000000000E+00  0.00000000000E+00  0.63033797688E+03  0.63033797688E+03  0.00000000000E+00 0.  1.
         -2   -1    0    0    0  501 -0.00000000000E+00 -0.00000000000E+00 -0.16728532029E+01  0.16728532029E+01  0.00000000000E+00 0. -1.
         21    1    1    2  502  503 -0.20050626335E+01 -0.31738234358E+02  0.37824038667E+03  0.37957492792E+03  0.00000000000E+00 0.  1.
         21    1    1    2  503  501  0.20050626335E+01  0.31738234358E+02  0.25042473701E+03  0.25243590217E+03  0.00000000000E+00 0. -1.
</event>
<event>
 4    1  0.5576842E+002  0.2751619E+02  0.7546771E-02  0.1442491E+00
          2   -1    0    0  502    0  0.00000000000E+00  0.00000000000E+00  0.16041502298E+02  0.16041502298E+02  0.00000000000E+00 0.  1.
         -2   -1    0    0    0  501 -0.00000000000E+00 -0.00000000000E+00 -0.75480920756E+02  0.75480920756E+02  0.00000000000E+00 0. -1.
         21    1    1    2  502  503  0.24238201233E+02 -0.13024985181E+02 -0.17083336501E+01  0.27569168320E+02  0.00000000000E+00 0.  1.
         21    1    1    2  503  501 -0.24238201233E+02  0.13024985181E+02 -0.57731084808E+02  0.63953254734E+02  0.00000000000E+00 0. -1.
</event>
<event>
 4    1  0.5576842E+002  0.2295589E+02  0.7546771E-02  0.1493053E+00
          2   -1    0    0  502    0  0.00000000000E+00  0.00000000000E+00  0.49954604631E+03  0.49954604631E+03  0.00000000000E+00 0. -1.
         -2   -1    0    0    0  501 -0.00000000000E+00 -0.00000000000E+00 -0.13507665362E+01  0.13507665362E+01  0.00000000000E+00 0.  1.
         21    1    1    2  502  503 -0.17574569993E+02 -0.14768461447E+02  0.36630998279E+03  0.36702857717E+03  0.00000000000E+00 0. -1.
         21    1    1    2  503  501  0.17574569993E+02  0.14768461447E+02  0.13188529698E+03  0.13386823568E+03  0.00000000000E+00 0.  1.
</event>
<event>
 4    1  0.5576842E+002  0.2562174E+02  0.7546771E-02  0.1461967E+00
          2   -1    0    0  503    0  0.00000000000E+00  0.00000000000E+00  0.40552892752E+02  0.40552892752E+02  0.00000000000E+00 0.  1.
         -2   -1    0    0    0  501 -0.00000000000E+00 -0.00000000000E+00 -0.17644183943E+02  0.17644183943E+02  0.00000000000E+00 0. -1.
         21    1    1    2  502  501  0.13949414729E+02 -0.21491561548E+02  0.19813596061E+02  0.32389071890E+02  0.00000000000E+00 0.  1.
         21    1    1    2  503  502 -0.13949414729E+02  0.21491561548E+02  0.30951127491E+01  0.25808004805E+02  0.00000000000E+00 0. -1.
</event>
<event>
 4    1  0.5576842E+002  0.2227372E+02  0.7546771E-02  0.1501825E+00
          2   -1    0    0  502    0  0.00000000000E+00  0.00000000000E+00  0.35819203521E+03  0.35819203521E+03  0.00000000000E+00 0. -1.
         -2   -1    0    0    0  501 -0.00000000000E+00 -0.00000000000E+00 -0.13924899242E+01  0.13924899242E+01  0.00000000000E+00 0.  1.
         21    1    1    2  502  503  0.14327718965E+02  0.17053886875E+02  0.16526945887E+03  0.16676364299E+03  0.00000000000E+00 0.  1.
         21    1    1    2  503  501 -0.14327718965E+02 -0.17053886875E+02  0.19153008642E+03  0.19282088215E+03  0.00000000000E+00 0. -1.
</event>
<event>
 4    1  0.5576842E+002  0.2106329E+02  0.7546771E-02  0.1518363E+00
          2   -1    0    0  502    0  0.00000000000E+00  0.00000000000E+00  0.24229225180E+02  0.24229225180E+02  0.00000000000E+00 0.  1.
         -2   -1    0    0    0  501 -0.00000000000E+00 -0.00000000000E+00 -0.73513887381E+02  0.73513887381E+02  0.00000000000E+00 0. -1.
         21    1    1    2  502  503 -0.91983187761E+01  0.18948692563E+02  0.17707556499E+02  0.27517622996E+02  0.00000000000E+00 0.  1.
         21    1    1    2  503  501  0.91983187761E+01 -0.18948692563E+02 -0.66992218700E+02  0.70225489564E+02  0.00000000000E+00 0. -1.
</event>
<event>
 4    1  0.5576842E+002  0.4112733E+02  0.7546771E-02  0.1342003E+00
          2   -1    0    0  503    0  0.00000000000E+00  0.00000000000E+00  0.35678794002E+02  0.35678794002E+02  0.00000000000E+00 0.  1.
         -2   -1    0    0    0  501 -0.00000000000E+00 -0.00000000000E+00 -0.10609498252E+03  0.10609498252E+03  0.00000000000E+00 0. -1.
         21    1    1    2  502  501 -0.41072655547E+02 -0.21199765127E+01 -0.87929828042E+02  0.97072714980E+02  0.00000000000E+00 0. -1.
         21    1    1    2  503  502  0.41072655547E+02  0.21199765127E+01  0.17513639520E+02  0.44701061546E+02  0.00000000000E+00 0.  1.
</event>
<event>
 4    1  0.5576842E+002  0.2170442E+02  0.7546771E-02  0.1509441E+00
          2   -1    0    0  502    0  0.00000000000E+00  0.00000000000E+00  0.16900243596E+02  0.16900243596E+02  0.00000000000E+00 0.  1.
         -2   -1    0    0    0  501 -0.00000000000E+00 -0.00000000000E+00 -0.32372917823E+02  0.32372917823E+02  0.00000000000E+00 0. -1.
         21    1    1    2  502  503 -0.10750170340E+02 -0.18855128122E+02  0.14476299986E+01  0.21752646999E+02  0.00000000000E+00 0. -1.
         21    1    1    2  503  501  0.10750170340E+02  0.18855128122E+02 -0.16920304226E+02  0.27520514420E+02  0.00000000000E+00 0.  1.
</event>
<event>
 4    1  0.5576842E+002  0.2707032E+02  0.7546771E-02  0.1446903E+00
          2   -1    0    0  503    0  0.00000000000E+00  0.00000000000E+00  0.34210662998E+01  0.34210662998E+01  0.00000000000E+00 0.  1.
         -2   -1    0    0    0  501 -0.00000000000E+00 -0.00000000000E+00 -0.23173303613E+03  0.23173303613E+03  0.00000000000E+00 0. -1.
         21    1    1    2  502  501  0.26865266449E+02  0.33255828329E+01 -0.14649466173E+03  0.14897478967E+03  0.00000000000E+00 0. -1.
         21    1    1    2  503  502 -0.26865266449E+02 -0.33255828329E+01 -0.81817308096E+02  0.86179312754E+02  0.00000000000E+00 0.  1.
</event>
<event>
 4    1  0.5576842E+002  0.2572938E+02  0.7546771E-02  0.1460807E+00
          2   -1    0    0  503    0  0.00000000000E+00  0.00000000000E+00  0.58851780769E+02  0.58851780769E+02  0.00000000000E+00 0.  1.
         -2   -1    0    0    0  501 -0.00000000000E+00 -0.00000000000E+00 -0.11496747668E+02  0.11496747668E+02  0.00000000000E+00 0. -1.
         21    1    1    2  502  501  0.73702147037E+01 -0.24651187597E+02  0.18510044402E+02  0.31695786131E+02  0.00000000000E+00 0. -1.
         21    1    1    2  503  502 -0.73702147037E+01  0.24651187597E+02  0.28844988699E+02  0.38652742306E+02  0.00000000000E+00 0.  1.
</event>
<event>
 4    1  0.5576842E+002  0.3204173E+02  0.7546771E-02  0.1402646E+00
          2   -1    0    0  502    0  0.00000000000E+00  0.00000000000E+00  0.11399583398E+04  0.11399583398E+04  0.00000000000E+00 0.  1.
         -2   -1    0    0    0  501 -0.00000000000E+00 -0.00000000000E+00 -0.14909902496E+01  0.14909902496E+01  0.00000000000E+00 0. -1.
         21    1    1    2  502  503  0.31826926083E+02 -0.37039612851E+01  0.92836262502E+03  0.92891540847E+03  0.00000000000E+00 0.  1.
         21    1    1    2  503  501 -0.31826926083E+02  0.37039612851E+01  0.21010472448E+03  0.21253392153E+03  0.00000000000E+00 0. -1.
</event>
<event>
 4    1  0.5576842E+002  0.2408178E+02  0.7546771E-02  0.1479343E+00
          2   -1    0    0  502    0  0.00000000000E+00  0.00000000000E+00  0.11917433491E+04  0.11917433491E+04  0.00000000000E+00 0.  1.
         -2   -1    0    0    0  501 -0.00000000000E+00 -0.00000000000E+00 -0.60620362633E+00  0.60620362633E+00  0.00000000000E+00 0. -1.
         21    1    1    2  502  503  0.75156964175E+01 -0.22878947425E+02  0.33078478786E+03  0.33166022946E+03  0.00000000000E+00 0. -1.
         21    1    1    2  503  501 -0.75156964175E+01  0.22878947425E+02  0.86035235763E+03  0.86068932328E+03  0.00000000000E+00 0.  1.
</event>
<event>
 4    1  0.5576842E+002  0.2614891E+02  0.7546771E-02  0.1456350E+00
          2   -1    0    0  503    0  0.00000000000E+00  0.00000000000E+00  0.87924204841E+02  0.87924204841E+02  0.00000000000E+00 0. -1.
         -2   -1    0    0    0  501 -0.00000000000E+00 -0.00000000000E+00 -0.15399591307E+02  0.15399591307E+02  0.00000000000E+00 0.  1.
         21    1    1    2  502  501 -0.13000623778E+02  0.22688083491E+02 -0.85142889280E-01  0.26149045880E+02  0.00000000000E+00 0.  1.
         21    1    1    2  503  502  0.13000623778E+02 -0.22688083491E+02  0.72609756424E+02  0.77174750269E+02  0.00000000000E+00 0. -1.
</event>
<event>
 4    1  0.5576842E+002  0.3440787E+02  0.7546771E-02  0.1384774E+00
          2   -1    0    0  503    0  0.00000000000E+00  0.00000000000E+00  0.37781473908E+02  0.37781473908E+02  0.00000000000E+00 0.  1.
         -2   -1    0    0    0  501 -0.00000000000E+00 -0.00000000000E+00 -0.31743044831E+02  0.31743044831E+02  0.00000000000E+00 0. -1.
         21    1    1    2  502  501 -0.92686894115E+01 -0.33135979545E+02 -0.91960611512E+00  0.34420160070E+02  0.00000000000E+00 0. -1.
         21    1    1    2  503  502  0.92686894115E+01  0.33135979545E+02  0.69580351918E+01  0.35104358669E+02  0.00000000000E+00 0.  1.
</event>
<event>
 4    1  0.5576842E+002  0.2197881E+02  0.7546771E-02  0.1505735E+00
          2   -1    0    0  503    0  0.00000000000E+00  0.00000000000E+00  0.90215642209E+01  0.90215642209E+01  0.00000000000E+00 0.  1.
         -2   -1    0    0    0  501 -0.00000000000E+00 -0.00000000000E+00 -0.94738079637E+02  0.94738079637E+02  0.00000000000E+00 0. -1.
         21    1    1    2  502  501 -0.20877172596E+02  0.68710784280E+01 -0.77067496584E+02  0.80140296257E+02  0.00000000000E+00 0. -1.
         21    1    1    2  503  502  0.20877172596E+02 -0.68710784280E+01 -0.86490188319E+01  0.23619347601E+02  0.00000000000E+00 0.  1.
</event>
<event>
 4    1  0.5576842E+002  0.2096646E+02  0.7546771E-02  0.1519744E+00
          2   -1    0    0  503    0  0.00000000000E+00  0.00000000000E+00  0.43018030421E+03  0.43018030421E+03  0.00000000000E+00 0. -1.
         -2   -1    0    0    0  501 -0.00000000000E+00 -0.00000000000E+00 -0.17253171867E+01  0.17253171867E+01  0.00000000000E+00 0.  1.
         21    1    1    2  502  501  0.12812940518E+01  0.20927269220E+02  0.35211892834E+03  0.35274258604E+03  0.00000000000E+00 0. -1.
         21    1    1    2  503  502 -0.12812940518E+01 -0.20927269220E+02  0.76336058683E+02  0.79163035356E+02  0.00000000000E+00 0.  1.
</event>
<event>
 4    1  0.5576842E+002  0.2056822E+02  0.7546771E-02  0.1525520E+00
          2   -1    0    0  502    0  0.00000000000E+00  0.00000000000E+00  0.16532775455E+03  0.16532775455E+03  0.00000000000E+00 0.  1.
         -2   -1    0    0    0  501 -0.00000000000E+00 -0.00000000000E+00 -0.56241525405E+01  0.56241525405E+01  0.00000000000E+00 0. -1.
         21    1    1    2  502  503 -0.36158791405E+01 -0.20247887616E+02  0.14295493994E+03  0.14442702790E+03  0.00000000000E+00 0.  1.
         21    1    1    2  503  501  0.36158791405E+01  0.20247887616E+02  0.16748662066E+02  0.26524879187E+02  0.00000000000E+00 0. -1.
</event>
<event>
 4    1  0.5576842E+002  0.2955502E+02  0.7546771E-02  0.1423503E+00
          2   -1    0    0  502    0  0.00000000000E+00  0.00000000000E+00  0.17329207336E+04  0.17329207336E+04  0.00000000000E+00 0.  1.
         -2   -1    0    0    0  501 -0.00000000000E+00 -0.00000000000E+00 -0.95461518287E+00  0.95461518287E+00  0.00000000000E+00 0. -1.
         21    1    1    2  502  503 -0.27827586162E+02  0.99561231122E+01  0.14615723665E+04  0.14618711576E+04  0.00000000000E+00 0.  1.
         21    1    1    2  503  501  0.27827586162E+02 -0.99561231122E+01  0.27039375188E+03  0.27200419113E+03  0.00000000000E+00 0. -1.
</event>
<event>
 4    1  0.5576842E+002  0.2000304E+02  0.7546771E-02  0.1533989E+00
          2   -1    0    0  502    0  0.00000000000E+00  0.00000000000E+00  0.30593265408E+02  0.30593265408E+02  0.00000000000E+00 0.  1.
         -2   -1    0    0    0  501 -0.00000000000E+00 -0.00000000000E+00 -0.14773688083E+02  0.14773688083E+02  0.00000000000E+00 0. -1.
         21    1    1    2  502  503  0.64000722235E+01 -0.18951532443E+02  0.15592999690E+02  0.25362632863E+02  0.00000000000E+00 0.  1.
         21    1    1    2  503  501 -0.64000722235E+01  0.18951532443E+02  0.22657763486E+00  0.20004320629E+02  0.00000000000E+00 0. -1.
</event>
<event>
 4    1  0.5576842E+002  0.2599172E+02  0.7546771E-02  0.1458008E+00
          2   -1    0    0  503    0  0.00000000000E+00  0.00000000000E+00  0.15301921561E+03  0.15301921561E+03  0.00000000000E+00 0.  1.
         -2   -1    0    0    0  501 -0.00000000000E+00 -0.00000000000E+00 -0.24413125426E+02  0.24413125426E+02  0.00000000000E+00 0. -1.
         21    1    1    2  502  501  0.25843977828E+02 -0.27673218966E+01 -0.15991582885E+02  0.30517207992E+02  0.00000000000E+00 0. -1.
         21    1    1    2  503  502 -0.25843977828E+02  0.27673218966E+01  0.14459767307E+03  0.14691513304E+03  0.00000000000E+00 0.  1.
</event>
<event>
 4    1  0.5576842E+002  0.3360774E+02  0.7546771E-02  0.1390624E+00
          2   -1    0    0  503    0  0.00000000000E+00  0.00000000000E+00  0.38790765747E+03  0.38790765747E+03  0.00000000000E+00 0. -1.
         -2   -1    0    0    0  501 -0.00000000000E+00 -0.00000000000E+00 -0.39346329382E+02  0.39346329382E+02  0.00000000000E+00 0.  1.
         21    1    1    2  502  501 -0.10618526998E+02 -0.31886159789E+02 -0.31289956865E+02  0.45918859985E+02  0.00000000000E+00 0.  1.
         21    1    1    2  503  502  0.10618526998E+02  0.31886159789E+02  0.37985128495E+03  0.38133512687E+03  0.00000000000E+00 0. -1.
</event>
<event>
 4    1  0.5576842E+002  0.2826451E+02  0.7546771E-02  0.1435303E+00
          2   -1    0    0  502    0  0.00000000000E+00  0.00000000000E+00  0.56210674326E+03  0.56210674326E+03  0.00000000000E+00 0.  1.
         -2   -1    0    0    0  501 -0.00000000000E+00 -0.00000000000E+00 -0.87930796946E+01  0.87930796946E+01  0.00000000000E+00 0. -1.
         21    1    1    2  502  503  0.41493595509E+01  0.27958274592E+02  0.53802198159E+03  0.53876389539E+03  0.00000000000E+00 0.  1.
         21    1    1    2  503  501 -0.41493595509E+01 -0.27958274592E+02  0.15291681978E+02  0.32135927567E+02  0.00000000000E+00 0. -1.
</event>
<event>
 4    1  0.5576842E+002  0.2642701E+02  0.7546771E-02  0.1453450E+00
          2   -1    0    0  502    0  0.00000000000E+00  0.00000000000E+00  0.41770813123E+02  0.41770813123E+02  0.00000000000E+00 0. -1.
         -2   -1    0    0    0  501 -0.00000000000E+00 -0.00000000000E+00 -0.43525931626E+02  0.43525931626E+02  0.00000000000E+00 0.  1.
         21    1    1    2  502  503  0.16870248447E+02  0.20341618678E+02  0.32591846373E+02  0.41959685212E+02  0.00000000000E+00 0. -1.
         21    1    1    2  503  501 -0.16870248447E+02 -0.20341618678E+02 -0.34346964876E+02  0.43337059537E+02  0.00000000000E+00 0.  1.
</event>
<event>
 4    1  0.5576842E+002  0.2059323E+02  0.7546771E-02  0.1525152E+00
          2   -1    0    0  503    0  0.00000000000E+00  0.00000000000E+00  0.18548539572E+03  0.18548539572E+03  0.00000000000E+00 0. -1.
         -2   -1    0    0    0  501 -0.00000000000E+00 -0.00000000000E+00 -0.25146151715E+01  0.25146151715E+01  0.00000000000E+00 0.  1.
         21    1    1    2  502  501 -0.21393549655E+01  0.20481806610E+02  0.11980771035E+03  0.12156466880E+03  0.00000000000E+00 0. -1.
         21    1    1    2  503  502  0.21393549655E+01 -0.20481806610E+02  0.63163070203E+02  0.66435342094E+02  0.00000000000E+00 0.  1.
</event>
<event>
 4    1  0.5576842E+002  0.2102880E+02  0.7546771E-02  0.1518854E+00
          2   -1    0    0  503    0  0.00000000000E+00  0.00000000000E+00  0.44315082447E+03  0.44315082447E+03  0.00000000000E+00 0. -1.
         -2   -1    0    0    0  501 -0.00000000000E+00 -0.00000000000E+00 -0.10248257504E+01  0.10248257504E+01  0.00000000000E+00 0.  1.
         21    1    1    2  502  501  0.10394768955E+02  0.18280027459E+02  0.25707588781E+03  0.25793453185E+03  0.00000000000E+00 0. -1.
         21    1    1    2  503  502 -0.10394768955E+02 -0.18280027459E+02  0.18505011091E+03  0.18624111838E+03  0.00000000000E+00 0.  1.
</event>
<event>
 4    1  0.5576842E+002  0.2207306E+02  0.7546771E-02  0.1504478E+00
          2   -1    0    0  503    0  0.00000000000E+00  0.00000000000E+00  0.82677415275E+03  0.82677415275E+03  0.00000000000E+00 0.  1.
         -2   -1    0    0    0  501 -0.00000000000E+00 -0.00000000000E+00 -0.79827907437E+00  0.79827907437E+00  0.00000000000E+00 0. -1.
         21    1    1    2  502  501  0.22070494326E+02  0.33672440541E+00  0.20127499129E+03  0.20248170837E+03  0.00000000000E+00 0. -1.
         21    1    1    2  503  502 -0.22070494326E+02 -0.33672440541E+00  0.62470088238E+03  0.62509072346E+03  0.00000000000E+00 0.  1.
</event>
<event>
 4    1  0.5576842E+002  0.2898713E+02  0.7546771E-02  0.1428607E+00
          2   -1    0    0  502    0  0.00000000000E+00  0.00000000000E+00  0.73714241207E+03  0.73714241207E+03  0.00000000000E+00 0. -1.
         -2   -1    0    0    0  501 -0.00000000000E+00 -0.00000000000E+00 -0.11784078774E+01  0.11784078774E+01  0.00000000000E+00 0.  1.
         21    1    1    2  502  503 -0.27783649707E+02 -0.82657320711E+01  0.30123101233E+03  0.30262249802E+03  0.00000000000E+00 0. -1.
         21    1    1    2  503  501  0.27783649707E+02  0.82657320711E+01  0.43473299186E+03  0.43569832193E+03  0.00000000000E+00 0.  1.
</event>
<event>
 4    1  0.5576842E+002  0.3625186E+02  0.7546771E-02  0.1371970E+00
          2   -1    0    0  503    0  0.00000000000E+00  0.00000000000E+00  0.43749878908E+02  0.43749878908E+02  0.00000000000E+00 0. -1.
         -2   -1    0    0    0  501 -0.00000000000E+00 -0.00000000000E+00 -0.49435434521E+02  0.49435434521E+02  0.00000000000E+00 0.  1.
         21    1    1    2  502  501  0.35545220288E+02  0.71228399547E+01 -0.32027834986E+02  0.48373337163E+02  0.00000000000E+00 0.  1.
         21    1    1    2  503  502 -0.35545220288E+02 -0.71228399547E+01  0.26342279373E+02  0.44811976267E+02  0.00000000000E+00 0. -1.
</event>
<event>
 4    1  0.5576842E+002  0.3832601E+02  0.7546771E-02  0.1358585E+00
          2   -1    0    0  502    0  0.00000000000E+00  0.00000000000E+00  0.20026519280E+02  0.20026519280E+02  0.00000000000E+00 0. -1.
         -2   -1    0    0    0  501 -0.00000000000E+00 -0.00000000000E+00 -0.10507101328E+03  0.10507101328E+03  0.00000000000E+00 0.  1.
         21    1    1    2  502  503  0.35765012443E+02 -0.13774870905E+02 -0.81528424849E+01  0.39183568292E+02  0.00000000000E+00 0. -1.
         21    1    1    2  503  501 -0.35765012443E+02  0.13774870905E+02 -0.76891651517E+02  0.85913964270E+02  0.00000000000E+00 0.  1.
</event>
<event>
 4    1  0.5576842E+002  0.2044632E+02  0.7546771E-02  0.1527319E+00
          2   -1    0    0  503    0  0.00000000000E+00  0.00000000000E+00  0.30438747828E+03  0.30438747828E+03  0.00000000000E+00 0. -1.
         -2   -1    0    0    0  501 -0.00000000000E+00 -0.00000000000E+00 -0.58926277714E+01  0.58926277714E+01  0.00000000000E+00 0.  1.
         21    1    1    2  502  501  0.20114452219E+02 -0.36688903329E+01  0.13384622078E+02  0.24437676906E+02  0.00000000000E+00 0.  1.
         21    1    1    2  503  502 -0.20114452219E+02  0.36688903329E+01  0.28511022843E+03  0.28584242914E+03  0.00000000000E+00 0. -1.
</event>
<event>
 4    1  0.5576842E+002  0.4071952E+02  0.7546771E-02  0.1344320E+00
          2   -1    0    0  503    0  0.00000000000E+00  0.00000000000E+00  0.29985959936E+03  0.29985959936E+03  0.00000000000E+00 0.  1.
         -2   -1    0    0    0  501 -0.00000000000E+00 -0.00000000000E+00 -0.78857998252E+01  0.78857998252E+01  0.00000000000E+00 0. -1.
         21    1    1    2  502  501 -0.39808469019E+02 -0.85653329157E+01  0.61875997722E+02  0.74072385055E+02  0.00000000000E+00 0. -1.
         21    1    1    2  503  502  0.39808469019E+02  0.85653329157E+01  0.23009780181E+03  0.23367301413E+03  0.00000000000E+00 0.  1.
</event>
<event>
 4    1  0.5576842E+002  0.2057855E+02  0.7546771E-02  0.1525368E+00
          2   -1    0    0  502    0  0.00000000000E+00  0.00000000000E+00  0.10992057668E+04  0.10992057668E+04  0.00000000000E+00 0. -1.
         -2   -1    0    0    0  501 -0.00000000000E+00 -0.00000000000E+00 -0.84299354156E+00  0.84299354156E+00  0.00000000000E+00 0.  1.
         21    1    1    2  502  503  0.33034697968E+01  0.20311671554E+02  0.95448224472E+03  0.95470405488E+03  0.00000000000E+00 0. -1.
         21    1    1    2  503  501 -0.33034697968E+01 -0.20311671554E+02  0.14388052858E+03  0.14534470551E+03  0.00000000000E+00 0.  1.
</event>
<event>
 4    1  0.5576842E+002  0.2025210E+02  0.7546771E-02  0.1530216E+00
          2   -1    0    0  503    0  0.00000000000E+00  0.00000000000E+00  0.21959369178E+03  0.21959369178E+03  0.00000000000E+00 0. -1.
         -2   -1    0    0    0  501 -0.00000000000E+00 -0.00000000000E+00 -0.50511847807E+01  0.50511847807E+01  0.00000000000E+00 0.  1.
         21    1    1    2  502  501  0.33753679848E+01 -0.19968834533E+02  0.18101522706E+02  0.27162705791E+02  0.00000000000E+00 0.  1.
         21    1    1    2  503  502 -0.33753679848E+01  0.19968834533E+02  0.19644098429E+03  0.19748217077E+03  0.00000000000E+00 0. -1.
</event>
<event>
 4    1  0.5576842E+002  0.8941176E+02  0.7546771E-02  0.1183539E+00
          2   -1    0    0  502    0  0.00000000000E+00  0.00000000000E+00  0.41964809591E+02  0.41964809591E+02  0.00000000000E+00 0.  1.
         -2   -1    0    0    0  501 -0.00000000000E+00 -0.00000000000E+00 -0.20262938790E+03  0.20262938790E+03  0.00000000000E+00 0. -1.
         21    1    1    2  502  503  0.46155019036E+02 -0.76577917904E+02 -0.50415629739E+02  0.10264598879E+03  0.00000000000E+00 0.  1.
         21    1    1    2  503  501 -0.46155019036E+02  0.76577917904E+02 -0.11024894857E+03  0.14194820870E+03  0.00000000000E+00 0. -1.
</event>
<event>
 4    1  0.5576842E+002  0.2045996E+02  0.7546771E-02  0.1527117E+00
          2   -1    0    0  502    0  0.00000000000E+00  0.00000000000E+00  0.51363211241E+03  0.51363211241E+03  0.00000000000E+00 0.  1.
         -2   -1    0    0    0  501 -0.00000000000E+00 -0.00000000000E+00 -0.40362334861E+01  0.40362334861E+01  0.00000000000E+00 0. -1.
         21    1    1    2  502  503  0.20203100295E+02  0.32318301665E+01  0.48602816365E+03  0.48645861679E+03  0.00000000000E+00 0.  1.
         21    1    1    2  503  501 -0.20203100295E+02 -0.32318301665E+01  0.23567715278E+02  0.31209729111E+02  0.00000000000E+00 0. -1.
</event>
<event>
 4    1  0.5576842E+002  0.3540471E+02  0.7546771E-02  0.1377740E+00
          2   -1    0    0  503    0  0.00000000000E+00  0.00000000000E+00  0.49578090159E+03  0.49578090159E+03  0.00000000000E+00 0. -1.
         -2   -1    0    0    0  501 -0.00000000000E+00 -0.00000000000E+00 -0.57398678915E+01  0.57398678915E+01  0.00000000000E+00 0.  1.
         21    1    1    2  502  501  0.34228736778E+02  0.90491312590E+01  0.57449763813E+02  0.67483098330E+02  0.00000000000E+00 0.  1.
         21    1    1    2  503  502 -0.34228736778E+02 -0.90491312590E+01  0.43259126989E+03  0.43403767116E+03  0.00000000000E+00 0. -1.
</event>
<event>
 4    1  0.5576842E+002  0.2495626E+02  0.7546771E-02  0.1469293E+00
          2   -1    0    0  502    0  0.00000000000E+00  0.00000000000E+00  0.55295064418E+02  0.55295064418E+02  0.00000000000E+00 0. -1.
         -2   -1    0    0    0  501 -0.00000000000E+00 -0.00000000000E+00 -0.28088730350E+02  0.28088730350E+02  0.00000000000E+00 0.  1.
         21    1    1    2  502  503  0.24956261084E+02 -0.18811002669E-02  0.45870743323E+02  0.52220111680E+02  0.00000000000E+00 0. -1.
         21    1    1    2  503  501 -0.24956261084E+02  0.18811002669E-02 -0.18664409254E+02  0.31163683089E+02  0.00000000000E+00 0.  1.
</event>
<event>
 4    1  0.5576842E+002  0.3040557E+02  0.7546771E-02  0.1416104E+00
          2   -1    0    0  502    0  0.00000000000E+00  0.00000000000E+00  0.12696942428E+03  0.12696942428E+03  0.00000000000E+00 0. -1.
         -2   -1    0    0    0  501 -0.00000000000E+00 -0.00000000000E+00 -0.47272978876E+02  0.47272978876E+02  0.00000000000E+00 0.  1.
         21    1    1    2  502  503  0.14460063236E+02  0.26747063175E+02  0.11997955176E+03  0.12377233802E+03  0.00000000000E+00 0. -1.
         21    1    1    2  503  501 -0.14460063236E+02 -0.26747063175E+02 -0.40283106357E+02  0.50470065139E+02  0.00000000000E+00 0.  1.
</event>
<event>
 4    1  0.5576842E+002  0.2053576E+02  0.7546771E-02  0.1525997E+00
          2   -1    0    0  503    0  0.00000000000E+00  0.00000000000E+00  0.48053877243E+03  0.48053877243E+03  0.00000000000E+00 0.  1.
         -2   -1    0    0    0  501 -0.00000000000E+00 -0.00000000000E+00 -0.93255737338E+00  0.93255737338E+00  0.00000000000E+00 0. -1.
         21    1    1    2  502  501  0.11972826963E+02  0.16684384800E+02  0.18135845425E+03  0.18251741344E+03  0.00000000000E+00 0. -1.
         21    1    1    2  503  502 -0.11972826963E+02 -0.16684384800E+02  0.29824776081E+03  0.29895391636E+03  0.00000000000E+00 0.  1.
</event>
<event>
 4    1  0.5576842E+002  0.2364257E+02  0.7546771E-02  0.1484583E+00
          2   -1    0    0  502    0  0.00000000000E+00  0.00000000000E+00  0.18247075236E+03  0.18247075236E+03  0.00000000000E+00 0. -1.
         -2   -1    0    0    0  501 -0.00000000000E+00 -0.00000000000E+00 -0.46217559803E+01  0.46217559803E+01  0.00000000000E+00 0.  1.
         21    1    1    2  502  503  0.15677097641E+02 -0.17697449186E+02  0.14324499323E+03  0.14518298517E+03  0.00000000000E+00 0. -1.
         21    1    1    2  503  501 -0.15677097641E+02  0.17697449186E+02  0.34604003150E+02  0.41909523168E+02  0.00000000000E+00 0.  1.
</event>
<event>
 4    1  0.5576842E+002  0.2516681E+02  0.7546771E-02  0.1466946E+00
          2   -1    0    0  502    0  0.00000000000E+00  0.00000000000E+00  0.63558170672E+03  0.63558170672E+03  0.00000000000E+00 0.  1.
         -2   -1    0    0    0  501 -0.00000000000E+00 -0.00000000000E+00 -0.10370561426E+01  0.10370561426E+01  0.00000000000E+00 0. -1.
         21    1    1    2  502  503 -0.24974525917E+02 -0.31050415064E+01  0.38020605362E+03  0.38103807085E+03  0.00000000000E+00 0.  1.
         21    1    1    2  503  501  0.24974525917E+02  0.31050415064E+01  0.25433859696E+03  0.25558069201E+03  0.00000000000E+00 0. -1.
</event>
<event>
 4    1  0.5576842E+002  0.2166411E+02  0.7546771E-02  0.1509991E+00
          2   -1    0    0  503    0  0.00000000000E+00  0.00000000000E+00  0.40626722740E+02  0.40626722740E+02  0.00000000000E+00 0. -1.
         -2   -1    0    0    0  501 -0.00000000000E+00 -0.00000000000E+00 -0.24240027447E+02  0.24240027447E+02  0.00000000000E+00 0.  1.
         21    1    1    2  502  501  0.20196468300E+02 -0.78381329469E+01 -0.15271451968E+02  0.26505676846E+02  0.00000000000E+00 0.  1.
         21    1    1    2  503  502 -0.20196468300E+02  0.78381329469E+01  0.31658147261E+02  0.38361073341E+02  0.00000000000E+00 0. -1.
</event>
<event>
 4    1  0.5576842E+002  0.2371718E+02  0.7546771E-02  0.1483684E+00
          2   -1    0    0  502    0  0.00000000000E+00  0.00000000000E+00  0.19158330055E+03  0.19158330055E+03  0.00000000000E+00 0.  1.
         -2   -1    0    0    0  501 -0.00000000000E+00 -0.00000000000E+00 -0.29674555281E+02  0.29674555281E+02  0.00000000000E+00 0. -1.
         21    1    1    2  502  503  0.30830552185E+01 -0.23515935659E+02  0.18596781372E+03  0.18747408408E+03  0.00000000000E+00 0.  1.
         21    1    1    2  503  501 -0.30830552185E+01  0.23515935659E+02 -0.24059068451E+02  0.33783771757E+02  0.00000000000E+00 0. -1.
</event>
<event>
 4    1  0.5576842E+002  0.2710047E+02  0.7546771E-02  0.1446601E+00
          2   -1    0    0  503    0  0.00000000000E+00  0.00000000000E+00  0.13486095334E+03  0.13486095334E+03  0.00000000000E+00 0. -1.
         -2   -1    0    0    0  501 -0.00000000000E+00 -0.00000000000E+00 -0.53292680596E+02  0.53292680596E+02  0.00000000000E+00 0.  1.
         21    1    1    2  502  501  0.36422226411E+01 -0.26854606630E+02 -0.48356414437E+02  0.55432648324E+02  0.00000000000E+00 0.  1.
         21    1    1    2  503  502 -0.36422226411E+01  0.26854606630E+02  0.12992468718E+03  0.13272098561E+03  0.00000000000E+00 0. -1.
</event>
<event>
 4    1  0.5576842E+002  0.3802690E+02  0.7546771E-02  0.1360453E+00
          2   -1    0    0  502    0  0.00000000000E+00  0.00000000000E+00  0.67906007041E+01  0.67906007041E+01  0.00000000000E+00 0.  1.
         -2   -1    0    0    0  501 -0.00000000000E+00 -0.00000000000E+00 -0.44737997210E+03  0.44737997210E+03  0.00000000000E+00 0. -1.
         21    1    1    2  502  503 -0.30945830496E+02 -0.22099791482E+02 -0.55910855002E+02  0.67617075622E+02  0.00000000000E+00 0.  1.
         21    1    1    2  503  501  0.30945830496E+02  0.22099791482E+02 -0.38467851639E+03  0.38655349718E+03  0.00000000000E+00 0. -1.
</event>
<event>
 4    1  0.5576842E+002  0.2324384E+02  0.7546771E-02  0.1489459E+00
          2   -1    0    0  502    0  0.00000000000E+00  0.00000000000E+00  0.40968543201E+02  0.40968543201E+02  0.00000000000E+00 0. -1.
         -2   -1    0    0    0  501 -0.00000000000E+00 -0.00000000000E+00 -0.42298516615E+02  0.42298516615E+02  0.00000000000E+00 0.  1.
         21    1    1    2  502  503  0.22723872901E+02 -0.48889204099E+01  0.33873933389E+02  0.41081861030E+02  0.00000000000E+00 0. -1.
         21    1    1    2  503  501 -0.22723872901E+02  0.48889204099E+01 -0.35203906803E+02  0.42185198786E+02  0.00000000000E+00 0.  1.
</event>
<event>
 4    1  0.5576842E+002  0.2122499E+02  0.7546771E-02  0.1516077E+00
          2   -1    0    0  502    0  0.00000000000E+00  0.00000000000E+00  0.24733815446E+03  0.24733815446E+03  0.00000000000E+00 0. -1.
         -2   -1    0    0    0  501 -0.00000000000E+00 -0.00000000000E+00 -0.22152020845E+01  0.22152020845E+01  0.00000000000E+00 0.  1.
         21    1    1    2  502  503  0.13780483629E+02  0.16143056967E+02  0.17517162537E+03  0.17645282189E+03  0.00000000000E+00 0. -1.
         21    1    1    2  503  501 -0.13780483629E+02 -0.16143056967E+02  0.69951327000E+02  0.73100534651E+02  0.00000000000E+00 0.  1.
</event>
<event>
 4    1  0.5576842E+002  0.3385837E+02  0.7546771E-02  0.1388772E+00
          2   -1    0    0  502    0  0.00000000000E+00  0.00000000000E+00  0.11748904882E+02  0.11748904882E+02  0.00000000000E+00 0. -1.
         -2   -1    0    0    0  501 -0.00000000000E+00 -0.00000000000E+00 -0.13806280654E+03  0.13806280654E+03  0.00000000000E+00 0.  1.
         21    1    1    2  502  503 -0.28558861076E+02 -0.18187376776E+02 -0.22592631792E+02  0.40704007557E+02  0.00000000000E+00 0. -1.
         21    1    1    2  503  501  0.28558861076E+02  0.18187376776E+02 -0.10372126987E+03  0.10910770387E+03  0.00000000000E+00 0.  1.
</event>
<event>
 4    1  0.5576842E+002  0.2564971E+02  0.7546771E-02  0.1461665E+00
          2   -1    0    0  503    0  0.00000000000E+00  0.00000000000E+00  0.34851949634E+03  0.34851949634E+03  0.00000000000E+00 0. -1.
         -2   -1    0    0    0  501 -0.00000000000E+00 -0.00000000000E+00 -0.25827132438E+01  0.25827132438E+01  0.00000000000E+00 0.  1.
         21    1    1    2  502  501  0.18504143563E+02  0.17762441728E+02  0.81902578851E+02  0.85825055127E+02  0.00000000000E+00 0.  1.
         21    1    1    2  503  502 -0.18504143563E+02 -0.17762441728E+02  0.26403420424E+03  0.26527715445E+03  0.00000000000E+00 0. -1.
</event>
<event>
 4    1  0.5576842E+002  0.4668408E+02  0.7546771E-02  0.1313227E+00
          2   -1    0    0  503    0  0.00000000000E+00  0.00000000000E+00  0.10180293168E+04  0.10180293168E+04  0.00000000000E+00 0. -1.
         -2   -1    0    0    0  501 -0.00000000000E+00 -0.00000000000E+00 -0.28413092610E+01  0.28413092610E+01  0.00000000000E+00 0.  1.
         21    1    1    2  502  501 -0.46660212208E+02 -0.14927494088E+01  0.25414744017E+03  0.25839954537E+03  0.00000000000E+00 0.  1.
         21    1    1    2  503  502  0.46660212208E+02  0.14927494088E+01  0.76104056736E+03  0.76247108067E+03  0.00000000000E+00 0. -1.
</event>
<event>
 4    1  0.5576842E+002  0.3362212E+02  0.7546771E-02  0.1390518E+00
          2   -1    0    0  502    0  0.00000000000E+00  0.00000000000E+00  0.74109472954E+02  0.74109472954E+02  0.00000000000E+00 0. -1.
         -2   -1    0    0    0  501 -0.00000000000E+00 -0.00000000000E+00 -0.33780177310E+02  0.33780177310E+02  0.00000000000E+00 0.  1.
         21    1    1    2  502  503 -0.69648915077E+01 -0.32892816871E+02  0.60114456735E+02  0.68878117163E+02  0.00000000000E+00 0. -1.
         21    1    1    2  503  501  0.69648915077E+01  0.32892816871E+02 -0.19785161091E+02  0.39011533100E+02  0.00000000000E+00 0.  1.
</event>
<event>
 4    1  0.5576842E+002  0.2047281E+02  0.7546771E-02  0.1526926E+00
          2   -1    0    0  502    0  0.00000000000E+00  0.00000000000E+00  0.63680547829E+01  0.63680547829E+01  0.00000000000E+00 0. -1.
         -2   -1    0    0    0  501 -0.00000000000E+00 -0.00000000000E+00 -0.65959960278E+02  0.65959960278E+02  0.00000000000E+00 0.  1.
         21    1    1    2  502  503 -0.17689792263E+02  0.10305695876E+02 -0.31470434043E+02  0.37543632438E+02  0.00000000000E+00 0. -1.
         21    1    1    2  503  501  0.17689792263E+02 -0.10305695876E+02 -0.28121471453E+02  0.34784382623E+02  0.00000000000E+00 0.  1.
</event>
<event>
 4    1  0.5576842E+002  0.5618586E+02  0.7546771E-02  0.1273373E+00
          2   -1    0    0  503    0  0.00000000000E+00  0.00000000000E+00  0.20045250997E+02  0.20045250997E+02  0.00000000000E+00 0. -1.
         -2   -1    0    0    0  501 -0.00000000000E+00 -0.00000000000E+00 -0.17236684474E+03  0.17236684474E+03  0.00000000000E+00 0.  1.
         21    1    1    2  502  501  0.35561581979E+02 -0.43499705974E+02 -0.47893369077E+02  0.73828350477E+02  0.00000000000E+00 0. -1.
         21    1    1    2  503  502 -0.35561581979E+02  0.43499705974E+02 -0.10442822466E+03  0.11858374526E+03  0.00000000000E+00 0.  1.
</event>
<event>
 4    1  0.5576842E+002  0.2443224E+02  0.7546771E-02  0.1475256E+00
          2   -1    0    0  503    0  0.00000000000E+00  0.00000000000E+00  0.17204188444E+03  0.17204188444E+03  0.00000000000E+00 0.  1.
         -2   -1    0    0    0  501 -0.00000000000E+00 -0.00000000000E+00 -0.91717118888E+01  0.91717118888E+01  0.00000000000E+00 0. -1.
         21    1    1    2  502  501  0.24408316684E+02  0.10809405936E+01  0.99937611030E+01  0.26397151682E+02  0.00000000000E+00 0. -1.
         21    1    1    2  503  502 -0.24408316684E+02 -0.10809405936E+01  0.15287641145E+03  0.15481644465E+03  0.00000000000E+00 0.  1.
</event>
<event>
 4    1  0.5576842E+002  0.2562205E+02  0.7546771E-02  0.1461963E+00
          2   -1    0    0  503    0  0.00000000000E+00  0.00000000000E+00  0.18173562812E+04  0.18173562812E+04  0.00000000000E+00 0. -1.
         -2   -1    0    0    0  501 -0.00000000000E+00 -0.00000000000E+00 -0.39157140051E+00  0.39157140051E+00  0.00000000000E+00 0.  1.
         21    1    1    2  502  501 -0.25439556106E+02 -0.30526282689E+01  0.65549864196E+03  0.65599920668E+03  0.00000000000E+00 0. -1.
         21    1    1    2  503  502  0.25439556106E+02  0.30526282689E+01  0.11614660679E+04  0.11617486459E+04  0.00000000000E+00 0.  1.
</event>
<event>
 4    1  0.5576842E+002  0.2258245E+02  0.7546771E-02  0.1497809E+00
          2   -1    0    0  502    0  0.00000000000E+00  0.00000000000E+00  0.16821848108E+03  0.16821848108E+03  0.00000000000E+00 0. -1.
         -2   -1    0    0    0  501 -0.00000000000E+00 -0.00000000000E+00 -0.30742013745E+01  0.30742013745E+01  0.00000000000E+00 0.  1.
         21    1    1    2  502  503  0.19209641740E+02 -0.11872524993E+02  0.92657106724E+02  0.95369316932E+02  0.00000000000E+00 0.  1.
         21    1    1    2  503  501 -0.19209641740E+02  0.11872524993E+02  0.72487172984E+02  0.75923365526E+02  0.00000000000E+00 0. -1.
</event>
<event>
 4    1  0.5576842E+002  0.2455230E+02  0.7546771E-02  0.1473875E+00
          2   -1    0    0  502    0  0.00000000000E+00  0.00000000000E+00  0.22191676930E+03  0.22191676930E+03  0.00000000000E+00 0.  1.
         -2   -1    0    0    0  501 -0.00000000000E+00 -0.00000000000E+00 -0.56565875783E+01  0.56565875783E+01  0.00000000000E+00 0. -1.
         21    1    1    2  502  503  0.16713336415E+02  0.17985546473E+02  0.19016551365E+03  0.19174393883E+03  0.00000000000E+00 0.  1.
         21    1    1    2  503  501 -0.16713336415E+02 -0.17985546473E+02  0.26094668077E+02  0.35829418054E+02  0.00000000000E+00 0. -1.
</event>
<event>
 4    1  0.5576842E+002  0.2643532E+02  0.7546771E-02  0.1453364E+00
          2   -1    0    0  503    0  0.00000000000E+00  0.00000000000E+00  0.11409790922E+04  0.11409790922E+04  0.00000000000E+00 0. -1.
         -2   -1    0    0    0  501 -0.00000000000E+00 -0.00000000000E+00 -0.18830923924E+02  0.18830923924E+02  0.00000000000E+00 0.  1.
         21    1    1    2  502  501  0.23655429735E+02 -0.11800283256E+02 -0.93222079998E+01  0.28030868750E+02  0.00000000000E+00 0.  1.
         21    1    1    2  503  502 -0.23655429735E+02  0.11800283256E+02  0.11314703763E+04  0.11317791474E+04  0.00000000000E+00 0. -1.
</event>
<event>
 4    1  0.5576842E+002  0.1017644E+03  0.7546771E-02  0.1160785E+00
          2   -1    0    0  503    0  0.00000000000E+00  0.00000000000E+00  0.58933815321E+03  0.58933815321E+03  0.00000000000E+00 0. -1.
         -2   -1    0    0    0  501 -0.00000000000E+00 -0.00000000000E+00 -0.33724499434E+02  0.33724499434E+02  0.00000000000E+00 0.  1.
         21    1    1    2  502  501  0.67342394332E+02 -0.76295387509E+02  0.62208307580E+02  0.11927220029E+03  0.00000000000E+00 0.  1.
         21    1    1    2  503  502 -0.67342394332E+02  0.76295387509E+02  0.49340534619E+03  0.50379045235E+03  0.00000000000E+00 0. -1.
</event>
<event>
 4    1  0.5576842E+002  0.2025837E+02  0.7546771E-02  0.1530122E+00
          2   -1    0    0  503    0  0.00000000000E+00  0.00000000000E+00  0.22351254272E+02  0.22351254272E+02  0.00000000000E+00 0.  1.
         -2   -1    0    0    0  501 -0.00000000000E+00 -0.00000000000E+00 -0.26320116102E+02  0.26320116102E+02  0.00000000000E+00 0. -1.
         21    1    1    2  502  501 -0.12315031012E+02  0.16085449101E+02 -0.15366385367E+02  0.25426904272E+02  0.00000000000E+00 0. -1.
         21    1    1    2  503  502  0.12315031012E+02 -0.16085449101E+02  0.11397523537E+02  0.23244466102E+02  0.00000000000E+00 0.  1.
</event>
<event>
 4    1  0.5576842E+002  0.2698577E+02  0.7546771E-02  0.1447751E+00
          2   -1    0    0  502    0  0.00000000000E+00  0.00000000000E+00  0.47440867505E+03  0.47440867505E+03  0.00000000000E+00 0.  1.
         -2   -1    0    0    0  501 -0.00000000000E+00 -0.00000000000E+00 -0.59434335975E+01  0.59434335975E+01  0.00000000000E+00 0. -1.
         21    1    1    2  502  503  0.15121946123E+02  0.22350804929E+02  0.44108077643E+03  0.44190551374E+03  0.00000000000E+00 0.  1.
         21    1    1    2  503  501 -0.15121946123E+02 -0.22350804929E+02  0.27384465017E+02  0.38446594905E+02  0.00000000000E+00 0. -1.
</event>
<event>
 4    1  0.5576842E+002  0.2028952E+02  0.7546771E-02  0.1529655E+00
          2   -1    0    0  503    0  0.00000000000E+00  0.00000000000E+00  0.47954612588E+03  0.47954612588E+03  0.00000000000E+00 0.  1.
         -2   -1    0    0    0  501 -0.00000000000E+00 -0.00000000000E+00 -0.26921474876E+01  0.26921474876E+01  0.00000000000E+00 0. -1.
         21    1    1    2  502  501 -0.20024302510E+02 -0.32698375394E+01  0.39429977027E+02  0.44343969341E+02  0.00000000000E+00 0. -1.
         21    1    1    2  503  502  0.20024302510E+02  0.32698375394E+01  0.43742400136E+03  0.43789430402E+03  0.00000000000E+00 0.  1.
</event>
<event>
 4    1  0.5576842E+002  0.6679039E+02  0.7546771E-02  0.1238357E+00
          2   -1    0    0  503    0  0.00000000000E+00  0.00000000000E+00  0.15208401249E+04  0.15208401249E+04  0.00000000000E+00 0.  1.
         -2   -1    0    0    0  501 -0.00000000000E+00 -0.00000000000E+00 -0.18888496894E+02  0.18888496894E+02  0.00000000000E+00 0. -1.
         21    1    1    2  502  501 -0.63645305142E+02  0.20254158736E+02  0.43408624628E+02  0.79657168571E+02  0.00000000000E+00 0. -1.
         21    1    1    2  503  502  0.63645305142E+02 -0.20254158736E+02  0.14585430034E+04  0.14600714533E+04  0.00000000000E+00 0.  1.
</event>
<event>
 4    1  0.5576842E+002  0.2972119E+02  0.7546771E-02  0.1422035E+00
          2   -1    0    0  503    0  0.00000000000E+00  0.00000000000E+00  0.78126484045E+03  0.78126484045E+03  0.00000000000E+00 0.  1.
         -2   -1    0    0    0  501 -0.00000000000E+00 -0.00000000000E+00 -0.14913638791E+01  0.14913638791E+01  0.00000000000E+00 0. -1.
         21    1    1    2  502  501  0.29703365723E+02  0.10292450419E+01  0.19741066625E+03  0.19963546887E+03  0.00000000000E+00 0. -1.
         21    1    1    2  503  502 -0.29703365723E+02 -0.10292450419E+01  0.58236281032E+03  0.58312073546E+03  0.00000000000E+00 0.  1.
</event>
<event>
 4    1  0.5576842E+002  0.2483543E+02  0.7546771E-02  0.1470653E+00
          2   -1    0    0  503    0  0.00000000000E+00  0.00000000000E+00  0.10457455574E+04  0.10457455574E+04  0.00000000000E+00 0.  1.
         -2   -1    0    0    0  501 -0.00000000000E+00 -0.00000000000E+00 -0.19111175329E+01  0.19111175329E+01  0.00000000000E+00 0. -1.
         21    1    1    2  502  501  0.23877187957E+02  0.68321588077E+01  0.86359117840E+02  0.89859310774E+02  0.00000000000E+00 0. -1.
         21    1    1    2  503  502 -0.23877187957E+02 -0.68321588077E+01  0.95747532200E+03  0.95779736413E+03  0.00000000000E+00 0.  1.
</event>
<event>
 4    1  0.5576842E+002  0.2342308E+02  0.7546771E-02  0.1487253E+00
          2   -1    0    0  503    0  0.00000000000E+00  0.00000000000E+00  0.15328420482E+02  0.15328420482E+02  0.00000000000E+00 0.  1.
         -2   -1    0    0    0  501 -0.00000000000E+00 -0.00000000000E+00 -0.15175895045E+03  0.15175895045E+03  0.00000000000E+00 0. -1.
         21    1    1    2  502  501 -0.18598656734E+02  0.14238349758E+02 -0.14124553080E+03  0.14317451102E+03  0.00000000000E+00 0. -1.
         21    1    1    2  503  502  0.18598656734E+02 -0.14238349758E+02  0.48150008282E+01  0.23912859911E+02  0.00000000000E+00 0.  1.
</event>
<event>
 4    1  0.5576842E+002  0.2591891E+02  0.7546771E-02  0.1458781E+00
          2   -1    0    0  503    0  0.00000000000E+00  0.00000000000E+00  0.22510744507E+04  0.22510744507E+04  0.00000000000E+00 0. -1.
         -2   -1    0    0    0  501 -0.00000000000E+00 -0.00000000000E+00 -0.34837538801E+00  0.34837538801E+00  0.00000000000E+00 0.  1.
         21    1    1    2  502  501 -0.23030329220E+02 -0.11890909275E+02  0.15515968186E+04  0.15518132868E+04  0.00000000000E+00 0. -1.
         21    1    1    2  503  502  0.23030329220E+02  0.11890909275E+02  0.69912925674E+03  0.69960953926E+03  0.00000000000E+00 0.  1.
</event>
<event>
 4    1  0.5576842E+002  0.2110498E+02  0.7546771E-02  0.1517771E+00
          2   -1    0    0  503    0  0.00000000000E+00  0.00000000000E+00  0.85655617159E+03  0.85655617159E+03  0.00000000000E+00 0. -1.
         -2   -1    0    0    0  501 -0.00000000000E+00 -0.00000000000E+00 -0.52163889487E+00  0.52163889487E+00  0.00000000000E+00 0.  1.
         21    1    1    2  502  501 -0.94738555694E+01  0.18859111213E+02  0.40408946181E+03  0.40464022682E+03  0.00000000000E+00 0.  1.
         21    1    1    2  503  502  0.94738555694E+01 -0.18859111213E+02  0.45194507089E+03  0.45243758367E+03  0.00000000000E+00 0. -1.
</event>
<event>
 4    1  0.5576842E+002  0.4493453E+02  0.7546771E-02  0.1321767E+00
          2   -1    0    0  502    0  0.00000000000E+00  0.00000000000E+00  0.47770998759E+03  0.47770998759E+03  0.00000000000E+00 0. -1.
         -2   -1    0    0    0  501 -0.00000000000E+00 -0.00000000000E+00 -0.60015498724E+01  0.60015498724E+01  0.00000000000E+00 0.  1.
         21    1    1    2  502  503  0.27089956773E+02  0.35850325368E+02  0.36738033961E+03  0.37011812374E+03  0.00000000000E+00 0. -1.
         21    1    1    2  503  501 -0.27089956773E+02 -0.35850325368E+02  0.10432809811E+03  0.11359341372E+03  0.00000000000E+00 0.  1.
</event>
<event>
 4    1  0.5576842E+002  0.4941882E+02  0.7546771E-02  0.1300712E+00
          2   -1    0    0  502    0  0.00000000000E+00  0.00000000000E+00  0.16687389042E+04  0.16687389042E+04  0.00000000000E+00 0. -1.
         -2   -1    0    0    0  501 -0.00000000000E+00 -0.00000000000E+00 -0.18465645696E+01  0.18465645696E+01  0.00000000000E+00 0.  1.
         21    1    1    2  502  503  0.46599579545E+02 -0.16452941134E+02  0.12138855062E+04  0.12148910413E+04  0.00000000000E+00 0. -1.
         21    1    1    2  503  501 -0.46599579545E+02  0.16452941134E+02  0.45300683342E+03  0.45569442745E+03  0.00000000000E+00 0.  1.
</event>
<event>
 4    1  0.5576842E+002  0.4169344E+02  0.7546771E-02  0.1338838E+00
          2   -1    0    0  503    0  0.00000000000E+00  0.00000000000E+00  0.47556168318E+03  0.47556168318E+03  0.00000000000E+00 0. -1.
         -2   -1    0    0    0  501 -0.00000000000E+00 -0.00000000000E+00 -0.60922248913E+01  0.60922248913E+01  0.00000000000E+00 0.  1.
         21    1    1    2  502  501  0.27741017737E+02  0.31125219356E+02  0.82422791373E+02  0.92368067441E+02  0.00000000000E+00 0.  1.
         21    1    1    2  503  502 -0.27741017737E+02 -0.31125219356E+02  0.38704666691E+03  0.38928584063E+03  0.00000000000E+00 0. -1.
</event>
<event>
 4    1  0.5576842E+002  0.2019979E+02  0.7546771E-02  0.1531003E+00
          2   -1    0    0  503    0  0.00000000000E+00  0.00000000000E+00  0.19303956097E+04  0.19303956097E+04  0.00000000000E+00 0.  1.
         -2   -1    0    0    0  501 -0.00000000000E+00 -0.00000000000E+00 -0.25044804583E+00  0.25044804583E+00  0.00000000000E+00 0. -1.
         21    1    1    2  502  501  0.18061842778E+02 -0.90443998799E+01  0.58376989911E+03  0.58411927415E+03  0.00000000000E+00 0. -1.
         21    1    1    2  503  502 -0.18061842778E+02  0.90443998799E+01  0.13463752626E+04  0.13465267836E+04  0.00000000000E+00 0.  1.
</event>
<event>
 4    1  0.5576842E+002  0.2007121E+02  0.7546771E-02  0.1532950E+00
          2   -1    0    0  503    0  0.00000000000E+00  0.00000000000E+00  0.67716967555E+01  0.67716967555E+01  0.00000000000E+00 0.  1.
         -2   -1    0    0    0  501 -0.00000000000E+00 -0.00000000000E+00 -0.61981494516E+02  0.61981494516E+02  0.00000000000E+00 0. -1.
         21    1    1    2  502  501  0.19764234525E+02  0.34969215858E+01 -0.20713695901E+02  0.28842860899E+02  0.00000000000E+00 0.  1.
         21    1    1    2  503  502 -0.19764234525E+02 -0.34969215858E+01 -0.34496101860E+02  0.39910330373E+02  0.00000000000E+00 0. -1.
</event>
<event>
 4    1  0.5576842E+002  0.2035214E+02  0.7546771E-02  0.1528719E+00
          2   -1    0    0  502    0  0.00000000000E+00  0.00000000000E+00  0.22616720937E+03  0.22616720937E+03  0.00000000000E+00 0.  1.
         -2   -1    0    0    0  501 -0.00000000000E+00 -0.00000000000E+00 -0.20342361787E+01  0.20342361787E+01  0.00000000000E+00 0. -1.
         21    1    1    2  502  503 -0.19112670651E+02  0.69939490925E+01  0.76039505768E+02  0.78716046272E+02  0.00000000000E+00 0. -1.
         21    1    1    2  503  501  0.19112670651E+02 -0.69939490925E+01  0.14809346743E+03  0.14948539928E+03  0.00000000000E+00 0.  1.
</event>
<event>
 4    1  0.5576842E+002  0.2805274E+02  0.7546771E-02  0.1437310E+00
          2   -1    0    0  503    0  0.00000000000E+00  0.00000000000E+00  0.10029798392E+03  0.10029798392E+03  0.00000000000E+00 0. -1.
         -2   -1    0    0    0  501 -0.00000000000E+00 -0.00000000000E+00 -0.79695974924E+01  0.79695974924E+01  0.00000000000E+00 0.  1.
         21    1    1    2  502  501 -0.21610034102E+02  0.17887496121E+02  0.39427641875E+02  0.48388997047E+02  0.00000000000E+00 0.  1.
         21    1    1    2  503  502  0.21610034102E+02 -0.17887496121E+02  0.52900744553E+02  0.59878584366E+02  0.00000000000E+00 0. -1.
</event>
<event>
 4    1  0.5576842E+002  0.2407329E+02  0.7546771E-02  0.1479443E+00
          2   -1    0    0  503    0  0.00000000000E+00  0.00000000000E+00  0.13190171962E+02  0.13190171962E+02  0.00000000000E+00 0.  1.
         -2   -1    0    0    0  501 -0.00000000000E+00 -0.00000000000E+00 -0.44475042677E+02  0.44475042677E+02  0.00000000000E+00 0. -1.
         21    1    1    2  502  501 -0.22372259182E+02  0.88884836979E+01 -0.12468152591E+02  0.27110476801E+02  0.00000000000E+00 0. -1.
         21    1    1    2  503  502  0.22372259182E+02 -0.88884836979E+01 -0.18816718124E+02  0.30554737838E+02  0.00000000000E+00 0.  1.
</event>
<event>
 4    1  0.5576842E+002  0.2739661E+02  0.7546771E-02  0.1443664E+00
          2   -1    0    0  502    0  0.00000000000E+00  0.00000000000E+00  0.84658468238E+02  0.84658468238E+02  0.00000000000E+00 0. -1.
         -2   -1    0    0    0  501 -0.00000000000E+00 -0.00000000000E+00 -0.10150497294E+02  0.10150497294E+02  0.00000000000E+00 0.  1.
         21    1    1    2  502  503 -0.26613494424E+02 -0.65035584431E+01  0.54117867988E+02  0.60657382020E+02  0.00000000000E+00 0. -1.
         21    1    1    2  503  501  0.26613494424E+02  0.65035584431E+01  0.20390102956E+02  0.34151583512E+02  0.00000000000E+00 0.  1.
</event>
<event>
 4    1  0.5576842E+002  0.3274128E+02  0.7546771E-02  0.1397178E+00
          2   -1    0    0  502    0  0.00000000000E+00  0.00000000000E+00  0.76580278721E+03  0.76580278721E+03  0.00000000000E+00 0.  1.
         -2   -1    0    0    0  501 -0.00000000000E+00 -0.00000000000E+00 -0.39804714036E+01  0.39804714036E+01  0.00000000000E+00 0. -1.
         21    1    1    2  502  503  0.32655643238E+02  0.23665378738E+01  0.69082093793E+03  0.69159638505E+03  0.00000000000E+00 0.  1.
         21    1    1    2  503  501 -0.32655643238E+02 -0.23665378738E+01  0.71001377879E+02  0.78186873563E+02  0.00000000000E+00 0. -1.
</event>
<event>
 4    1  0.5576842E+002  0.4590927E+02  0.7546771E-02  0.1316954E+00
          2   -1    0    0  503    0  0.00000000000E+00  0.00000000000E+00  0.42933725008E+03  0.42933725008E+03  0.00000000000E+00 0. -1.
         -2   -1    0    0    0  501 -0.00000000000E+00 -0.00000000000E+00 -0.50413872102E+01  0.50413872102E+01  0.00000000000E+00 0.  1.
         21    1    1    2  502  501 -0.30845930091E+02 -0.34002791696E+02  0.24732953786E+03  0.25155429145E+03  0.00000000000E+00 0. -1.
         21    1    1    2  503  502  0.30845930091E+02  0.34002791696E+02  0.17696632501E+03  0.18282434584E+03  0.00000000000E+00 0.  1.
</event>
<event>
 4    1  0.5576842E+002  0.2189157E+02  0.7546771E-02  0.1506906E+00
          2   -1    0    0  503    0  0.00000000000E+00  0.00000000000E+00  0.50308378764E+02  0.50308378764E+02  0.00000000000E+00 0. -1.
         -2   -1    0    0    0  501 -0.00000000000E+00 -0.00000000000E+00 -0.12312205298E+02  0.12312205298E+02  0.00000000000E+00 0.  1.
         21    1    1    2  502  501  0.18490091522E+02 -0.11719955885E+02  0.41037646734E+01  0.22272892379E+02  0.00000000000E+00 0.  1.
         21    1    1    2  503  502 -0.18490091522E+02  0.11719955885E+02  0.33892408792E+02  0.40347691683E+02  0.00000000000E+00 0. -1.
</event>
<event>
 4    1  0.5576842E+002  0.2147074E+02  0.7546771E-02  0.1512649E+00
          2   -1    0    0  502    0  0.00000000000E+00  0.00000000000E+00  0.81265010057E+00  0.81265010057E+00  0.00000000000E+00 0. -1.
         -2   -1    0    0    0  501 -0.00000000000E+00 -0.00000000000E+00 -0.60343618671E+03  0.60343618671E+03  0.00000000000E+00 0.  1.
         21    1    1    2  502  503  0.19364609065E+02  0.92738706084E+01 -0.37527503111E+03  0.37588873584E+03  0.00000000000E+00 0.  1.
         21    1    1    2  503  501 -0.19364609065E+02 -0.92738706084E+01 -0.22734850550E+03  0.22836010097E+03  0.00000000000E+00 0. -1.
</event>
<event>
 4    1  0.5576842E+002  0.2008842E+02  0.7546771E-02  0.1532688E+00
          2   -1    0    0  503    0  0.00000000000E+00  0.00000000000E+00  0.98391760048E+00  0.98391760048E+00  0.00000000000E+00 0.  1.
         -2   -1    0    0    0  501 -0.00000000000E+00 -0.00000000000E+00 -0.75214490073E+03  0.75214490073E+03  0.00000000000E+00 0. -1.
         21    1    1    2  502  501  0.51131222432E+01  0.19426798535E+02 -0.62950482364E+03  0.62982526744E+03  0.00000000000E+00 0. -1.
         21    1    1    2  503  502 -0.51131222432E+01 -0.19426798535E+02 -0.12165615950E+03  0.12330355090E+03  0.00000000000E+00 0.  1.
</event>
<event>
 4    1  0.5576842E+002  0.2754593E+02  0.7546771E-02  0.1442200E+00
          2   -1    0    0  503    0  0.00000000000E+00  0.00000000000E+00  0.44288517554E+03  0.44288517554E+03  0.00000000000E+00 0. -1.
         -2   -1    0    0    0  501 -0.00000000000E+00 -0.00000000000E+00 -0.18494704167E+01  0.18494704167E+01  0.00000000000E+00 0.  1.
         21    1    1    2  502  501  0.27411294728E+02  0.27200961990E+01  0.16017157749E+03  0.16252295911E+03  0.00000000000E+00 0. -1.
         21    1    1    2  503  502 -0.27411294728E+02 -0.27200961990E+01  0.28086412763E+03  0.28221168685E+03  0.00000000000E+00 0.  1.
</event>
<event>
 4    1  0.5576842E+002  0.2588964E+02  0.7546771E-02  0.1459092E+00
          2   -1    0    0  502    0  0.00000000000E+00  0.00000000000E+00  0.84425324744E+01  0.84425324744E+01  0.00000000000E+00 0. -1.
         -2   -1    0    0    0  501 -0.00000000000E+00 -0.00000000000E+00 -0.87061284761E+02  0.87061284761E+02  0.00000000000E+00 0.  1.
         21    1    1    2  502  503  0.22083103431E+02  0.13513333111E+02 -0.25137024774E+02  0.36085227496E+02  0.00000000000E+00 0. -1.
         21    1    1    2  503  501 -0.22083103431E+02 -0.13513333111E+02 -0.53481727512E+02  0.59418589739E+02  0.00000000000E+00 0.  1.
</event>
<event>
 4    1  0.5576842E+002  0.2282898E+02  0.7546771E-02  0.1494657E+00
          2   -1    0    0  502    0  0.00000000000E+00  0.00000000000E+00  0.13112151381E+02  0.13112151381E+02  0.00000000000E+00 0.  1.
         -2   -1    0    0    0  501 -0.00000000000E+00 -0.00000000000E+00 -0.39915739542E+02  0.39915739542E+02  0.00000000000E+00 0. -1.
         21    1    1    2  502  503  0.20604695546E+02 -0.98289791623E+01 -0.15128168850E+02  0.27386562447E+02  0.00000000000E+00 0. -1.
         21    1    1    2  503  501 -0.20604695546E+02  0.98289791623E+01 -0.11675419311E+02  0.25641328476E+02  0.00000000000E+00 0.  1.
</event>
<event>
 4    1  0.5576842E+002  0.5470989E+02  0.7546771E-02  0.1278949E+00
          2   -1    0    0  502    0  0.00000000000E+00  0.00000000000E+00  0.21989313046E+04  0.21989313046E+04  0.00000000000E+00 0. -1.
         -2   -1    0    0    0  501 -0.00000000000E+00 -0.00000000000E+00 -0.24833070619E+01  0.24833070619E+01  0.00000000000E+00 0.  1.
         21    1    1    2  502  503  0.53162203553E+02 -0.12921002812E+02  0.18381272526E+04  0.18389412631E+04  0.00000000000E+00 0. -1.
         21    1    1    2  503  501 -0.53162203553E+02  0.12921002812E+02  0.35832074493E+03  0.36247334860E+03  0.00000000000E+00 0.  1.
</event>
<event>
 4    1  0.5576842E+002  0.2028638E+02  0.7546771E-02  0.1529702E+00
          2   -1    0    0  502    0  0.00000000000E+00  0.00000000000E+00  0.15439020877E+01  0.15439020877E+01  0.00000000000E+00 0.  1.
         -2   -1    0    0    0  501 -0.00000000000E+00 -0.00000000000E+00 -0.33688569088E+03  0.33688569088E+03  0.00000000000E+00 0. -1.
         21    1    1    2  502  503  0.14903481958E+02 -0.13763117065E+02 -0.24498608057E+03  0.24582456517E+03  0.00000000000E+00 0. -1.
         21    1    1    2  503  501 -0.14903481958E+02  0.13763117065E+02 -0.90355708220E+02  0.92605027799E+02  0.00000000000E+00 0.  1.
</event>
<event>
 4    1  0.5576842E+002  0.2031372E+02  0.7546771E-02  0.1529293E+00
          2   -1    0    0  502    0  0.00000000000E+00  0.00000000000E+00  0.52005365249E+03  0.52005365249E+03  0.00000000000E+00 0.  1.
         -2   -1    0    0    0  501 -0.00000000000E+00 -0.00000000000E+00 -0.18713055991E+01  0.18713055991E+01  0.00000000000E+00 0. -1.
         21    1    1    2  502  503  0.20288721989E+02  0.10073791757E+01  0.45714440872E+03  0.45759551733E+03  0.00000000000E+00 0.  1.
         21    1    1    2  503  501 -0.20288721989E+02 -0.10073791757E+01  0.61037938171E+02  0.64329440764E+02  0.00000000000E+00 0. -1.
</event>
<event>
 4    1  0.5576842E+002  0.5971663E+02  0.7546771E-02  0.1260798E+00
          2   -1    0    0  503    0  0.00000000000E+00  0.00000000000E+00  0.72964832427E+02  0.72964832427E+02  0.00000000000E+00 0. -1.
         -2   -1    0    0    0  501 -0.00000000000E+00 -0.00000000000E+00 -0.18577813747E+03  0.18577813747E+03  0.00000000000E+00 0.  1.
         21    1    1    2  502  501 -0.32757091816E+02  0.49930433986E+02 -0.16746461966E+03  0.17779334672E+03  0.00000000000E+00 0.  1.
         21    1    1    2  503  502  0.32757091816E+02 -0.49930433986E+02  0.54651314617E+02  0.80949623171E+02  0.00000000000E+00 0. -1.
</event>
<event>
 4    1  0.5576842E+002  0.5177764E+02  0.7546771E-02  0.1290644E+00
          2   -1    0    0  502    0  0.00000000000E+00  0.00000000000E+00  0.21600486581E+03  0.21600486581E+03  0.00000000000E+00 0.  1.
         -2   -1    0    0    0  501 -0.00000000000E+00 -0.00000000000E+00 -0.12519286386E+02  0.12519286386E+02  0.00000000000E+00 0. -1.
         21    1    1    2  502  503 -0.50469978040E+02 -0.11563096774E+02  0.91135964613E+02  0.10481740283E+03  0.00000000000E+00 0. -1.
         21    1    1    2  503  501  0.50469978040E+02  0.11563096774E+02  0.11234961481E+03  0.12370674937E+03  0.00000000000E+00 0.  1.
</event>
<event>
 4    1  0.5576842E+002  0.2486947E+02  0.7546771E-02  0.1470269E+00
          2   -1    0    0  502    0  0.00000000000E+00  0.00000000000E+00  0.32748405655E+01  0.32748405655E+01  0.00000000000E+00 0. -1.
         -2   -1    0    0    0  501 -0.00000000000E+00 -0.00000000000E+00 -0.29969144964E+03  0.29969144964E+03  0.00000000000E+00 0.  1.
         21    1    1    2  502  503 -0.23821295359E+02 -0.71439614623E+01 -0.56087800510E+02  0.61354149526E+02  0.00000000000E+00 0. -1.
         21    1    1    2  503  501  0.23821295359E+02  0.71439614623E+01 -0.24032880857E+03  0.24161214068E+03  0.00000000000E+00 0.  1.
</event>
<event>
 4    1  0.5576842E+002  0.3392512E+02  0.7546771E-02  0.1388281E+00
          2   -1    0    0  503    0  0.00000000000E+00  0.00000000000E+00  0.32088927384E+03  0.32088927384E+03  0.00000000000E+00 0.  1.
         -2   -1    0    0    0  501 -0.00000000000E+00 -0.00000000000E+00 -0.29931482312E+02  0.29931482312E+02  0.00000000000E+00 0. -1.
         21    1    1    2  502  501 -0.53837559237E+01  0.33495203464E+02 -0.19086680494E+02  0.38925760817E+02  0.00000000000E+00 0. -1.
         21    1    1    2  503  502  0.53837559237E+01 -0.33495203464E+02  0.31004447203E+03  0.31189499534E+03  0.00000000000E+00 0.  1.
</event>
<event>
 4    1  0.5576842E+002  0.2599349E+02  0.7546771E-02  0.1457989E+00
          2   -1    0    0  503    0  0.00000000000E+00  0.00000000000E+00  0.65825204928E+03  0.65825204928E+03  0.00000000000E+00 0.  1.
         -2   -1    0    0    0  501 -0.00000000000E+00 -0.00000000000E+00 -0.12519173345E+01  0.12519173345E+01  0.00000000000E+00 0. -1.
         21    1    1    2  502  501 -0.22607007037E+02  0.12829063825E+02  0.18855966392E+03  0.19034287091E+03  0.00000000000E+00 0. -1.
         21    1    1    2  503  502  0.22607007037E+02 -0.12829063825E+02  0.46844046803E+03  0.46916109571E+03  0.00000000000E+00 0.  1.
</event>
<event>
 4    1  0.5576842E+002  0.2066991E+02  0.7546771E-02  0.1524030E+00
          2   -1    0    0  502    0  0.00000000000E+00  0.00000000000E+00  0.40084804947E+02  0.40084804947E+02  0.00000000000E+00 0. -1.
         -2   -1    0    0    0  501 -0.00000000000E+00 -0.00000000000E+00 -0.11356659049E+02  0.11356659049E+02  0.00000000000E+00 0.  1.
         21    1    1    2  502  503  0.90986966346E+01 -0.18559599644E+02  0.20741220714E+02  0.29282132028E+02  0.00000000000E+00 0. -1.
         21    1    1    2  503  501 -0.90986966346E+01  0.18559599644E+02  0.79869251838E+01  0.22159331968E+02  0.00000000000E+00 0.  1.
</event>
<event>
 4    1  0.5576842E+002  0.2465585E+02  0.7546771E-02  0.1472690E+00
          2   -1    0    0  502    0  0.00000000000E+00  0.00000000000E+00  0.18252995433E+04  0.18252995433E+04  0.00000000000E+00 0.  1.
         -2   -1    0    0    0  501 -0.00000000000E+00 -0.00000000000E+00 -0.69249234354E+00  0.69249234354E+00  0.00000000000E+00 0. -1.
         21    1    1    2  502  503  0.27397315482E+01  0.24503154973E+02  0.15700791286E+04  0.15702727091E+04  0.00000000000E+00 0.  1.
         21    1    1    2  503  501 -0.27397315482E+01 -0.24503154973E+02  0.25452792234E+03  0.25571932657E+03  0.00000000000E+00 0. -1.
</event>
<event>
 4    1  0.5576842E+002  0.2136253E+02  0.7546771E-02  0.1514151E+00
          2   -1    0    0  503    0  0.00000000000E+00  0.00000000000E+00  0.23758903187E+03  0.23758903187E+03  0.00000000000E+00 0.  1.
         -2   -1    0    0    0  501 -0.00000000000E+00 -0.00000000000E+00 -0.19361873893E+01  0.19361873893E+01  0.00000000000E+00 0. -1.
         21    1    1    2  502  501 -0.14146558232E+02 -0.16007265764E+02  0.12850783360E+03  0.13027133592E+03  0.00000000000E+00 0. -1.
         21    1    1    2  503  502  0.14146558232E+02  0.16007265764E+02  0.10714501088E+03  0.10925388333E+03  0.00000000000E+00 0.  1.
</event>
<event>
 4    1  0.5576842E+002  0.2496868E+02  0.7546771E-02  0.1469154E+00
          2   -1    0    0  503    0  0.00000000000E+00  0.00000000000E+00  0.82615264902E+03  0.82615264902E+03  0.00000000000E+00 0.  1.
         -2   -1    0    0    0  501 -0.00000000000E+00 -0.00000000000E+00 -0.23435008390E+01  0.23435008390E+01  0.00000000000E+00 0. -1.
         21    1    1    2  502  501 -0.17412431474E+02 -0.17895312603E+02  0.70811423299E+02  0.75084570004E+02  0.00000000000E+00 0. -1.
         21    1    1    2  503  502  0.17412431474E+02  0.17895312603E+02  0.75299772488E+03  0.75341157985E+03  0.00000000000E+00 0.  1.
</event>
<event>
 4    1  0.5576842E+002  0.6626836E+02  0.7546771E-02  0.1239904E+00
          2   -1    0    0  503    0  0.00000000000E+00  0.00000000000E+00  0.12730344590E+03  0.12730344590E+03  0.00000000000E+00 0.  1.
         -2   -1    0    0    0  501 -0.00000000000E+00 -0.00000000000E+00 -0.54880047299E+02  0.54880047299E+02  0.00000000000E+00 0. -1.
         21    1    1    2  502  501  0.12760914204E+02  0.65028102291E+02 -0.19303773389E+02  0.69022682402E+02  0.00000000000E+00 0. -1.
         21    1    1    2  503  502 -0.12760914204E+02 -0.65028102291E+02  0.91727171986E+02  0.11316081079E+03  0.00000000000E+00 0.  1.
</event>
<event>
 4    1  0.5576842E+002  0.3899920E+02  0.7546771E-02  0.1354452E+00
          2   -1    0    0  503    0  0.00000000000E+00  0.00000000000E+00  0.31075358743E+04  0.31075358743E+04  0.00000000000E+00 0.  1.
         -2   -1    0    0    0  501 -0.00000000000E+00 -0.00000000000E+00 -0.65571847747E+00  0.65571847747E+00  0.00000000000E+00 0. -1.
         21    1    1    2  502  501  0.37115750934E+02  0.11973247431E+02  0.77083387195E+03  0.77181979488E+03  0.00000000000E+00 0. -1.
         21    1    1    2  503  502 -0.37115750934E+02 -0.11973247431E+02  0.23360462839E+04  0.23363717979E+04  0.00000000000E+00 0.  1.
</event>
<event>
 4    1  0.5576842E+002  0.2786069E+02  0.7546771E-02  0.1439149E+00
          2   -1    0    0  502    0  0.00000000000E+00  0.00000000000E+00  0.67243849907E+03  0.67243849907E+03  0.00000000000E+00 0.  1.
         -2   -1    0    0    0  501 -0.00000000000E+00 -0.00000000000E+00 -0.15937027448E+01  0.15937027448E+01  0.00000000000E+00 0. -1.
         21    1    1    2  502  503 -0.17022341094E+02  0.22055792031E+02  0.51237704985E+03  0.51313395841E+03  0.00000000000E+00 0.  1.
         21    1    1    2  503  501  0.17022341094E+02 -0.22055792031E+02  0.15846774648E+03  0.16089824341E+03  0.00000000000E+00 0. -1.
</event>
<event>
 4    1  0.5576842E+002  0.3334006E+02  0.7546771E-02  0.1392624E+00
          2   -1    0    0  502    0  0.00000000000E+00  0.00000000000E+00  0.14921750682E+03  0.14921750682E+03  0.00000000000E+00 0. -1.
         -2   -1    0    0    0  501 -0.00000000000E+00 -0.00000000000E+00 -0.77678590535E+01  0.77678590535E+01  0.00000000000E+00 0.  1.
         21    1    1    2  502  503  0.15963024756E+02 -0.29270144389E+02  0.86621378177E+02  0.92816069025E+02  0.00000000000E+00 0. -1.
         21    1    1    2  503  501 -0.15963024756E+02  0.29270144389E+02  0.54828269591E+02  0.64169296851E+02  0.00000000000E+00 0.  1.
</event>
<event>
 4    1  0.5576842E+002  0.3087960E+02  0.7546771E-02  0.1412103E+00
          2   -1    0    0  502    0  0.00000000000E+00  0.00000000000E+00  0.64153250733E+03  0.64153250733E+03  0.00000000000E+00 0.  1.
         -2   -1    0    0    0  501 -0.00000000000E+00 -0.00000000000E+00 -0.16440055721E+01  0.16440055721E+01  0.00000000000E+00 0. -1.
         21    1    1    2  502  503 -0.30739367963E+02 -0.29395789413E+01  0.41952742643E+03  0.42066234844E+03  0.00000000000E+00 0.  1.
         21    1    1    2  503  501  0.30739367963E+02  0.29395789413E+01  0.22036107533E+03  0.22251416447E+03  0.00000000000E+00 0. -1.
</event>
<event>
 4    1  0.5576842E+002  0.2754879E+02  0.7546771E-02  0.1442172E+00
          2   -1    0    0  502    0  0.00000000000E+00  0.00000000000E+00  0.66635206039E+01  0.66635206039E+01  0.00000000000E+00 0.  1.
         -2   -1    0    0    0  501 -0.00000000000E+00 -0.00000000000E+00 -0.11394138623E+03  0.11394138623E+03  0.00000000000E+00 0. -1.
         21    1    1    2  502  503  0.14260365691E+02  0.23570700211E+02 -0.52410970569E+02  0.59210183027E+02  0.00000000000E+00 0. -1.
         21    1    1    2  503  501 -0.14260365691E+02 -0.23570700211E+02 -0.54866895056E+02  0.61394723806E+02  0.00000000000E+00 0.  1.
</event>
<event>
 4    1  0.5576842E+002  0.2187354E+02  0.7546771E-02  0.1507149E+00
          2   -1    0    0  503    0  0.00000000000E+00  0.00000000000E+00  0.70007888542E+01  0.70007888542E+01  0.00000000000E+00 0.  1.
         -2   -1    0    0    0  501 -0.00000000000E+00 -0.00000000000E+00 -0.68758431526E+02  0.68758431526E+02  0.00000000000E+00 0. -1.
         21    1    1    2  502  501  0.15150621846E+02  0.15776891023E+02 -0.33824850245E+02  0.40281163423E+02  0.00000000000E+00 0.  1.
         21    1    1    2  503  502 -0.15150621846E+02 -0.15776891023E+02 -0.27932792427E+02  0.35478056957E+02  0.00000000000E+00 0. -1.
</event>
<event>
 4    1  0.5576842E+002  0.2046398E+02  0.7546771E-02  0.1527057E+00
          2   -1    0    0  503    0  0.00000000000E+00  0.00000000000E+00  0.33091745198E+03  0.33091745198E+03  0.00000000000E+00 0.  1.
         -2   -1    0    0    0  501 -0.00000000000E+00 -0.00000000000E+00 -0.26615767030E+01  0.26615767030E+01  0.00000000000E+00 0. -1.
         21    1    1    2  502  501  0.12114943854E+02 -0.16492504259E+02  0.43331372932E+02  0.47920584737E+02  0.00000000000E+00 0. -1.
         21    1    1    2  503  502 -0.12114943854E+02  0.16492504259E+02  0.28492450234E+03  0.28565844394E+03  0.00000000000E+00 0.  1.
</event>
<event>
 4    1  0.5576842E+002  0.3709002E+02  0.7546771E-02  0.1366437E+00
          2   -1    0    0  502    0  0.00000000000E+00  0.00000000000E+00  0.60864726023E+03  0.60864726023E+03  0.00000000000E+00 0. -1.
         -2   -1    0    0    0  501 -0.00000000000E+00 -0.00000000000E+00 -0.66443728752E+01  0.66443728752E+01  0.00000000000E+00 0.  1.
         21    1    1    2  502  503 -0.18480854986E+02  0.32157851418E+02  0.55090213323E+03  0.55214928217E+03  0.00000000000E+00 0. -1.
         21    1    1    2  503  501  0.18480854986E+02 -0.32157851418E+02  0.51100754122E+02  0.63142350928E+02  0.00000000000E+00 0.  1.
</event>
<event>
 4    1  0.5576842E+002  0.3298261E+02  0.7546771E-02  0.1395329E+00
          2   -1    0    0  502    0  0.00000000000E+00  0.00000000000E+00  0.45685095064E+03  0.45685095064E+03  0.00000000000E+00 0.  1.
         -2   -1    0    0    0  501 -0.00000000000E+00 -0.00000000000E+00 -0.40378911421E+01  0.40378911421E+01  0.00000000000E+00 0. -1.
         21    1    1    2  502  503  0.12213820914E+02  0.30637801208E+02  0.37401456997E+03  0.37546604485E+03  0.00000000000E+00 0.  1.
         21    1    1    2  503  501 -0.12213820914E+02 -0.30637801208E+02  0.78798489533E+02  0.85422796939E+02  0.00000000000E+00 0. -1.
</event>
<event>
 4    1  0.5576842E+002  0.2163471E+02  0.7546771E-02  0.1510393E+00
          2   -1    0    0  503    0  0.00000000000E+00  0.00000000000E+00  0.47817616017E+03  0.47817616017E+03  0.00000000000E+00 0.  1.
         -2   -1    0    0    0  501 -0.00000000000E+00 -0.00000000000E+00 -0.12573560740E+01  0.12573560740E+01  0.00000000000E+00 0. -1.
         21    1    1    2  502  501  0.23571631987E+01  0.21505920065E+02  0.12563846123E+03  0.12748758276E+03  0.00000000000E+00 0. -1.
         21    1    1    2  503  502 -0.23571631987E+01 -0.21505920065E+02  0.35128034287E+03  0.35194593349E+03  0.00000000000E+00 0.  1.
</event>
<event>
 4    1  0.5576842E+002  0.2728548E+02  0.7546771E-02  0.1444761E+00
          2   -1    0    0  503    0  0.00000000000E+00  0.00000000000E+00  0.18976640221E+03  0.18976640221E+03  0.00000000000E+00 0. -1.
         -2   -1    0    0    0  501 -0.00000000000E+00 -0.00000000000E+00 -0.54294960408E+01  0.54294960408E+01  0.00000000000E+00 0.  1.
         21    1    1    2  502  501  0.25064739598E+02  0.10782212230E+02  0.40762696985E+02  0.49051959565E+02  0.00000000000E+00 0.  1.
         21    1    1    2  503  502 -0.25064739598E+02 -0.10782212230E+02  0.14357420918E+03  0.14614393868E+03  0.00000000000E+00 0. -1.
</event>
<event>
 4    1  0.5576842E+002  0.2322012E+02  0.7546771E-02  0.1489752E+00
          2   -1    0    0  503    0  0.00000000000E+00  0.00000000000E+00  0.79775510783E+03  0.79775510783E+03  0.00000000000E+00 0. -1.
         -2   -1    0    0    0  501 -0.00000000000E+00 -0.00000000000E+00 -0.18804084297E+01  0.18804084297E+01  0.00000000000E+00 0.  1.
         21    1    1    2  502  501 -0.22923356634E+02  0.37004906787E+01  0.77939243957E+02  0.81324655912E+02  0.00000000000E+00 0.  1.
         21    1    1    2  503  502  0.22923356634E+02 -0.37004906787E+01  0.71793545544E+03  0.71831086034E+03  0.00000000000E+00 0. -1.
</event>
<event>
 4    1  0.5576842E+002  0.2187419E+02  0.7546771E-02  0.1507140E+00
          2   -1    0    0  502    0  0.00000000000E+00  0.00000000000E+00  0.19993531837E+03  0.19993531837E+03  0.00000000000E+00 0.  1.
         -2   -1    0    0    0  501 -0.00000000000E+00 -0.00000000000E+00 -0.24385754885E+01  0.24385754885E+01  0.00000000000E+00 0. -1.
         21    1    1    2  502  503  0.21179779614E+02 -0.54678431178E+01  0.11255484135E+03  0.11466068500E+03  0.00000000000E+00 0.  1.
         21    1    1    2  503  501 -0.21179779614E+02  0.54678431178E+01  0.84941901534E+02  0.87713208863E+02  0.00000000000E+00 0. -1.
</event>
<event>
 4    1  0.5576842E+002  0.2285597E+02  0.7546771E-02  0.1494315E+00
          2   -1    0    0  503    0  0.00000000000E+00  0.00000000000E+00  0.93008913778E+03  0.93008913778E+03  0.00000000000E+00 0.  1.
         -2   -1    0    0    0  501 -0.00000000000E+00 -0.00000000000E+00 -0.62255626247E+00  0.62255626247E+00  0.00000000000E+00 0. -1.
         21    1    1    2  502  501 -0.17340454775E+02  0.14889727154E+02  0.31919223813E+03  0.32000950022E+03  0.00000000000E+00 0.  1.
         21    1    1    2  503  502  0.17340454775E+02 -0.14889727154E+02  0.61027434339E+03  0.61070219383E+03  0.00000000000E+00 0. -1.
</event>
<event>
 4    1  0.5576842E+002  0.2112502E+02  0.7546771E-02  0.1517487E+00
          2   -1    0    0  503    0  0.00000000000E+00  0.00000000000E+00  0.38135029908E+02  0.38135029908E+02  0.00000000000E+00 0.  1.
         -2   -1    0    0    0  501 -0.00000000000E+00 -0.00000000000E+00 -0.13223085029E+02  0.13223085029E+02  0.00000000000E+00 0. -1.
         21    1    1    2  502  501 -0.32225740054E+01  0.20877770291E+02  0.37473109574E+01  0.21454804006E+02  0.00000000000E+00 0. -1.
         21    1    1    2  503  502  0.32225740054E+01 -0.20877770291E+02  0.21164633923E+02  0.29903310931E+02  0.00000000000E+00 0.  1.
</event>
<event>
 4    1  0.5576842E+002  0.2516403E+02  0.7546771E-02  0.1466977E+00
          2   -1    0    0  503    0  0.00000000000E+00  0.00000000000E+00  0.10213460264E+01  0.10213460264E+01  0.00000000000E+00 0. -1.
         -2   -1    0    0    0  501 -0.00000000000E+00 -0.00000000000E+00 -0.62651446339E+03  0.62651446339E+03  0.00000000000E+00 0.  1.
         21    1    1    2  502  501  0.23457699816E+02 -0.91084913996E+01 -0.28073654558E+03  0.28186208741E+03  0.00000000000E+00 0.  1.
         21    1    1    2  503  502 -0.23457699816E+02  0.91084913996E+01 -0.34475657178E+03  0.34567372201E+03  0.00000000000E+00 0. -1.
</event>
<event>
 4    1  0.5576842E+002  0.6160238E+02  0.7546771E-02  0.1254483E+00
          2   -1    0    0  503    0  0.00000000000E+00  0.00000000000E+00  0.13267605646E+04  0.13267605646E+04  0.00000000000E+00 0.  1.
         -2   -1    0    0    0  501 -0.00000000000E+00 -0.00000000000E+00 -0.93578380164E+01  0.93578380164E+01  0.00000000000E+00 0. -1.
         21    1    1    2  502  501 -0.58547275128E+02  0.19159065520E+02  0.10202392670E+03  0.11917942287E+03  0.00000000000E+00 0. -1.
         21    1    1    2  503  502  0.58547275128E+02 -0.19159065520E+02  0.12153787999E+04  0.12169389798E+04  0.00000000000E+00 0.  1.
</event>
<event>
 4    1  0.5576842E+002  0.2892101E+02  0.7546771E-02  0.1429210E+00
          2   -1    0    0  503    0  0.00000000000E+00  0.00000000000E+00  0.11656103579E+02  0.11656103579E+02  0.00000000000E+00 0.  1.
         -2   -1    0    0    0  501 -0.00000000000E+00 -0.00000000000E+00 -0.72791221288E+02  0.72791221288E+02  0.00000000000E+00 0. -1.
         21    1    1    2  502  501 -0.16374260022E+02 -0.23839216034E+02 -0.35596842065E+02  0.45864580859E+02  0.00000000000E+00 0.  1.
         21    1    1    2  503  502  0.16374260022E+02  0.23839216034E+02 -0.25538275644E+02  0.38582744009E+02  0.00000000000E+00 0. -1.
</event>
<event>
 4    1  0.5576842E+002  0.2507143E+02  0.7546771E-02  0.1468006E+00
          2   -1    0    0  502    0  0.00000000000E+00  0.00000000000E+00  0.17321809578E+01  0.17321809578E+01  0.00000000000E+00 0. -1.
         -2   -1    0    0    0  501 -0.00000000000E+00 -0.00000000000E+00 -0.65030103745E+03  0.65030103745E+03  0.00000000000E+00 0.  1.
         21    1    1    2  502  503 -0.35905797648E+01  0.24812987827E+02 -0.10754368568E+03  0.11042744658E+03  0.00000000000E+00 0. -1.
         21    1    1    2  503  501  0.35905797648E+01 -0.24812987827E+02 -0.54102517081E+03  0.54160577183E+03  0.00000000000E+00 0.  1.
</event>
<event>
 4    1  0.5576842E+002  0.2625667E+02  0.7546771E-02  0.1455221E+00
          2   -1    0    0  503    0  0.00000000000E+00  0.00000000000E+00  0.90332683164E+03  0.90332683164E+03  0.00000000000E+00 0. -1.
         -2   -1    0    0    0  501 -0.00000000000E+00 -0.00000000000E+00 -0.28506691913E+01  0.28506691913E+01  0.00000000000E+00 0.  1.
         21    1    1    2  502  501  0.24603934242E+02 -0.91683891737E+01  0.62515935309E+02  0.67806010853E+02  0.00000000000E+00 0.  1.
         21    1    1    2  503  502 -0.24603934242E+02  0.91683891737E+01  0.83796022713E+03  0.83837148997E+03  0.00000000000E+00 0. -1.
</event>
<event>
 4    1  0.5576842E+002  0.2571741E+02  0.7546771E-02  0.1460935E+00
          2   -1    0    0  502    0  0.00000000000E+00  0.00000000000E+00  0.18750647002E+04  0.18750647002E+04  0.00000000000E+00 0.  1.
         -2   -1    0    0    0  501 -0.00000000000E+00 -0.00000000000E+00 -0.51483910101E+00  0.51483910101E+00  0.00000000000E+00 0. -1.
         21    1    1    2  502  503 -0.25158830592E+02 -0.53308752869E+01  0.14635079932E+04  0.14637339346E+04  0.00000000000E+00 0.  1.
         21    1    1    2  503  501  0.25158830592E+02  0.53308752869E+01  0.41104186783E+03  0.41184560468E+03  0.00000000000E+00 0. -1.
</event>
<event>
 4    1  0.5576842E+002  0.2429964E+02  0.7546771E-02  0.1476793E+00
          2   -1    0    0  503    0  0.00000000000E+00  0.00000000000E+00  0.40936190167E+03  0.40936190167E+03  0.00000000000E+00 0.  1.
         -2   -1    0    0    0  501 -0.00000000000E+00 -0.00000000000E+00 -0.29204738250E+01  0.29204738250E+01  0.00000000000E+00 0. -1.
         21    1    1    2  502  501 -0.12408976092E+02 -0.20892338315E+02  0.56570402076E+02  0.61568521819E+02  0.00000000000E+00 0. -1.
         21    1    1    2  503  502  0.12408976092E+02  0.20892338315E+02  0.34987102577E+03  0.35071385368E+03  0.00000000000E+00 0.  1.
</event>
<event>
 4    1  0.5576842E+002  0.3880591E+02  0.7546771E-02  0.1355629E+00
          2   -1    0    0  503    0  0.00000000000E+00  0.00000000000E+00  0.35301172568E+03  0.35301172568E+03  0.00000000000E+00 0.  1.
         -2   -1    0    0    0  501 -0.00000000000E+00 -0.00000000000E+00 -0.28492598769E+02  0.28492598769E+02  0.00000000000E+00 0. -1.
         21    1    1    2  502  501 -0.22303574131E+02  0.31756085630E+02 -0.13634394607E+02  0.41131437002E+02  0.00000000000E+00 0. -1.
         21    1    1    2  503  502  0.22303574131E+02 -0.31756085630E+02  0.33815352152E+03  0.34037288745E+03  0.00000000000E+00 0.  1.
</event>
<event>
 4    1  0.5576842E+002  0.2680619E+02  0.7546771E-02  0.1449565E+00
          2   -1    0    0  503    0  0.00000000000E+00  0.00000000000E+00  0.35816296470E+03  0.35816296470E+03  0.00000000000E+00 0.  1.
         -2   -1    0    0    0  501 -0.00000000000E+00 -0.00000000000E+00 -0.30380488614E+01  0.30380488614E+01  0.00000000000E+00 0. -1.
         21    1    1    2  502  501  0.15934497769E+02  0.21556062392E+02  0.72314265561E+02  0.77122792017E+02  0.00000000000E+00 0.  1.
         21    1    1    2  503  502 -0.15934497769E+02 -0.21556062392E+02  0.28281065028E+03  0.28407822154E+03  0.00000000000E+00 0. -1.
</event>
<event>
 4    1  0.5576842E+002  0.2071349E+02  0.7546771E-02  0.1523395E+00
          2   -1    0    0  502    0  0.00000000000E+00  0.00000000000E+00  0.95033577416E+00  0.95033577416E+00  0.00000000000E+00 0.  1.
         -2   -1    0    0    0  501 -0.00000000000E+00 -0.00000000000E+00 -0.92205997602E+03  0.92205997602E+03  0.00000000000E+00 0. -1.
         21    1    1    2  502  503 -0.36428569545E+01  0.20390643706E+02 -0.13085555079E+03  0.13248480641E+03  0.00000000000E+00 0.  1.
         21    1    1    2  503  501  0.36428569545E+01 -0.20390643706E+02 -0.79025408946E+03  0.79052550539E+03  0.00000000000E+00 0. -1.
</event>
<event>
 4    1  0.5576842E+002  0.2367137E+02  0.7546771E-02  0.1484235E+00
          2   -1    0    0  502    0  0.00000000000E+00  0.00000000000E+00  0.24421039866E+04  0.24421039866E+04  0.00000000000E+00 0. -1.
         -2   -1    0    0    0  501 -0.00000000000E+00 -0.00000000000E+00 -0.23289412242E+00  0.23289412242E+00  0.00000000000E+00 0.  1.
         21    1    1    2  502  503  0.14911800313E+02  0.18384018211E+02  0.13694990936E+04  0.13697036546E+04  0.00000000000E+00 0. -1.
         21    1    1    2  503  501 -0.14911800313E+02 -0.18384018211E+02  0.10723719989E+04  0.10726332262E+04  0.00000000000E+00 0.  1.
</event>
<event>
 4    1  0.5576842E+002  0.3591794E+02  0.7546771E-02  0.1374222E+00
          2   -1    0    0  502    0  0.00000000000E+00  0.00000000000E+00  0.31287794018E+03  0.31287794018E+03  0.00000000000E+00 0.  1.
         -2   -1    0    0    0  501 -0.00000000000E+00 -0.00000000000E+00 -0.65928627737E+01  0.65928627737E+01  0.00000000000E+00 0. -1.
         21    1    1    2  502  503 -0.33857094992E+02 -0.11991474784E+02  0.25090491261E+03  0.25346276555E+03  0.00000000000E+00 0.  1.
         21    1    1    2  503  501  0.33857094992E+02  0.11991474784E+02  0.55380164790E+02  0.66008037397E+02  0.00000000000E+00 0. -1.
</event>
<event>
 4    1  0.5576842E+002  0.2578038E+02  0.7546771E-02  0.1460260E+00
          2   -1    0    0  503    0  0.00000000000E+00  0.00000000000E+00  0.72281856438E+03  0.72281856438E+03  0.00000000000E+00 0. -1.
         -2   -1    0    0    0  501 -0.00000000000E+00 -0.00000000000E+00 -0.26926756522E+01  0.26926756522E+01  0.00000000000E+00 0.  1.
         21    1    1    2  502  501  0.14612795403E+02  0.21238982919E+02  0.65689521361E+02  0.70567282798E+02  0.00000000000E+00 0. -1.
         21    1    1    2  503  502 -0.14612795403E+02 -0.21238982919E+02  0.65443636736E+03  0.65494395723E+03  0.00000000000E+00 0.  1.
</event>
<event>
 4    1  0.5576842E+002  0.4280234E+02  0.7546771E-02  0.1332803E+00
          2   -1    0    0  503    0  0.00000000000E+00  0.00000000000E+00  0.91444335710E+01  0.91444335710E+01  0.00000000000E+00 0. -1.
         -2   -1    0    0    0  501 -0.00000000000E+00 -0.00000000000E+00 -0.11619423207E+04  0.11619423207E+04  0.00000000000E+00 0.  1.
         21    1    1    2  502  501  0.80724898545E+01  0.42034216524E+02 -0.11090753209E+04  0.11099009451E+04  0.00000000000E+00 0.  1.
         21    1    1    2  503  502 -0.80724898545E+01 -0.42034216524E+02 -0.43722566288E+02  0.61185809254E+02  0.00000000000E+00 0. -1.
</event>
<event>
 4    1  0.5576842E+002  0.3617719E+02  0.7546771E-02  0.1372471E+00
          2   -1    0    0  502    0  0.00000000000E+00  0.00000000000E+00  0.38771303030E+03  0.38771303030E+03  0.00000000000E+00 0.  1.
         -2   -1    0    0    0  501 -0.00000000000E+00 -0.00000000000E+00 -0.65260539350E+02  0.65260539350E+02  0.00000000000E+00 0. -1.
         21    1    1    2  502  503  0.27448821893E+02 -0.23565887557E+02  0.38177763480E+03  0.38348787636E+03  0.00000000000E+00 0.  1.
         21    1    1    2  503  501 -0.27448821893E+02  0.23565887557E+02 -0.59325143849E+02  0.69485693293E+02  0.00000000000E+00 0. -1.
</event>
<event>
 4    1  0.5576842E+002  0.3082426E+02  0.7546771E-02  0.1412566E+00
          2   -1    0    0  502    0  0.00000000000E+00  0.00000000000E+00  0.58122660042E+03  0.58122660042E+03  0.00000000000E+00 0.  1.
         -2   -1    0    0    0  501 -0.00000000000E+00 -0.00000000000E+00 -0.19832750247E+01  0.19832750247E+01  0.00000000000E+00 0. -1.
         21    1    1    2  502  503  0.30582953337E+02 -0.38494019355E+01  0.16737206013E+03  0.17018678398E+03  0.00000000000E+00 0. -1.
         21    1    1    2  503  501 -0.30582953337E+02  0.38494019355E+01  0.41187126527E+03  0.41302309147E+03  0.00000000000E+00 0.  1.
</event>
<event>
 4    1  0.5576842E+002  0.2066488E+02  0.7546771E-02  0.1524104E+00
          2   -1    0    0  503    0  0.00000000000E+00  0.00000000000E+00  0.27467716256E+03  0.27467716256E+03  0.00000000000E+00 0. -1.
         -2   -1    0    0    0  501 -0.00000000000E+00 -0.00000000000E+00 -0.49284735052E+01  0.49284735052E+01  0.00000000000E+00 0.  1.
         21    1    1    2  502  501  0.78038566776E+01 -0.19134709044E+02  0.19204952977E+02  0.28211123482E+02  0.00000000000E+00 0.  1.
         21    1    1    2  503  502 -0.78038566776E+01  0.19134709044E+02  0.25054373608E+03  0.25139451259E+03  0.00000000000E+00 0. -1.
</event>
<event>
 4    1  0.5576842E+002  0.2273105E+02  0.7546771E-02  0.1495903E+00
          2   -1    0    0  503    0  0.00000000000E+00  0.00000000000E+00  0.84315732088E+03  0.84315732088E+03  0.00000000000E+00 0. -1.
         -2   -1    0    0    0  501 -0.00000000000E+00 -0.00000000000E+00 -0.11550063920E+01  0.11550063920E+01  0.00000000000E+00 0.  1.
         21    1    1    2  502  501  0.19870516915E+02  0.11039171389E+02  0.13176230117E+03  0.13370865626E+03  0.00000000000E+00 0.  1.
         21    1    1    2  503  502 -0.19870516915E+02 -0.11039171389E+02  0.71024001331E+03  0.71060367101E+03  0.00000000000E+00 0. -1.
</event>
<event>
 4    1  0.5576842E+002  0.2018546E+02  0.7546771E-02  0.1531219E+00
          2   -1    0    0  503    0  0.00000000000E+00  0.00000000000E+00  0.20914741717E+01  0.20914741717E+01  0.00000000000E+00 0. -1.
         -2   -1    0    0    0  501 -0.00000000000E+00 -0.00000000000E+00 -0.60893250855E+03  0.60893250855E+03  0.00000000000E+00 0.  1.
         21    1    1    2  502  501  0.19881697767E+02 -0.34886833772E+01 -0.55536503129E+03  0.55573174356E+03  0.00000000000E+00 0.  1.
         21    1    1    2  503  502 -0.19881697767E+02  0.34886833772E+01 -0.51476003083E+02  0.55292239159E+02  0.00000000000E+00 0. -1.
</event>
<event>
 4    1  0.5576842E+002  0.2909123E+02  0.7546771E-02  0.1427661E+00
          2   -1    0    0  502    0  0.00000000000E+00  0.00000000000E+00  0.20909777536E+03  0.20909777536E+03  0.00000000000E+00 0. -1.
         -2   -1    0    0    0  501 -0.00000000000E+00 -0.00000000000E+00 -0.32998301511E+02  0.32998301511E+02  0.00000000000E+00 0.  1.
         21    1    1    2  502  503  0.18661745040E+02 -0.22316787418E+02  0.20143147297E+03  0.20352134539E+03  0.00000000000E+00 0. -1.
         21    1    1    2  503  501 -0.18661745040E+02  0.22316787418E+02 -0.25331999124E+02  0.38574731473E+02  0.00000000000E+00 0.  1.
</event>
<event>
 4    1  0.5576842E+002  0.2113686E+02  0.7546771E-02  0.1517320E+00
          2   -1    0    0  502    0  0.00000000000E+00  0.00000000000E+00  0.10800679223E+04  0.10800679223E+04  0.00000000000E+00 0.  1.
         -2   -1    0    0    0  501 -0.00000000000E+00 -0.00000000000E+00 -0.41434596591E+00  0.41434596591E+00  0.00000000000E+00 0. -1.
         21    1    1    2  502  503  0.14591871999E+02  0.15291964968E+02  0.56201464439E+03  0.56241197305E+03  0.00000000000E+00 0. -1.
         21    1    1    2  503  501 -0.14591871999E+02 -0.15291964968E+02  0.51763893191E+03  0.51807029518E+03  0.00000000000E+00 0.  1.
</event>
<event>
 4    1  0.5576842E+002  0.5507915E+02  0.7546771E-02  0.1277535E+00
          2   -1    0    0  502    0  0.00000000000E+00  0.00000000000E+00  0.15839589608E+04  0.15839589608E+04  0.00000000000E+00 0.  1.
         -2   -1    0    0    0  501 -0.00000000000E+00 -0.00000000000E+00 -0.41257185303E+01  0.41257185303E+01  0.00000000000E+00 0. -1.
         21    1    1    2  502  503  0.32827577595E+02  0.44227404454E+02  0.13711276050E+04  0.13722334431E+04  0.00000000000E+00 0.  1.
         21    1    1    2  503  501 -0.32827577595E+02 -0.44227404454E+02  0.20870563722E+03  0.21585123619E+03  0.00000000000E+00 0. -1.
</event>
<event>
 4    1  0.5576842E+002  0.2092124E+02  0.7546771E-02  0.1520392E+00
          2   -1    0    0  502    0  0.00000000000E+00  0.00000000000E+00  0.16000515792E+03  0.16000515792E+03  0.00000000000E+00 0.  1.
         -2   -1    0    0    0  501 -0.00000000000E+00 -0.00000000000E+00 -0.43707566316E+01  0.43707566316E+01  0.00000000000E+00 0. -1.
         21    1    1    2  502  503 -0.15731078268E+01  0.20862018438E+02  0.12808839517E+03  0.12978572903E+03  0.00000000000E+00 0.  1.
         21    1    1    2  503  501  0.15731078268E+01 -0.20862018438E+02  0.27546006112E+02  0.34590185519E+02  0.00000000000E+00 0. -1.
</event>
<event>
 4    1  0.5576842E+002  0.2047700E+02  0.7546771E-02  0.1526865E+00
          2   -1    0    0  503    0  0.00000000000E+00  0.00000000000E+00  0.40437804954E+02  0.40437804954E+02  0.00000000000E+00 0.  1.
         -2   -1    0    0    0  501 -0.00000000000E+00 -0.00000000000E+00 -0.14793342900E+02  0.14793342900E+02  0.00000000000E+00 0. -1.
         21    1    1    2  502  501  0.19836601240E+02  0.50810274229E+01 -0.22798085605E+01  0.20603521920E+02  0.00000000000E+00 0. -1.
         21    1    1    2  503  502 -0.19836601240E+02 -0.50810274229E+01  0.27924270615E+02  0.34627625934E+02  0.00000000000E+00 0.  1.
</event>
<event>
 4    1  0.5576842E+002  0.2229985E+02  0.7546771E-02  0.1501482E+00
          2   -1    0    0  503    0  0.00000000000E+00  0.00000000000E+00  0.16084407672E+02  0.16084407672E+02  0.00000000000E+00 0.  1.
         -2   -1    0    0    0  501 -0.00000000000E+00 -0.00000000000E+00 -0.59126952164E+02  0.59126952164E+02  0.00000000000E+00 0. -1.
         21    1    1    2  502  501 -0.21765443855E+02  0.48527104210E+01  0.44540565774E+01  0.22740315843E+02  0.00000000000E+00 0.  1.
         21    1    1    2  503  502  0.21765443855E+02 -0.48527104210E+01 -0.47496601069E+02  0.52471043993E+02  0.00000000000E+00 0. -1.
</event>
<event>
 4    1  0.5576842E+002  0.2223503E+02  0.7546771E-02  0.1502334E+00
          2   -1    0    0  503    0  0.00000000000E+00  0.00000000000E+00  0.41182149147E+03  0.41182149147E+03  0.00000000000E+00 0.  1.
         -2   -1    0    0    0  501 -0.00000000000E+00 -0.00000000000E+00 -0.80954673098E+01  0.80954673098E+01  0.00000000000E+00 0. -1.
         21    1    1    2  502  501 -0.15435114433E+02  0.16004805318E+02  0.80967364210E+01  0.23663340667E+02  0.00000000000E+00 0. -1.
         21    1    1    2  503  502  0.15435114433E+02 -0.16004805318E+02  0.39562928774E+03  0.39625361812E+03  0.00000000000E+00 0.  1.
</event>
<event>
 4    1  0.5576842E+002  0.2246676E+02  0.7546771E-02  0.1499305E+00
          2   -1    0    0  503    0  0.00000000000E+00  0.00000000000E+00  0.21610464761E+03  0.21610464761E+03  0.00000000000E+00 0.  1.
         -2   -1    0    0    0  501 -0.00000000000E+00 -0.00000000000E+00 -0.30383305315E+01  0.30383305315E+01  0.00000000000E+00 0. -1.
         21    1    1    2  502  501  0.47300337946E+01 -0.21963202543E+02  0.15922504694E+03  0.16080227318E+03  0.00000000000E+00 0.  1.
         21    1    1    2  503  502 -0.47300337946E+01  0.21963202543E+02  0.53841270130E+02  0.58340704957E+02  0.00000000000E+00 0. -1.
</event>
<event>
 4    1  0.5576842E+002  0.3924486E+02  0.7546771E-02  0.1352969E+00
          2   -1    0    0  502    0  0.00000000000E+00  0.00000000000E+00  0.43516270411E+01  0.43516270411E+01  0.00000000000E+00 0.  1.
         -2   -1    0    0    0  501 -0.00000000000E+00 -0.00000000000E+00 -0.37432768980E+03  0.37432768980E+03  0.00000000000E+00 0. -1.
         21    1    1    2  502  503 -0.38278935157E+02  0.86534531020E+01 -0.14078663148E+03  0.14615414716E+03  0.00000000000E+00 0.  1.
         21    1    1    2  503  501  0.38278935157E+02 -0.86534531020E+01 -0.22918943127E+03  0.23252516968E+03  0.00000000000E+00 0. -1.
</event>
<event>
 4    1  0.5576842E+002  0.3701784E+02  0.7546771E-02  0.1366907E+00
          2   -1    0    0  503    0  0.00000000000E+00  0.00000000000E+00  0.15868950374E+03  0.15868950374E+03  0.00000000000E+00 0. -1.
         -2   -1    0    0    0  501 -0.00000000000E+00 -0.00000000000E+00 -0.38450886633E+02  0.38450886633E+02  0.00000000000E+00 0.  1.
         21    1    1    2  502  501  0.30679226564E+02  0.20714866555E+02 -0.26679669860E+02  0.45630312543E+02  0.00000000000E+00 0.  1.
         21    1    1    2  503  502 -0.30679226564E+02 -0.20714866555E+02  0.14691828697E+03  0.15151007783E+03  0.00000000000E+00 0. -1.
</event>
<event>
 4    1  0.5576842E+002  0.2094259E+02  0.7546771E-02  0.1520086E+00
          2   -1    0    0  503    0  0.00000000000E+00  0.00000000000E+00  0.37432231363E+02  0.37432231363E+02  0.00000000000E+00 0. -1.
         -2   -1    0    0    0  501 -0.00000000000E+00 -0.00000000000E+00 -0.23812642793E+02  0.23812642793E+02  0.00000000000E+00 0.  1.
         21    1    1    2  502  501 -0.15178796787E+02 -0.14429010599E+02 -0.15015043354E+02  0.25769046271E+02  0.00000000000E+00 0.  1.
         21    1    1    2  503  502  0.15178796787E+02  0.14429010599E+02  0.28634631924E+02  0.35475827886E+02  0.00000000000E+00 0. -1.
</event>
<event>
 4    1  0.5576842E+002  0.2316327E+02  0.7546771E-02  0.1490458E+00
          2   -1    0    0  502    0  0.00000000000E+00  0.00000000000E+00  0.20505787041E+04  0.20505787041E+04  0.00000000000E+00 0.  1.
         -2   -1    0    0    0  501 -0.00000000000E+00 -0.00000000000E+00 -0.30889855475E+00  0.30889855475E+00  0.00000000000E+00 0. -1.
         21    1    1    2  502  503 -0.98204061867E+01  0.20978481545E+02  0.14261780831E+04  0.14263661738E+04  0.00000000000E+00 0. -1.
         21    1    1    2  503  501  0.98204061867E+01 -0.20978481545E+02  0.62409172250E+03  0.62452142891E+03  0.00000000000E+00 0.  1.
</event>
<event>
 4    1  0.5576842E+002  0.3899212E+02  0.7546771E-02  0.1354495E+00
          2   -1    0    0  502    0  0.00000000000E+00  0.00000000000E+00  0.44022982135E+02  0.44022982135E+02  0.00000000000E+00 0.  1.
         -2   -1    0    0    0  501 -0.00000000000E+00 -0.00000000000E+00 -0.15297044127E+03  0.15297044127E+03  0.00000000000E+00 0. -1.
         21    1    1    2  502  503  0.38988617677E+02  0.52285191046E+00  0.32193846021E+02  0.50565100653E+02  0.00000000000E+00 0.  1.
         21    1    1    2  503  501 -0.38988617677E+02 -0.52285191046E+00 -0.14114130516E+03  0.14642832275E+03  0.00000000000E+00 0. -1.
</event>
<event>
 4    1  0.5576842E+002  0.2823018E+02  0.7546771E-02  0.1435627E+00
          2   -1    0    0  502    0  0.00000000000E+00  0.00000000000E+00  0.28142930870E+02  0.28142930870E+02  0.00000000000E+00 0. -1.
         -2   -1    0    0    0  501 -0.00000000000E+00 -0.00000000000E+00 -0.41641158219E+03  0.41641158219E+03  0.00000000000E+00 0.  1.
         21    1    1    2  502  503  0.27877510258E+02 -0.44483110193E+01  0.20451991564E+02  0.34860106253E+02  0.00000000000E+00 0. -1.
         21    1    1    2  503  501 -0.27877510258E+02  0.44483110193E+01 -0.40872064288E+03  0.40969440680E+03  0.00000000000E+00 0.  1.
</event>
<event>
 4    1  0.5576842E+002  0.2588691E+02  0.7546771E-02  0.1459121E+00
          2   -1    0    0  502    0  0.00000000000E+00  0.00000000000E+00  0.34524936825E+02  0.34524936825E+02  0.00000000000E+00 0.  1.
         -2   -1    0    0    0  501 -0.00000000000E+00 -0.00000000000E+00 -0.53451390140E+02  0.53451390140E+02  0.00000000000E+00 0. -1.
         21    1    1    2  502  503  0.24183582191E+02 -0.92350686650E+01  0.25640998842E+02  0.36436149117E+02  0.00000000000E+00 0.  1.
         21    1    1    2  503  501 -0.24183582191E+02  0.92350686650E+01 -0.44567452157E+02  0.51540177848E+02  0.00000000000E+00 0. -1.
</event>
<event>
 4    1  0.5576842E+002  0.2474500E+02  0.7546771E-02  0.1471676E+00
          2   -1    0    0  502    0  0.00000000000E+00  0.00000000000E+00  0.58945167814E+03  0.58945167814E+03  0.00000000000E+00 0. -1.
         -2   -1    0    0    0  501 -0.00000000000E+00 -0.00000000000E+00 -0.10535097441E+02  0.10535097441E+02  0.00000000000E+00 0.  1.
         21    1    1    2  502  503  0.23773166028E+02 -0.68666936722E+01  0.57427787544E+03  0.57481074548E+03  0.00000000000E+00 0. -1.
         21    1    1    2  503  501 -0.23773166028E+02  0.68666936722E+01  0.46387052615E+01  0.25176030098E+02  0.00000000000E+00 0.  1.
</event>
<event>
 4    1  0.5576842E+002  0.2650434E+02  0.7546771E-02  0.1452652E+00
          2   -1    0    0  502    0  0.00000000000E+00  0.00000000000E+00  0.62760079912E+02  0.62760079912E+02  0.00000000000E+00 0. -1.
         -2   -1    0    0    0  501 -0.00000000000E+00 -0.00000000000E+00 -0.29269292785E+02  0.29269292785E+02  0.00000000000E+00 0.  1.
         21    1    1    2  502  503  0.99193256609E+01  0.24578183850E+02  0.52906672153E+02  0.59174285811E+02  0.00000000000E+00 0. -1.
         21    1    1    2  503  501 -0.99193256609E+01 -0.24578183850E+02 -0.19415885026E+02  0.32855086886E+02  0.00000000000E+00 0.  1.
</event>
<event>
 4    1  0.5576842E+002  0.2123998E+02  0.7546771E-02  0.1515866E+00
          2   -1    0    0  503    0  0.00000000000E+00  0.00000000000E+00  0.92303834103E+03  0.92303834103E+03  0.00000000000E+00 0.  1.
         -2   -1    0    0    0  501 -0.00000000000E+00 -0.00000000000E+00 -0.21841225385E+01  0.21841225385E+01  0.00000000000E+00 0. -1.
         21    1    1    2  502  501 -0.83165040246E+01 -0.19544112205E+02  0.52849773023E+02  0.56958187029E+02  0.00000000000E+00 0. -1.
         21    1    1    2  503  502  0.83165040246E+01  0.19544112205E+02  0.86800444547E+03  0.86826427654E+03  0.00000000000E+00 0.  1.
</event>
<event>
 4    1  0.5576842E+002  0.2155238E+02  0.7546771E-02  0.1511522E+00
          2   -1    0    0  503    0  0.00000000000E+00  0.00000000000E+00  0.45185285173E+02  0.45185285173E+02  0.00000000000E+00 0.  1.
         -2   -1    0    0    0  501 -0.00000000000E+00 -0.00000000000E+00 -0.11613270929E+02  0.11613270929E+02  0.00000000000E+00 0. -1.
         21    1    1    2  502  501 -0.15346193228E+02  0.15132723299E+02  0.71634965106E+01  0.22711685170E+02  0.00000000000E+00 0.  1.
         21    1    1    2  503  502  0.15346193228E+02 -0.15132723299E+02  0.26408517733E+02  0.34086870931E+02  0.00000000000E+00 0. -1.
</event>
<event>
 4    1  0.5576842E+002  0.5464288E+02  0.7546771E-02  0.1279207E+00
          2   -1    0    0  503    0  0.00000000000E+00  0.00000000000E+00  0.43323292128E+02  0.43323292128E+02  0.00000000000E+00 0.  1.
         -2   -1    0    0    0  501 -0.00000000000E+00 -0.00000000000E+00 -0.77813251254E+02  0.77813251254E+02  0.00000000000E+00 0. -1.
         21    1    1    2  502  501 -0.53900056641E+02  0.89793380178E+01 -0.37721059122E+02  0.66398214723E+02  0.00000000000E+00 0.  1.
         21    1    1    2  503  502  0.53900056641E+02 -0.89793380178E+01  0.32310999969E+01  0.54738328658E+02  0.00000000000E+00 0. -1.
</event>
<event>
 4    1  0.5576842E+002  0.2327995E+02  0.7546771E-02  0.1489012E+00
          2   -1    0    0  503    0  0.00000000000E+00  0.00000000000E+00  0.15347152484E+04  0.15347152484E+04  0.00000000000E+00 0.  1.
         -2   -1    0    0    0  501 -0.00000000000E+00 -0.00000000000E+00 -0.35330799636E+00  0.35330799636E+00  0.00000000000E+00 0. -1.
         21    1    1    2  502  501 -0.22933317632E+02 -0.40024036372E+01  0.78433606537E+03  0.78468147661E+03  0.00000000000E+00 0. -1.
         21    1    1    2  503  502  0.22933317632E+02  0.40024036372E+01  0.75002587503E+03  0.75038707978E+03  0.00000000000E+00 0.  1.
</event>
<event>
 4    1  0.5576842E+002  0.2232397E+02  0.7546771E-02  0.1501166E+00
          2   -1    0    0  502    0  0.00000000000E+00  0.00000000000E+00  0.34902501566E+03  0.34902501566E+03  0.00000000000E+00 0.  1.
         -2   -1    0    0    0  501 -0.00000000000E+00 -0.00000000000E+00 -0.11689359982E+03  0.11689359982E+03  0.00000000000E+00 0. -1.
         21    1    1    2  502  503  0.16412315791E+02 -0.15132599050E+02  0.34759783807E+03  0.34831396282E+03  0.00000000000E+00 0.  1.
         21    1    1    2  503  501 -0.16412315791E+02  0.15132599050E+02 -0.11546642223E+03  0.11760465266E+03  0.00000000000E+00 0. -1.
</event>
<event>
 4    1  0.5576842E+002  0.2963685E+02  0.7546771E-02  0.1422779E+00
          2   -1    0    0  502    0  0.00000000000E+00  0.00000000000E+00  0.48956787350E+03  0.48956787350E+03  0.00000000000E+00 0.  1.
         -2   -1    0    0    0  501 -0.00000000000E+00 -0.00000000000E+00 -0.67734708410E+01  0.67734708410E+01  0.00000000000E+00 0. -1.
         21    1    1    2  502  503 -0.29616460621E+02 -0.10991725620E+01  0.45417741503E+03  0.45514334802E+03  0.00000000000E+00 0.  1.
         21    1    1    2  503  501  0.29616460621E+02  0.10991725620E+01  0.28616987622E+02  0.41197996318E+02  0.00000000000E+00 0. -1.
</event>
<event>
 4    1  0.5576842E+002  0.2091763E+02  0.7546771E-02  0.1520444E+00
          2   -1    0    0  503    0  0.00000000000E+00  0.00000000000E+00  0.13960457850E+04  0.13960457850E+04  0.00000000000E+00 0. -1.
         -2   -1    0    0    0  501 -0.00000000000E+00 -0.00000000000E+00 -0.87443292420E+00  0.87443292420E+00  0.00000000000E+00 0.  1.
         21    1    1    2  502  501  0.20111076743E+02 -0.57525433944E+01  0.13813061422E+03  0.13970545353E+03  0.00000000000E+00 0.  1.
         21    1    1    2  503  502 -0.20111076743E+02  0.57525433944E+01  0.12570407378E+04  0.12572147644E+04  0.00000000000E+00 0. -1.
</event>
<event>
 4    1  0.5576842E+002  0.2000986E+02  0.7546771E-02  0.1533885E+00
          2   -1    0    0  503    0  0.00000000000E+00  0.00000000000E+00  0.85970556161E+01  0.85970556161E+01  0.00000000000E+00 0.  1.
         -2   -1    0    0    0  501 -0.00000000000E+00 -0.00000000000E+00 -0.84470953601E+02  0.84470953601E+02  0.00000000000E+00 0. -1.
         21    1    1    2  502  501  0.20009321715E+02  0.14627731332E+00 -0.69105897848E+02  0.71944558306E+02  0.00000000000E+00 0.  1.
         21    1    1    2  503  502 -0.20009321715E+02 -0.14627731332E+00 -0.67680001370E+01  0.21123450911E+02  0.00000000000E+00 0. -1.
</event>
<event>
 4    1  0.5576842E+002  0.2068546E+02  0.7546771E-02  0.1523803E+00
          2   -1    0    0  503    0  0.00000000000E+00  0.00000000000E+00  0.25396012841E+04  0.25396012841E+04  0.00000000000E+00 0. -1.
         -2   -1    0    0    0  501 -0.00000000000E+00 -0.00000000000E+00 -0.17576145750E+00  0.17576145750E+00  0.00000000000E+00 0.  1.
         21    1    1    2  502  501  0.20667176665E+02 -0.86959045793E+00  0.15280701001E+04  0.15282101031E+04  0.00000000000E+00 0. -1.
         21    1    1    2  503  502 -0.20667176665E+02  0.86959045793E+00  0.10113554225E+04  0.10115669424E+04  0.00000000000E+00 0.  1.
</event>
<event>
 4    1  0.5576842E+002  0.2710455E+02  0.7546771E-02  0.1446561E+00
          2   -1    0    0  502    0  0.00000000000E+00  0.00000000000E+00  0.63269476054E+02  0.63269476054E+02  0.00000000000E+00 0. -1.
         -2   -1    0    0    0  501 -0.00000000000E+00 -0.00000000000E+00 -0.16679015227E+02  0.16679015227E+02  0.00000000000E+00 0.  1.
         21    1    1    2  502  503  0.44805565963E+01  0.26731655116E+02  0.45329081162E+02  0.52814603772E+02  0.00000000000E+00 0.  1.
         21    1    1    2  503  501 -0.44805565963E+01 -0.26731655116E+02  0.12613796657E+01  0.27133887509E+02  0.00000000000E+00 0. -1.
</event>
<event>
 4    1  0.5576842E+002  0.2185492E+02  0.7546771E-02  0.1507400E+00
          2   -1    0    0  503    0  0.00000000000E+00  0.00000000000E+00  0.10140506755E+03  0.10140506755E+03  0.00000000000E+00 0. -1.
         -2   -1    0    0    0  501 -0.00000000000E+00 -0.00000000000E+00 -0.26447767641E+02  0.26447767641E+02  0.00000000000E+00 0.  1.
         21    1    1    2  502  501 -0.20900956634E+02  0.63865055969E+01 -0.20476415411E+02  0.29948639869E+02  0.00000000000E+00 0.  1.
         21    1    1    2  503  502  0.20900956634E+02 -0.63865055969E+01  0.95433715322E+02  0.97904195325E+02  0.00000000000E+00 0. -1.
</event>
<event>
 4    1  0.5576842E+002  0.2580549E+02  0.7546771E-02  0.1459991E+00
          2   -1    0    0  502    0  0.00000000000E+00  0.00000000000E+00  0.24639531768E+03  0.24639531768E+03  0.00000000000E+00 0.  1.
         -2   -1    0    0    0  501 -0.00000000000E+00 -0.00000000000E+00 -0.83087213691E+01  0.83087213691E+01  0.00000000000E+00 0. -1.
         21    1    1    2  502  503 -0.43029539251E+01  0.25444214379E+02  0.22365193775E+03  0.22513576507E+03  0.00000000000E+00 0.  1.
         21    1    1    2  503  501  0.43029539251E+01 -0.25444214379E+02  0.14434658561E+02  0.29568273971E+02  0.00000000000E+00 0. -1.
</event>
<event>
 4    1  0.5576842E+002  0.2428995E+02  0.7546771E-02  0.1476906E+00
          2   -1    0    0  502    0  0.00000000000E+00  0.00000000000E+00  0.78323514154E+02  0.78323514154E+02  0.00000000000E+00 0.  1.
         -2   -1    0    0    0  501 -0.00000000000E+00 -0.00000000000E+00 -0.14081571978E+02  0.14081571978E+02  0.00000000000E+00 0. -1.
         21    1    1    2  502  503 -0.16680061331E+02 -0.17657221277E+02  0.63628727249E+02  0.68107391967E+02  0.00000000000E+00 0.  1.
         21    1    1    2  503  501  0.16680061331E+02  0.17657221277E+02  0.61321492647E+00  0.24297694165E+02  0.00000000000E+00 0. -1.
</event>
<event>
 4    1  0.5576842E+002  0.2178062E+02  0.7546771E-02  0.1508405E+00
          2   -1    0    0  502    0  0.00000000000E+00  0.00000000000E+00  0.17925059302E+04  0.17925059302E+04  0.00000000000E+00 0. -1.
         -2   -1    0    0    0  501 -0.00000000000E+00 -0.00000000000E+00 -0.64234856417E+00  0.64234856417E+00  0.00000000000E+00 0.  1.
         21    1    1    2  502  503 -0.21117736885E+02  0.53325820657E+01  0.15834287068E+04  0.15835784998E+04  0.00000000000E+00 0. -1.
         21    1    1    2  503  501  0.21117736885E+02 -0.53325820657E+01  0.20843487480E+03  0.20956977901E+03  0.00000000000E+00 0.  1.
</event>
<event>
 4    1  0.5576842E+002  0.3364266E+02  0.7546771E-02  0.1390365E+00
          2   -1    0    0  502    0  0.00000000000E+00  0.00000000000E+00  0.99347052917E+02  0.99347052917E+02  0.00000000000E+00 0. -1.
         -2   -1    0    0    0  501 -0.00000000000E+00 -0.00000000000E+00 -0.39257845093E+02  0.39257845093E+02  0.00000000000E+00 0.  1.
         21    1    1    2  502  503 -0.26732628799E+02  0.20425362634E+02  0.88431607425E+02  0.94614893505E+02  0.00000000000E+00 0. -1.
         21    1    1    2  503  501  0.26732628799E+02 -0.20425362634E+02 -0.28342399601E+02  0.43990004505E+02  0.00000000000E+00 0.  1.
</event>
<event>
 4    1  0.5576842E+002  0.3084784E+02  0.7546771E-02  0.1412369E+00
          2   -1    0    0  502    0  0.00000000000E+00  0.00000000000E+00  0.29645582215E+03  0.29645582215E+03  0.00000000000E+00 0. -1.
         -2   -1    0    0    0  501 -0.00000000000E+00 -0.00000000000E+00 -0.83205081583E+01  0.83205081583E+01  0.00000000000E+00 0.  1.
         21    1    1    2  502  503 -0.29239506207E+02 -0.98305812944E+01  0.26349760694E+03  0.26529715022E+03  0.00000000000E+00 0. -1.
         21    1    1    2  503  501  0.29239506207E+02  0.98305812944E+01  0.24637707056E+02  0.39479180093E+02  0.00000000000E+00 0.  1.
</event>
<event>
 4    1  0.5576842E+002  0.2462207E+02  0.7546771E-02  0.1473076E+00
          2   -1    0    0  502    0  0.00000000000E+00  0.00000000000E+00  0.69579103997E+03  0.69579103997E+03  0.00000000000E+00 0.  1.
         -2   -1    0    0    0  501 -0.00000000000E+00 -0.00000000000E+00 -0.11199757271E+01  0.11199757271E+01  0.00000000000E+00 0. -1.
         21    1    1    2  502  503 -0.38743538357E+01 -0.24315340650E+02  0.51152871202E+03  0.51212095215E+03  0.00000000000E+00 0. -1.
         21    1    1    2  503  501  0.38743538357E+01  0.24315340650E+02  0.18314235222E+03  0.18479006355E+03  0.00000000000E+00 0.  1.
</event>
<event>
 4    1  0.5576842E+002  0.2163356E+02  0.7546771E-02  0.1510408E+00
          2   -1    0    0  503    0  0.00000000000E+00  0.00000000000E+00  0.10219442543E+04  0.10219442543E+04  0.00000000000E+00 0.  1.
         -2   -1    0    0    0  501 -0.00000000000E+00 -0.00000000000E+00 -0.91427586651E+00  0.91427586651E+00  0.00000000000E+00 0. -1.
         21    1    1    2  502  501 -0.13400352155E+02 -0.16983569380E+02  0.14920576837E+03  0.15076595233E+03  0.00000000000E+00 0. -1.
         21    1    1    2  503  502  0.13400352155E+02  0.16983569380E+02  0.87182421009E+03  0.87209257786E+03  0.00000000000E+00 0.  1.
</event>
<event>
 4    1  0.5576842E+002  0.2315776E+02  0.7546771E-02  0.1490527E+00
          2   -1    0    0  502    0  0.00000000000E+00  0.00000000000E+00  0.18085655903E+03  0.18085655903E+03  0.00000000000E+00 0. -1.
         -2   -1    0    0    0  501 -0.00000000000E+00 -0.00000000000E+00 -0.81849500309E+01  0.81849500309E+01  0.00000000000E+00 0.  1.
         21    1    1    2  502  503  0.22876221960E+02  0.36000222871E+01  0.16181767904E+03  0.16346633580E+03  0.00000000000E+00 0. -1.
         21    1    1    2  503  501 -0.22876221960E+02 -0.36000222871E+01  0.10853929963E+02  0.25575173259E+02  0.00000000000E+00 0.  1.
</event>
<event>
 4    1  0.5576842E+002  0.2191806E+02  0.7546771E-02  0.1506550E+00
          2   -1    0    0  502    0  0.00000000000E+00  0.00000000000E+00  0.56027725349E+03  0.56027725349E+03  0.00000000000E+00 0. -1.
         -2   -1    0    0    0  501 -0.00000000000E+00 -0.00000000000E+00 -0.86047319450E+00  0.86047319450E+00  0.00000000000E+00 0.  1.
         21    1    1    2  502  503  0.15497011080E+02  0.15499808244E+02  0.29637964275E+03  0.29718898708E+03  0.00000000000E+00 0.  1.
         21    1    1    2  503  501 -0.15497011080E+02 -0.15499808244E+02  0.26303713755E+03  0.26394873960E+03  0.00000000000E+00 0. -1.
</event>
<event>
 4    1  0.5576842E+002  0.2642985E+02  0.7546771E-02  0.1453421E+00
          2   -1    0    0  503    0  0.00000000000E+00  0.00000000000E+00  0.17576615418E+04  0.17576615418E+04  0.00000000000E+00 0.  1.
         -2   -1    0    0    0  501 -0.00000000000E+00 -0.00000000000E+00 -0.45010621893E+00  0.45010621893E+00  0.00000000000E+00 0. -1.
         21    1    1    2  502  501  0.18593489648E+02  0.18783476166E+02  0.57786579272E+03  0.57846988792E+03  0.00000000000E+00 0. -1.
         21    1    1    2  503  502 -0.18593489648E+02 -0.18783476166E+02  0.11793456429E+04  0.11796417601E+04  0.00000000000E+00 0.  1.
</event>
<event>
 4    1  0.5576842E+002  0.6583807E+02  0.7546771E-02  0.1241191E+00
          2   -1    0    0  502    0  0.00000000000E+00  0.00000000000E+00  0.23684011406E+04  0.23684011406E+04  0.00000000000E+00 0.  1.
         -2   -1    0    0    0  501 -0.00000000000E+00 -0.00000000000E+00 -0.18490519490E+01  0.18490519490E+01  0.00000000000E+00 0. -1.
         21    1    1    2  502  503  0.17733600442E+02 -0.63404821050E+02  0.13029356550E+04  0.13045980120E+04  0.00000000000E+00 0.  1.
         21    1    1    2  503  501 -0.17733600442E+02  0.63404821050E+02  0.10636164337E+04  0.10656521806E+04  0.00000000000E+00 0. -1.
</event>
<event>
 4    1  0.5576842E+002  0.3159962E+02  0.7546771E-02  0.1406187E+00
          2   -1    0    0  503    0  0.00000000000E+00  0.00000000000E+00  0.24589800451E+02  0.24589800451E+02  0.00000000000E+00 0.  1.
         -2   -1    0    0    0  501 -0.00000000000E+00 -0.00000000000E+00 -0.18349546782E+03  0.18349546782E+03  0.00000000000E+00 0. -1.
         21    1    1    2  502  501  0.30513517195E+02  0.82134643150E+01 -0.17126413939E+03  0.17415493438E+03  0.00000000000E+00 0. -1.
         21    1    1    2  503  502 -0.30513517195E+02 -0.82134643150E+01  0.12358472017E+02  0.33930333895E+02  0.00000000000E+00 0.  1.
</event>
<event>
 4    1  0.5576842E+002  0.2557376E+02  0.7546771E-02  0.1462486E+00
          2   -1    0    0  503    0  0.00000000000E+00  0.00000000000E+00  0.95920857433E+02  0.95920857433E+02  0.00000000000E+00 0. -1.
         -2   -1    0    0    0  501 -0.00000000000E+00 -0.00000000000E+00 -0.13114331977E+02  0.13114331977E+02  0.00000000000E+00 0.  1.
         21    1    1    2  502  501 -0.18833955253E+02  0.17300275009E+02  0.36289136473E+01  0.25829951609E+02  0.00000000000E+00 0.  1.
         21    1    1    2  503  502  0.18833955253E+02 -0.17300275009E+02  0.79177611809E+02  0.83205237802E+02  0.00000000000E+00 0. -1.
</event>
<event>
 4    1  0.5576842E+002  0.2064376E+02  0.7546771E-02  0.1524412E+00
          2   -1    0    0  503    0  0.00000000000E+00  0.00000000000E+00  0.48191520346E+01  0.48191520346E+01  0.00000000000E+00 0. -1.
         -2   -1    0    0    0  501 -0.00000000000E+00 -0.00000000000E+00 -0.23721842959E+03  0.23721842959E+03  0.00000000000E+00 0.  1.
         21    1    1    2  502  501 -0.19373995952E+02 -0.71283261372E+01 -0.21204277451E+03  0.21304530733E+03  0.00000000000E+00 0.  1.
         21    1    1    2  503  502  0.19373995952E+02  0.71283261372E+01 -0.20356503047E+02  0.28992274298E+02  0.00000000000E+00 0. -1.
</event>
<event>
 4    1  0.5576842E+002  0.2890927E+02  0.7546771E-02  0.1429318E+00
          2   -1    0    0  502    0  0.00000000000E+00  0.00000000000E+00  0.16642945887E+02  0.16642945887E+02  0.00000000000E+00 0. -1.
         -2   -1    0    0    0  501 -0.00000000000E+00 -0.00000000000E+00 -0.59693294531E+02  0.59693294531E+02  0.00000000000E+00 0.  1.
         21    1    1    2  502  503 -0.28750702159E+02  0.30237859502E+01 -0.36733265196E+02  0.46744827822E+02  0.00000000000E+00 0.  1.
         21    1    1    2  503  501  0.28750702159E+02 -0.30237859502E+01 -0.63170834482E+01  0.29591412596E+02  0.00000000000E+00 0. -1.
</event>
<event>
 4    1  0.5576842E+002  0.3119173E+02  0.7546771E-02  0.1409515E+00
          2   -1    0    0  503    0  0.00000000000E+00  0.00000000000E+00  0.32651360010E+03  0.32651360010E+03  0.00000000000E+00 0. -1.
         -2   -1    0    0    0  501 -0.00000000000E+00 -0.00000000000E+00 -0.96998257571E+01  0.96998257571E+01  0.00000000000E+00 0.  1.
         21    1    1    2  502  501 -0.27658161926E+02  0.14420471598E+02  0.18483384907E+02  0.36256853695E+02  0.00000000000E+00 0.  1.
         21    1    1    2  503  502  0.27658161926E+02 -0.14420471598E+02  0.29833038944E+03  0.29995657216E+03  0.00000000000E+00 0. -1.
</event>
<event>
 4    1  0.5576842E+002  0.3288253E+02  0.7546771E-02  0.1396094E+00
          2   -1    0    0  503    0  0.00000000000E+00  0.00000000000E+00  0.12281860240E+03  0.12281860240E+03  0.00000000000E+00 0. -1.
         -2   -1    0    0    0  501 -0.00000000000E+00 -0.00000000000E+00 -0.12827248600E+02  0.12827248600E+02  0.00000000000E+00 0.  1.
         21    1    1    2  502  501 -0.23857441688E+02 -0.22629253877E+02  0.17010576450E+02  0.37021890363E+02  0.00000000000E+00 0.  1.
         21    1    1    2  503  502  0.23857441688E+02  0.22629253877E+02  0.92980777353E+02  0.98623960638E+02  0.00000000000E+00 0. -1.
</event>
<event>
 4    1  0.5576842E+002  0.2691157E+02  0.7546771E-02  0.1448498E+00
          2   -1    0    0  502    0  0.00000000000E+00  0.00000000000E+00  0.13712332903E+04  0.13712332903E+04  0.00000000000E+00 0.  1.
         -2   -1    0    0    0  501 -0.00000000000E+00 -0.00000000000E+00 -0.14443776208E+01  0.14443776208E+01  0.00000000000E+00 0. -1.
         21    1    1    2  502  503 -0.16598380408E+02  0.21183161673E+02  0.12315291251E+04  0.12318231279E+04  0.00000000000E+00 0.  1.
         21    1    1    2  503  501  0.16598380408E+02 -0.21183161673E+02  0.13825978763E+03  0.14085454003E+03  0.00000000000E+00 0. -1.
</event>
<event>
 4    1  0.5576842E+002  0.7099925E+02  0.7546771E-02  0.1226442E+00
          2   -1    0    0  502    0  0.00000000000E+00  0.00000000000E+00  0.13761867907E+04  0.13761867907E+04  0.00000000000E+00 0.  1.
         -2   -1    0    0    0  501 -0.00000000000E+00 -0.00000000000E+00 -0.14758907229E+02  0.14758907229E+02  0.00000000000E+00 0. -1.
         21    1    1    2  502  503 -0.33577456322E+02 -0.62557558252E+02  0.12837393397E+04  0.12857012040E+04  0.00000000000E+00 0.  1.
         21    1    1    2  503  501  0.33577456322E+02  0.62557558252E+02  0.77688543730E+02  0.10524449389E+03  0.00000000000E+00 0. -1.
</event>
<event>
 4    1  0.5576842E+002  0.2083945E+02  0.7546771E-02  0.1521569E+00
          2   -1    0    0  502    0  0.00000000000E+00  0.00000000000E+00  0.71248350129E+01  0.71248350129E+01  0.00000000000E+00 0.  1.
         -2   -1    0    0    0  501 -0.00000000000E+00 -0.00000000000E+00 -0.78749879102E+02  0.78749879102E+02  0.00000000000E+00 0. -1.
         21    1    1    2  502  503  0.19650944989E+02 -0.69370841993E+01 -0.15400893847E+02  0.25912744112E+02  0.00000000000E+00 0.  1.
         21    1    1    2  503  501 -0.19650944989E+02  0.69370841993E+01 -0.56224150243E+02  0.59961970003E+02  0.00000000000E+00 0. -1.
</event>
<event>
 4    1  0.5576842E+002  0.2661143E+02  0.7546771E-02  0.1451551E+00
          2   -1    0    0  502    0  0.00000000000E+00  0.00000000000E+00  0.68230814780E+03  0.68230814780E+03  0.00000000000E+00 0. -1.
         -2   -1    0    0    0  501 -0.00000000000E+00 -0.00000000000E+00 -0.12644320892E+01  0.12644320892E+01  0.00000000000E+00 0.  1.
         21    1    1    2  502  503 -0.87633933318E+01  0.25127099915E+02  0.48518934068E+03  0.48591857808E+03  0.00000000000E+00 0. -1.
         21    1    1    2  503  501  0.87633933318E+01 -0.25127099915E+02  0.19585437503E+03  0.19765400181E+03  0.00000000000E+00 0.  1.
</event>
<event>
 4    1  0.5576842E+002  0.4873411E+02  0.7546771E-02  0.1303756E+00
          2   -1    0    0  502    0  0.00000000000E+00  0.00000000000E+00  0.20068553477E+03  0.20068553477E+03  0.00000000000E+00 0. -1.
         -2   -1    0    0    0  501 -0.00000000000E+00 -0.00000000000E+00 -0.14320825725E+02  0.14320825725E+02  0.00000000000E+00 0.  1.
         21    1    1    2  502  503  0.38120620174E+02 -0.30361690052E+02  0.13797594583E+03  0.14632968097E+03  0.00000000000E+00 0. -1.
         21    1    1    2  503  501 -0.38120620174E+02  0.30361690052E+02  0.48388763222E+02  0.68676679531E+02  0.00000000000E+00 0.  1.
</event>
<event>
 4    1  0.5576842E+002  0.2189772E+02  0.7546771E-02  0.1506824E+00
          2   -1    0    0  503    0  0.00000000000E+00  0.00000000000E+00  0.10101365591E+04  0.10101365591E+04  0.00000000000E+00 0.  1.
         -2   -1    0    0    0  501 -0.00000000000E+00 -0.00000000000E+00 -0.23866174014E+01  0.23866174014E+01  0.00000000000E+00 0. -1.
         21    1    1    2  502  501 -0.20980393369E+02  0.62716276970E+01  0.50749662700E+02  0.55272402553E+02  0.00000000000E+00 0. -1.
         21    1    1    2  503  502  0.20980393369E+02 -0.62716276970E+01  0.95700027898E+03  0.95725077393E+03  0.00000000000E+00 0.  1.
</event>
<event>
 4    1  0.5576842E+002  0.2286306E+02  0.7546771E-02  0.1494225E+00
          2   -1    0    0  502    0  0.00000000000E+00  0.00000000000E+00  0.80240036257E+03  0.80240036257E+03  0.00000000000E+00 0. -1.
         -2   -1    0    0    0  501 -0.00000000000E+00 -0.00000000000E+00 -0.23221253054E+01  0.23221253054E+01  0.00000000000E+00 0.  1.
         21    1    1    2  502  503  0.18956510080E+02 -0.12781631933E+02  0.74132635298E+03  0.74167882605E+03  0.00000000000E+00 0. -1.
         21    1    1    2  503  501 -0.18956510080E+02  0.12781631933E+02  0.58751884287E+02  0.63043661827E+02  0.00000000000E+00 0.  1.
</event>
<event>
 4    1  0.5576842E+002  0.3119428E+02  0.7546771E-02  0.1409494E+00
          2   -1    0    0  502    0  0.00000000000E+00  0.00000000000E+00  0.34355378893E+03  0.34355378893E+03  0.00000000000E+00 0.  1.
         -2   -1    0    0    0  501 -0.00000000000E+00 -0.00000000000E+00 -0.46843651386E+01  0.46843651386E+01  0.00000000000E+00 0. -1.
         21    1    1    2  502  503  0.24240425539E+02 -0.19633773164E+02  0.27891523622E+03  0.28065422191E+03  0.00000000000E+00 0.  1.
         21    1    1    2  503  501 -0.24240425539E+02  0.19633773164E+02  0.59954187571E+02  0.67583932161E+02  0.00000000000E+00 0. -1.
</event>
<event>
 4    1  0.5576842E+002  0.2187458E+02  0.7546771E-02  0.1507135E+00
          2   -1    0    0  503    0  0.00000000000E+00  0.00000000000E+00  0.13427679803E+02  0.13427679803E+02  0.00000000000E+00 0. -1.
         -2   -1    0    0    0  501 -0.00000000000E+00 -0.00000000000E+00 -0.13540262541E+03  0.13540262541E+03  0.00000000000E+00 0.  1.
         21    1    1    2  502  501 -0.19566536947E+02 -0.97799733863E+01 -0.12486415457E+03  0.12676574594E+03  0.00000000000E+00 0.  1.
         21    1    1    2  503  502  0.19566536947E+02  0.97799733863E+01  0.28892089611E+01  0.22064559274E+02  0.00000000000E+00 0. -1.
</event>
<event>
 4    1  0.5576842E+002  0.2193361E+02  0.7546771E-02  0.1506341E+00
          2   -1    0    0  503    0  0.00000000000E+00  0.00000000000E+00  0.20564396252E+03  0.20564396252E+03  0.00000000000E+00 0.  1.
         -2   -1    0    0    0  501 -0.00000000000E+00 -0.00000000000E+00 -0.42916168119E+01  0.42916168119E+01  0.00000000000E+00 0. -1.
         21    1    1    2  502  501 -0.14144472899E+02 -0.16763570157E+02  0.29880020520E+02  0.37066143909E+02  0.00000000000E+00 0. -1.
         21    1    1    2  503  502  0.14144472899E+02  0.16763570157E+02  0.17147232519E+03  0.17286943542E+03  0.00000000000E+00 0.  1.
</event>
<event>
 4    1  0.5576842E+002  0.7848849E+02  0.7546771E-02  0.1207401E+00
          2   -1    0    0  503    0  0.00000000000E+00  0.00000000000E+00  0.49118648347E+03  0.49118648347E+03  0.00000000000E+00 0. -1.
         -2   -1    0    0    0  501 -0.00000000000E+00 -0.00000000000E+00 -0.16898257593E+02  0.16898257593E+02  0.00000000000E+00 0.  1.
         21    1    1    2  502  501  0.73189277679E+02 -0.28350879014E+02  0.10815774512E+03  0.13363585049E+03  0.00000000000E+00 0.  1.
         21    1    1    2  503  502 -0.73189277679E+02  0.28350879014E+02  0.36613048076E+03  0.37444889057E+03  0.00000000000E+00 0. -1.
</event>
<event>
 4    1  0.5576842E+002  0.2492875E+02  0.7546771E-02  0.1469602E+00
          2   -1    0    0  502    0  0.00000000000E+00  0.00000000000E+00  0.10915581733E+04  0.10915581733E+04  0.00000000000E+00 0. -1.
         -2   -1    0    0    0  501 -0.00000000000E+00 -0.00000000000E+00 -0.89802375567E+00  0.89802375567E+00  0.00000000000E+00 0.  1.
         21    1    1    2  502  503  0.23096526201E+02  0.93804688239E+01  0.87580185711E+03  0.87615657027E+03  0.00000000000E+00 0. -1.
         21    1    1    2  503  501 -0.23096526201E+02 -0.93804688239E+01  0.21485829245E+03  0.21629962679E+03  0.00000000000E+00 0.  1.
</event>
<event>
 4    1  0.5576842E+002  0.3185228E+02  0.7546771E-02  0.1404155E+00
          2   -1    0    0  503    0  0.00000000000E+00  0.00000000000E+00  0.67163761568E+03  0.67163761568E+03  0.00000000000E+00 0. -1.
         -2   -1    0    0    0  501 -0.00000000000E+00 -0.00000000000E+00 -0.15108895038E+01  0.15108895038E+01  0.00000000000E+00 0.  1.
         21    1    1    2  502  501 -0.29258530610E+02 -0.12589914120E+02  0.33981994360E+03  0.34130948071E+03  0.00000000000E+00 0. -1.
         21    1    1    2  503  502  0.29258530610E+02  0.12589914120E+02  0.33030678258E+03  0.33183902448E+03  0.00000000000E+00 0.  1.
</event>
<event>
 4    1  0.5576842E+002  0.3066777E+02  0.7546771E-02  0.1413881E+00
          2   -1    0    0  502    0  0.00000000000E+00  0.00000000000E+00  0.19590111777E+03  0.19590111777E+03  0.00000000000E+00 0.  1.
         -2   -1    0    0    0  501 -0.00000000000E+00 -0.00000000000E+00 -0.62952085183E+01  0.62952085183E+01  0.00000000000E+00 0. -1.
         21    1    1    2  502  503  0.28843749088E+02 -0.10418737158E+02  0.14405800000E+03  0.14728618166E+03  0.00000000000E+00 0.  1.
         21    1    1    2  503  501 -0.28843749088E+02  0.10418737158E+02  0.45547909255E+02  0.54910144627E+02  0.00000000000E+00 0. -1.
</event>
<event>
 4    1  0.5576842E+002  0.2169089E+02  0.7546771E-02  0.1509625E+00
          2   -1    0    0  503    0  0.00000000000E+00  0.00000000000E+00  0.18686176958E+04  0.18686176958E+04  0.00000000000E+00 0. -1.
         -2   -1    0    0    0  501 -0.00000000000E+00 -0.00000000000E+00 -0.25881749186E+00  0.25881749186E+00  0.00000000000E+00 0.  1.
         21    1    1    2  502  501 -0.88429613844E+01  0.19806481986E+02  0.78017640351E+03  0.78047787623E+03  0.00000000000E+00 0.  1.
         21    1    1    2  503  502  0.88429613844E+01 -0.19806481986E+02  0.10881824748E+04  0.10883986371E+04  0.00000000000E+00 0. -1.
</event>
<event>
 4    1  0.5576842E+002  0.2219431E+02  0.7546771E-02  0.1502871E+00
          2   -1    0    0  503    0  0.00000000000E+00  0.00000000000E+00  0.31946982215E+03  0.31946982215E+03  0.00000000000E+00 0. -1.
         -2   -1    0    0    0  501 -0.00000000000E+00 -0.00000000000E+00 -0.24506148629E+01  0.24506148629E+01  0.00000000000E+00 0.  1.
         21    1    1    2  502  501 -0.22035693164E+02 -0.26486770605E+01  0.60493536629E+02  0.64436443394E+02  0.00000000000E+00 0.  1.
         21    1    1    2  503  502  0.22035693164E+02  0.26486770605E+01  0.25652567065E+03  0.25748399362E+03  0.00000000000E+00 0. -1.
</event>
<event>
 4    1  0.5576842E+002  0.2411376E+02  0.7546771E-02  0.1478967E+00
          2   -1    0    0  503    0  0.00000000000E+00  0.00000000000E+00  0.19663991641E+01  0.19663991641E+01  0.00000000000E+00 0. -1.
         -2   -1    0    0    0  501 -0.00000000000E+00 -0.00000000000E+00 -0.10064953273E+04  0.10064953273E+04  0.00000000000E+00 0.  1.
         21    1    1    2  502  501  0.45501277233E+01  0.23680580546E+02 -0.92599950199E+03  0.92631341955E+03  0.00000000000E+00 0.  1.
         21    1    1    2  503  502 -0.45501277233E+01 -0.23680580546E+02 -0.78529426099E+02  0.82148306865E+02  0.00000000000E+00 0. -1.
</event>
<event>
 4    1  0.5576842E+002  0.2740369E+02  0.7546771E-02  0.1443595E+00
          2   -1    0    0  502    0  0.00000000000E+00  0.00000000000E+00  0.19150836953E+04  0.19150836953E+04  0.00000000000E+00 0.  1.
         -2   -1    0    0    0  501 -0.00000000000E+00 -0.00000000000E+00 -0.99719925250E+00  0.99719925250E+00  0.00000000000E+00 0. -1.
         21    1    1    2  502  503 -0.21682019968E+02 -0.16758638457E+02  0.17033122120E+04  0.17035326394E+04  0.00000000000E+00 0.  1.
         21    1    1    2  503  501  0.21682019968E+02  0.16758638457E+02  0.21077428410E+03  0.21254825521E+03  0.00000000000E+00 0. -1.
</event>
<event>
 4    1  0.5576842E+002  0.3474270E+02  0.7546771E-02  0.1382381E+00
          2   -1    0    0  502    0  0.00000000000E+00  0.00000000000E+00  0.14215454183E+04  0.14215454183E+04  0.00000000000E+00 0. -1.
         -2   -1    0    0    0  501 -0.00000000000E+00 -0.00000000000E+00 -0.19606135570E+01  0.19606135570E+01  0.00000000000E+00 0.  1.
         21    1    1    2  502  503 -0.16588924860E+02  0.30526429938E+02  0.12456973820E+04  0.12461817776E+04  0.00000000000E+00 0. -1.
         21    1    1    2  503  501  0.16588924860E+02 -0.30526429938E+02  0.17388742283E+03  0.17732425432E+03  0.00000000000E+00 0.  1.
</event>
<event>
 4    1  0.5576842E+002  0.2216038E+02  0.7546771E-02  0.1503319E+00
          2   -1    0    0  503    0  0.00000000000E+00  0.00000000000E+00  0.83484226781E+02  0.83484226781E+02  0.00000000000E+00 0. -1.
         -2   -1    0    0    0  501 -0.00000000000E+00 -0.00000000000E+00 -0.59007208529E+01  0.59007208529E+01  0.00000000000E+00 0.  1.
         21    1    1    2  502  501 -0.54998908651E+01 -0.21467035783E+02  0.41286292553E+02  0.46857660821E+02  0.00000000000E+00 0.  1.
         21    1    1    2  503  502  0.54998908651E+01  0.21467035783E+02  0.36297213375E+02  0.42527286812E+02  0.00000000000E+00 0. -1.
</event>
<event>
 4    1  0.5576842E+002  0.9730011E+02  0.7546771E-02  0.1168570E+00
          2   -1    0    0  503    0  0.00000000000E+00  0.00000000000E+00  0.10197933291E+03  0.10197933291E+03  0.00000000000E+00 0. -1.
         -2   -1    0    0    0  501 -0.00000000000E+00 -0.00000000000E+00 -0.12438135197E+03  0.12438135197E+03  0.00000000000E+00 0.  1.
         21    1    1    2  502  501 -0.76975109468E+02 -0.59515918284E+02  0.45797545566E+02  0.10753942155E+03  0.00000000000E+00 0. -1.
         21    1    1    2  503  502  0.76975109468E+02  0.59515918284E+02 -0.68199564627E+02  0.11882126334E+03  0.00000000000E+00 0.  1.
</event>
<event>
 4    1  0.5576842E+002  0.3062847E+02  0.7546771E-02  0.1414212E+00
          2   -1    0    0  502    0  0.00000000000E+00  0.00000000000E+00  0.15897709714E+04  0.15897709714E+04  0.00000000000E+00 0.  1.
         -2   -1    0    0    0  501 -0.00000000000E+00 -0.00000000000E+00 -0.60713659348E+01  0.60713659348E+01  0.00000000000E+00 0. -1.
         21    1    1    2  502  503  0.29347590935E+02  0.87648031812E+01  0.15500043457E+04  0.15503069292E+04  0.00000000000E+00 0.  1.
         21    1    1    2  503  501 -0.29347590935E+02 -0.87648031812E+01  0.33695259773E+02  0.45535408197E+02  0.00000000000E+00 0. -1.
</event>
<event>
 4    1  0.5576842E+002  0.2100479E+02  0.7546771E-02  0.1519196E+00
          2   -1    0    0  502    0  0.00000000000E+00  0.00000000000E+00  0.16412220511E+04  0.16412220511E+04  0.00000000000E+00 0. -1.
         -2   -1    0    0    0  501 -0.00000000000E+00 -0.00000000000E+00 -0.26968827593E+00  0.26968827593E+00  0.00000000000E+00 0.  1.
         21    1    1    2  502  503 -0.98994498483E+00 -0.20981451229E+02  0.86691572145E+03  0.86717015019E+03  0.00000000000E+00 0.  1.
         21    1    1    2  503  501  0.98994498483E+00  0.20981451229E+02  0.77403664140E+03  0.77432158921E+03  0.00000000000E+00 0. -1.
</event>
<event>
 4    1  0.5576842E+002  0.3612168E+02  0.7546771E-02  0.1372844E+00
          2   -1    0    0  502    0  0.00000000000E+00  0.00000000000E+00  0.52222329393E+03  0.52222329393E+03  0.00000000000E+00 0. -1.
         -2   -1    0    0    0  501 -0.00000000000E+00 -0.00000000000E+00 -0.43199290163E+01  0.43199290163E+01  0.00000000000E+00 0.  1.
         21    1    1    2  502  503 -0.16765205658E+02  0.31995365190E+02  0.42990270840E+03  0.43141756363E+03  0.00000000000E+00 0. -1.
         21    1    1    2  503  501  0.16765205658E+02 -0.31995365190E+02  0.88000656508E+02  0.95125659316E+02  0.00000000000E+00 0.  1.
</event>
<event>
 4    1  0.5576842E+002  0.2625393E+02  0.7546771E-02  0.1455250E+00
          2   -1    0    0  503    0  0.00000000000E+00  0.00000000000E+00  0.18037452154E+04  0.18037452154E+04  0.00000000000E+00 0. -1.
         -2   -1    0    0    0  501 -0.00000000000E+00 -0.00000000000E+00 -0.38213234616E+00  0.38213234616E+00  0.00000000000E+00 0.  1.
         21    1    1    2  502  501 -0.78513360950E+01  0.25052450412E+02  0.90081171657E+03  0.90119421739E+03  0.00000000000E+00 0.  1.
         21    1    1    2  503  502  0.78513360950E+01 -0.25052450412E+02  0.90255136646E+03  0.90293313033E+03  0.00000000000E+00 0. -1.
</event>
<event>
 4    1  0.5576842E+002  0.2280783E+02  0.7546771E-02  0.1494925E+00
          2   -1    0    0  502    0  0.00000000000E+00  0.00000000000E+00  0.20087324796E+04  0.20087324796E+04  0.00000000000E+00 0. -1.
         -2   -1    0    0    0  501 -0.00000000000E+00 -0.00000000000E+00 -0.25931929995E+00  0.25931929995E+00  0.00000000000E+00 0.  1.
         21    1    1    2  502  503 -0.37688290115E+01 -0.22494285314E+02  0.10412211158E+04  0.10414708872E+04  0.00000000000E+00 0.  1.
         21    1    1    2  503  501  0.37688290115E+01  0.22494285314E+02  0.96725204447E+03  0.96752091165E+03  0.00000000000E+00 0. -1.
</event>
<event>
 4    1  0.5576842E+002  0.2437152E+02  0.7546771E-02  0.1475958E+00
          2   -1    0    0  502    0  0.00000000000E+00  0.00000000000E+00  0.28251289308E+02  0.28251289308E+02  0.00000000000E+00 0.  1.
         -2   -1    0    0    0  501 -0.00000000000E+00 -0.00000000000E+00 -0.33376496855E+02  0.33376496855E+02  0.00000000000E+00 0. -1.
         21    1    1    2  502  503 -0.38198565204E+01 -0.24070303326E+02  0.16182756951E+02  0.29254955624E+02  0.00000000000E+00 0.  1.
         21    1    1    2  503  501  0.38198565204E+01  0.24070303326E+02 -0.21307964498E+02  0.32372830539E+02  0.00000000000E+00 0. -1.
</event>
<event>
 4    1  0.5576842E+002  0.3312889E+02  0.7546771E-02  0.1394217E+00
          2   -1    0    0  502    0  0.00000000000E+00  0.00000000000E+00  0.14096241434E+04  0.14096241434E+04  0.00000000000E+00 0. -1.
         -2   -1    0    0    0  501 -0.00000000000E+00 -0.00000000000E+00 -0.12360033809E+01  0.12360033809E+01  0.00000000000E+00 0.  1.
         21    1    1    2  502  503  0.27049235597E+01 -0.33018275562E+02  0.11333323635E+04  0.11338164619E+04  0.00000000000E+00 0. -1.
         21    1    1    2  503  501 -0.27049235597E+01  0.33018275562E+02  0.27505577653E+03  0.27704368488E+03  0.00000000000E+00 0.  1.
</event>
<event>
 4    1  0.5576842E+002  0.2946100E+02  0.7546771E-02  0.1424339E+00
          2   -1    0    0  503    0  0.00000000000E+00  0.00000000000E+00  0.56808531716E+02  0.56808531716E+02  0.00000000000E+00 0.  1.
         -2   -1    0    0    0  501 -0.00000000000E+00 -0.00000000000E+00 -0.82355915679E+02  0.82355915679E+02  0.00000000000E+00 0. -1.
         21    1    1    2  502  501  0.16543466319E+00 -0.29460531634E+02 -0.75570706860E+02  0.81110307780E+02  0.00000000000E+00 0. -1.
         21    1    1    2  503  502 -0.16543466319E+00  0.29460531634E+02  0.50023322897E+02  0.58054139615E+02  0.00000000000E+00 0.  1.
</event>
<event>
 4    1  0.5576842E+002  0.4055169E+02  0.7546771E-02  0.1345283E+00
          2   -1    0    0  503    0  0.00000000000E+00  0.00000000000E+00  0.91717656260E+03  0.91717656260E+03  0.00000000000E+00 0. -1.
         -2   -1    0    0    0  501 -0.00000000000E+00 -0.00000000000E+00 -0.57428321348E+01  0.57428321348E+01  0.00000000000E+00 0.  1.
         21    1    1    2  502  501 -0.32965375333E+02 -0.23616166234E+02  0.73012399659E+02  0.83517960838E+02  0.00000000000E+00 0.  1.
         21    1    1    2  503  502  0.32965375333E+02  0.23616166234E+02  0.83842133081E+03  0.83940143390E+03  0.00000000000E+00 0. -1.
</event>
<event>
 4    1  0.5576842E+002  0.2058375E+02  0.7546771E-02  0.1525292E+00
          2   -1    0    0  502    0  0.00000000000E+00  0.00000000000E+00  0.44889147099E+03  0.44889147099E+03  0.00000000000E+00 0.  1.
         -2   -1    0    0    0  501 -0.00000000000E+00 -0.00000000000E+00 -0.11513964502E+01  0.11513964502E+01  0.00000000000E+00 0. -1.
         21    1    1    2  502  503  0.15231739894E+02  0.13845023766E+02  0.31940424743E+03  0.32006681155E+03  0.00000000000E+00 0.  1.
         21    1    1    2  503  501 -0.15231739894E+02 -0.13845023766E+02  0.12833582711E+03  0.12997605589E+03  0.00000000000E+00 0. -1.
</event>
<event>
 4    1  0.5576842E+002  0.2863049E+02  0.7546771E-02  0.1431883E+00
          2   -1    0    0  502    0  0.00000000000E+00  0.00000000000E+00  0.52204566750E+03  0.52204566750E+03  0.00000000000E+00 0. -1.
         -2   -1    0    0    0  501 -0.00000000000E+00 -0.00000000000E+00 -0.64309123643E+01  0.64309123643E+01  0.00000000000E+00 0.  1.
         21    1    1    2  502  503  0.26944234360E+02  0.96805440185E+01  0.48753350512E+03  0.48837344657E+03  0.00000000000E+00 0. -1.
         21    1    1    2  503  501 -0.26944234360E+02 -0.96805440185E+01  0.28081250016E+02  0.40103133297E+02  0.00000000000E+00 0.  1.
</event>
<event>
 4    1  0.5576842E+002  0.3343679E+02  0.7546771E-02  0.1391899E+00
          2   -1    0    0  502    0  0.00000000000E+00  0.00000000000E+00  0.14731989115E+04  0.14731989115E+04  0.00000000000E+00 0. -1.
         -2   -1    0    0    0  501 -0.00000000000E+00 -0.00000000000E+00 -0.98781050189E+00  0.98781050189E+00  0.00000000000E+00 0.  1.
         21    1    1    2  502  503 -0.46744018213E+01  0.33108439380E+02  0.10909298053E+04  0.10914421006E+04  0.00000000000E+00 0. -1.
         21    1    1    2  503  501  0.46744018213E+01 -0.33108439380E+02  0.38128129562E+03  0.38274462136E+03  0.00000000000E+00 0.  1.
</event>
<event>
 4    1  0.5576842E+002  0.2252431E+02  0.7546771E-02  0.1498559E+00
          2   -1    0    0  502    0  0.00000000000E+00  0.00000000000E+00  0.10019563848E+02  0.10019563848E+02  0.00000000000E+00 0. -1.
         -2   -1    0    0    0  501 -0.00000000000E+00 -0.00000000000E+00 -0.21547581039E+03  0.21547581039E+03  0.00000000000E+00 0.  1.
         21    1    1    2  502  503 -0.21736274578E+02  0.59058319738E+01 -0.41137447434E+01  0.22896885807E+02  0.00000000000E+00 0. -1.
         21    1    1    2  503  501  0.21736274578E+02 -0.59058319738E+01 -0.20134250179E+03  0.20259848843E+03  0.00000000000E+00 0.  1.
</event>
<event>
 4    1  0.5576842E+002  0.2307835E+02  0.7546771E-02  0.1491517E+00
          2   -1    0    0  502    0  0.00000000000E+00  0.00000000000E+00  0.47127771064E+01  0.47127771064E+01  0.00000000000E+00 0.  1.
         -2   -1    0    0    0  501 -0.00000000000E+00 -0.00000000000E+00 -0.33054788654E+03  0.33054788654E+03  0.00000000000E+00 0. -1.
         21    1    1    2  502  503  0.12863354291E+02  0.19161011686E+02 -0.26930122156E+02  0.35466064509E+02  0.00000000000E+00 0.  1.
         21    1    1    2  503  501 -0.12863354291E+02 -0.19161011686E+02 -0.29890498728E+03  0.29979459914E+03  0.00000000000E+00 0. -1.
</event>
<event>
 4    1  0.5576842E+002  0.5448412E+02  0.7546771E-02  0.1279820E+00
          2   -1    0    0  502    0  0.00000000000E+00  0.00000000000E+00  0.88471074841E+03  0.88471074841E+03  0.00000000000E+00 0. -1.
         -2   -1    0    0    0  501 -0.00000000000E+00 -0.00000000000E+00 -0.50697708435E+01  0.50697708435E+01  0.00000000000E+00 0.  1.
         21    1    1    2  502  503  0.61542497594E+00 -0.54480644088E+02  0.69853257558E+03  0.70065417894E+03  0.00000000000E+00 0. -1.
         21    1    1    2  503  501 -0.61542497594E+00  0.54480644088E+02  0.18110840199E+03  0.18912634031E+03  0.00000000000E+00 0.  1.
</event>
<event>
 4    1  0.5576842E+002  0.4737790E+02  0.7546771E-02  0.1309960E+00
          2   -1    0    0  503    0  0.00000000000E+00  0.00000000000E+00  0.19507973406E+02  0.19507973406E+02  0.00000000000E+00 0.  1.
         -2   -1    0    0    0  501 -0.00000000000E+00 -0.00000000000E+00 -0.28725793278E+03  0.28725793278E+03  0.00000000000E+00 0. -1.
         21    1    1    2  502  501 -0.21795428693E+02 -0.42066912334E+02 -0.25262945305E+03  0.25703366778E+03  0.00000000000E+00 0. -1.
         21    1    1    2  503  502  0.21795428693E+02  0.42066912334E+02 -0.15120506325E+02  0.49732238405E+02  0.00000000000E+00 0.  1.
</event>
<event>
 4    1  0.5576842E+002  0.2535660E+02  0.7546771E-02  0.1464853E+00
          2   -1    0    0  503    0  0.00000000000E+00  0.00000000000E+00  0.49728122827E+01  0.49728122827E+01  0.00000000000E+00 0.  1.
         -2   -1    0    0    0  501 -0.00000000000E+00 -0.00000000000E+00 -0.20948322401E+03  0.20948322401E+03  0.00000000000E+00 0. -1.
         21    1    1    2  502  501 -0.57295349057E+00  0.25350122190E+02 -0.16859749812E+03  0.17049361672E+03  0.00000000000E+00 0. -1.
         21    1    1    2  503  502  0.57295349057E+00 -0.25350122190E+02 -0.35912913609E+02  0.43962419572E+02  0.00000000000E+00 0.  1.
</event>
<event>
 4    1  0.5576842E+002  0.3722118E+02  0.7546771E-02  0.1365587E+00
          2   -1    0    0  502    0  0.00000000000E+00  0.00000000000E+00  0.12445975298E+02  0.12445975298E+02  0.00000000000E+00 0. -1.
         -2   -1    0    0    0  501 -0.00000000000E+00 -0.00000000000E+00 -0.11178944013E+03  0.11178944013E+03  0.00000000000E+00 0.  1.
         21    1    1    2  502  503  0.37200039971E+02  0.12544101387E+01 -0.53720950313E+02  0.65355619660E+02  0.00000000000E+00 0.  1.
         21    1    1    2  503  501 -0.37200039971E+02 -0.12544101387E+01 -0.45622514519E+02  0.58879795768E+02  0.00000000000E+00 0. -1.
</event>
<event>
 4    1  0.5576842E+002  0.2288284E+02  0.7546771E-02  0.1493975E+00
          2   -1    0    0  502    0  0.00000000000E+00  0.00000000000E+00  0.88952426956E+01  0.88952426956E+01  0.00000000000E+00 0.  1.
         -2   -1    0    0    0  501 -0.00000000000E+00 -0.00000000000E+00 -0.65088876270E+02  0.65088876270E+02  0.00000000000E+00 0. -1.
         21    1    1    2  502  503  0.89459559492E+01  0.21061680797E+02 -0.16658508147E+02  0.28304247376E+02  0.00000000000E+00 0.  1.
         21    1    1    2  503  501 -0.89459559492E+01 -0.21061680797E+02 -0.39535125427E+02  0.45679871589E+02  0.00000000000E+00 0. -1.
</event>
<event>
 4    1  0.5576842E+002  0.6934988E+02  0.7546771E-02  0.1230996E+00
          2   -1    0    0  502    0  0.00000000000E+00  0.00000000000E+00  0.29817568912E+03  0.29817568912E+03  0.00000000000E+00 0.  1.
         -2   -1    0    0    0  501 -0.00000000000E+00 -0.00000000000E+00 -0.21968145756E+02  0.21968145756E+02  0.00000000000E+00 0. -1.
         21    1    1    2  502  503 -0.66623284526E+02 -0.19254707069E+02  0.22062712718E+03  0.23126983166E+03  0.00000000000E+00 0.  1.
         21    1    1    2  503  501  0.66623284526E+02  0.19254707069E+02  0.55580416177E+02  0.88874003217E+02  0.00000000000E+00 0. -1.
</event>
<event>
 4    1  0.5576842E+002  0.2064794E+02  0.7546771E-02  0.1524351E+00
          2   -1    0    0  502    0  0.00000000000E+00  0.00000000000E+00  0.41249133161E+01  0.41249133161E+01  0.00000000000E+00 0.  1.
         -2   -1    0    0    0  501 -0.00000000000E+00 -0.00000000000E+00 -0.10412494227E+03  0.10412494227E+03  0.00000000000E+00 0. -1.
         21    1    1    2  502  503  0.18836741659E+02 -0.84566338464E+01 -0.54649069040E+02  0.58419673392E+02  0.00000000000E+00 0. -1.
         21    1    1    2  503  501 -0.18836741659E+02  0.84566338464E+01 -0.45350959916E+02  0.49830182196E+02  0.00000000000E+00 0.  1.
</event>
<event>
 4    1  0.5576842E+002  0.2806525E+02  0.7546771E-02  0.1437191E+00
          2   -1    0    0  502    0  0.00000000000E+00  0.00000000000E+00  0.42344683929E+03  0.42344683929E+03  0.00000000000E+00 0. -1.
         -2   -1    0    0    0  501 -0.00000000000E+00 -0.00000000000E+00 -0.18925437163E+01  0.18925437163E+01  0.00000000000E+00 0.  1.
         21    1    1    2  502  503  0.28044321135E+02 -0.10836250128E+01  0.23861740458E+03  0.24026219836E+03  0.00000000000E+00 0. -1.
         21    1    1    2  503  501 -0.28044321135E+02  0.10836250128E+01  0.18293689099E+03  0.18507718465E+03  0.00000000000E+00 0.  1.
</event>
<event>
 4    1  0.5576842E+002  0.2590472E+02  0.7546771E-02  0.1458932E+00
          2   -1    0    0  502    0  0.00000000000E+00  0.00000000000E+00  0.22457325832E+01  0.22457325832E+01  0.00000000000E+00 0. -1.
         -2   -1    0    0    0  501 -0.00000000000E+00 -0.00000000000E+00 -0.31825081924E+03  0.31825081924E+03  0.00000000000E+00 0.  1.
         21    1    1    2  502  503 -0.23961887387E+02 -0.98428868641E+01 -0.11839932436E+03  0.12120005973E+03  0.00000000000E+00 0. -1.
         21    1    1    2  503  501  0.23961887387E+02  0.98428868641E+01 -0.19760576229E+03  0.19929649209E+03  0.00000000000E+00 0.  1.
</event>
<event>
 4    1  0.5576842E+002  0.2682145E+02  0.7546771E-02  0.1449410E+00
          2   -1    0    0  503    0  0.00000000000E+00  0.00000000000E+00  0.42221161129E+03  0.42221161129E+03  0.00000000000E+00 0. -1.
         -2   -1    0    0    0  501 -0.00000000000E+00 -0.00000000000E+00 -0.18194360859E+01  0.18194360859E+01  0.00000000000E+00 0.  1.
         21    1    1    2  502  501 -0.18303892366E+02  0.19605041273E+02  0.15676052472E+03  0.15903852435E+03  0.00000000000E+00 0. -1.
         21    1    1    2  503  502  0.18303892366E+02 -0.19605041273E+02  0.26363165048E+03  0.26499252302E+03  0.00000000000E+00 0.  1.
</event>
<event>
 4    1  0.5576842E+002  0.5428861E+02  0.7546771E-02  0.1280578E+00
          2   -1    0    0  502    0  0.00000000000E+00  0.00000000000E+00  0.60263507384E+02  0.60263507384E+02  0.00000000000E+00 0. -1.
         -2   -1    0    0    0  501 -0.00000000000E+00 -0.00000000000E+00 -0.64424095134E+02  0.64424095134E+02  0.00000000000E+00 0.  1.
         21    1    1    2  502  503  0.43348478006E+02 -0.32682754225E+02  0.28517277421E+02  0.61322818597E+02  0.00000000000E+00 0. -1.
         21    1    1    2  503  501 -0.43348478006E+02  0.32682754225E+02 -0.32677865171E+02  0.63364783921E+02  0.00000000000E+00 0.  1.
</event>
<event>
 4    1  0.5576842E+002  0.2051687E+02  0.7546771E-02  0.1526276E+00
          2   -1    0    0  502    0  0.00000000000E+00  0.00000000000E+00  0.46887695513E+02  0.46887695513E+02  0.00000000000E+00 0.  1.
         -2   -1    0    0    0  501 -0.00000000000E+00 -0.00000000000E+00 -0.42438703554E+02  0.42438703554E+02  0.00000000000E+00 0. -1.
         21    1    1    2  502  503 -0.12955376877E+02  0.15909128259E+02  0.41883195382E+02  0.46638441305E+02  0.00000000000E+00 0.  1.
         21    1    1    2  503  501  0.12955376877E+02 -0.15909128259E+02 -0.37434203422E+02  0.42687957762E+02  0.00000000000E+00 0. -1.
</event>
<event>
 4    1  0.5576842E+002  0.2340664E+02  0.7546771E-02  0.1487454E+00
          2   -1    0    0  503    0  0.00000000000E+00  0.00000000000E+00  0.71961661879E+02  0.71961661879E+02  0.00000000000E+00 0. -1.
         -2   -1    0    0    0  501 -0.00000000000E+00 -0.00000000000E+00 -0.23514242882E+02  0.23514242882E+02  0.00000000000E+00 0.  1.
         21    1    1    2  502  501  0.15265844078E+02 -0.17743301736E+02 -0.15032536906E+02  0.27818122110E+02  0.00000000000E+00 0.  1.
         21    1    1    2  503  502 -0.15265844078E+02  0.17743301736E+02  0.63479955902E+02  0.67657782651E+02  0.00000000000E+00 0. -1.
</event>
<event>
 4    1  0.5576842E+002  0.2065660E+02  0.7546771E-02  0.1524225E+00
          2   -1    0    0  503    0  0.00000000000E+00  0.00000000000E+00  0.22925049344E+02  0.22925049344E+02  0.00000000000E+00 0. -1.
         -2   -1    0    0    0  501 -0.00000000000E+00 -0.00000000000E+00 -0.14869126803E+03  0.14869126803E+03  0.00000000000E+00 0.  1.
         21    1    1    2  502  501 -0.13491614300E+02  0.15641979144E+02 -0.14314120710E+03  0.14462399641E+03  0.00000000000E+00 0.  1.
         21    1    1    2  503  502  0.13491614300E+02 -0.15641979144E+02  0.17374988421E+02  0.26992320956E+02  0.00000000000E+00 0. -1.
</event>
<event>
 4    1  0.5576842E+002  0.3913354E+02  0.7546771E-02  0.1353639E+00
          2   -1    0    0  502    0  0.00000000000E+00  0.00000000000E+00  0.98555797327E+03  0.98555797327E+03  0.00000000000E+00 0.  1.
         -2   -1    0    0    0  501 -0.00000000000E+00 -0.00000000000E+00 -0.19235181031E+01  0.19235181031E+01  0.00000000000E+00 0. -1.
         21    1    1    2  502  503 -0.24481512919E+02 -0.30530135927E+02  0.70825958982E+03  0.70933989050E+03  0.00000000000E+00 0.  1.
         21    1    1    2  503  501  0.24481512919E+02  0.30530135927E+02  0.27537486534E+03  0.27814160087E+03  0.00000000000E+00 0. -1.
</event>
<event>
 4    1  0.5576842E+002  0.2236477E+02  0.7546771E-02  0.1500633E+00
          2   -1    0    0  503    0  0.00000000000E+00  0.00000000000E+00  0.12654360566E+03  0.12654360566E+03  0.00000000000E+00 0.  1.
         -2   -1    0    0    0  501 -0.00000000000E+00 -0.00000000000E+00 -0.72766574291E+01  0.72766574291E+01  0.00000000000E+00 0. -1.
         21    1    1    2  502  501 -0.17575778212E+02  0.13830220561E+02  0.14410751380E+02  0.26605501985E+02  0.00000000000E+00 0. -1.
         21    1    1    2  503  502  0.17575778212E+02 -0.13830220561E+02  0.10485619686E+03  0.10721476111E+03  0.00000000000E+00 0.  1.
</event>
<event>
 4    1  0.5576842E+002  0.3424492E+02  0.7546771E-02  0.1385951E+00
          2   -1    0    0  503    0  0.00000000000E+00  0.00000000000E+00  0.27422188738E+03  0.27422188738E+03  0.00000000000E+00 0.  1.
         -2   -1    0    0    0  501 -0.00000000000E+00 -0.00000000000E+00 -0.42899848734E+01  0.42899848734E+01  0.00000000000E+00 0. -1.
         21    1    1    2  502  501 -0.33942081405E+02 -0.45442206781E+01  0.14276819584E+03  0.14681782104E+03  0.00000000000E+00 0.  1.
         21    1    1    2  503  502  0.33942081405E+02  0.45442206781E+01  0.12716370666E+03  0.13169405121E+03  0.00000000000E+00 0. -1.
</event>
<event>
 4    1  0.5576842E+002  0.2876838E+02  0.7546771E-02  0.1430610E+00
          2   -1    0    0  503    0  0.00000000000E+00  0.00000000000E+00  0.17588054840E+03  0.17588054840E+03  0.00000000000E+00 0. -1.
         -2   -1    0    0    0  501 -0.00000000000E+00 -0.00000000000E+00 -0.66590850452E+01  0.66590850452E+01  0.00000000000E+00 0.  1.
         21    1    1    2  502  501  0.21496182141E+02  0.19118939608E+02  0.13404491357E+03  0.13709725947E+03  0.00000000000E+00 0. -1.
         21    1    1    2  503  502 -0.21496182141E+02 -0.19118939608E+02  0.35176549787E+02  0.45442373984E+02  0.00000000000E+00 0.  1.
</event>
<event>
 4    1  0.5576842E+002  0.3243224E+02  0.7546771E-02  0.1399574E+00
          2   -1    0    0  503    0  0.00000000000E+00  0.00000000000E+00  0.21195644194E+02  0.21195644194E+02  0.00000000000E+00 0. -1.
         -2   -1    0    0    0  501 -0.00000000000E+00 -0.00000000000E+00 -0.49924869054E+02  0.49924869054E+02  0.00000000000E+00 0.  1.
         21    1    1    2  502  501 -0.29331808748E+02  0.13838172742E+02 -0.17117056769E+02  0.36672110134E+02  0.00000000000E+00 0.  1.
         21    1    1    2  503  502  0.29331808748E+02 -0.13838172742E+02 -0.11612168091E+02  0.34448403113E+02  0.00000000000E+00 0. -1.
</event>
<event>
 4    1  0.5576842E+002  0.2680586E+02  0.7546771E-02  0.1449568E+00
          2   -1    0    0  502    0  0.00000000000E+00  0.00000000000E+00  0.10815165669E+04  0.10815165669E+04  0.00000000000E+00 0. -1.
         -2   -1    0    0    0  501 -0.00000000000E+00 -0.00000000000E+00 -0.19762946036E+01  0.19762946036E+01  0.00000000000E+00 0.  1.
         21    1    1    2  502  503  0.45517035249E+00  0.26801991680E+02  0.98115817157E+03  0.98152427967E+03  0.00000000000E+00 0. -1.
         21    1    1    2  503  501 -0.45517035249E+00 -0.26801991680E+02  0.98382100687E+02  0.10196858180E+03  0.00000000000E+00 0.  1.
</event>
<event>
 4    1  0.5576842E+002  0.2271630E+02  0.7546771E-02  0.1496092E+00
          2   -1    0    0  503    0  0.00000000000E+00  0.00000000000E+00  0.19386879223E+04  0.19386879223E+04  0.00000000000E+00 0.  1.
         -2   -1    0    0    0  501 -0.00000000000E+00 -0.00000000000E+00 -0.51170815106E+00  0.51170815106E+00  0.00000000000E+00 0. -1.
         21    1    1    2  502  501  0.15348268465E+02  0.16746974801E+02  0.29744848240E+03  0.29831464964E+03  0.00000000000E+00 0. -1.
         21    1    1    2  503  502 -0.15348268465E+02 -0.16746974801E+02  0.16407277317E+04  0.16408849808E+04  0.00000000000E+00 0.  1.
</event>
<event>
 4    1  0.5576842E+002  0.2335768E+02  0.7546771E-02  0.1488055E+00
          2   -1    0    0  502    0  0.00000000000E+00  0.00000000000E+00  0.15159737980E+04  0.15159737980E+04  0.00000000000E+00 0. -1.
         -2   -1    0    0    0  501 -0.00000000000E+00 -0.00000000000E+00 -0.39093446840E+00  0.39093446840E+00  0.00000000000E+00 0.  1.
         21    1    1    2  502  503  0.20646222574E+02 -0.10923120765E+02  0.54412985137E+03  0.54463095415E+03  0.00000000000E+00 0.  1.
         21    1    1    2  503  501 -0.20646222574E+02  0.10923120765E+02  0.97145301215E+03  0.97173377830E+03  0.00000000000E+00 0. -1.
</event>
<event>
 4    1  0.5576842E+002  0.2099065E+02  0.7546771E-02  0.1519398E+00
          2   -1    0    0  503    0  0.00000000000E+00  0.00000000000E+00  0.19669395252E+03  0.19669395252E+03  0.00000000000E+00 0.  1.
         -2   -1    0    0    0  501 -0.00000000000E+00 -0.00000000000E+00 -0.27521900917E+01  0.27521900917E+01  0.00000000000E+00 0. -1.
         21    1    1    2  502  501  0.20775958371E+02 -0.29945123148E+01  0.53953517845E+02  0.57892915267E+02  0.00000000000E+00 0. -1.
         21    1    1    2  503  502 -0.20775958371E+02  0.29945123148E+01  0.13998824458E+03  0.14155322734E+03  0.00000000000E+00 0.  1.
</event>
<event>
 4    1  0.5576842E+002  0.2087193E+02  0.7546771E-02  0.1521101E+00
          2   -1    0    0  503    0  0.00000000000E+00  0.00000000000E+00  0.79884733432E+01  0.79884733432E+01  0.00000000000E+00 0.  1.
         -2   -1    0    0    0  501 -0.00000000000E+00 -0.00000000000E+00 -0.11677924729E+03  0.11677924729E+03  0.00000000000E+00 0. -1.
         21    1    1    2  502  501  0.17099140824E+02  0.11968990911E+02 -0.99940852747E+02  0.10209706856E+03  0.00000000000E+00 0. -1.
         21    1    1    2  503  502 -0.17099140824E+02 -0.11968990911E+02 -0.88499212024E+01  0.22670652078E+02  0.00000000000E+00 0.  1.
</event>
<event>
 4    1  0.5576842E+002  0.2064689E+02  0.7546771E-02  0.1524367E+00
          2   -1    0    0  502    0  0.00000000000E+00  0.00000000000E+00  0.54854257216E+01  0.54854257216E+01  0.00000000000E+00 0. -1.
         -2   -1    0    0    0  501 -0.00000000000E+00 -0.00000000000E+00 -0.23449100344E+03  0.23449100344E+03  0.00000000000E+00 0.  1.
         21    1    1    2  502  503  0.17517036423E+01 -0.20572448007E+02 -0.16392003563E+02  0.26362698334E+02  0.00000000000E+00 0. -1.
         21    1    1    2  503  501 -0.17517036423E+01  0.20572448007E+02 -0.21261357416E+03  0.21361373083E+03  0.00000000000E+00 0.  1.
</event>
<event>
 4    1  0.5576842E+002  0.3034266E+02  0.7546771E-02  0.1416642E+00
          2   -1    0    0  502    0  0.00000000000E+00  0.00000000000E+00  0.48793187294E+03  0.48793187294E+03  0.00000000000E+00 0. -1.
         -2   -1    0    0    0  501 -0.00000000000E+00 -0.00000000000E+00 -0.47229821146E+01  0.47229821146E+01  0.00000000000E+00 0.  1.
         21    1    1    2  502  503  0.23562342044E+02  0.19117865082E+02  0.43248615818E+03  0.43354925181E+03  0.00000000000E+00 0. -1.
         21    1    1    2  503  501 -0.23562342044E+02 -0.19117865082E+02  0.50722732646E+02  0.59105603245E+02  0.00000000000E+00 0.  1.
</event>
<event>
 4    1  0.5576842E+002  0.2125256E+02  0.7546771E-02  0.1515689E+00
          2   -1    0    0  502    0  0.00000000000E+00  0.00000000000E+00  0.64103575751E+02  0.64103575751E+02  0.00000000000E+00 0.  1.
         -2   -1    0    0    0  501 -0.00000000000E+00 -0.00000000000E+00 -0.26565826056E+02  0.26565826056E+02  0.00000000000E+00 0. -1.
         21    1    1    2  502  503 -0.21144163757E+02  0.21437402654E+01  0.57629295727E+02  0.61423179739E+02  0.00000000000E+00 0.  1.
         21    1    1    2  503  501  0.21144163757E+02 -0.21437402654E+01 -0.20091546032E+02  0.29246222068E+02  0.00000000000E+00 0. -1.
</event>
<event>
 4    1  0.5576842E+002  0.2316856E+02  0.7546771E-02  0.1490392E+00
          2   -1    0    0  503    0  0.00000000000E+00  0.00000000000E+00  0.11350161914E+04  0.11350161914E+04  0.00000000000E+00 0. -1.
         -2   -1    0    0    0  501 -0.00000000000E+00 -0.00000000000E+00 -0.57471505829E+01  0.57471505829E+01  0.00000000000E+00 0.  1.
         21    1    1    2  502  501  0.11793636460E+02 -0.19942219518E+02  0.18224742793E+02  0.29477503797E+02  0.00000000000E+00 0.  1.
         21    1    1    2  503  502 -0.11793636460E+02  0.19942219518E+02  0.11110442980E+04  0.11112858382E+04  0.00000000000E+00 0. -1.
</event>
<event>
 4    1  0.5576842E+002  0.2446562E+02  0.7546771E-02  0.1474871E+00
          2   -1    0    0  502    0  0.00000000000E+00  0.00000000000E+00  0.10767398907E+04  0.10767398907E+04  0.00000000000E+00 0. -1.
         -2   -1    0    0    0  501 -0.00000000000E+00 -0.00000000000E+00 -0.12415341106E+01  0.12415341106E+01  0.00000000000E+00 0.  1.
         21    1    1    2  502  503  0.23531296502E+02  0.66966065892E+01  0.93828943910E+03  0.93860835176E+03  0.00000000000E+00 0. -1.
         21    1    1    2  503  501 -0.23531296502E+02 -0.66966065892E+01  0.13720891751E+03  0.13937307307E+03  0.00000000000E+00 0.  1.
</event>
<event>
 4    1  0.5576842E+002  0.2939604E+02  0.7546771E-02  0.1424918E+00
          2   -1    0    0  503    0  0.00000000000E+00  0.00000000000E+00  0.43342655075E+02  0.43342655075E+02  0.00000000000E+00 0.  1.
         -2   -1    0    0    0  501 -0.00000000000E+00 -0.00000000000E+00 -0.32560949597E+02  0.32560949597E+02  0.00000000000E+00 0. -1.
         21    1    1    2  502  501 -0.51306175517E+01 -0.28944840945E+02 -0.18240016593E+02  0.34595162366E+02  0.00000000000E+00 0. -1.
         21    1    1    2  503  502  0.51306175517E+01  0.28944840945E+02  0.29021722071E+02  0.41308442306E+02  0.00000000000E+00 0.  1.
</event>
<event>
 4    1  0.5576842E+002  0.2587476E+02  0.7546771E-02  0.1459251E+00
          2   -1    0    0  502    0  0.00000000000E+00  0.00000000000E+00  0.10991305184E+04  0.10991305184E+04  0.00000000000E+00 0.  1.
         -2   -1    0    0    0  501 -0.00000000000E+00 -0.00000000000E+00 -0.91501732361E+00  0.91501732361E+00  0.00000000000E+00 0. -1.
         21    1    1    2  502  503  0.12420286037E+02 -0.22698895574E+02  0.86712685627E+03  0.86751281733E+03  0.00000000000E+00 0.  1.
         21    1    1    2  503  501 -0.12420286037E+02  0.22698895574E+02  0.23108864481E+03  0.23253271840E+03  0.00000000000E+00 0. -1.
</event>
<event>
 4    1  0.5576842E+002  0.2722562E+02  0.7546771E-02  0.1445355E+00
          2   -1    0    0  503    0  0.00000000000E+00  0.00000000000E+00  0.34519622206E+03  0.34519622206E+03  0.00000000000E+00 0.  1.
         -2   -1    0    0    0  501 -0.00000000000E+00 -0.00000000000E+00 -0.31962479326E+01  0.31962479326E+01  0.00000000000E+00 0. -1.
         21    1    1    2  502  501 -0.61294626568E+01 -0.26526669555E+02  0.71207303720E+02  0.76234602467E+02  0.00000000000E+00 0. -1.
         21    1    1    2  503  502  0.61294626568E+01  0.26526669555E+02  0.27079267041E+03  0.27215786752E+03  0.00000000000E+00 0.  1.
</event>
<event>
 4    1  0.5576842E+002  0.3010894E+02  0.7546771E-02  0.1418652E+00
          2   -1    0    0  503    0  0.00000000000E+00  0.00000000000E+00  0.36539396177E+03  0.36539396177E+03  0.00000000000E+00 0. -1.
         -2   -1    0    0    0  501 -0.00000000000E+00 -0.00000000000E+00 -0.27312940743E+01  0.27312940743E+01  0.00000000000E+00 0.  1.
         21    1    1    2  502  501  0.15617751968E+01 -0.30068404933E+02  0.12561363881E+03  0.12917172435E+03  0.00000000000E+00 0.  1.
         21    1    1    2  503  502 -0.15617751968E+01  0.30068404933E+02  0.23704902889E+03  0.23895353150E+03  0.00000000000E+00 0. -1.
</event>
<event>
 4    1  0.5576842E+002  0.2033080E+02  0.7546771E-02  0.1529037E+00
          2   -1    0    0  502    0  0.00000000000E+00  0.00000000000E+00  0.36925032944E+01  0.36925032944E+01  0.00000000000E+00 0.  1.
         -2   -1    0    0    0  501 -0.00000000000E+00 -0.00000000000E+00 -0.16904230748E+03  0.16904230748E+03  0.00000000000E+00 0. -1.
         21    1    1    2  502  503  0.18623537622E+02  0.81550755798E+01 -0.32478068138E+02  0.38316658535E+02  0.00000000000E+00 0.  1.
         21    1    1    2  503  501 -0.18623537622E+02 -0.81550755798E+01 -0.13287173605E+03  0.13441815224E+03  0.00000000000E+00 0. -1.
</event>
<event>
 4    1  0.5576842E+002  0.2673607E+02  0.7546771E-02  0.1450278E+00
          2   -1    0    0  502    0  0.00000000000E+00  0.00000000000E+00  0.19343252428E+02  0.19343252428E+02  0.00000000000E+00 0.  1.
         -2   -1    0    0    0  501 -0.00000000000E+00 -0.00000000000E+00 -0.45755859591E+02  0.45755859591E+02  0.00000000000E+00 0. -1.
         21    1    1    2  502  503  0.15405857529E+02  0.21851244634E+02 -0.27482097507E+02  0.38341661696E+02  0.00000000000E+00 0. -1.
         21    1    1    2  503  501 -0.15405857529E+02 -0.21851244634E+02  0.10694903435E+01  0.26757450324E+02  0.00000000000E+00 0.  1.
</event>
<event>
 4    1  0.5576842E+002  0.2917747E+02  0.7546771E-02  0.1426881E+00
          2   -1    0    0  503    0  0.00000000000E+00  0.00000000000E+00  0.43908817808E+01  0.43908817808E+01  0.00000000000E+00 0. -1.
         -2   -1    0    0    0  501 -0.00000000000E+00 -0.00000000000E+00 -0.22625456584E+03  0.22625456584E+03  0.00000000000E+00 0.  1.
         21    1    1    2  502  501 -0.16017147281E+02  0.24388018874E+02 -0.67311691301E+02  0.73363398623E+02  0.00000000000E+00 0. -1.
         21    1    1    2  503  502  0.16017147281E+02 -0.24388018874E+02 -0.15455199276E+03  0.15728204900E+03  0.00000000000E+00 0.  1.
</event>
<event>
 4    1  0.5576842E+002  0.2125384E+02  0.7546771E-02  0.1515671E+00
          2   -1    0    0  502    0  0.00000000000E+00  0.00000000000E+00  0.47560563830E+03  0.47560563830E+03  0.00000000000E+00 0. -1.
         -2   -1    0    0    0  501 -0.00000000000E+00 -0.00000000000E+00 -0.19353529205E+01  0.19353529205E+01  0.00000000000E+00 0.  1.
         21    1    1    2  502  503  0.21202779531E+02 -0.14723606212E+01  0.40722457179E+03  0.40777883414E+03  0.00000000000E+00 0. -1.
         21    1    1    2  503  501 -0.21202779531E+02  0.14723606212E+01  0.66445713589E+02  0.69762157077E+02  0.00000000000E+00 0.  1.
</event>
<event>
 4    1  0.5576842E+002  0.2187742E+02  0.7546771E-02  0.1507097E+00
          2   -1    0    0  503    0  0.00000000000E+00  0.00000000000E+00  0.81262884622E+03  0.81262884622E+03  0.00000000000E+00 0. -1.
         -2   -1    0    0    0  501 -0.00000000000E+00 -0.00000000000E+00 -0.19876208129E+01  0.19876208129E+01  0.00000000000E+00 0.  1.
         21    1    1    2  502  501 -0.19860124719E+02 -0.91758857181E+01  0.63648404426E+02  0.67303349237E+02  0.00000000000E+00 0.  1.
         21    1    1    2  503  502  0.19860124719E+02  0.91758857181E+01  0.74699282099E+03  0.74731311780E+03  0.00000000000E+00 0. -1.
</event>
<event>
 4    1  0.5576842E+002  0.2092239E+02  0.7546771E-02  0.1520376E+00
          2   -1    0    0  503    0  0.00000000000E+00  0.00000000000E+00  0.14768702455E+04  0.14768702455E+04  0.00000000000E+00 0.  1.
         -2   -1    0    0    0  501 -0.00000000000E+00 -0.00000000000E+00 -0.16651807731E+01  0.16651807731E+01  0.00000000000E+00 0. -1.
         21    1    1    2  502  501 -0.19869981484E+02 -0.65521268032E+01  0.67351088412E+02  0.70525992656E+02  0.00000000000E+00 0. -1.
         21    1    1    2  503  502  0.19869981484E+02  0.65521268032E+01  0.14078539764E+04  0.14080094337E+04  0.00000000000E+00 0.  1.
</event>
<event>
 4    1  0.5576842E+002  0.2450235E+02  0.7546771E-02  0.1474448E+00
          2   -1    0    0  503    0  0.00000000000E+00  0.00000000000E+00  0.34012561908E+03  0.34012561908E+03  0.00000000000E+00 0.  1.
         -2   -1    0    0    0  501 -0.00000000000E+00 -0.00000000000E+00 -0.20518417981E+01  0.20518417981E+01  0.00000000000E+00 0. -1.
         21    1    1    2  502  501  0.17244748465E+02  0.17406434025E+02  0.10508201103E+03  0.10790085420E+03  0.00000000000E+00 0. -1.
         21    1    1    2  503  502 -0.17244748465E+02 -0.17406434025E+02  0.23299176626E+03  0.23427660668E+03  0.00000000000E+00 0.  1.
</event>
<event>
 4    1  0.5576842E+002  0.2344892E+02  0.7546771E-02  0.1486937E+00
          2   -1    0    0  503    0  0.00000000000E+00  0.00000000000E+00  0.26341930704E+03  0.26341930704E+03  0.00000000000E+00 0.  1.
         -2   -1    0    0    0  501 -0.00000000000E+00 -0.00000000000E+00 -0.21930754096E+01  0.21930754096E+01  0.00000000000E+00 0. -1.
         21    1    1    2  502  501  0.22059856036E+01 -0.23344919626E+02  0.10145529438E+03  0.10412986316E+03  0.00000000000E+00 0.  1.
         21    1    1    2  503  502 -0.22059856036E+01  0.23344919626E+02  0.15977093725E+03  0.16148251929E+03  0.00000000000E+00 0. -1.
</event>
<event>
 4    1  0.5576842E+002  0.2243090E+02  0.7546771E-02  0.1499771E+00
          2   -1    0    0  503    0  0.00000000000E+00  0.00000000000E+00  0.41892317474E+02  0.41892317474E+02  0.00000000000E+00 0.  1.
         -2   -1    0    0    0  501 -0.00000000000E+00 -0.00000000000E+00 -0.13390318461E+02  0.13390318461E+02  0.00000000000E+00 0. -1.
         21    1    1    2  502  501  0.22252958732E+02  0.28197462689E+01  0.53777273454E+01  0.23066536210E+02  0.00000000000E+00 0. -1.
         21    1    1    2  503  502 -0.22252958732E+02 -0.28197462689E+01  0.23124271667E+02  0.32216099725E+02  0.00000000000E+00 0.  1.
</event>
<event>
 4    1  0.5576842E+002  0.2061968E+02  0.7546771E-02  0.1524765E+00
          2   -1    0    0  502    0  0.00000000000E+00  0.00000000000E+00  0.22438915928E+01  0.22438915928E+01  0.00000000000E+00 0.  1.
         -2   -1    0    0    0  501 -0.00000000000E+00 -0.00000000000E+00 -0.19418039507E+03  0.19418039507E+03  0.00000000000E+00 0. -1.
         21    1    1    2  502  503 -0.80943863866E+01 -0.18964500833E+02 -0.80687162711E+02  0.83280187375E+02  0.00000000000E+00 0. -1.
         21    1    1    2  503  501  0.80943863866E+01  0.18964500833E+02 -0.11124934077E+03  0.11314409929E+03  0.00000000000E+00 0.  1.
</event>
<event>
 4    1  0.5576842E+002  0.5113201E+02  0.7546771E-02  0.1293338E+00
          2   -1    0    0  502    0  0.00000000000E+00  0.00000000000E+00  0.12016265627E+04  0.12016265627E+04  0.00000000000E+00 0.  1.
         -2   -1    0    0    0  501 -0.00000000000E+00 -0.00000000000E+00 -0.23700561077E+01  0.23700561077E+01  0.00000000000E+00 0. -1.
         21    1    1    2  502  503  0.38394691453E+02  0.33768771597E+02  0.42727521853E+03  0.43032382532E+03  0.00000000000E+00 0.  1.
         21    1    1    2  503  501 -0.38394691453E+02 -0.33768771597E+02  0.77198128809E+03  0.77367279352E+03  0.00000000000E+00 0. -1.
</event>
<event>
 4    1  0.5576842E+002  0.3544948E+02  0.7546771E-02  0.1377430E+00
          2   -1    0    0  503    0  0.00000000000E+00  0.00000000000E+00  0.16669088008E+03  0.16669088008E+03  0.00000000000E+00 0. -1.
         -2   -1    0    0    0  501 -0.00000000000E+00 -0.00000000000E+00 -0.10050114224E+02  0.10050114224E+02  0.00000000000E+00 0.  1.
         21    1    1    2  502  501  0.32719458232E+02  0.13641957158E+02  0.34146696265E+02  0.49220552698E+02  0.00000000000E+00 0.  1.
         21    1    1    2  503  502 -0.32719458232E+02 -0.13641957158E+02  0.12249406959E+03  0.12752044160E+03  0.00000000000E+00 0. -1.
</event>
<event>
 4    1  0.5576842E+002  0.4300137E+02  0.7546771E-02  0.1331742E+00
          2   -1    0    0  503    0  0.00000000000E+00  0.00000000000E+00  0.25758866956E+02  0.25758866956E+02  0.00000000000E+00 0. -1.
         -2   -1    0    0    0  501 -0.00000000000E+00 -0.00000000000E+00 -0.71907030455E+02  0.71907030455E+02  0.00000000000E+00 0.  1.
         21    1    1    2  502  501 -0.11606011129E+02  0.41405530400E+02 -0.25080269089E+02  0.49780893319E+02  0.00000000000E+00 0.  1.
         21    1    1    2  503  502  0.11606011129E+02 -0.41405530400E+02 -0.21067894410E+02  0.47885004092E+02  0.00000000000E+00 0. -1.
</event>
<event>
 4    1  0.5576842E+002  0.2092112E+02  0.7546771E-02  0.1520394E+00
          2   -1    0    0  502    0  0.00000000000E+00  0.00000000000E+00  0.14132208516E+04  0.14132208516E+04  0.00000000000E+00 0. -1.
         -2   -1    0    0    0  501 -0.00000000000E+00 -0.00000000000E+00 -0.61195019152E+00  0.61195019152E+00  0.00000000000E+00 0.  1.
         21    1    1    2  502  503  0.15867281310E+02  0.13635352072E+02  0.12031068465E+04  0.12032887341E+04  0.00000000000E+00 0. -1.
         21    1    1    2  503  501 -0.15867281310E+02 -0.13635352072E+02  0.20950205494E+03  0.21054406776E+03  0.00000000000E+00 0.  1.
</event>
<event>
 4    1  0.5576842E+002  0.3460513E+02  0.7546771E-02  0.1383361E+00
          2   -1    0    0  503    0  0.00000000000E+00  0.00000000000E+00  0.18001302841E+04  0.18001302841E+04  0.00000000000E+00 0.  1.
         -2   -1    0    0    0  501 -0.00000000000E+00 -0.00000000000E+00 -0.66523936948E+00  0.66523936948E+00  0.00000000000E+00 0. -1.
         21    1    1    2  502  501 -0.32821806539E+02 -0.10965579921E+02  0.89840383142E+03  0.89907005247E+03  0.00000000000E+00 0. -1.
         21    1    1    2  503  502  0.32821806539E+02  0.10965579921E+02  0.90106121334E+03  0.90172547104E+03  0.00000000000E+00 0.  1.
</event>
<event>
 4    1  0.5576842E+002  0.2135151E+02  0.7546771E-02  0.1514305E+00
          2   -1    0    0  503    0  0.00000000000E+00  0.00000000000E+00  0.55996381593E+03  0.55996381593E+03  0.00000000000E+00 0. -1.
         -2   -1    0    0    0  501 -0.00000000000E+00 -0.00000000000E+00 -0.14831984200E+01  0.14831984200E+01  0.00000000000E+00 0.  1.
         21    1    1    2  502  501  0.24102277912E+01 -0.21215039659E+02  0.46778410104E+03  0.46827113117E+03  0.00000000000E+00 0. -1.
         21    1    1    2  503  502 -0.24102277912E+01  0.21215039659E+02  0.90696516476E+02  0.93175883182E+02  0.00000000000E+00 0.  1.
</event>
<event>
 4    1  0.5576842E+002  0.2376444E+02  0.7546771E-02  0.1483116E+00
          2   -1    0    0  502    0  0.00000000000E+00  0.00000000000E+00  0.44147050095E+03  0.44147050095E+03  0.00000000000E+00 0.  1.
         -2   -1    0    0    0  501 -0.00000000000E+00 -0.00000000000E+00 -0.15050728124E+01  0.15050728124E+01  0.00000000000E+00 0. -1.
         21    1    1    2  502  503 -0.66892010279E+01 -0.22803582107E+02  0.30577734267E+03  0.30669941646E+03  0.00000000000E+00 0.  1.
         21    1    1    2  503  501  0.66892010279E+01  0.22803582107E+02  0.13418808547E+03  0.13627615730E+03  0.00000000000E+00 0. -1.
</event>
<event>
 4    1  0.5576842E+002  0.2101323E+02  0.7546771E-02  0.1519076E+00
          2   -1    0    0  502    0  0.00000000000E+00  0.00000000000E+00  0.13071106409E+03  0.13071106409E+03  0.00000000000E+00 0. -1.
         -2   -1    0    0    0  501 -0.00000000000E+00 -0.00000000000E+00 -0.60863300697E+01  0.60863300697E+01  0.00000000000E+00 0.  1.
         21    1    1    2  502  503  0.20898247572E+02 -0.21952429245E+01  0.10793836397E+03  0.10996475007E+03  0.00000000000E+00 0. -1.
         21    1    1    2  503  501 -0.20898247572E+02  0.21952429245E+01  0.16686370056E+02  0.26832644088E+02  0.00000000000E+00 0.  1.
</event>
<event>
 4    1  0.5576842E+002  0.2341382E+02  0.7546771E-02  0.1487366E+00
          2   -1    0    0  502    0  0.00000000000E+00  0.00000000000E+00  0.22388667622E+02  0.22388667622E+02  0.00000000000E+00 0. -1.
         -2   -1    0    0    0  501 -0.00000000000E+00 -0.00000000000E+00 -0.42550988481E+02  0.42550988481E+02  0.00000000000E+00 0.  1.
         21    1    1    2  502  503  0.18738452325E+01 -0.23338717915E+02  0.11075397336E+02  0.25901186769E+02  0.00000000000E+00 0. -1.
         21    1    1    2  503  501 -0.18738452325E+01  0.23338717915E+02 -0.31237718195E+02  0.39038469334E+02  0.00000000000E+00 0.  1.
</event>
<event>
 4    1  0.5576842E+002  0.2033466E+02  0.7546771E-02  0.1528980E+00
          2   -1    0    0  503    0  0.00000000000E+00  0.00000000000E+00  0.26100834437E+03  0.26100834437E+03  0.00000000000E+00 0.  1.
         -2   -1    0    0    0  501 -0.00000000000E+00 -0.00000000000E+00 -0.16287472239E+01  0.16287472239E+01  0.00000000000E+00 0. -1.
         21    1    1    2  502  501  0.13354945656E+02 -0.15334398356E+02  0.15139894534E+03  0.15275843347E+03  0.00000000000E+00 0. -1.
         21    1    1    2  503  502 -0.13354945656E+02  0.15334398356E+02  0.10798065181E+03  0.10987865812E+03  0.00000000000E+00 0.  1.
</event>
<event>
 4    1  0.5576842E+002  0.2010779E+02  0.7546771E-02  0.1532394E+00
          2   -1    0    0  503    0  0.00000000000E+00  0.00000000000E+00  0.10312854954E+03  0.10312854954E+03  0.00000000000E+00 0.  1.
         -2   -1    0    0    0  501 -0.00000000000E+00 -0.00000000000E+00 -0.33104807958E+02  0.33104807958E+02  0.00000000000E+00 0. -1.
         21    1    1    2  502  501  0.59846044600E+01  0.19196552322E+02 -0.28944244528E+02  0.35243331326E+02  0.00000000000E+00 0. -1.
         21    1    1    2  503  502 -0.59846044600E+01 -0.19196552322E+02  0.98967986114E+02  0.10099002618E+03  0.00000000000E+00 0.  1.
</event>
<event>
 4    1  0.5576842E+002  0.2093625E+02  0.7546771E-02  0.1520177E+00
          2   -1    0    0  502    0  0.00000000000E+00  0.00000000000E+00  0.22560608659E+03  0.22560608659E+03  0.00000000000E+00 0.  1.
         -2   -1    0    0    0  501 -0.00000000000E+00 -0.00000000000E+00 -0.22127009565E+01  0.22127009565E+01  0.00000000000E+00 0. -1.
         21    1    1    2  502  503 -0.20567335204E+02 -0.39129748639E+01  0.15147370031E+03  0.15291372906E+03  0.00000000000E+00 0.  1.
         21    1    1    2  503  501  0.20567335204E+02  0.39129748639E+01  0.71919685324E+02  0.74905058487E+02  0.00000000000E+00 0. -1.
</event>
<event>
 4    1  0.5576842E+002  0.3599259E+02  0.7546771E-02  0.1373716E+00
          2   -1    0    0  503    0  0.00000000000E+00  0.00000000000E+00  0.27239625116E+03  0.27239625116E+03  0.00000000000E+00 0.  1.
         -2   -1    0    0    0  501 -0.00000000000E+00 -0.00000000000E+00 -0.13674889499E+02  0.13674889499E+02  0.00000000000E+00 0. -1.
         21    1    1    2  502  501  0.35152590460E+02 -0.77305733028E+01  0.13844714147E+02  0.38563486480E+02  0.00000000000E+00 0. -1.
         21    1    1    2  503  502 -0.35152590460E+02  0.77305733028E+01  0.24487664752E+03  0.24750765418E+03  0.00000000000E+00 0.  1.
</event>
<event>
 4    1  0.5576842E+002  0.2406387E+02  0.7546771E-02  0.1479554E+00
          2   -1    0    0  503    0  0.00000000000E+00  0.00000000000E+00  0.73679860401E+03  0.73679860401E+03  0.00000000000E+00 0. -1.
         -2   -1    0    0    0  501 -0.00000000000E+00 -0.00000000000E+00 -0.67835099976E+01  0.67835099976E+01  0.00000000000E+00 0.  1.
         21    1    1    2  502  501 -0.34566032251E+00 -0.24061391035E+02  0.15416877673E+02  0.28578840718E+02  0.00000000000E+00 0.  1.
         21    1    1    2  503  502  0.34566032251E+00  0.24061391035E+02  0.71459821634E+03  0.71500327329E+03  0.00000000000E+00 0. -1.
</event>
<event>
 4    1  0.5576842E+002  0.2307100E+02  0.7546771E-02  0.1491609E+00
          2   -1    0    0  503    0  0.00000000000E+00  0.00000000000E+00  0.95987908855E+02  0.95987908855E+02  0.00000000000E+00 0.  1.
         -2   -1    0    0    0  501 -0.00000000000E+00 -0.00000000000E+00 -0.48893282318E+02  0.48893282318E+02  0.00000000000E+00 0. -1.
         21    1    1    2  502  501  0.17112064944E+02 -0.15474110947E+02 -0.44661803649E+02  0.50268753530E+02  0.00000000000E+00 0. -1.
         21    1    1    2  503  502 -0.17112064944E+02  0.15474110947E+02  0.91756430186E+02  0.94612437643E+02  0.00000000000E+00 0.  1.
</event>
<event>
 4    1  0.5576842E+002  0.3590542E+02  0.7546771E-02  0.1374307E+00
          2   -1    0    0  503    0  0.00000000000E+00  0.00000000000E+00  0.89899623625E+02  0.89899623625E+02  0.00000000000E+00 0. -1.
         -2   -1    0    0    0  501 -0.00000000000E+00 -0.00000000000E+00 -0.31532521120E+02  0.31532521120E+02  0.00000000000E+00 0.  1.
         21    1    1    2  502  501  0.19272812983E+02  0.30294524060E+02 -0.15648503039E+02  0.39167271486E+02  0.00000000000E+00 0.  1.
         21    1    1    2  503  502 -0.19272812983E+02 -0.30294524060E+02  0.74015605544E+02  0.82264873259E+02  0.00000000000E+00 0. -1.
</event>
<event>
 4    1  0.5576842E+002  0.3713887E+02  0.7546771E-02  0.1366120E+00
          2   -1    0    0  502    0  0.00000000000E+00  0.00000000000E+00  0.14618423789E+03  0.14618423789E+03  0.00000000000E+00 0. -1.
         -2   -1    0    0    0  501 -0.00000000000E+00 -0.00000000000E+00 -0.14312423619E+02  0.14312423619E+02  0.00000000000E+00 0.  1.
         21    1    1    2  502  503  0.18579182815E+02  0.32157576036E+02  0.11278057937E+03  0.11873817757E+03  0.00000000000E+00 0. -1.
         21    1    1    2  503  501 -0.18579182815E+02 -0.32157576036E+02  0.19091234904E+02  0.41758483938E+02  0.00000000000E+00 0.  1.
</event>
<event>
 4    1  0.5576842E+002  0.3093816E+02  0.7546771E-02  0.1411615E+00
          2   -1    0    0  503    0  0.00000000000E+00  0.00000000000E+00  0.13214561864E+03  0.13214561864E+03  0.00000000000E+00 0.  1.
         -2   -1    0    0    0  501 -0.00000000000E+00 -0.00000000000E+00 -0.86098239390E+01  0.86098239390E+01  0.00000000000E+00 0. -1.
         21    1    1    2  502  501 -0.24428068369E+02  0.18985243392E+02  0.33729890921E+02  0.45769810273E+02  0.00000000000E+00 0. -1.
         21    1    1    2  503  502  0.24428068369E+02 -0.18985243392E+02  0.89805903777E+02  0.94985632304E+02  0.00000000000E+00 0.  1.
</event>
<event>
 4    1  0.5576842E+002  0.2356620E+02  0.7546771E-02  0.1485508E+00
          2   -1    0    0  503    0  0.00000000000E+00  0.00000000000E+00  0.15868519347E+02  0.15868519347E+02  0.00000000000E+00 0.  1.
         -2   -1    0    0    0  501 -0.00000000000E+00 -0.00000000000E+00 -0.37860743077E+02  0.37860743077E+02  0.00000000000E+00 0. -1.
         21    1    1    2  502  501  0.13661532287E+02 -0.19202299314E+02 -0.18383326844E+02  0.29888333330E+02  0.00000000000E+00 0. -1.
         21    1    1    2  503  502 -0.13661532287E+02  0.19202299314E+02 -0.36088968864E+01  0.23840929095E+02  0.00000000000E+00 0.  1.
</event>
<event>
 4    1  0.5576842E+002  0.3612945E+02  0.7546771E-02  0.1372792E+00
          2   -1    0    0  502    0  0.00000000000E+00  0.00000000000E+00  0.88777545720E+03  0.88777545720E+03  0.00000000000E+00 0. -1.
         -2   -1    0    0    0  501 -0.00000000000E+00 -0.00000000000E+00 -0.46003734287E+01  0.46003734287E+01  0.00000000000E+00 0.  1.
         21    1    1    2  502  503 -0.30667637403E+02  0.19100599827E+02  0.80962781749E+03  0.81043355049E+03  0.00000000000E+00 0. -1.
         21    1    1    2  503  501  0.30667637403E+02 -0.19100599827E+02  0.73547266273E+02  0.81942280136E+02  0.00000000000E+00 0.  1.
</event>
<event>
 4    1  0.5576842E+002  0.2134682E+02  0.7546771E-02  0.1514370E+00
          2   -1    0    0  503    0  0.00000000000E+00  0.00000000000E+00  0.10273272690E+04  0.10273272690E+04  0.00000000000E+00 0. -1.
         -2   -1    0    0    0  501 -0.00000000000E+00 -0.00000000000E+00 -0.79262292356E+00  0.79262292356E+00  0.00000000000E+00 0.  1.
         21    1    1    2  502  501  0.18959845853E+02 -0.98087148948E+01  0.17213013314E+03  0.17344875145E+03  0.00000000000E+00 0.  1.
         21    1    1    2  503  502 -0.18959845853E+02  0.98087148948E+01  0.85440451290E+03  0.85467114044E+03  0.00000000000E+00 0. -1.
</event>
<event>
 4    1  0.5576842E+002  0.3259577E+02  0.7546771E-02  0.1398302E+00
          2   -1    0    0  502    0  0.00000000000E+00  0.00000000000E+00  0.56459901843E+03  0.56459901843E+03  0.00000000000E+00 0. -1.
         -2   -1    0    0    0  501 -0.00000000000E+00 -0.00000000000E+00 -0.27614199422E+01  0.27614199422E+01  0.00000000000E+00 0.  1.
         21    1    1    2  502  503 -0.30200642973E+02  0.12263987362E+02  0.44102230126E+03  0.44222523043E+03  0.00000000000E+00 0. -1.
         21    1    1    2  503  501  0.30200642973E+02 -0.12263987362E+02  0.12081529723E+03  0.12513520794E+03  0.00000000000E+00 0.  1.
</event>
<event>
 4    1  0.5576842E+002  0.2153601E+02  0.7546771E-02  0.1511748E+00
          2   -1    0    0  502    0  0.00000000000E+00  0.00000000000E+00  0.16613416138E+03  0.16613416138E+03  0.00000000000E+00 0. -1.
         -2   -1    0    0    0  501 -0.00000000000E+00 -0.00000000000E+00 -0.28227005224E+01  0.28227005224E+01  0.00000000000E+00 0.  1.
         21    1    1    2  502  503  0.17851894543E+02  0.12046145088E+02  0.90506293774E+02  0.93033268044E+02  0.00000000000E+00 0. -1.
         21    1    1    2  503  501 -0.17851894543E+02 -0.12046145088E+02  0.72805167082E+02  0.75923593857E+02  0.00000000000E+00 0.  1.
</event>
<event>
 4    1  0.5576842E+002  0.2371848E+02  0.7546771E-02  0.1483668E+00
          2   -1    0    0  503    0  0.00000000000E+00  0.00000000000E+00  0.21272484437E+02  0.21272484437E+02  0.00000000000E+00 0.  1.
         -2   -1    0    0    0  501 -0.00000000000E+00 -0.00000000000E+00 -0.33846649064E+02  0.33846649064E+02  0.00000000000E+00 0. -1.
         21    1    1    2  502  501 -0.78403020092E+01  0.22385167653E+02 -0.19174259698E+02  0.30499480347E+02  0.00000000000E+00 0. -1.
         21    1    1    2  503  502  0.78403020092E+01 -0.22385167653E+02  0.66000950708E+01  0.24619653154E+02  0.00000000000E+00 0.  1.
</event>
<event>
 4    1  0.5576842E+002  0.2375530E+02  0.7546771E-02  0.1483226E+00
          2   -1    0    0  502    0  0.00000000000E+00  0.00000000000E+00  0.57602130929E+03  0.57602130929E+03  0.00000000000E+00 0. -1.
         -2   -1    0    0    0  501 -0.00000000000E+00 -0.00000000000E+00 -0.11232891111E+02  0.11232891111E+02  0.00000000000E+00 0.  1.
         21    1    1    2  502  503 -0.10904280106E+02  0.21104758272E+02  0.56292491206E+03  0.56342592305E+03  0.00000000000E+00 0. -1.
         21    1    1    2  503  501  0.10904280106E+02 -0.21104758272E+02  0.18635061163E+01  0.23828277349E+02  0.00000000000E+00 0.  1.
</event>
<event>
 4    1  0.5576842E+002  0.2532716E+02  0.7546771E-02  0.1465176E+00
          2   -1    0    0  502    0  0.00000000000E+00  0.00000000000E+00  0.48778714806E+03  0.48778714806E+03  0.00000000000E+00 0. -1.
         -2   -1    0    0    0  501 -0.00000000000E+00 -0.00000000000E+00 -0.13150814698E+01  0.13150814698E+01  0.00000000000E+00 0.  1.
         21    1    1    2  502  503 -0.91222382054E+01 -0.23627313120E+02  0.24206597526E+03  0.24338734876E+03  0.00000000000E+00 0. -1.
         21    1    1    2  503  501  0.91222382054E+01  0.23627313120E+02  0.24440609133E+03  0.24571488078E+03  0.00000000000E+00 0.  1.
</event>
<event>
 4    1  0.5576842E+002  0.2711851E+02  0.7546771E-02  0.1446421E+00
          2   -1    0    0  503    0  0.00000000000E+00  0.00000000000E+00  0.17719271879E+04  0.17719271879E+04  0.00000000000E+00 0. -1.
         -2   -1    0    0    0  501 -0.00000000000E+00 -0.00000000000E+00 -0.10224153680E+01  0.10224153680E+01  0.00000000000E+00 0.  1.
         21    1    1    2  502  501 -0.10226285344E+02 -0.25116465317E+02  0.20219758183E+03  0.20400802886E+03  0.00000000000E+00 0. -1.
         21    1    1    2  503  502  0.10226285344E+02  0.25116465317E+02  0.15687071907E+04  0.15689415744E+04  0.00000000000E+00 0.  1.
</event>
<event>
 4    1  0.5576842E+002  0.2413661E+02  0.7546771E-02  0.1478698E+00
          2   -1    0    0  503    0  0.00000000000E+00  0.00000000000E+00  0.12676644636E+04  0.12676644636E+04  0.00000000000E+00 0. -1.
         -2   -1    0    0    0  501 -0.00000000000E+00 -0.00000000000E+00 -0.54572744414E+00  0.54572744414E+00  0.00000000000E+00 0.  1.
         21    1    1    2  502  501 -0.22075931664E+02 -0.97585455969E+01  0.38160095283E+03  0.38236352228E+03  0.00000000000E+00 0.  1.
         21    1    1    2  503  502  0.22075931664E+02  0.97585455969E+01  0.88551778334E+03  0.88584666877E+03  0.00000000000E+00 0. -1.
</event>
<event>
 4    1  0.5576842E+002  0.2812576E+02  0.7546771E-02  0.1436616E+00
          2   -1    0    0  502    0  0.00000000000E+00  0.00000000000E+00  0.65851040799E+03  0.65851040799E+03  0.00000000000E+00 0. -1.
         -2   -1    0    0    0  501 -0.00000000000E+00 -0.00000000000E+00 -0.38044065120E+01  0.38044065120E+01  0.00000000000E+00 0.  1.
         21    1    1    2  502  503 -0.25369970920E+02 -0.12141791826E+02  0.60128215339E+03  0.60193960372E+03  0.00000000000E+00 0. -1.
         21    1    1    2  503  501  0.25369970920E+02  0.12141791826E+02  0.53423848086E+02  0.60375210787E+02  0.00000000000E+00 0.  1.
</event>
<event>
 4    1  0.5576842E+002  0.2540777E+02  0.7546771E-02  0.1464293E+00
          2   -1    0    0  503    0  0.00000000000E+00  0.00000000000E+00  0.59842245907E+00  0.59842245907E+00  0.00000000000E+00 0. -1.
         -2   -1    0    0    0  501 -0.00000000000E+00 -0.00000000000E+00 -0.10888948245E+04  0.10888948245E+04  0.00000000000E+00 0.  1.
         21    1    1    2  502  501  0.23573103260E+02  0.94796287431E+01 -0.49159522790E+03  0.49225138157E+03  0.00000000000E+00 0.  1.
         21    1    1    2  503  502 -0.23573103260E+02 -0.94796287431E+01 -0.59670117413E+03  0.59724186538E+03  0.00000000000E+00 0. -1.
</event>
<event>
 4    1  0.5576842E+002  0.3026627E+02  0.7546771E-02  0.1417296E+00
          2   -1    0    0  503    0  0.00000000000E+00  0.00000000000E+00  0.50212474035E+03  0.50212474035E+03  0.00000000000E+00 0. -1.
         -2   -1    0    0    0  501 -0.00000000000E+00 -0.00000000000E+00 -0.46689004436E+01  0.46689004436E+01  0.00000000000E+00 0.  1.
         21    1    1    2  502  501  0.19005417025E+02  0.23555073121E+02  0.50939313409E+02  0.59252518905E+02  0.00000000000E+00 0.  1.
         21    1    1    2  503  502 -0.19005417025E+02 -0.23555073121E+02  0.44651652649E+03  0.44754112188E+03  0.00000000000E+00 0. -1.
</event>
<event>
 4    1  0.5576842E+002  0.2482325E+02  0.7546771E-02  0.1470790E+00
          2   -1    0    0  502    0  0.00000000000E+00  0.00000000000E+00  0.51281021437E+03  0.51281021437E+03  0.00000000000E+00 0. -1.
         -2   -1    0    0    0  501 -0.00000000000E+00 -0.00000000000E+00 -0.13937942343E+01  0.13937942343E+01  0.00000000000E+00 0.  1.
         21    1    1    2  502  503  0.17086933619E+02 -0.18006399037E+02  0.35117981158E+03  0.35205603783E+03  0.00000000000E+00 0. -1.
         21    1    1    2  503  501 -0.17086933619E+02  0.18006399037E+02  0.16023660855E+03  0.16214797078E+03  0.00000000000E+00 0.  1.
</event>
<event>
 4    1  0.5576842E+002  0.2667446E+02  0.7546771E-02  0.1450906E+00
          2   -1    0    0  502    0  0.00000000000E+00  0.00000000000E+00  0.81459684286E+03  0.81459684286E+03  0.00000000000E+00 0.  1.
         -2   -1    0    0    0  501 -0.00000000000E+00 -0.00000000000E+00 -0.10084909706E+01  0.10084909706E+01  0.00000000000E+00 0. -1.
         21    1    1    2  502  503  0.17214713371E+02  0.20375983005E+02  0.25757919581E+03  0.25895669359E+03  0.00000000000E+00 0.  1.
         21    1    1    2  503  501 -0.17214713371E+02 -0.20375983005E+02  0.55600915608E+03  0.55664864024E+03  0.00000000000E+00 0. -1.
</event>
<event>
 4    1  0.5576842E+002  0.2111299E+02  0.7546771E-02  0.1517658E+00
          2   -1    0    0  502    0  0.00000000000E+00  0.00000000000E+00  0.15043475379E+04  0.15043475379E+04  0.00000000000E+00 0. -1.
         -2   -1    0    0    0  501 -0.00000000000E+00 -0.00000000000E+00 -0.22430129720E+01  0.22430129720E+01  0.00000000000E+00 0.  1.
         21    1    1    2  502  503 -0.19171065187E+02  0.88446822607E+01  0.14528287795E+04  0.14529821818E+04  0.00000000000E+00 0. -1.
         21    1    1    2  503  501  0.19171065187E+02 -0.88446822607E+01  0.49275745410E+02  0.53608369034E+02  0.00000000000E+00 0.  1.
</event>
<event>
 4    1  0.5576842E+002  0.2154435E+02  0.7546771E-02  0.1511633E+00
          2   -1    0    0  502    0  0.00000000000E+00  0.00000000000E+00  0.17627591419E+02  0.17627591419E+02  0.00000000000E+00 0. -1.
         -2   -1    0    0    0  501 -0.00000000000E+00 -0.00000000000E+00 -0.34874671367E+02  0.34874671367E+02  0.00000000000E+00 0.  1.
         21    1    1    2  502  503 -0.19868224310E+02  0.83314364642E+01  0.43693287345E+01  0.21982952586E+02  0.00000000000E+00 0. -1.
         21    1    1    2  503  501  0.19868224310E+02 -0.83314364642E+01 -0.21616408682E+02  0.30519310200E+02  0.00000000000E+00 0.  1.
</event>
<event>
 4    1  0.5576842E+002  0.2202385E+02  0.7546771E-02  0.1505133E+00
          2   -1    0    0  502    0  0.00000000000E+00  0.00000000000E+00  0.63389047391E+02  0.63389047391E+02  0.00000000000E+00 0.  1.
         -2   -1    0    0    0  501 -0.00000000000E+00 -0.00000000000E+00 -0.22553708028E+02  0.22553708028E+02  0.00000000000E+00 0. -1.
         21    1    1    2  502  503  0.22015977801E+02 -0.58874292171E+00  0.55346901707E+02  0.59567855638E+02  0.00000000000E+00 0.  1.
         21    1    1    2  503  501 -0.22015977801E+02  0.58874292171E+00 -0.14511562344E+02  0.26374899781E+02  0.00000000000E+00 0. -1.
</event>
<event>
 4    1  0.5576842E+002  0.2893766E+02  0.7546771E-02  0.1429058E+00
          2   -1    0    0  503    0  0.00000000000E+00  0.00000000000E+00  0.15492400343E+04  0.15492400343E+04  0.00000000000E+00 0.  1.
         -2   -1    0    0    0  501 -0.00000000000E+00 -0.00000000000E+00 -0.20233753011E+01  0.20233753011E+01  0.00000000000E+00 0. -1.
         21    1    1    2  502  501  0.13433510354E+02 -0.25630622008E+02  0.10960936499E+03  0.11336490144E+03  0.00000000000E+00 0. -1.
         21    1    1    2  503  502 -0.13433510354E+02  0.25630622008E+02  0.14376072940E+04  0.14378985081E+04  0.00000000000E+00 0.  1.
</event>
<event>
 4    1  0.5576842E+002  0.2776094E+02  0.7546771E-02  0.1440110E+00
          2   -1    0    0  502    0  0.00000000000E+00  0.00000000000E+00  0.71357031186E+03  0.71357031186E+03  0.00000000000E+00 0.  1.
         -2   -1    0    0    0  501 -0.00000000000E+00 -0.00000000000E+00 -0.11377177005E+01  0.11377177005E+01  0.00000000000E+00 0. -1.
         21    1    1    2  502  503 -0.12712917707E+02  0.24678970307E+02  0.43669158499E+03  0.43757309132E+03  0.00000000000E+00 0. -1.
         21    1    1    2  503  501  0.12712917707E+02 -0.24678970307E+02  0.27574100917E+03  0.27713493824E+03  0.00000000000E+00 0.  1.
</event>
<event>
 4    1  0.5576842E+002  0.2755265E+02  0.7546771E-02  0.1442134E+00
          2   -1    0    0  503    0  0.00000000000E+00  0.00000000000E+00  0.11467466887E+03  0.11467466887E+03  0.00000000000E+00 0. -1.
         -2   -1    0    0    0  501 -0.00000000000E+00 -0.00000000000E+00 -0.12846902229E+02  0.12846902229E+02  0.00000000000E+00 0.  1.
         21    1    1    2  502  501 -0.26631630317E+02 -0.70643445333E+01  0.65234130012E+01  0.28314371160E+02  0.00000000000E+00 0.  1.
         21    1    1    2  503  502  0.26631630317E+02  0.70643445333E+01  0.95304353635E+02  0.99207199934E+02  0.00000000000E+00 0. -1.
</event>
<event>
 4    1  0.5576842E+002  0.2158945E+02  0.7546771E-02  0.1511013E+00
          2   -1    0    0  503    0  0.00000000000E+00  0.00000000000E+00  0.12863354111E+04  0.12863354111E+04  0.00000000000E+00 0.  1.
         -2   -1    0    0    0  501 -0.00000000000E+00 -0.00000000000E+00 -0.15747490399E+01  0.15747490399E+01  0.00000000000E+00 0. -1.
         21    1    1    2  502  501  0.11014504124E+02  0.18568383554E+02  0.77348889300E+02  0.80305384905E+02  0.00000000000E+00 0. -1.
         21    1    1    2  503  502 -0.11014504124E+02 -0.18568383554E+02  0.12074117727E+04  0.12076047752E+04  0.00000000000E+00 0.  1.
</event>
<event>
 4    1  0.5576842E+002  0.3578756E+02  0.7546771E-02  0.1375109E+00
          2   -1    0    0  503    0  0.00000000000E+00  0.00000000000E+00  0.53601552080E+01  0.53601552080E+01  0.00000000000E+00 0.  1.
         -2   -1    0    0    0  501 -0.00000000000E+00 -0.00000000000E+00 -0.29198850433E+03  0.29198850433E+03  0.00000000000E+00 0. -1.
         21    1    1    2  502  501 -0.99349999218E+01 -0.34380887736E+02 -0.20668569533E+03  0.20976111727E+03  0.00000000000E+00 0.  1.
         21    1    1    2  503  502  0.99349999218E+01  0.34380887736E+02 -0.79942653790E+02  0.87587542264E+02  0.00000000000E+00 0. -1.
</event>
<event>
 4    1  0.5576842E+002  0.2622649E+02  0.7546771E-02  0.1455537E+00
          2   -1    0    0  502    0  0.00000000000E+00  0.00000000000E+00  0.11582811525E+04  0.11582811525E+04  0.00000000000E+00 0. -1.
         -2   -1    0    0    0  501 -0.00000000000E+00 -0.00000000000E+00 -0.20898947819E+01  0.20898947819E+01  0.00000000000E+00 0.  1.
         21    1    1    2  502  503 -0.23956619336E+02 -0.10672834552E+02  0.10689797810E+04  0.10693014548E+04  0.00000000000E+00 0. -1.
         21    1    1    2  503  501  0.23956619336E+02  0.10672834552E+02  0.87211476750E+02  0.91069592534E+02  0.00000000000E+00 0.  1.
</event>
<event>
 4    1  0.5576842E+002  0.2092931E+02  0.7546771E-02  0.1520276E+00
          2   -1    0    0  502    0  0.00000000000E+00  0.00000000000E+00  0.23110437120E+03  0.23110437120E+03  0.00000000000E+00 0. -1.
         -2   -1    0    0    0  501 -0.00000000000E+00 -0.00000000000E+00 -0.17985413461E+02  0.17985413461E+02  0.00000000000E+00 0.  1.
         21    1    1    2  502  503 -0.20924263151E+02  0.45977640813E+00  0.22435908985E+03  0.22533316973E+03  0.00000000000E+00 0. -1.
         21    1    1    2  503  501  0.20924263151E+02 -0.45977640813E+00 -0.11240132115E+02  0.23756614925E+02  0.00000000000E+00 0.  1.
</event>
<event>
 4    1  0.5576842E+002  0.2817841E+02  0.7546771E-02  0.1436117E+00
          2   -1    0    0  503    0  0.00000000000E+00  0.00000000000E+00  0.32336249831E+02  0.32336249831E+02  0.00000000000E+00 0. -1.
         -2   -1    0    0    0  501 -0.00000000000E+00 -0.00000000000E+00 -0.28027638799E+02  0.28027638799E+02  0.00000000000E+00 0.  1.
         21    1    1    2  502  501  0.11130734375E+02  0.25886865171E+02 -0.84692855736E+01  0.29423661129E+02  0.00000000000E+00 0. -1.
         21    1    1    2  503  502 -0.11130734375E+02 -0.25886865171E+02  0.12777896606E+02  0.30940227501E+02  0.00000000000E+00 0.  1.
</event>
<event>
 4    1  0.5576842E+002  0.3165003E+02  0.7546771E-02  0.1405780E+00
          2   -1    0    0  502    0  0.00000000000E+00  0.00000000000E+00  0.14248703977E+04  0.14248703977E+04  0.00000000000E+00 0.  1.
         -2   -1    0    0    0  501 -0.00000000000E+00 -0.00000000000E+00 -0.38086001945E+01  0.38086001945E+01  0.00000000000E+00 0. -1.
         21    1    1    2  502  503  0.21128691144E+02 -0.23564859436E+02  0.13555799892E+04  0.13559494206E+04  0.00000000000E+00 0.  1.
         21    1    1    2  503  501 -0.21128691144E+02  0.23564859436E+02  0.65481808283E+02  0.72729577242E+02  0.00000000000E+00 0. -1.
</event>
<event>
 4    1  0.5576842E+002  0.2305053E+02  0.7546771E-02  0.1491865E+00
          2   -1    0    0  503    0  0.00000000000E+00  0.00000000000E+00  0.23547727574E+03  0.23547727574E+03  0.00000000000E+00 0.  1.
         -2   -1    0    0    0  501 -0.00000000000E+00 -0.00000000000E+00 -0.13509372129E+02  0.13509372129E+02  0.00000000000E+00 0. -1.
         21    1    1    2  502  501  0.42007726306E+01  0.22664519696E+02 -0.26380477960E+01  0.23200996529E+02  0.00000000000E+00 0. -1.
         21    1    1    2  503  502 -0.42007726306E+01 -0.22664519696E+02  0.22460595141E+03  0.22578565134E+03  0.00000000000E+00 0.  1.
</event>
<event>
 4    1  0.5576842E+002  0.2069649E+02  0.7546771E-02  0.1523643E+00
          2   -1    0    0  502    0  0.00000000000E+00  0.00000000000E+00  0.29279787664E+03  0.29279787664E+03  0.00000000000E+00 0.  1.
         -2   -1    0    0    0  501 -0.00000000000E+00 -0.00000000000E+00 -0.19854135053E+01  0.19854135053E+01  0.00000000000E+00 0. -1.
         21    1    1    2  502  503 -0.72831400030E+01 -0.19372676889E+02  0.22101652405E+03  0.22198344227E+03  0.00000000000E+00 0.  1.
         21    1    1    2  503  501  0.72831400030E+01  0.19372676889E+02  0.69795939080E+02  0.72799847873E+02  0.00000000000E+00 0. -1.
</event>
<event>
 4    1  0.5576842E+002  0.2086901E+02  0.7546771E-02  0.1521143E+00
          2   -1    0    0  502    0  0.00000000000E+00  0.00000000000E+00  0.15087079471E+04  0.15087079471E+04  0.00000000000E+00 0. -1.
         -2   -1    0    0    0  501 -0.00000000000E+00 -0.00000000000E+00 -0.33285804328E+01  0.33285804328E+01  0.00000000000E+00 0.  1.
         21    1    1    2  502  503  0.20364311629E+02 -0.45618249866E+01  0.14751821264E+04  0.14753297331E+04  0.00000000000E+00 0. -1.
         21    1    1    2  503  501 -0.20364311629E+02  0.45618249866E+01  0.30197240301E+02  0.36706794427E+02  0.00000000000E+00 0.  1.
</event>
<event>
 4    1  0.5576842E+002  0.3674870E+02  0.7546771E-02  0.1368669E+00
          2   -1    0    0  502    0  0.00000000000E+00  0.00000000000E+00  0.11838103739E+04  0.11838103739E+04  0.00000000000E+00 0.  1.
         -2   -1    0    0    0  501 -0.00000000000E+00 -0.00000000000E+00 -0.11593847685E+01  0.11593847685E+01  0.00000000000E+00 0. -1.
         21    1    1    2  502  503  0.34200217895E+02 -0.13446629172E+02  0.66638058096E+03  0.66739309662E+03  0.00000000000E+00 0. -1.
         21    1    1    2  503  501 -0.34200217895E+02  0.13446629172E+02  0.51627040821E+03  0.51757666209E+03  0.00000000000E+00 0.  1.
</event>
<event>
 4    1  0.5576842E+002  0.2735577E+02  0.7546771E-02  0.1444067E+00
          2   -1    0    0  503    0  0.00000000000E+00  0.00000000000E+00  0.97947674527E+00  0.97947674527E+00  0.00000000000E+00 0.  1.
         -2   -1    0    0    0  501 -0.00000000000E+00 -0.00000000000E+00 -0.10668298151E+04  0.10668298151E+04  0.00000000000E+00 0. -1.
         21    1    1    2  502  501  0.22191417378E+02  0.15996215507E+02 -0.24847742234E+03  0.24997873375E+03  0.00000000000E+00 0. -1.
         21    1    1    2  503  502 -0.22191417378E+02 -0.15996215507E+02 -0.81737291601E+03  0.81783055809E+03  0.00000000000E+00 0.  1.
</event>
<event>
 4    1  0.5576842E+002  0.2009220E+02  0.7546771E-02  0.1532631E+00
          2   -1    0    0  503    0  0.00000000000E+00  0.00000000000E+00  0.11669230659E+03  0.11669230659E+03  0.00000000000E+00 0. -1.
         -2   -1    0    0    0  501 -0.00000000000E+00 -0.00000000000E+00 -0.36025588481E+01  0.36025588481E+01  0.00000000000E+00 0.  1.
         21    1    1    2  502  501 -0.18084369925E+02 -0.87551106313E+01  0.68530954628E+02  0.71415601516E+02  0.00000000000E+00 0.  1.
         21    1    1    2  503  502  0.18084369925E+02  0.87551106313E+01  0.44558793113E+02  0.48879263920E+02  0.00000000000E+00 0. -1.
</event>
<event>
 4    1  0.5576842E+002  0.2207580E+02  0.7546771E-02  0.1504441E+00
          2   -1    0    0  503    0  0.00000000000E+00  0.00000000000E+00  0.42516633944E+03  0.42516633944E+03  0.00000000000E+00 0.  1.
         -2   -1    0    0    0  501 -0.00000000000E+00 -0.00000000000E+00 -0.11517882903E+01  0.11517882903E+01  0.00000000000E+00 0. -1.
         21    1    1    2  502  501 -0.42394631145E+01 -0.21664897404E+02  0.19720712340E+03  0.19843888315E+03  0.00000000000E+00 0. -1.
         21    1    1    2  503  502  0.42394631145E+01  0.21664897404E+02  0.22680742776E+03  0.22787924459E+03  0.00000000000E+00 0.  1.
</event>
<event>
 4    1  0.5576842E+002  0.2672949E+02  0.7546771E-02  0.1450345E+00
          2   -1    0    0  502    0  0.00000000000E+00  0.00000000000E+00  0.42813643138E+03  0.42813643138E+03  0.00000000000E+00 0.  1.
         -2   -1    0    0    0  501 -0.00000000000E+00 -0.00000000000E+00 -0.21303969810E+01  0.21303969810E+01  0.00000000000E+00 0. -1.
         21    1    1    2  502  503  0.24695595606E+02  0.10227076907E+02  0.31314552324E+03  0.31428424120E+03  0.00000000000E+00 0.  1.
         21    1    1    2  503  501 -0.24695595606E+02 -0.10227076907E+02  0.11286051116E+03  0.11598258716E+03  0.00000000000E+00 0. -1.
</event>
<event>
 4    1  0.5576842E+002  0.2382362E+02  0.7546771E-02  0.1482407E+00
          2   -1    0    0  502    0  0.00000000000E+00  0.00000000000E+00  0.73635247420E+02  0.73635247420E+02  0.00000000000E+00 0.  1.
         -2   -1    0    0    0  501 -0.00000000000E+00 -0.00000000000E+00 -0.81700786031E+01  0.81700786031E+01  0.00000000000E+00 0. -1.
         21    1    1    2  502  503  0.23087397775E+02 -0.58768043531E+01  0.42462222980E+02  0.48688860593E+02  0.00000000000E+00 0.  1.
         21    1    1    2  503  501 -0.23087397775E+02  0.58768043531E+01  0.23002945837E+02  0.33116465430E+02  0.00000000000E+00 0. -1.
</event>
<event>
 4    1  0.5576842E+002  0.2265834E+02  0.7546771E-02  0.1496833E+00
          2   -1    0    0  503    0  0.00000000000E+00  0.00000000000E+00  0.15648507356E+03  0.15648507356E+03  0.00000000000E+00 0. -1.
         -2   -1    0    0    0  501 -0.00000000000E+00 -0.00000000000E+00 -0.32889685398E+01  0.32889685398E+01  0.00000000000E+00 0.  1.
         21    1    1    2  502  501 -0.19710849805E+02  0.11175102283E+02  0.72623483987E+02  0.76076086502E+02  0.00000000000E+00 0.  1.
         21    1    1    2  503  502  0.19710849805E+02 -0.11175102283E+02  0.80572621028E+02  0.83697955593E+02  0.00000000000E+00 0. -1.
</event>
<event>
 4    1  0.5576842E+002  0.5134224E+02  0.7546771E-02  0.1292456E+00
          2   -1    0    0  502    0  0.00000000000E+00  0.00000000000E+00  0.22494783712E+03  0.22494783712E+03  0.00000000000E+00 0. -1.
         -2   -1    0    0    0  501 -0.00000000000E+00 -0.00000000000E+00 -0.44397761609E+02  0.44397761609E+02  0.00000000000E+00 0.  1.
         21    1    1    2  502  503  0.49221509991E+02  0.14603716997E+02  0.20581606513E+03  0.21212326195E+03  0.00000000000E+00 0. -1.
         21    1    1    2  503  501 -0.49221509991E+02 -0.14603716997E+02 -0.25265989611E+02  0.57222336783E+02  0.00000000000E+00 0.  1.
</event>
<event>
 4    1  0.5576842E+002  0.2453057E+02  0.7546771E-02  0.1474124E+00
          2   -1    0    0  502    0  0.00000000000E+00  0.00000000000E+00  0.17050912619E+02  0.17050912619E+02  0.00000000000E+00 0.  1.
         -2   -1    0    0    0  501 -0.00000000000E+00 -0.00000000000E+00 -0.53548799834E+02  0.53548799834E+02  0.00000000000E+00 0. -1.
         21    1    1    2  502  503 -0.24400516002E+02  0.25226439993E+01 -0.38860875063E+02  0.45955592962E+02  0.00000000000E+00 0. -1.
         21    1    1    2  503  501  0.24400516002E+02 -0.25226439993E+01  0.23629878483E+01  0.24644119491E+02  0.00000000000E+00 0.  1.
</event>
<event>
 4    1  0.5576842E+002  0.2392179E+02  0.7546771E-02  0.1481237E+00
          2   -1    0    0  502    0  0.00000000000E+00  0.00000000000E+00  0.48401522074E+01  0.48401522074E+01  0.00000000000E+00 0.  1.
         -2   -1    0    0    0  501 -0.00000000000E+00 -0.00000000000E+00 -0.15167895039E+03  0.15167895039E+03  0.00000000000E+00 0. -1.
         21    1    1    2  502  503  0.23095246267E+02  0.62339061234E+01 -0.36668761042E+02  0.43781845805E+02  0.00000000000E+00 0.  1.
         21    1    1    2  503  501 -0.23095246267E+02 -0.62339061234E+01 -0.11017003714E+03  0.11273725679E+03  0.00000000000E+00 0. -1.
</event>
<event>
 4    1  0.5576842E+002  0.3720874E+02  0.7546771E-02  0.1365667E+00
          2   -1    0    0  502    0  0.00000000000E+00  0.00000000000E+00  0.22502631670E+03  0.22502631670E+03  0.00000000000E+00 0. -1.
         -2   -1    0    0    0  501 -0.00000000000E+00 -0.00000000000E+00 -0.69713154451E+01  0.69713154451E+01  0.00000000000E+00 0.  1.
         21    1    1    2  502  503 -0.36752850645E+02  0.58067668961E+01  0.14878052347E+03  0.15336275537E+03  0.00000000000E+00 0. -1.
         21    1    1    2  503  501  0.36752850645E+02 -0.58067668961E+01  0.69274477793E+02  0.78634876777E+02  0.00000000000E+00 0.  1.
</event>
<event>
 4    1  0.5576842E+002  0.3032458E+02  0.7546771E-02  0.1416796E+00
          2   -1    0    0  503    0  0.00000000000E+00  0.00000000000E+00  0.30923038578E+03  0.30923038578E+03  0.00000000000E+00 0.  1.
         -2   -1    0    0    0  501 -0.00000000000E+00 -0.00000000000E+00 -0.32478472891E+01  0.32478472891E+01  0.00000000000E+00 0. -1.
         21    1    1    2  502  501  0.30209813523E+02 -0.26358308990E+01  0.10760468583E+03  0.11179601446E+03  0.00000000000E+00 0.  1.
         21    1    1    2  503  502 -0.30209813523E+02  0.26358308990E+01  0.19837785266E+03  0.20068221860E+03  0.00000000000E+00 0. -1.
</event>
<event>
 4    1  0.5576842E+002  0.2994254E+02  0.7546771E-02  0.1420097E+00
          2   -1    0    0  502    0  0.00000000000E+00  0.00000000000E+00  0.46218995753E+02  0.46218995753E+02  0.00000000000E+00 0.  1.
         -2   -1    0    0    0  501 -0.00000000000E+00 -0.00000000000E+00 -0.19408740209E+02  0.19408740209E+02  0.00000000000E+00 0. -1.
         21    1    1    2  502  503 -0.28621526492E+01 -0.29805429349E+02  0.12632798341E+02  0.32498355811E+02  0.00000000000E+00 0. -1.
         21    1    1    2  503  501  0.28621526492E+01  0.29805429349E+02  0.14177457203E+02  0.33129380152E+02  0.00000000000E+00 0.  1.
</event>
<event>
 4    1  0.5576842E+002  0.3883644E+02  0.7546771E-02  0.1355442E+00
          2   -1    0    0  503    0  0.00000000000E+00  0.00000000000E+00  0.13694924828E+04  0.13694924828E+04  0.00000000000E+00 0. -1.
         -2   -1    0    0    0  501 -0.00000000000E+00 -0.00000000000E+00 -0.19285574187E+01  0.19285574187E+01  0.00000000000E+00 0.  1.
         21    1    1    2  502  501 -0.27953954610E+02  0.26960076722E+02  0.23468945937E+03  0.23788108721E+03  0.00000000000E+00 0.  1.
         21    1    1    2  503  502  0.27953954610E+02 -0.26960076722E+02  0.11328744660E+04  0.11335399530E+04  0.00000000000E+00 0. -1.
</event>
<event>
 4    1  0.5576842E+002  0.2637130E+02  0.7546771E-02  0.1454028E+00
          2   -1    0    0  503    0  0.00000000000E+00  0.00000000000E+00  0.42924317821E+01  0.42924317821E+01  0.00000000000E+00 0.  1.
         -2   -1    0    0    0  501 -0.00000000000E+00 -0.00000000000E+00 -0.16253778663E+03  0.16253778663E+03  0.00000000000E+00 0. -1.
         21    1    1    2  502  501 -0.98978526282E+01 -0.24443362808E+02 -0.83845896359E+02  0.87895277509E+02  0.00000000000E+00 0.  1.
         21    1    1    2  503  502  0.98978526282E+01  0.24443362808E+02 -0.74399458487E+02  0.78934940902E+02  0.00000000000E+00 0. -1.
</event>
<event>
 4    1  0.5576842E+002  0.2155927E+02  0.7546771E-02  0.1511428E+00
          2   -1    0    0  502    0  0.00000000000E+00  0.00000000000E+00  0.13109748378E+01  0.13109748378E+01  0.00000000000E+00 0. -1.
         -2   -1    0    0    0  501 -0.00000000000E+00 -0.00000000000E+00 -0.36242097130E+03  0.36242097130E+03  0.00000000000E+00 0.  1.
         21    1    1    2  502  503  0.36692027556E+01  0.21244739933E+02 -0.20736181992E+03  0.20847955867E+03  0.00000000000E+00 0. -1.
         21    1    1    2  503  501 -0.36692027556E+01 -0.21244739933E+02 -0.15374817654E+03  0.15525238747E+03  0.00000000000E+00 0.  1.
</event>
<event>
 4    1  0.5576842E+002  0.3160460E+02  0.7546771E-02  0.1406147E+00
          2   -1    0    0  503    0  0.00000000000E+00  0.00000000000E+00  0.29559592761E+02  0.29559592761E+02  0.00000000000E+00 0.  1.
         -2   -1    0    0    0  501 -0.00000000000E+00 -0.00000000000E+00 -0.41660092885E+02  0.41660092885E+02  0.00000000000E+00 0. -1.
         21    1    1    2  502  501 -0.10347255631E+01  0.31587659033E+02 -0.21526644553E+02  0.38239342121E+02  0.00000000000E+00 0. -1.
         21    1    1    2  503  502  0.10347255631E+01 -0.31587659033E+02  0.94261444292E+01  0.32980343524E+02  0.00000000000E+00 0.  1.
</event>
<event>
 4    1  0.5576842E+002  0.4348719E+02  0.7546771E-02  0.1329180E+00
          2   -1    0    0  503    0  0.00000000000E+00  0.00000000000E+00  0.38038751325E+04  0.38038751325E+04  0.00000000000E+00 0. -1.
         -2   -1    0    0    0  501 -0.00000000000E+00 -0.00000000000E+00 -0.56722194415E+00  0.56722194415E+00  0.00000000000E+00 0.  1.
         21    1    1    2  502  501  0.43202143887E+02  0.49709220647E+01  0.12331176635E+04  0.12338842358E+04  0.00000000000E+00 0.  1.
         21    1    1    2  503  502 -0.43202143887E+02 -0.49709220647E+01  0.25701902470E+04  0.25705581186E+04  0.00000000000E+00 0. -1.
</event>
<event>
 4    1  0.5576842E+002  0.2871379E+02  0.7546771E-02  0.1431113E+00
          2   -1    0    0  502    0  0.00000000000E+00  0.00000000000E+00  0.14674670395E+04  0.14674670395E+04  0.00000000000E+00 0.  1.
         -2   -1    0    0    0  501 -0.00000000000E+00 -0.00000000000E+00 -0.94331620209E+01  0.94331620209E+01  0.00000000000E+00 0. -1.
         21    1    1    2  502  503 -0.28712232651E+02  0.29929617573E+00  0.14451383780E+04  0.14454236104E+04  0.00000000000E+00 0.  1.
         21    1    1    2  503  501  0.28712232651E+02 -0.29929617573E+00  0.12895499455E+02  0.31476591115E+02  0.00000000000E+00 0. -1.
</event>
<event>
 4    1  0.5576842E+002  0.5032234E+02  0.7546771E-02  0.1296781E+00
          2   -1    0    0  503    0  0.00000000000E+00  0.00000000000E+00  0.12526858928E+04  0.12526858928E+04  0.00000000000E+00 0. -1.
         -2   -1    0    0    0  501 -0.00000000000E+00 -0.00000000000E+00 -0.23746391468E+01  0.23746391468E+01  0.00000000000E+00 0.  1.
         21    1    1    2  502  501  0.40024342296E+02  0.30502288487E+02  0.38316832638E+03  0.38645867039E+03  0.00000000000E+00 0.  1.
         21    1    1    2  503  502 -0.40024342296E+02 -0.30502288487E+02  0.86714292731E+03  0.86860186159E+03  0.00000000000E+00 0. -1.
</event>
<event>
 4    1  0.5576842E+002  0.2229146E+02  0.7546771E-02  0.1501592E+00
          2   -1    0    0  502    0  0.00000000000E+00  0.00000000000E+00  0.16542549496E+01  0.16542549496E+01  0.00000000000E+00 0.  1.
         -2   -1    0    0    0  501 -0.00000000000E+00 -0.00000000000E+00 -0.31079402615E+03  0.31079402615E+03  0.00000000000E+00 0. -1.
         21    1    1    2  502  503 -0.16392652344E+02  0.15105956766E+02 -0.12597606113E+03  0.12793309564E+03  0.00000000000E+00 0.  1.
         21    1    1    2  503  501  0.16392652344E+02 -0.15105956766E+02 -0.18316371007E+03  0.18451518546E+03  0.00000000000E+00 0. -1.
</event>
<event>
 4    1  0.5576842E+002  0.2301345E+02  0.7546771E-02  0.1492329E+00
          2   -1    0    0  503    0  0.00000000000E+00  0.00000000000E+00  0.10842209355E+03  0.10842209355E+03  0.00000000000E+00 0.  1.
         -2   -1    0    0    0  501 -0.00000000000E+00 -0.00000000000E+00 -0.43583231963E+02  0.43583231963E+02  0.00000000000E+00 0. -1.
         21    1    1    2  502  501  0.10831240712E+02 -0.20305249297E+02 -0.39197522915E+02  0.45453984721E+02  0.00000000000E+00 0. -1.
         21    1    1    2  503  502 -0.10831240712E+02  0.20305249297E+02  0.10403638450E+03  0.10655134079E+03  0.00000000000E+00 0.  1.
</event>
<event>
 4    1  0.5576842E+002  0.2119875E+02  0.7546771E-02  0.1516446E+00
          2   -1    0    0  502    0  0.00000000000E+00  0.00000000000E+00  0.55150279053E+01  0.55150279053E+01  0.00000000000E+00 0. -1.
         -2   -1    0    0    0  501 -0.00000000000E+00 -0.00000000000E+00 -0.87586523195E+02  0.87586523195E+02  0.00000000000E+00 0.  1.
         21    1    1    2  502  503  0.19822603093E+02  0.75134242340E+01 -0.28748372880E+02  0.35719127653E+02  0.00000000000E+00 0.  1.
         21    1    1    2  503  501 -0.19822603093E+02 -0.75134242340E+01 -0.53323122410E+02  0.57382423447E+02  0.00000000000E+00 0. -1.
</event>
<event>
 4    1  0.5576842E+002  0.2627870E+02  0.7546771E-02  0.1454991E+00
          2   -1    0    0  503    0  0.00000000000E+00  0.00000000000E+00  0.54934493485E+02  0.54934493485E+02  0.00000000000E+00 0.  1.
         -2   -1    0    0    0  501 -0.00000000000E+00 -0.00000000000E+00 -0.27857309559E+02  0.27857309559E+02  0.00000000000E+00 0. -1.
         21    1    1    2  502  501 -0.37566017524E+01 -0.26008803515E+02 -0.17126345603E+02  0.31366887489E+02  0.00000000000E+00 0. -1.
         21    1    1    2  503  502  0.37566017524E+01  0.26008803515E+02  0.44203529529E+02  0.51424915555E+02  0.00000000000E+00 0.  1.
</event>
<event>
 4    1  0.5576842E+002  0.3313260E+02  0.7546771E-02  0.1394189E+00
          2   -1    0    0  503    0  0.00000000000E+00  0.00000000000E+00  0.66495873070E+03  0.66495873070E+03  0.00000000000E+00 0.  1.
         -2   -1    0    0    0  501 -0.00000000000E+00 -0.00000000000E+00 -0.13414086839E+02  0.13414086839E+02  0.00000000000E+00 0. -1.
         21    1    1    2  502  501 -0.14653920565E+02 -0.29715847149E+02  0.81429182557E+01  0.34118559134E+02  0.00000000000E+00 0. -1.
         21    1    1    2  503  502  0.14653920565E+02  0.29715847149E+02  0.64340172560E+03  0.64425425840E+03  0.00000000000E+00 0.  1.
</event>
<event>
 4    1  0.5576842E+002  0.2193848E+02  0.7546771E-02  0.1506276E+00
          2   -1    0    0  503    0  0.00000000000E+00  0.00000000000E+00  0.59568513429E+03  0.59568513429E+03  0.00000000000E+00 0.  1.
         -2   -1    0    0    0  501 -0.00000000000E+00 -0.00000000000E+00 -0.81378411526E+00  0.81378411526E+00  0.00000000000E+00 0. -1.
         21    1    1    2  502  501 -0.11084135690E+01  0.21910456540E+02  0.32264180383E+03  0.32338681214E+03  0.00000000000E+00 0.  1.
         21    1    1    2  503  502  0.11084135690E+01 -0.21910456540E+02  0.27222954635E+03  0.27311210627E+03  0.00000000000E+00 0. -1.
</event>
<event>
 4    1  0.5576842E+002  0.2001932E+02  0.7546771E-02  0.1533740E+00
          2   -1    0    0  502    0  0.00000000000E+00  0.00000000000E+00  0.34199281098E+01  0.34199281098E+01  0.00000000000E+00 0. -1.
         -2   -1    0    0    0  501 -0.00000000000E+00 -0.00000000000E+00 -0.22826486310E+03  0.22826486310E+03  0.00000000000E+00 0.  1.
         21    1    1    2  502  503  0.29180584525E+00  0.20017194970E+02 -0.31613317597E+02  0.37418913595E+02  0.00000000000E+00 0. -1.
         21    1    1    2  503  501 -0.29180584525E+00 -0.20017194970E+02 -0.19323161739E+03  0.19426587761E+03  0.00000000000E+00 0.  1.
</event>
<event>
 4    1  0.5576842E+002  0.2502830E+02  0.7546771E-02  0.1468487E+00
          2   -1    0    0  503    0  0.00000000000E+00  0.00000000000E+00  0.52452393055E+03  0.52452393055E+03  0.00000000000E+00 0. -1.
         -2   -1    0    0    0  501 -0.00000000000E+00 -0.00000000000E+00 -0.12562201275E+01  0.12562201275E+01  0.00000000000E+00 0.  1.
         21    1    1    2  502  501 -0.24866046403E+02  0.28452915914E+01  0.20324757055E+03  0.20478278951E+03  0.00000000000E+00 0.  1.
         21    1    1    2  503  502  0.24866046403E+02 -0.28452915914E+01  0.32002013988E+03  0.32099736116E+03  0.00000000000E+00 0. -1.
</event>
<event>
 4    1  0.5576842E+002  0.2383496E+02  0.7546771E-02  0.1482271E+00
          2   -1    0    0  502    0  0.00000000000E+00  0.00000000000E+00  0.21770430891E+02  0.21770430891E+02  0.00000000000E+00 0. -1.
         -2   -1    0    0    0  501 -0.00000000000E+00 -0.00000000000E+00 -0.26195807446E+02  0.26195807446E+02  0.00000000000E+00 0.  1.
         21    1    1    2  502  503 -0.78511025926E+01 -0.22504785285E+02 -0.36984992634E+01  0.24120200444E+02  0.00000000000E+00 0. -1.
         21    1    1    2  503  501  0.78511025926E+01  0.22504785285E+02 -0.72687729181E+00  0.23846037894E+02  0.00000000000E+00 0.  1.
</event>
<event>
 4    1  0.5576842E+002  0.2191403E+02  0.7546771E-02  0.1506604E+00
          2   -1    0    0  503    0  0.00000000000E+00  0.00000000000E+00  0.91762301123E+00  0.91762301123E+00  0.00000000000E+00 0. -1.
         -2   -1    0    0    0  501 -0.00000000000E+00 -0.00000000000E+00 -0.78385794556E+03  0.78385794556E+03  0.00000000000E+00 0.  1.
         21    1    1    2  502  501  0.11676993106E+02 -0.18543798790E+02 -0.61768413045E+03  0.61807273815E+03  0.00000000000E+00 0.  1.
         21    1    1    2  503  502 -0.11676993106E+02  0.18543798790E+02 -0.16525619210E+03  0.16670283042E+03  0.00000000000E+00 0. -1.
</event>
<event>
 4    1  0.5576842E+002  0.2543995E+02  0.7546771E-02  0.1463941E+00
          2   -1    0    0  502    0  0.00000000000E+00  0.00000000000E+00  0.41107151039E+03  0.41107151039E+03  0.00000000000E+00 0. -1.
         -2   -1    0    0    0  501 -0.00000000000E+00 -0.00000000000E+00 -0.31448825331E+01  0.31448825331E+01  0.00000000000E+00 0.  1.
         21    1    1    2  502  503  0.21513244072E+02 -0.13578334723E+02  0.35031969946E+03  0.35124219945E+03  0.00000000000E+00 0. -1.
         21    1    1    2  503  501 -0.21513244072E+02  0.13578334723E+02  0.57606928399E+02  0.62974193476E+02  0.00000000000E+00 0.  1.
</event>
<event>
 4    1  0.5576842E+002  0.2827989E+02  0.7546771E-02  0.1435158E+00
          2   -1    0    0  502    0  0.00000000000E+00  0.00000000000E+00  0.45437788638E+03  0.45437788638E+03  0.00000000000E+00 0.  1.
         -2   -1    0    0    0  501 -0.00000000000E+00 -0.00000000000E+00 -0.50749012011E+01  0.50749012011E+01  0.00000000000E+00 0. -1.
         21    1    1    2  502  503  0.28242192296E+02  0.14597737079E+01  0.41031458369E+03  0.41128798907E+03  0.00000000000E+00 0.  1.
         21    1    1    2  503  501 -0.28242192296E+02 -0.14597737079E+01  0.38988401492E+02  0.48164798514E+02  0.00000000000E+00 0. -1.
</event>
<event>
 4    1  0.5576842E+002  0.2071385E+02  0.7546771E-02  0.1523390E+00
          2   -1    0    0  503    0  0.00000000000E+00  0.00000000000E+00  0.16524137871E+03  0.16524137871E+03  0.00000000000E+00 0. -1.
         -2   -1    0    0    0  501 -0.00000000000E+00 -0.00000000000E+00 -0.70768900306E+01  0.70768900306E+01  0.00000000000E+00 0.  1.
         21    1    1    2  502  501  0.17109799469E+02  0.11675543499E+02  0.10528083961E+02  0.23235836670E+02  0.00000000000E+00 0.  1.
         21    1    1    2  503  502 -0.17109799469E+02 -0.11675543499E+02  0.14763640472E+03  0.14908243207E+03  0.00000000000E+00 0. -1.
</event>
<event>
 4    1  0.5576842E+002  0.2258001E+02  0.7546771E-02  0.1497840E+00
          2   -1    0    0  503    0  0.00000000000E+00  0.00000000000E+00  0.26634657675E+03  0.26634657675E+03  0.00000000000E+00 0.  1.
         -2   -1    0    0    0  501 -0.00000000000E+00 -0.00000000000E+00 -0.41618222183E+01  0.41618222183E+01  0.00000000000E+00 0. -1.
         21    1    1    2  502  501  0.10802112465E+02 -0.19828542918E+02  0.31697316580E+02  0.38917561927E+02  0.00000000000E+00 0. -1.
         21    1    1    2  503  502 -0.10802112465E+02  0.19828542918E+02  0.23048743795E+03  0.23159083704E+03  0.00000000000E+00 0.  1.
</event>
<event>
 4    1  0.5576842E+002  0.2126389E+02  0.7546771E-02  0.1515530E+00
          2   -1    0    0  502    0  0.00000000000E+00  0.00000000000E+00  0.12534520916E+04  0.12534520916E+04  0.00000000000E+00 0.  1.
         -2   -1    0    0    0  501 -0.00000000000E+00 -0.00000000000E+00 -0.38594698818E+00  0.38594698818E+00  0.00000000000E+00 0. -1.
         21    1    1    2  502  503 -0.17032133355E+02 -0.12730264329E+02  0.78679326578E+03  0.78708055260E+03  0.00000000000E+00 0.  1.
         21    1    1    2  503  501  0.17032133355E+02  0.12730264329E+02  0.46627287880E+03  0.46675748596E+03  0.00000000000E+00 0. -1.
</event>
<event>
 4    1  0.5576842E+002  0.2433298E+02  0.7546771E-02  0.1476405E+00
          2   -1    0    0  503    0  0.00000000000E+00  0.00000000000E+00  0.18258880526E+04  0.18258880526E+04  0.00000000000E+00 0. -1.
         -2   -1    0    0    0  501 -0.00000000000E+00 -0.00000000000E+00 -0.32919835336E+00  0.32919835336E+00  0.00000000000E+00 0.  1.
         21    1    1    2  502  501 -0.12357479413E+02 -0.20961550097E+02  0.10244211970E+04  0.10247101457E+04  0.00000000000E+00 0. -1.
         21    1    1    2  503  502  0.12357479413E+02  0.20961550097E+02  0.80113765726E+03  0.80150710525E+03  0.00000000000E+00 0.  1.
</event>
<event>
 4    1  0.5576842E+002  0.3729125E+02  0.7546771E-02  0.1365134E+00
          2   -1    0    0  503    0  0.00000000000E+00  0.00000000000E+00  0.49138848513E+03  0.49138848513E+03  0.00000000000E+00 0.  1.
         -2   -1    0    0    0  501 -0.00000000000E+00 -0.00000000000E+00 -0.50995713370E+01  0.50995713370E+01  0.00000000000E+00 0. -1.
         21    1    1    2  502  501 -0.33218318092E+02 -0.16946404174E+02  0.77536056228E+02  0.86037650402E+02  0.00000000000E+00 0. -1.
         21    1    1    2  503  502  0.33218318092E+02  0.16946404174E+02  0.40875285757E+03  0.41045040607E+03  0.00000000000E+00 0.  1.
</event>
<event>
 4    1  0.5576842E+002  0.3013568E+02  0.7546771E-02  0.1418421E+00
          2   -1    0    0  503    0  0.00000000000E+00  0.00000000000E+00  0.42075144312E+03  0.42075144312E+03  0.00000000000E+00 0. -1.
         -2   -1    0    0    0  501 -0.00000000000E+00 -0.00000000000E+00 -0.22530039893E+01  0.22530039893E+01  0.00000000000E+00 0.  1.
         21    1    1    2  502  501 -0.25680984537E+02 -0.15768518539E+02  0.16591426655E+03  0.16862889133E+03  0.00000000000E+00 0.  1.
         21    1    1    2  503  502  0.25680984537E+02  0.15768518539E+02  0.25258417258E+03  0.25437555579E+03  0.00000000000E+00 0. -1.
</event>
<event>
 4    1  0.5576842E+002  0.1587253E+03  0.7546771E-02  0.1088996E+00
          2   -1    0    0  502    0  0.00000000000E+00  0.00000000000E+00  0.10389340308E+03  0.10389340308E+03  0.00000000000E+00 0. -1.
         -2   -1    0    0    0  501 -0.00000000000E+00 -0.00000000000E+00 -0.25710196078E+03  0.25710196078E+03  0.00000000000E+00 0.  1.
         21    1    1    2  502  503 -0.90023789186E+00  0.15872278127E+03 -0.33582890472E+02  0.16223915143E+03  0.00000000000E+00 0. -1.
         21    1    1    2  503  501  0.90023789186E+00 -0.15872278127E+03 -0.11962566723E+03  0.19875621244E+03  0.00000000000E+00 0.  1.
</event>
<event>
 4    1  0.5576842E+002  0.3205588E+02  0.7546771E-02  0.1402534E+00
          2   -1    0    0  502    0  0.00000000000E+00  0.00000000000E+00  0.25519043807E+03  0.25519043807E+03  0.00000000000E+00 0. -1.
         -2   -1    0    0    0  501 -0.00000000000E+00 -0.00000000000E+00 -0.41866613489E+01  0.41866613489E+01  0.00000000000E+00 0.  1.
         21    1    1    2  502  503 -0.30462843781E+02  0.99796942519E+01  0.15085054619E+03  0.15421889130E+03  0.00000000000E+00 0.  1.
         21    1    1    2  503  501  0.30462843781E+02 -0.99796942519E+01  0.10015323053E+03  0.10515820812E+03  0.00000000000E+00 0. -1.
</event>
<event>
 4    1  0.5576842E+002  0.3147635E+02  0.7546771E-02  0.1407187E+00
          2   -1    0    0  503    0  0.00000000000E+00  0.00000000000E+00  0.13114854157E+03  0.13114854157E+03  0.00000000000E+00 0.  1.
         -2   -1    0    0    0  501 -0.00000000000E+00 -0.00000000000E+00 -0.89205636460E+01  0.89205636460E+01  0.00000000000E+00 0. -1.
         21    1    1    2  502  501  0.20158516416E+02  0.24174265022E+02  0.33707548852E+02  0.46118973569E+02  0.00000000000E+00 0. -1.
         21    1    1    2  503  502 -0.20158516416E+02 -0.24174265022E+02  0.88520429075E+02  0.93950131650E+02  0.00000000000E+00 0.  1.
</event>
<event>
 4    1  0.5576842E+002  0.2190986E+02  0.7546771E-02  0.1506660E+00
          2   -1    0    0  503    0  0.00000000000E+00  0.00000000000E+00  0.20193427260E+03  0.20193427260E+03  0.00000000000E+00 0. -1.
         -2   -1    0    0    0  501 -0.00000000000E+00 -0.00000000000E+00 -0.39910857715E+01  0.39910857715E+01  0.00000000000E+00 0.  1.
         21    1    1    2  502  501 -0.64927433872E+01  0.20925735668E+02  0.33497717562E+02  0.40026731216E+02  0.00000000000E+00 0.  1.
         21    1    1    2  503  502  0.64927433872E+01 -0.20925735668E+02  0.16444546927E+03  0.16589862716E+03  0.00000000000E+00 0. -1.
</event>
<event>
 4    1  0.5576842E+002  0.2510056E+02  0.7546771E-02  0.1467682E+00
          2   -1    0    0  502    0  0.00000000000E+00  0.00000000000E+00  0.78920019353E+03  0.78920019353E+03  0.00000000000E+00 0.  1.
         -2   -1    0    0    0  501 -0.00000000000E+00 -0.00000000000E+00 -0.13893484052E+01  0.13893484052E+01  0.00000000000E+00 0. -1.
         21    1    1    2  502  503  0.19826931941E+02  0.15392554737E+02  0.65172622335E+03  0.65220940515E+03  0.00000000000E+00 0.  1.
         21    1    1    2  503  501 -0.19826931941E+02 -0.15392554737E+02  0.13608462178E+03  0.13838013679E+03  0.00000000000E+00 0. -1.
</event>
<event>
 4    1  0.5576842E+002  0.7018116E+02  0.7546771E-02  0.1228683E+00
          2   -1    0    0  502    0  0.00000000000E+00  0.00000000000E+00  0.13364602074E+04  0.13364602074E+04  0.00000000000E+00 0. -1.
         -2   -1    0    0    0  501 -0.00000000000E+00 -0.00000000000E+00 -0.38118127330E+01  0.38118127330E+01  0.00000000000E+00 0.  1.
         21    1    1    2  502  503  0.46444971004E+02 -0.52614250746E+02  0.78835995612E+03  0.79147761505E+03  0.00000000000E+00 0. -1.
         21    1    1    2  503  501 -0.46444971004E+02  0.52614250746E+02  0.54428843850E+03  0.54879440504E+03  0.00000000000E+00 0.  1.
</event>
<event>
 4    1  0.5576842E+002  0.2414992E+02  0.7546771E-02  0.1478542E+00
          2   -1    0    0  503    0  0.00000000000E+00  0.00000000000E+00  0.63422732628E+02  0.63422732628E+02  0.00000000000E+00 0. -1.
         -2   -1    0    0    0  501 -0.00000000000E+00 -0.00000000000E+00 -0.20382516954E+02  0.20382516954E+02  0.00000000000E+00 0.  1.
         21    1    1    2  502  501  0.14635321133E+01  0.24105536532E+02  0.52563191467E+02  0.57845552248E+02  0.00000000000E+00 0. -1.
         21    1    1    2  503  502 -0.14635321133E+01 -0.24105536532E+02 -0.95229757933E+01  0.25959697334E+02  0.00000000000E+00 0.  1.
</event>
<event>
 4    1  0.5576842E+002  0.2157178E+02  0.7546771E-02  0.1511256E+00
          2   -1    0    0  502    0  0.00000000000E+00  0.00000000000E+00  0.50957991659E+02  0.50957991659E+02  0.00000000000E+00 0. -1.
         -2   -1    0    0    0  501 -0.00000000000E+00 -0.00000000000E+00 -0.11879186540E+03  0.11879186540E+03  0.00000000000E+00 0.  1.
         21    1    1    2  502  503  0.14631666509E+02  0.15851058628E+02  0.47630475243E+02  0.52287703108E+02  0.00000000000E+00 0. -1.
         21    1    1    2  503  501 -0.14631666509E+02 -0.15851058628E+02 -0.11546434899E+03  0.11746215395E+03  0.00000000000E+00 0.  1.
</event>
<event>
 4    1  0.5576842E+002  0.4397797E+02  0.7546771E-02  0.1326630E+00
          2   -1    0    0  503    0  0.00000000000E+00  0.00000000000E+00  0.66814067377E+01  0.66814067377E+01  0.00000000000E+00 0.  1.
         -2   -1    0    0    0  501 -0.00000000000E+00 -0.00000000000E+00 -0.32135545914E+03  0.32135545914E+03  0.00000000000E+00 0. -1.
         21    1    1    2  502  501  0.10084392352E+02 -0.42806157857E+02 -0.20900256155E+03  0.21357933621E+03  0.00000000000E+00 0. -1.
         21    1    1    2  503  502 -0.10084392352E+02  0.42806157857E+02 -0.10567149085E+03  0.11445752967E+03  0.00000000000E+00 0.  1.
</event>
<event>
 4    1  0.5576842E+002  0.2520681E+02  0.7546771E-02  0.1466503E+00
          2   -1    0    0  502    0  0.00000000000E+00  0.00000000000E+00  0.67294344282E+02  0.67294344282E+02  0.00000000000E+00 0.  1.
         -2   -1    0    0    0  501 -0.00000000000E+00 -0.00000000000E+00 -0.50633805701E+02  0.50633805701E+02  0.00000000000E+00 0. -1.
         21    1    1    2  502  503 -0.15296834400E+02 -0.20034728042E+02  0.61513336632E+02  0.66477620700E+02  0.00000000000E+00 0.  1.
         21    1    1    2  503  501  0.15296834400E+02  0.20034728042E+02 -0.44852798052E+02  0.51450529283E+02  0.00000000000E+00 0. -1.
</event>
<event>
 4    1  0.5576842E+002  0.4046684E+02  0.7546771E-02  0.1345772E+00
          2   -1    0    0  503    0  0.00000000000E+00  0.00000000000E+00  0.11840933079E+02  0.11840933079E+02  0.00000000000E+00 0. -1.
         -2   -1    0    0    0  501 -0.00000000000E+00 -0.00000000000E+00 -0.14438819061E+03  0.14438819061E+03  0.00000000000E+00 0.  1.
         21    1    1    2  502  501 -0.20843136076E+02  0.34686152537E+02 -0.82317801450E+02  0.91726691507E+02  0.00000000000E+00 0.  1.
         21    1    1    2  503  502  0.20843136076E+02 -0.34686152537E+02 -0.50229456084E+02  0.64502432185E+02  0.00000000000E+00 0. -1.
</event>
<event>
 4    1  0.5576842E+002  0.3390891E+02  0.7546771E-02  0.1388400E+00
          2   -1    0    0  502    0  0.00000000000E+00  0.00000000000E+00  0.45136680001E+01  0.45136680001E+01  0.00000000000E+00 0.  1.
         -2   -1    0    0    0  501 -0.00000000000E+00 -0.00000000000E+00 -0.25676915918E+03  0.25676915918E+03  0.00000000000E+00 0. -1.
         21    1    1    2  502  503  0.15804853519E+02  0.30000350451E+02 -0.11451579968E+03  0.11943066104E+03  0.00000000000E+00 0. -1.
         21    1    1    2  503  501 -0.15804853519E+02 -0.30000350451E+02 -0.13773969150E+03  0.14185216614E+03  0.00000000000E+00 0.  1.
</event>
<event>
 4    1  0.5576842E+002  0.2255982E+02  0.7546771E-02  0.1498101E+00
          2   -1    0    0  502    0  0.00000000000E+00  0.00000000000E+00  0.39092997440E+03  0.39092997440E+03  0.00000000000E+00 0. -1.
         -2   -1    0    0    0  501 -0.00000000000E+00 -0.00000000000E+00 -0.16253444182E+01  0.16253444182E+01  0.00000000000E+00 0.  1.
         21    1    1    2  502  503  0.16136168002E+02  0.15766093904E+02  0.28221286326E+03  0.28311313256E+03  0.00000000000E+00 0.  1.
         21    1    1    2  503  501 -0.16136168002E+02 -0.15766093904E+02  0.10709176671E+03  0.10944218626E+03  0.00000000000E+00 0. -1.
</event>
<event>
 4    1  0.5576842E+002  0.2192906E+02  0.7546771E-02  0.1506402E+00
          2   -1    0    0  502    0  0.00000000000E+00  0.00000000000E+00  0.16401996312E+03  0.16401996312E+03  0.00000000000E+00 0. -1.
         -2   -1    0    0    0  501 -0.00000000000E+00 -0.00000000000E+00 -0.29339000997E+01  0.29339000997E+01  0.00000000000E+00 0.  1.
         21    1    1    2  502  503  0.14134253639E+02 -0.16766231953E+02  0.78342079339E+02  0.81353334627E+02  0.00000000000E+00 0.  1.
         21    1    1    2  503  501 -0.14134253639E+02  0.16766231953E+02  0.82743983681E+02  0.85600528592E+02  0.00000000000E+00 0. -1.
</event>
<event>
 4    1  0.5576842E+002  0.2690794E+02  0.7546771E-02  0.1448535E+00
          2   -1    0    0  502    0  0.00000000000E+00  0.00000000000E+00  0.10305174207E+04  0.10305174207E+04  0.00000000000E+00 0.  1.
         -2   -1    0    0    0  501 -0.00000000000E+00 -0.00000000000E+00 -0.12065917525E+01  0.12065917525E+01  0.00000000000E+00 0. -1.
         21    1    1    2  502  503  0.26138211236E+02  0.63899399860E+01  0.84805634221E+03  0.84848311532E+03  0.00000000000E+00 0.  1.
         21    1    1    2  503  501 -0.26138211236E+02 -0.63899399860E+01  0.18125448674E+03  0.18324089714E+03  0.00000000000E+00 0. -1.
</event>
<event>
 4    1  0.5576842E+002  0.2493390E+02  0.7546771E-02  0.1469544E+00
          2   -1    0    0  503    0  0.00000000000E+00  0.00000000000E+00  0.67661288354E+03  0.67661288354E+03  0.00000000000E+00 0. -1.
         -2   -1    0    0    0  501 -0.00000000000E+00 -0.00000000000E+00 -0.44271203871E+01  0.44271203871E+01  0.00000000000E+00 0.  1.
         21    1    1    2  502  501 -0.87222562114E+01 -0.23358544753E+02  0.32962773846E+02  0.41330906427E+02  0.00000000000E+00 0.  1.
         21    1    1    2  503  502  0.87222562114E+01  0.23358544753E+02  0.63922298930E+03  0.63970909750E+03  0.00000000000E+00 0. -1.
</event>
<event>
 4    1  0.5576842E+002  0.3975933E+02  0.7546771E-02  0.1349902E+00
          2   -1    0    0  502    0  0.00000000000E+00  0.00000000000E+00  0.88872221275E+03  0.88872221275E+03  0.00000000000E+00 0.  1.
         -2   -1    0    0    0  501 -0.00000000000E+00 -0.00000000000E+00 -0.71752446450E+02  0.71752446450E+02  0.00000000000E+00 0. -1.
         21    1    1    2  502  503 -0.36832434092E+02  0.14972504755E+02  0.88273233266E+03  0.88362728298E+03  0.00000000000E+00 0.  1.
         21    1    1    2  503  501  0.36832434092E+02 -0.14972504755E+02 -0.65762566354E+02  0.76847376229E+02  0.00000000000E+00 0. -1.
</event>
<event>
 4    1  0.5576842E+002  0.3609982E+02  0.7546771E-02  0.1372992E+00
          2   -1    0    0  502    0  0.00000000000E+00  0.00000000000E+00  0.97993625593E+02  0.97993625593E+02  0.00000000000E+00 0. -1.
         -2   -1    0    0    0  501 -0.00000000000E+00 -0.00000000000E+00 -0.55703431525E+02  0.55703431525E+02  0.00000000000E+00 0.  1.
         21    1    1    2  502  503  0.29078546892E+02 -0.21392406527E+02  0.88195480172E+02  0.95297637270E+02  0.00000000000E+00 0. -1.
         21    1    1    2  503  501 -0.29078546892E+02  0.21392406527E+02 -0.45905286104E+02  0.58399419848E+02  0.00000000000E+00 0.  1.
</event>
<event>
 4    1  0.5576842E+002  0.2454292E+02  0.7546771E-02  0.1473982E+00
          2   -1    0    0  503    0  0.00000000000E+00  0.00000000000E+00  0.45862088073E+02  0.45862088073E+02  0.00000000000E+00 0.  1.
         -2   -1    0    0    0  501 -0.00000000000E+00 -0.00000000000E+00 -0.21888585118E+02  0.21888585118E+02  0.00000000000E+00 0. -1.
         21    1    1    2  502  501  0.12579825093E+02 -0.21073744307E+02 -0.94367995979E+01  0.26294636053E+02  0.00000000000E+00 0. -1.
         21    1    1    2  503  502 -0.12579825093E+02  0.21073744307E+02  0.33410302553E+02  0.41456037138E+02  0.00000000000E+00 0.  1.
</event>
<event>
 4    1  0.5576842E+002  0.2183821E+02  0.7546771E-02  0.1507626E+00
          2   -1    0    0  503    0  0.00000000000E+00  0.00000000000E+00  0.18443309030E+01  0.18443309030E+01  0.00000000000E+00 0.  1.
         -2   -1    0    0    0  501 -0.00000000000E+00 -0.00000000000E+00 -0.26021842280E+03  0.26021842280E+03  0.00000000000E+00 0. -1.
         21    1    1    2  502  501  0.14692914914E+02 -0.16156284645E+02 -0.13958397541E+03  0.14128196443E+03  0.00000000000E+00 0. -1.
         21    1    1    2  503  502 -0.14692914914E+02  0.16156284645E+02 -0.11879011649E+03  0.12078078928E+03  0.00000000000E+00 0.  1.
</event>
<event>
 4    1  0.5576842E+002  0.2162632E+02  0.7546771E-02  0.1510507E+00
          2   -1    0    0  503    0  0.00000000000E+00  0.00000000000E+00  0.88972636077E+03  0.88972636077E+03  0.00000000000E+00 0. -1.
         -2   -1    0    0    0  501 -0.00000000000E+00 -0.00000000000E+00 -0.15064501751E+01  0.15064501751E+01  0.00000000000E+00 0.  1.
         21    1    1    2  502  501  0.73834369956E+01 -0.20326896430E+02  0.84550455191E+02  0.87272431692E+02  0.00000000000E+00 0.  1.
         21    1    1    2  503  502 -0.73834369956E+01  0.20326896430E+02  0.80366945540E+03  0.80396037925E+03  0.00000000000E+00 0. -1.
</event>
<event>
 4    1  0.5576842E+002  0.2203969E+02  0.7546771E-02  0.1504922E+00
          2   -1    0    0  502    0  0.00000000000E+00  0.00000000000E+00  0.41780642602E+03  0.41780642602E+03  0.00000000000E+00 0.  1.
         -2   -1    0    0    0  501 -0.00000000000E+00 -0.00000000000E+00 -0.15877890985E+01  0.15877890985E+01  0.00000000000E+00 0. -1.
         21    1    1    2  502  503  0.20593711740E+02  0.78515618899E+01  0.31662174355E+03  0.31738789592E+03  0.00000000000E+00 0.  1.
         21    1    1    2  503  501 -0.20593711740E+02 -0.78515618899E+01  0.99596893367E+02  0.10200631919E+03  0.00000000000E+00 0. -1.
</event>
<event>
 4    1  0.5576842E+002  0.2629445E+02  0.7546771E-02  0.1454827E+00
          2   -1    0    0  503    0  0.00000000000E+00  0.00000000000E+00  0.67380575766E+02  0.67380575766E+02  0.00000000000E+00 0. -1.
         -2   -1    0    0    0  501 -0.00000000000E+00 -0.00000000000E+00 -0.14166530867E+02  0.14166530867E+02  0.00000000000E+00 0.  1.
         21    1    1    2  502  501  0.22042965172E+02  0.14335468784E+02  0.51987323582E+01  0.26803447483E+02  0.00000000000E+00 0.  1.
         21    1    1    2  503  502 -0.22042965172E+02 -0.14335468784E+02  0.48015312540E+02  0.54743659150E+02  0.00000000000E+00 0. -1.
</event>
<event>
 4    1  0.5576842E+002  0.5887209E+02  0.7546771E-02  0.1263714E+00
          2   -1    0    0  503    0  0.00000000000E+00  0.00000000000E+00  0.15090900535E+04  0.15090900535E+04  0.00000000000E+00 0.  1.
         -2   -1    0    0    0  501 -0.00000000000E+00 -0.00000000000E+00 -0.70766099401E+01  0.70766099401E+01  0.00000000000E+00 0. -1.
         21    1    1    2  502  501 -0.28194221246E+02 -0.51681804500E+02  0.12796906133E+03  0.14086164732E+03  0.00000000000E+00 0. -1.
         21    1    1    2  503  502  0.28194221246E+02  0.51681804500E+02  0.13740443822E+04  0.13753050161E+04  0.00000000000E+00 0.  1.
</event>
<event>
 4    1  0.5576842E+002  0.2013286E+02  0.7546771E-02  0.1532014E+00
          2   -1    0    0  503    0  0.00000000000E+00  0.00000000000E+00  0.18544733471E+02  0.18544733471E+02  0.00000000000E+00 0.  1.
         -2   -1    0    0    0  501 -0.00000000000E+00 -0.00000000000E+00 -0.59339339999E+02  0.59339339999E+02  0.00000000000E+00 0. -1.
         21    1    1    2  502  501  0.15114324887E+02 -0.13299976835E+02 -0.51347304192E+02  0.55153221560E+02  0.00000000000E+00 0. -1.
         21    1    1    2  503  502 -0.15114324887E+02  0.13299976835E+02  0.10552697664E+02  0.22730851910E+02  0.00000000000E+00 0.  1.
</event>
<event>
 4    1  0.5576842E+002  0.2812512E+02  0.7546771E-02  0.1436622E+00
          2   -1    0    0  503    0  0.00000000000E+00  0.00000000000E+00  0.75811646049E+01  0.75811646049E+01  0.00000000000E+00 0.  1.
         -2   -1    0    0    0  501 -0.00000000000E+00 -0.00000000000E+00 -0.15163734694E+03  0.15163734694E+03  0.00000000000E+00 0. -1.
         21    1    1    2  502  501 -0.17592951913E+01 -0.28070042581E+02 -0.11648882512E+03  0.11983600789E+03  0.00000000000E+00 0. -1.
         21    1    1    2  503  502  0.17592951913E+01  0.28070042581E+02 -0.27567357217E+02  0.39382503653E+02  0.00000000000E+00 0.  1.
</event>
<event>
 4    1  0.5576842E+002  0.2829950E+02  0.7546771E-02  0.1434974E+00
          2   -1    0    0  502    0  0.00000000000E+00  0.00000000000E+00  0.19434158535E+04  0.19434158535E+04  0.00000000000E+00 0. -1.
         -2   -1    0    0    0  501 -0.00000000000E+00 -0.00000000000E+00 -0.70193690130E+00  0.70193690130E+00  0.00000000000E+00 0.  1.
         21    1    1    2  502  503  0.26930315102E+02  0.86959685059E+01  0.15959944750E+04  0.15962453527E+04  0.00000000000E+00 0. -1.
         21    1    1    2  503  501 -0.26930315102E+02 -0.86959685059E+01  0.34671944160E+03  0.34787243772E+03  0.00000000000E+00 0.  1.
</event>
<event>
 4    1  0.5576842E+002  0.5264194E+02  0.7546771E-02  0.1287107E+00
          2   -1    0    0  503    0  0.00000000000E+00  0.00000000000E+00  0.70273197964E+03  0.70273197964E+03  0.00000000000E+00 0. -1.
         -2   -1    0    0    0  501 -0.00000000000E+00 -0.00000000000E+00 -0.20948157736E+02  0.20948157736E+02  0.00000000000E+00 0.  1.
         21    1    1    2  502  501 -0.47307899725E+02  0.23089749406E+02  0.14883661820E+02  0.54705550845E+02  0.00000000000E+00 0.  1.
         21    1    1    2  503  502  0.47307899725E+02 -0.23089749406E+02  0.66690016009E+03  0.66897458654E+03  0.00000000000E+00 0. -1.
</event>
<event>
 4    1  0.5576842E+002  0.4205700E+02  0.7546771E-02  0.1336836E+00
          2   -1    0    0  503    0  0.00000000000E+00  0.00000000000E+00  0.19408065978E+04  0.19408065978E+04  0.00000000000E+00 0.  1.
         -2   -1    0    0    0  501 -0.00000000000E+00 -0.00000000000E+00 -0.92082763640E+00  0.92082763640E+00  0.00000000000E+00 0. -1.
         21    1    1    2  502  501 -0.40417280930E+02  0.11629038905E+02  0.10683397559E+04  0.10691672578E+04  0.00000000000E+00 0. -1.
         21    1    1    2  503  502  0.40417280930E+02 -0.11629038905E+02  0.87154601427E+03  0.87256016763E+03  0.00000000000E+00 0.  1.
</event>
<event>
 4    1  0.5576842E+002  0.2744643E+02  0.7546771E-02  0.1443174E+00
          2   -1    0    0  502    0  0.00000000000E+00  0.00000000000E+00  0.13242613312E+04  0.13242613312E+04  0.00000000000E+00 0.  1.
         -2   -1    0    0    0  501 -0.00000000000E+00 -0.00000000000E+00 -0.56911849662E+00  0.56911849662E+00  0.00000000000E+00 0. -1.
         21    1    1    2  502  503  0.26542045271E+02 -0.69875874873E+01  0.64746804786E+03  0.64804951936E+03  0.00000000000E+00 0.  1.
         21    1    1    2  503  501 -0.26542045271E+02  0.69875874873E+01  0.67622416485E+03  0.67678093034E+03  0.00000000000E+00 0. -1.
</event>
<event>
 4    1  0.5576842E+002  0.2514307E+02  0.7546771E-02  0.1467209E+00
          2   -1    0    0  503    0  0.00000000000E+00  0.00000000000E+00  0.82701332789E+01  0.82701332789E+01  0.00000000000E+00 0.  1.
         -2   -1    0    0    0  501 -0.00000000000E+00 -0.00000000000E+00 -0.28894057547E+03  0.28894057547E+03  0.00000000000E+00 0. -1.
         21    1    1    2  502  501 -0.32424274120E+01  0.24933124123E+02 -0.26777635449E+03  0.26895417833E+03  0.00000000000E+00 0. -1.
         21    1    1    2  503  502  0.32424274120E+01 -0.24933124123E+02 -0.12894087702E+02  0.28256530426E+02  0.00000000000E+00 0.  1.
</event>
<event>
 4    1  0.5576842E+002  0.5541429E+02  0.7546771E-02  0.1276263E+00
          2   -1    0    0  502    0  0.00000000000E+00  0.00000000000E+00  0.25177898761E+02  0.25177898761E+02  0.00000000000E+00 0.  1.
         -2   -1    0    0    0  501 -0.00000000000E+00 -0.00000000000E+00 -0.13218188106E+03  0.13218188106E+03  0.00000000000E+00 0. -1.
         21    1    1    2  502  503  0.64189138964E+01  0.55041267069E+02 -0.31624197114E+02  0.63803082835E+02  0.00000000000E+00 0.  1.
         21    1    1    2  503  501 -0.64189138964E+01 -0.55041267069E+02 -0.75379785183E+02  0.93556696983E+02  0.00000000000E+00 0. -1.
</event>
<event>
 4    1  0.5576842E+002  0.2023470E+02  0.7546771E-02  0.1530478E+00
          2   -1    0    0  503    0  0.00000000000E+00  0.00000000000E+00  0.13184707868E+04  0.13184707868E+04  0.00000000000E+00 0. -1.
         -2   -1    0    0    0  501 -0.00000000000E+00 -0.00000000000E+00 -0.26212132399E+01  0.26212132399E+01  0.00000000000E+00 0.  1.
         21    1    1    2  502  501 -0.66631466674E+01 -0.19106166212E+02  0.37740458284E+02  0.42822719465E+02  0.00000000000E+00 0.  1.
         21    1    1    2  503  502  0.66631466674E+01  0.19106166212E+02  0.12781091152E+04  0.12782692805E+04  0.00000000000E+00 0. -1.
</event>
<event>
 4    1  0.5576842E+002  0.2454041E+02  0.7546771E-02  0.1474011E+00
          2   -1    0    0  503    0  0.00000000000E+00  0.00000000000E+00  0.93712649704E+01  0.93712649704E+01  0.00000000000E+00 0.  1.
         -2   -1    0    0    0  501 -0.00000000000E+00 -0.00000000000E+00 -0.64429936696E+02  0.64429936696E+02  0.00000000000E+00 0. -1.
         21    1    1    2  502  501 -0.12235750165E+01 -0.24509886559E+02 -0.29403988172E+02  0.38299167032E+02  0.00000000000E+00 0.  1.
         21    1    1    2  503  502  0.12235750165E+01  0.24509886559E+02 -0.25654683554E+02  0.35502034634E+02  0.00000000000E+00 0. -1.
</event>
<event>
 4    1  0.5576842E+002  0.2302996E+02  0.7546771E-02  0.1492122E+00
          2   -1    0    0  502    0  0.00000000000E+00  0.00000000000E+00  0.10942588365E+04  0.10942588365E+04  0.00000000000E+00 0. -1.
         -2   -1    0    0    0  501 -0.00000000000E+00 -0.00000000000E+00 -0.81730056395E+00  0.81730056395E+00  0.00000000000E+00 0.  1.
         21    1    1    2  502  503  0.55306319064E+01  0.22356009323E+02  0.89601371212E+03  0.89630962918E+03  0.00000000000E+00 0. -1.
         21    1    1    2  503  501 -0.55306319064E+01 -0.22356009323E+02  0.19742782380E+03  0.19876650787E+03  0.00000000000E+00 0.  1.
</event>
<event>
 4    1  0.5576842E+002  0.2048975E+02  0.7546771E-02  0.1526676E+00
          2   -1    0    0  502    0  0.00000000000E+00  0.00000000000E+00  0.95743328054E+02  0.95743328054E+02  0.00000000000E+00 0. -1.
         -2   -1    0    0    0  501 -0.00000000000E+00 -0.00000000000E+00 -0.10910650802E+02  0.10910650802E+02  0.00000000000E+00 0.  1.
         21    1    1    2  502  503 -0.19709727266E+02  0.55996921297E+01  0.83657914293E+02  0.86130578337E+02  0.00000000000E+00 0. -1.
         21    1    1    2  503  501  0.19709727266E+02 -0.55996921297E+01  0.11747629599E+01  0.20523400519E+02  0.00000000000E+00 0.  1.
</event>
<event>
 4    1  0.5576842E+002  0.2423215E+02  0.7546771E-02  0.1477580E+00
          2   -1    0    0  502    0  0.00000000000E+00  0.00000000000E+00  0.80612875101E+03  0.80612875101E+03  0.00000000000E+00 0. -1.
         -2   -1    0    0    0  501 -0.00000000000E+00 -0.00000000000E+00 -0.10084054020E+01  0.10084054020E+01  0.00000000000E+00 0.  1.
         21    1    1    2  502  503  0.88770983752E+01  0.22547595940E+02  0.61521276301E+03  0.61568980885E+03  0.00000000000E+00 0. -1.
         21    1    1    2  503  501 -0.88770983752E+01 -0.22547595940E+02  0.18990758260E+03  0.19144734756E+03  0.00000000000E+00 0.  1.
</event>
<event>
 4    1  0.5576842E+002  0.2137543E+02  0.7546771E-02  0.1513972E+00
          2   -1    0    0  502    0  0.00000000000E+00  0.00000000000E+00  0.60916269327E+03  0.60916269327E+03  0.00000000000E+00 0.  1.
         -2   -1    0    0    0  501 -0.00000000000E+00 -0.00000000000E+00 -0.26214554199E+01  0.26214554199E+01  0.00000000000E+00 0. -1.
         21    1    1    2  502  503 -0.21025390779E+02 -0.38525079247E+01  0.56172250708E+03  0.56212906333E+03  0.00000000000E+00 0.  1.
         21    1    1    2  503  501  0.21025390779E+02  0.38525079247E+01  0.44818730771E+02  0.49655085365E+02  0.00000000000E+00 0. -1.
</event>
<event>
 4    1  0.5576842E+002  0.3984717E+02  0.7546771E-02  0.1349384E+00
          2   -1    0    0  502    0  0.00000000000E+00  0.00000000000E+00  0.42515335986E+01  0.42515335986E+01  0.00000000000E+00 0.  1.
         -2   -1    0    0    0  501 -0.00000000000E+00 -0.00000000000E+00 -0.37390954156E+03  0.37390954156E+03  0.00000000000E+00 0. -1.
         21    1    1    2  502  503  0.33895618682E+02  0.20949562475E+02 -0.17830621208E+03  0.18270441265E+03  0.00000000000E+00 0. -1.
         21    1    1    2  503  501 -0.33895618682E+02 -0.20949562475E+02 -0.19135179587E+03  0.19545666250E+03  0.00000000000E+00 0.  1.
</event>
<event>
 4    1  0.5576842E+002  0.3169907E+02  0.7546771E-02  0.1405384E+00
          2   -1    0    0  503    0  0.00000000000E+00  0.00000000000E+00  0.37348715386E+03  0.37348715386E+03  0.00000000000E+00 0. -1.
         -2   -1    0    0    0  501 -0.00000000000E+00 -0.00000000000E+00 -0.30011041701E+01  0.30011041701E+01  0.00000000000E+00 0.  1.
         21    1    1    2  502  501 -0.28863268430E+02 -0.13105062285E+02  0.24581230597E+03  0.24784777725E+03  0.00000000000E+00 0. -1.
         21    1    1    2  503  502  0.28863268430E+02  0.13105062285E+02  0.12467374372E+03  0.12864048077E+03  0.00000000000E+00 0.  1.
</event>
<event>
 4    1  0.5576842E+002  0.2337606E+02  0.7546771E-02  0.1487829E+00
          2   -1    0    0  502    0  0.00000000000E+00  0.00000000000E+00  0.55861874688E+01  0.55861874688E+01  0.00000000000E+00 0. -1.
         -2   -1    0    0    0  501 -0.00000000000E+00 -0.00000000000E+00 -0.97834956253E+02  0.97834956253E+02  0.00000000000E+00 0.  1.
         21    1    1    2  502  503  0.13002001692E+01  0.23339872373E+02 -0.45482371929E+02  0.51137914693E+02  0.00000000000E+00 0. -1.
         21    1    1    2  503  501 -0.13002001692E+01 -0.23339872373E+02 -0.46766396855E+02  0.52283229029E+02  0.00000000000E+00 0.  1.
</event>
<event>
 4    1  0.5576842E+002  0.2942744E+02  0.7546771E-02  0.1424638E+00
          2   -1    0    0  502    0  0.00000000000E+00  0.00000000000E+00  0.15541255399E+04  0.15541255399E+04  0.00000000000E+00 0.  1.
         -2   -1    0    0    0  501 -0.00000000000E+00 -0.00000000000E+00 -0.56104530282E+00  0.56104530282E+00  0.00000000000E+00 0. -1.
         21    1    1    2  502  503 -0.15358374259E+02 -0.25101681923E+02  0.84105411071E+03  0.84156876798E+03  0.00000000000E+00 0.  1.
         21    1    1    2  503  501  0.15358374259E+02  0.25101681923E+02  0.71251038391E+03  0.71311781725E+03  0.00000000000E+00 0. -1.
</event>
<event>
 4    1  0.5576842E+002  0.2838356E+02  0.7546771E-02  0.1434184E+00
          2   -1    0    0  502    0  0.00000000000E+00  0.00000000000E+00  0.40012477242E+01  0.40012477242E+01  0.00000000000E+00 0.  1.
         -2   -1    0    0    0  501 -0.00000000000E+00 -0.00000000000E+00 -0.25522000108E+03  0.25522000108E+03  0.00000000000E+00 0. -1.
         21    1    1    2  502  503  0.28269150664E+02 -0.25458877213E+01 -0.66059381551E+02  0.71899014697E+02  0.00000000000E+00 0.  1.
         21    1    1    2  503  501 -0.28269150664E+02  0.25458877213E+01 -0.18515937180E+03  0.18732223411E+03  0.00000000000E+00 0. -1.
</event>
<event>
 4    1  0.5576842E+002  0.2129913E+02  0.7546771E-02  0.1515037E+00
          2   -1    0    0  502    0  0.00000000000E+00  0.00000000000E+00  0.30331999599E+02  0.30331999599E+02  0.00000000000E+00 0. -1.
         -2   -1    0    0    0  501 -0.00000000000E+00 -0.00000000000E+00 -0.36991897369E+02  0.36991897369E+02  0.00000000000E+00 0.  1.
         21    1    1    2  502  503 -0.19777464041E+02  0.79060061570E+01  0.22650630894E+02  0.31091865450E+02  0.00000000000E+00 0. -1.
         21    1    1    2  503  501  0.19777464041E+02 -0.79060061570E+01 -0.29310528665E+02  0.36232031518E+02  0.00000000000E+00 0.  1.
</event>
<event>
 4    1  0.5576842E+002  0.2246501E+02  0.7546771E-02  0.1499327E+00
          2   -1    0    0  502    0  0.00000000000E+00  0.00000000000E+00  0.17744307559E+03  0.17744307559E+03  0.00000000000E+00 0.  1.
         -2   -1    0    0    0  501 -0.00000000000E+00 -0.00000000000E+00 -0.37982427476E+01  0.37982427476E+01  0.00000000000E+00 0. -1.
         21    1    1    2  502  503 -0.18893828867E+02 -0.12153194076E+02  0.13224045445E+03  0.13413506137E+03  0.00000000000E+00 0.  1.
         21    1    1    2  503  501  0.18893828867E+02  0.12153194076E+02  0.41404378398E+02  0.47106256973E+02  0.00000000000E+00 0. -1.
</event>
<event>
 4    1  0.5576842E+002  0.2747714E+02  0.7546771E-02  0.1442873E+00
          2   -1    0    0  502    0  0.00000000000E+00  0.00000000000E+00  0.45962880699E+02  0.45962880699E+02  0.00000000000E+00 0. -1.
         -2   -1    0    0    0  501 -0.00000000000E+00 -0.00000000000E+00 -0.20610436373E+02  0.20610436373E+02  0.00000000000E+00 0.  1.
         21    1    1    2  502  503  0.21128489219E+02 -0.17566454640E+02  0.27674350570E+02  0.38998244381E+02  0.00000000000E+00 0. -1.
         21    1    1    2  503  501 -0.21128489219E+02  0.17566454640E+02 -0.23219062443E+01  0.27575072691E+02  0.00000000000E+00 0.  1.
</event>
<event>
 4    1  0.5576842E+002  0.3062602E+02  0.7546771E-02  0.1414233E+00
          2   -1    0    0  503    0  0.00000000000E+00  0.00000000000E+00  0.39277674551E+03  0.39277674551E+03  0.00000000000E+00 0.  1.
         -2   -1    0    0    0  501 -0.00000000000E+00 -0.00000000000E+00 -0.41504236289E+01  0.41504236289E+01  0.00000000000E+00 0. -1.
         21    1    1    2  502  501 -0.23898957207E+02  0.19151832625E+02  0.64986176856E+02  0.71841186174E+02  0.00000000000E+00 0. -1.
         21    1    1    2  503  502  0.23898957207E+02 -0.19151832625E+02  0.32364014503E+03  0.32508598297E+03  0.00000000000E+00 0.  1.
</event>
<event>
 4    1  0.5576842E+002  0.2109371E+02  0.7546771E-02  0.1517931E+00
          2   -1    0    0  502    0  0.00000000000E+00  0.00000000000E+00  0.18262171098E+03  0.18262171098E+03  0.00000000000E+00 0. -1.
         -2   -1    0    0    0  501 -0.00000000000E+00 -0.00000000000E+00 -0.43477218952E+01  0.43477218952E+01  0.00000000000E+00 0.  1.
         21    1    1    2  502  503  0.10084674817E+02  0.18526839427E+02  0.15112013843E+03  0.15258519156E+03  0.00000000000E+00 0. -1.
         21    1    1    2  503  501 -0.10084674817E+02 -0.18526839427E+02  0.27153850661E+02  0.34384241318E+02  0.00000000000E+00 0.  1.
</event>
<event>
 4    1  0.5576842E+002  0.5736906E+02  0.7546771E-02  0.1269043E+00
          2   -1    0    0  502    0  0.00000000000E+00  0.00000000000E+00  0.31066805615E+02  0.31066805615E+02  0.00000000000E+00 0.  1.
         -2   -1    0    0    0  501 -0.00000000000E+00 -0.00000000000E+00 -0.33075924699E+03  0.33075924699E+03  0.00000000000E+00 0. -1.
         21    1    1    2  502  503 -0.54959785227E+02  0.16450866712E+02 -0.69361453836E+00  0.57373252556E+02  0.00000000000E+00 0.  1.
         21    1    1    2  503  501  0.54959785227E+02 -0.16450866712E+02 -0.29899882684E+03  0.30445280005E+03  0.00000000000E+00 0. -1.
</event>
<event>
 4    1  0.5576842E+002  0.2381019E+02  0.7546771E-02  0.1482568E+00
          2   -1    0    0  503    0  0.00000000000E+00  0.00000000000E+00  0.11879625655E+02  0.11879625655E+02  0.00000000000E+00 0.  1.
         -2   -1    0    0    0  501 -0.00000000000E+00 -0.00000000000E+00 -0.10271012523E+03  0.10271012523E+03  0.00000000000E+00 0. -1.
         21    1    1    2  502  501  0.16313487737E+02  0.17343456332E+02 -0.87337217332E+02  0.90524664545E+02  0.00000000000E+00 0. -1.
         21    1    1    2  503  502 -0.16313487737E+02 -0.17343456332E+02 -0.34932822414E+01  0.24065086339E+02  0.00000000000E+00 0.  1.
</event>
<event>
 4    1  0.5576842E+002  0.2397060E+02  0.7546771E-02  0.1480657E+00
          2   -1    0    0  503    0  0.00000000000E+00  0.00000000000E+00  0.81886211940E+01  0.81886211940E+01  0.00000000000E+00 0.  1.
         -2   -1    0    0    0  501 -0.00000000000E+00 -0.00000000000E+00 -0.32731612414E+03  0.32731612414E+03  0.00000000000E+00 0. -1.
         21    1    1    2  502  501  0.22165735005E+02  0.91252381732E+01 -0.30825162755E+03  0.30918223699E+03  0.00000000000E+00 0. -1.
         21    1    1    2  503  502 -0.22165735005E+02 -0.91252381732E+01 -0.10875875393E+02  0.26322508346E+02  0.00000000000E+00 0.  1.
</event>
<event>
 4    1  0.5576842E+002  0.7042427E+02  0.7546771E-02  0.1228013E+00
          2   -1    0    0  503    0  0.00000000000E+00  0.00000000000E+00  0.34159614095E+02  0.34159614095E+02  0.00000000000E+00 0. -1.
         -2   -1    0    0    0  501 -0.00000000000E+00 -0.00000000000E+00 -0.19708259037E+03  0.19708259037E+03  0.00000000000E+00 0.  1.
         21    1    1    2  502  501 -0.24080941419E+02 -0.66179199011E+02 -0.14079124108E+03  0.15742220836E+03  0.00000000000E+00 0. -1.
         21    1    1    2  503  502  0.24080941419E+02  0.66179199011E+02 -0.22131735192E+02  0.73819996099E+02  0.00000000000E+00 0.  1.
</event>
<event>
 4    1  0.5576842E+002  0.2280047E+02  0.7546771E-02  0.1495019E+00
          2   -1    0    0  502    0  0.00000000000E+00  0.00000000000E+00  0.10507933367E+04  0.10507933367E+04  0.00000000000E+00 0.  1.
         -2   -1    0    0    0  501 -0.00000000000E+00 -0.00000000000E+00 -0.63488564891E+00  0.63488564891E+00  0.00000000000E+00 0. -1.
         21    1    1    2  502  503 -0.16033543851E+02 -0.16210701315E+02  0.77208304912E+03  0.77241963731E+03  0.00000000000E+00 0.  1.
         21    1    1    2  503  501  0.16033543851E+02  0.16210701315E+02  0.27807540191E+03  0.27900858502E+03  0.00000000000E+00 0. -1.
</event>
<event>
 4    1  0.5576842E+002  0.3283669E+02  0.7546771E-02  0.1396445E+00
          2   -1    0    0  502    0  0.00000000000E+00  0.00000000000E+00  0.52717624691E+01  0.52717624691E+01  0.00000000000E+00 0.  1.
         -2   -1    0    0    0  501 -0.00000000000E+00 -0.00000000000E+00 -0.20454460537E+03  0.20454460537E+03  0.00000000000E+00 0. -1.
         21    1    1    2  502  503  0.16359120647E+01 -0.32795913686E+02 -0.98838301325E+02  0.10415017029E+03  0.00000000000E+00 0. -1.
         21    1    1    2  503  501 -0.16359120647E+01  0.32795913686E+02 -0.10043454158E+03  0.10566619755E+03  0.00000000000E+00 0.  1.
</event>
<event>
 4    1  0.5576842E+002  0.3551713E+02  0.7546771E-02  0.1376964E+00
          2   -1    0    0  503    0  0.00000000000E+00  0.00000000000E+00  0.47943113182E+03  0.47943113182E+03  0.00000000000E+00 0. -1.
         -2   -1    0    0    0  501 -0.00000000000E+00 -0.00000000000E+00 -0.27473346283E+01  0.27473346283E+01  0.00000000000E+00 0.  1.
         21    1    1    2  502  501  0.71016472060E+01  0.34799903822E+02  0.18876816509E+03  0.19208041767E+03  0.00000000000E+00 0. -1.
         21    1    1    2  503  502 -0.71016472060E+01 -0.34799903822E+02  0.28791563210E+03  0.29009804878E+03  0.00000000000E+00 0.  1.
</event>
<event>
 4    1  0.5576842E+002  0.2965653E+02  0.7546771E-02  0.1422605E+00
          2   -1    0    0  502    0  0.00000000000E+00  0.00000000000E+00  0.10612080692E+04  0.10612080692E+04  0.00000000000E+00 0. -1.
         -2   -1    0    0    0  501 -0.00000000000E+00 -0.00000000000E+00 -0.26293111409E+01  0.26293111409E+01  0.00000000000E+00 0.  1.
         21    1    1    2  502  503 -0.81096580501E+01  0.28526180376E+02  0.96946340115E+03  0.96991690143E+03  0.00000000000E+00 0. -1.
         21    1    1    2  503  501  0.81096580501E+01 -0.28526180376E+02  0.89115356883E+02  0.93920478880E+02  0.00000000000E+00 0.  1.
</event>
<event>
 4    1  0.5576842E+002  0.2488320E+02  0.7546771E-02  0.1470114E+00
          2   -1    0    0  502    0  0.00000000000E+00  0.00000000000E+00  0.23542181879E+04  0.23542181879E+04  0.00000000000E+00 0. -1.
         -2   -1    0    0    0  501 -0.00000000000E+00 -0.00000000000E+00 -0.29232363085E+00  0.29232363085E+00  0.00000000000E+00 0.  1.
         21    1    1    2  502  503  0.24053486475E+02 -0.63720635389E+01  0.80413929649E+03  0.80452419576E+03  0.00000000000E+00 0.  1.
         21    1    1    2  503  501 -0.24053486475E+02  0.63720635389E+01  0.15497865678E+04  0.15499863158E+04  0.00000000000E+00 0. -1.
</event>
<event>
 4    1  0.5576842E+002  0.2878297E+02  0.7546771E-02  0.1430476E+00
          2   -1    0    0  503    0  0.00000000000E+00  0.00000000000E+00  0.20133219197E+02  0.20133219197E+02  0.00000000000E+00 0.  1.
         -2   -1    0    0    0  501 -0.00000000000E+00 -0.00000000000E+00 -0.92887645400E+02  0.92887645400E+02  0.00000000000E+00 0. -1.
         21    1    1    2  502  501 -0.23321127124E+02  0.16869628955E+02 -0.78552466212E+02  0.83659723281E+02  0.00000000000E+00 0. -1.
         21    1    1    2  503  502  0.23321127124E+02 -0.16869628955E+02  0.57980400096E+01  0.29361141316E+02  0.00000000000E+00 0.  1.
</event>
<event>
 4    1  0.5576842E+002  0.2560597E+02  0.7546771E-02  0.1462137E+00
          2   -1    0    0  502    0  0.00000000000E+00  0.00000000000E+00  0.20324871789E+04  0.20324871789E+04  0.00000000000E+00 0.  1.
         -2   -1    0    0    0  501 -0.00000000000E+00 -0.00000000000E+00 -0.63067283689E+00  0.63067283689E+00  0.00000000000E+00 0. -1.
         21    1    1    2  502  503 -0.10971047710E+02 -0.23136593970E+02  0.17264252157E+04  0.17266150964E+04  0.00000000000E+00 0.  1.
         21    1    1    2  503  501  0.10971047710E+02  0.23136593970E+02  0.30543129036E+03  0.30650275529E+03  0.00000000000E+00 0. -1.
</event>
<event>
 4    1  0.5576842E+002  0.2447020E+02  0.7546771E-02  0.1474818E+00
          2   -1    0    0  502    0  0.00000000000E+00  0.00000000000E+00  0.18141737383E+04  0.18141737383E+04  0.00000000000E+00 0.  1.
         -2   -1    0    0    0  501 -0.00000000000E+00 -0.00000000000E+00 -0.33041473131E+00  0.33041473131E+00  0.00000000000E+00 0. -1.
         21    1    1    2  502  503  0.21481403189E+02 -0.11719216199E+02  0.93654370786E+03  0.93686333446E+03  0.00000000000E+00 0. -1.
         21    1    1    2  503  501 -0.21481403189E+02  0.11719216199E+02  0.87729961574E+03  0.87764081861E+03  0.00000000000E+00 0.  1.
</event>
<event>
 4    1  0.5576842E+002  0.8765561E+02  0.7546771E-02  0.1187110E+00
          2   -1    0    0  503    0  0.00000000000E+00  0.00000000000E+00  0.42564998343E+03  0.42564998343E+03  0.00000000000E+00 0.  1.
         -2   -1    0    0    0  501 -0.00000000000E+00 -0.00000000000E+00 -0.33584620186E+02  0.33584620186E+02  0.00000000000E+00 0. -1.
         21    1    1    2  502  501  0.73327820714E+01  0.87348362082E+02  0.39873507091E+02  0.96298507875E+02  0.00000000000E+00 0. -1.
         21    1    1    2  503  502 -0.73327820714E+01 -0.87348362082E+02  0.35219185615E+03  0.36293609574E+03  0.00000000000E+00 0.  1.
</event>
<event>
 4    1  0.5576842E+002  0.2345343E+02  0.7546771E-02  0.1486882E+00
          2   -1    0    0  503    0  0.00000000000E+00  0.00000000000E+00  0.37601605831E+03  0.37601605831E+03  0.00000000000E+00 0.  1.
         -2   -1    0    0    0  501 -0.00000000000E+00 -0.00000000000E+00 -0.15401001161E+01  0.15401001161E+01  0.00000000000E+00 0. -1.
         21    1    1    2  502  501 -0.22823598311E+02  0.53987906633E+01  0.14496496816E+03  0.14684994237E+03  0.00000000000E+00 0. -1.
         21    1    1    2  503  502  0.22823598311E+02 -0.53987906633E+01  0.22951099004E+03  0.23070621606E+03  0.00000000000E+00 0.  1.
</event>
<event>
 4    1  0.5576842E+002  0.3361479E+02  0.7546771E-02  0.1390572E+00
          2   -1    0    0  502    0  0.00000000000E+00  0.00000000000E+00  0.93346829408E+03  0.93346829408E+03  0.00000000000E+00 0. -1.
         -2   -1    0    0    0  501 -0.00000000000E+00 -0.00000000000E+00 -0.12773299050E+01  0.12773299050E+01  0.00000000000E+00 0.  1.
         21    1    1    2  502  503  0.30460345290E+02  0.14216933818E+02  0.57300847525E+03  0.57399361194E+03  0.00000000000E+00 0. -1.
         21    1    1    2  503  501 -0.30460345290E+02 -0.14216933818E+02  0.35918248892E+03  0.36075201204E+03  0.00000000000E+00 0.  1.
</event>
<event>
 4    1  0.5576842E+002  0.6667996E+02  0.7546771E-02  0.1238683E+00
          2   -1    0    0  502    0  0.00000000000E+00  0.00000000000E+00  0.19129996579E+03  0.19129996579E+03  0.00000000000E+00 0.  1.
         -2   -1    0    0    0  501 -0.00000000000E+00 -0.00000000000E+00 -0.23398423649E+02  0.23398423649E+02  0.00000000000E+00 0. -1.
         21    1    1    2  502  503  0.29762747790E+02  0.59669053730E+02  0.75176978232E+02  0.10048778625E+03  0.00000000000E+00 0. -1.
         21    1    1    2  503  501 -0.29762747790E+02 -0.59669053730E+02  0.92724563909E+02  0.11421060319E+03  0.00000000000E+00 0.  1.
</event>
<event>
 4    1  0.5576842E+002  0.3381186E+02  0.7546771E-02  0.1389114E+00
          2   -1    0    0  502    0  0.00000000000E+00  0.00000000000E+00  0.19388145252E+04  0.19388145252E+04  0.00000000000E+00 0. -1.
         -2   -1    0    0    0  501 -0.00000000000E+00 -0.00000000000E+00 -0.84684392718E+00  0.84684392718E+00  0.00000000000E+00 0.  1.
         21    1    1    2  502  503  0.33811834452E+02 -0.41899783883E-01  0.15034447081E+04  0.15038248675E+04  0.00000000000E+00 0. -1.
         21    1    1    2  503  501 -0.33811834452E+02  0.41899783883E-01  0.43452297315E+03  0.43583650157E+03  0.00000000000E+00 0.  1.
</event>
<event>
 4    1  0.5576842E+002  0.2318285E+02  0.7546771E-02  0.1490215E+00
          2   -1    0    0  503    0  0.00000000000E+00  0.00000000000E+00  0.73879958680E+03  0.73879958680E+03  0.00000000000E+00 0.  1.
         -2   -1    0    0    0  501 -0.00000000000E+00 -0.00000000000E+00 -0.11099098221E+01  0.11099098221E+01  0.00000000000E+00 0. -1.
         21    1    1    2  502  501 -0.15687943613E+02  0.17068472185E+02  0.15167767200E+03  0.15343911008E+03  0.00000000000E+00 0. -1.
         21    1    1    2  503  502  0.15687943613E+02 -0.17068472185E+02  0.58601200498E+03  0.58647038654E+03  0.00000000000E+00 0.  1.
</event>
<event>
 4    1  0.5576842E+002  0.2167425E+02  0.7546771E-02  0.1509852E+00
          2   -1    0    0  502    0  0.00000000000E+00  0.00000000000E+00  0.18234628437E+02  0.18234628437E+02  0.00000000000E+00 0. -1.
         -2   -1    0    0    0  501 -0.00000000000E+00 -0.00000000000E+00 -0.29374787426E+02  0.29374787426E+02  0.00000000000E+00 0.  1.
         21    1    1    2  502  503 -0.61781535786E+01 -0.20775071259E+02  0.27773917094E+01  0.21851477574E+02  0.00000000000E+00 0.  1.
         21    1    1    2  503  501  0.61781535786E+01  0.20775071259E+02 -0.13917550699E+02  0.25757938289E+02  0.00000000000E+00 0. -1.
</event>
<event>
 4    1  0.5576842E+002  0.2363029E+02  0.7546771E-02  0.1484732E+00
          2   -1    0    0  502    0  0.00000000000E+00  0.00000000000E+00  0.14175342423E+02  0.14175342423E+02  0.00000000000E+00 0. -1.
         -2   -1    0    0    0  501 -0.00000000000E+00 -0.00000000000E+00 -0.11605546083E+03  0.11605546083E+03  0.00000000000E+00 0.  1.
         21    1    1    2  502  503 -0.18974414912E+02 -0.14084109613E+02  0.19831349245E+01  0.23713358871E+02  0.00000000000E+00 0. -1.
         21    1    1    2  503  501  0.18974414912E+02  0.14084109613E+02 -0.10386325333E+03  0.10651744438E+03  0.00000000000E+00 0.  1.
</event>
<event>
 4    1  0.5576842E+002  0.2177970E+02  0.7546771E-02  0.1508418E+00
          2   -1    0    0  502    0  0.00000000000E+00  0.00000000000E+00  0.23472816870E+02  0.23472816870E+02  0.00000000000E+00 0. -1.
         -2   -1    0    0    0  501 -0.00000000000E+00 -0.00000000000E+00 -0.25821071114E+02  0.25821071114E+02  0.00000000000E+00 0.  1.
         21    1    1    2  502  503  0.13016761737E+02  0.17461940485E+02  0.10316628425E+02  0.24099549242E+02  0.00000000000E+00 0. -1.
         21    1    1    2  503  501 -0.13016761737E+02 -0.17461940485E+02 -0.12664882669E+02  0.25194338742E+02  0.00000000000E+00 0.  1.
</event>
<event>
 4    1  0.5576842E+002  0.2043814E+02  0.7546771E-02  0.1527440E+00
          2   -1    0    0  503    0  0.00000000000E+00  0.00000000000E+00  0.15557429377E+03  0.15557429377E+03  0.00000000000E+00 0. -1.
         -2   -1    0    0    0  501 -0.00000000000E+00 -0.00000000000E+00 -0.41780615891E+01  0.41780615891E+01  0.00000000000E+00 0.  1.
         21    1    1    2  502  501 -0.19740015593E+02 -0.52961668481E+01  0.27948692073E+02  0.34624369850E+02  0.00000000000E+00 0.  1.
         21    1    1    2  503  502  0.19740015593E+02  0.52961668481E+01  0.12344754010E+03  0.12512798550E+03  0.00000000000E+00 0. -1.
</event>
<event>
 4    1  0.5576842E+002  0.2025946E+02  0.7546771E-02  0.1530106E+00
          2   -1    0    0  503    0  0.00000000000E+00  0.00000000000E+00  0.69439814515E+03  0.69439814515E+03  0.00000000000E+00 0. -1.
         -2   -1    0    0    0  501 -0.00000000000E+00 -0.00000000000E+00 -0.39945952827E+01  0.39945952827E+01  0.00000000000E+00 0.  1.
         21    1    1    2  502  501  0.19028516714E+02  0.69542220539E+01  0.22874462100E+02  0.30556286899E+02  0.00000000000E+00 0.  1.
         21    1    1    2  503  502 -0.19028516714E+02 -0.69542220539E+01  0.66752908777E+03  0.66783645353E+03  0.00000000000E+00 0. -1.
</event>
<event>
 4    1  0.5576842E+002  0.2607400E+02  0.7546771E-02  0.1457138E+00
          2   -1    0    0  502    0  0.00000000000E+00  0.00000000000E+00  0.58391640398E+03  0.58391640398E+03  0.00000000000E+00 0. -1.
         -2   -1    0    0    0  501 -0.00000000000E+00 -0.00000000000E+00 -0.14335317812E+01  0.14335317812E+01  0.00000000000E+00 0.  1.
         21    1    1    2  502  503  0.24537292901E+02  0.88189880411E+01  0.41807841077E+03  0.41889069081E+03  0.00000000000E+00 0. -1.
         21    1    1    2  503  501 -0.24537292901E+02 -0.88189880411E+01  0.16440446143E+03  0.16645924496E+03  0.00000000000E+00 0.  1.
</event>
<event>
 4    1  0.5576842E+002  0.2607533E+02  0.7546771E-02  0.1457124E+00
          2   -1    0    0  503    0  0.00000000000E+00  0.00000000000E+00  0.52164657338E+03  0.52164657338E+03  0.00000000000E+00 0.  1.
         -2   -1    0    0    0  501 -0.00000000000E+00 -0.00000000000E+00 -0.35804814184E+01  0.35804814184E+01  0.00000000000E+00 0. -1.
         21    1    1    2  502  501  0.13339438446E+02 -0.22404954143E+02  0.49605348986E+02  0.56041174472E+02  0.00000000000E+00 0. -1.
         21    1    1    2  503  502 -0.13339438446E+02  0.22404954143E+02  0.46846074298E+03  0.46918588033E+03  0.00000000000E+00 0.  1.
</event>
<event>
 4    1  0.5576842E+002  0.3544659E+02  0.7546771E-02  0.1377450E+00
          2   -1    0    0  503    0  0.00000000000E+00  0.00000000000E+00  0.16555739535E+04  0.16555739535E+04  0.00000000000E+00 0.  1.
         -2   -1    0    0    0  501 -0.00000000000E+00 -0.00000000000E+00 -0.10084328484E+01  0.10084328484E+01  0.00000000000E+00 0. -1.
         21    1    1    2  502  501  0.21373937929E+02  0.28277474389E+02  0.41528070024E+03  0.41679073979E+03  0.00000000000E+00 0. -1.
         21    1    1    2  503  502 -0.21373937929E+02 -0.28277474389E+02  0.12392848204E+04  0.12397916466E+04  0.00000000000E+00 0.  1.
</event>
<event>
 4    1  0.5576842E+002  0.2417755E+02  0.7546771E-02  0.1478218E+00
          2   -1    0    0  503    0  0.00000000000E+00  0.00000000000E+00  0.92882237049E+02  0.92882237049E+02  0.00000000000E+00 0. -1.
         -2   -1    0    0    0  501 -0.00000000000E+00 -0.00000000000E+00 -0.12486821704E+02  0.12486821704E+02  0.00000000000E+00 0.  1.
         21    1    1    2  502  501  0.21448111235E+02 -0.11159415673E+02  0.30938477167E+01  0.24374698509E+02  0.00000000000E+00 0.  1.
         21    1    1    2  503  502 -0.21448111235E+02  0.11159415673E+02  0.77301567628E+02  0.80994360244E+02  0.00000000000E+00 0. -1.
</event>
<event>
 4    1  0.5576842E+002  0.4107452E+02  0.7546771E-02  0.1342302E+00
          2   -1    0    0  502    0  0.00000000000E+00  0.00000000000E+00  0.81109398223E+01  0.81109398223E+01  0.00000000000E+00 0. -1.
         -2   -1    0    0    0  501 -0.00000000000E+00 -0.00000000000E+00 -0.31124614701E+03  0.31124614701E+03  0.00000000000E+00 0.  1.
         21    1    1    2  502  503  0.35513162123E+02 -0.20638111126E+02 -0.59602956423E+02  0.72385279782E+02  0.00000000000E+00 0. -1.
         21    1    1    2  503  501 -0.35513162123E+02  0.20638111126E+02 -0.24353225077E+03  0.24697180705E+03  0.00000000000E+00 0.  1.
</event>
<event>
 4    1  0.5576842E+002  0.2373095E+02  0.7546771E-02  0.1483518E+00
          2   -1    0    0  502    0  0.00000000000E+00  0.00000000000E+00  0.30326594953E+03  0.30326594953E+03  0.00000000000E+00 0.  1.
         -2   -1    0    0    0  501 -0.00000000000E+00 -0.00000000000E+00 -0.18601401223E+01  0.18601401223E+01  0.00000000000E+00 0. -1.
         21    1    1    2  502  503 -0.23034573735E+02  0.57066789379E+01  0.15699451779E+03  0.15877794679E+03  0.00000000000E+00 0. -1.
         21    1    1    2  503  501  0.23034573735E+02 -0.57066789379E+01  0.14441129162E+03  0.14634814286E+03  0.00000000000E+00 0.  1.
</event>
<event>
 4    1  0.5576842E+002  0.3332884E+02  0.7546771E-02  0.1392708E+00
          2   -1    0    0  502    0  0.00000000000E+00  0.00000000000E+00  0.17065818500E+04  0.17065818500E+04  0.00000000000E+00 0. -1.
         -2   -1    0    0    0  501 -0.00000000000E+00 -0.00000000000E+00 -0.27206660888E+01  0.27206660888E+01  0.00000000000E+00 0.  1.
         21    1    1    2  502  503  0.24479063785E+02 -0.22618284279E+02  0.15973696064E+04  0.15977172687E+04  0.00000000000E+00 0. -1.
         21    1    1    2  503  501 -0.24479063785E+02  0.22618284279E+02  0.10649157753E+03  0.11158524738E+03  0.00000000000E+00 0.  1.
</event>
<event>
 4    1  0.5576842E+002  0.2369692E+02  0.7546771E-02  0.1483928E+00
          2   -1    0    0  503    0  0.00000000000E+00  0.00000000000E+00  0.13849398898E+03  0.13849398898E+03  0.00000000000E+00 0. -1.
         -2   -1    0    0    0  501 -0.00000000000E+00 -0.00000000000E+00 -0.48007983120E+01  0.48007983120E+01  0.00000000000E+00 0.  1.
         21    1    1    2  502  501 -0.15495667148E+02 -0.17928417540E+02  0.38600532544E+02  0.45293983801E+02  0.00000000000E+00 0.  1.
         21    1    1    2  503  502  0.15495667148E+02  0.17928417540E+02  0.95092658125E+02  0.98000803492E+02  0.00000000000E+00 0. -1.
</event>
<event>
 4    1  0.5576842E+002  0.2504047E+02  0.7546771E-02  0.1468351E+00
          2   -1    0    0  503    0  0.00000000000E+00  0.00000000000E+00  0.93245160525E+03  0.93245160525E+03  0.00000000000E+00 0. -1.
         -2   -1    0    0    0  501 -0.00000000000E+00 -0.00000000000E+00 -0.20741149179E+01  0.20741149179E+01  0.00000000000E+00 0.  1.
         21    1    1    2  502  501  0.19733304405E+02  0.15414989756E+02  0.81068437673E+02  0.84847609269E+02  0.00000000000E+00 0.  1.
         21    1    1    2  503  502 -0.19733304405E+02 -0.15414989756E+02  0.84930905266E+03  0.84967811090E+03  0.00000000000E+00 0. -1.
</event>
<event>
 4    1  0.5576842E+002  0.2762972E+02  0.7546771E-02  0.1441383E+00
          2   -1    0    0  503    0  0.00000000000E+00  0.00000000000E+00  0.19021431682E+04  0.19021431682E+04  0.00000000000E+00 0.  1.
         -2   -1    0    0    0  501 -0.00000000000E+00 -0.00000000000E+00 -0.20860484065E+01  0.20860484065E+01  0.00000000000E+00 0. -1.
         21    1    1    2  502  501  0.17355869589E+02  0.21498255955E+02  0.94391193072E+02  0.98351911765E+02  0.00000000000E+00 0. -1.
         21    1    1    2  503  502 -0.17355869589E+02 -0.21498255955E+02  0.18056659267E+04  0.18058773048E+04  0.00000000000E+00 0.  1.
</event>
<event>
 4    1  0.5576842E+002  0.2224926E+02  0.7546771E-02  0.1502147E+00
          2   -1    0    0  502    0  0.00000000000E+00  0.00000000000E+00  0.39923686874E+02  0.39923686874E+02  0.00000000000E+00 0. -1.
         -2   -1    0    0    0  501 -0.00000000000E+00 -0.00000000000E+00 -0.13299549311E+02  0.13299549311E+02  0.00000000000E+00 0.  1.
         21    1    1    2  502  503 -0.11024531878E+02  0.19325871670E+02  0.20235333978E+02  0.30074879220E+02  0.00000000000E+00 0. -1.
         21    1    1    2  503  501  0.11024531878E+02 -0.19325871670E+02  0.63888035853E+01  0.23148356965E+02  0.00000000000E+00 0.  1.
</event>
<event>
 4    1  0.5576842E+002  0.2955319E+02  0.7546771E-02  0.1423519E+00
          2   -1    0    0  502    0  0.00000000000E+00  0.00000000000E+00  0.12559251593E+02  0.12559251593E+02  0.00000000000E+00 0. -1.
         -2   -1    0    0    0  501 -0.00000000000E+00 -0.00000000000E+00 -0.73803300595E+02  0.73803300595E+02  0.00000000000E+00 0.  1.
         21    1    1    2  502  503  0.28796881449E+02  0.66430777144E+01 -0.40998440528E+02  0.50539716940E+02  0.00000000000E+00 0.  1.
         21    1    1    2  503  501 -0.28796881449E+02 -0.66430777144E+01 -0.20245608474E+02  0.35822835248E+02  0.00000000000E+00 0. -1.
</event>
<event>
 4    1  0.5576842E+002  0.2557820E+02  0.7546771E-02  0.1462438E+00
          2   -1    0    0  503    0  0.00000000000E+00  0.00000000000E+00  0.72178132431E+03  0.72178132431E+03  0.00000000000E+00 0. -1.
         -2   -1    0    0    0  501 -0.00000000000E+00 -0.00000000000E+00 -0.14464081766E+01  0.14464081766E+01  0.00000000000E+00 0.  1.
         21    1    1    2  502  501  0.14655885275E+02 -0.20963051550E+02  0.13922071623E+03  0.14155088248E+03  0.00000000000E+00 0.  1.
         21    1    1    2  503  502 -0.14655885275E+02  0.20963051550E+02  0.58111419990E+03  0.58167685000E+03  0.00000000000E+00 0. -1.
</event>
<event>
 4    1  0.5576842E+002  0.2177449E+02  0.7546771E-02  0.1508488E+00
          2   -1    0    0  503    0  0.00000000000E+00  0.00000000000E+00  0.40366363030E+02  0.40366363030E+02  0.00000000000E+00 0.  1.
         -2   -1    0    0    0  501 -0.00000000000E+00 -0.00000000000E+00 -0.20103347337E+02  0.20103347337E+02  0.00000000000E+00 0. -1.
         21    1    1    2  502  501 -0.15851704001E+02 -0.14928218729E+02 -0.93632402654E+01  0.23702288970E+02  0.00000000000E+00 0. -1.
         21    1    1    2  503  502  0.15851704001E+02  0.14928218729E+02  0.29626255958E+02  0.36767421398E+02  0.00000000000E+00 0.  1.
</event>
<event>
 4    1  0.5576842E+002  0.2609010E+02  0.7546771E-02  0.1456969E+00
          2   -1    0    0  502    0  0.00000000000E+00  0.00000000000E+00  0.10759854133E+04  0.10759854133E+04  0.00000000000E+00 0. -1.
         -2   -1    0    0    0  501 -0.00000000000E+00 -0.00000000000E+00 -0.63894612220E+00  0.63894612220E+00  0.00000000000E+00 0.  1.
         21    1    1    2  502  503 -0.18161422550E+02 -0.18731156203E+02  0.59122284599E+03  0.59179823175E+03  0.00000000000E+00 0.  1.
         21    1    1    2  503  501  0.18161422550E+02  0.18731156203E+02  0.48412362116E+03  0.48482612764E+03  0.00000000000E+00 0. -1.
</event>
<event>
 4    1  0.5576842E+002  0.2423164E+02  0.7546771E-02  0.1477586E+00
          2   -1    0    0  502    0  0.00000000000E+00  0.00000000000E+00  0.16737839481E+04  0.16737839481E+04  0.00000000000E+00 0.  1.
         -2   -1    0    0    0  501 -0.00000000000E+00 -0.00000000000E+00 -0.17760882581E+02  0.17760882581E+02  0.00000000000E+00 0. -1.
         21    1    1    2  502  503 -0.22412473335E+02 -0.92115836267E+01  0.16653896256E+04  0.16655659030E+04  0.00000000000E+00 0.  1.
         21    1    1    2  503  501  0.22412473335E+02  0.92115836267E+01 -0.93665600944E+01  0.25978927651E+02  0.00000000000E+00 0. -1.
</event>
<event>
 4    1  0.5576842E+002  0.2529863E+02  0.7546771E-02  0.1465490E+00
          2   -1    0    0  503    0  0.00000000000E+00  0.00000000000E+00  0.14911567087E+04  0.14911567087E+04  0.00000000000E+00 0. -1.
         -2   -1    0    0    0  501 -0.00000000000E+00 -0.00000000000E+00 -0.82876574746E+00  0.82876574746E+00  0.00000000000E+00 0.  1.
         21    1    1    2  502  501  0.23652627313E+02 -0.89762885149E+01  0.22719115342E+03  0.22859536462E+03  0.00000000000E+00 0.  1.
         21    1    1    2  503  502 -0.23652627313E+02  0.89762885149E+01  0.12631367895E+04  0.12633901098E+04  0.00000000000E+00 0. -1.
</event>
<event>
 4    1  0.5576842E+002  0.3580584E+02  0.7546771E-02  0.1374985E+00
          2   -1    0    0  502    0  0.00000000000E+00  0.00000000000E+00  0.39730995498E+01  0.39730995498E+01  0.00000000000E+00 0. -1.
         -2   -1    0    0    0  501 -0.00000000000E+00 -0.00000000000E+00 -0.35663233787E+03  0.35663233787E+03  0.00000000000E+00 0.  1.
         21    1    1    2  502  503 -0.33883001649E+02  0.11575855804E+02 -0.23195807620E+03  0.23470536285E+03  0.00000000000E+00 0.  1.
         21    1    1    2  503  501  0.33883001649E+02 -0.11575855804E+02 -0.12070116212E+03  0.12590007457E+03  0.00000000000E+00 0. -1.
</event>
<event>
 4    1  0.5576842E+002  0.4109927E+02  0.7546771E-02  0.1342162E+00
          2   -1    0    0  503    0  0.00000000000E+00  0.00000000000E+00  0.33813683955E+03  0.33813683955E+03  0.00000000000E+00 0.  1.
         -2   -1    0    0    0  501 -0.00000000000E+00 -0.00000000000E+00 -0.35385754814E+02  0.35385754814E+02  0.00000000000E+00 0. -1.
         21    1    1    2  502  501  0.38063935738E+02  0.15501191733E+02 -0.21701746329E+02  0.46477047483E+02  0.00000000000E+00 0. -1.
         21    1    1    2  503  502 -0.38063935738E+02 -0.15501191733E+02  0.32445283106E+03  0.32704554688E+03  0.00000000000E+00 0.  1.
</event>
<event>
 4    1  0.5576842E+002  0.2732964E+02  0.7546771E-02  0.1444325E+00
          2   -1    0    0  502    0  0.00000000000E+00  0.00000000000E+00  0.34890648925E+03  0.34890648925E+03  0.00000000000E+00 0. -1.
         -2   -1    0    0    0  501 -0.00000000000E+00 -0.00000000000E+00 -0.22683755636E+01  0.22683755636E+01  0.00000000000E+00 0.  1.
         21    1    1    2  502  503 -0.23377658862E+02 -0.14156061130E+02  0.21497395293E+03  0.21670419802E+03  0.00000000000E+00 0. -1.
         21    1    1    2  503  501  0.23377658862E+02  0.14156061130E+02  0.13166416076E+03  0.13447066680E+03  0.00000000000E+00 0.  1.
</event>
<event>
 4    1  0.5576842E+002  0.4356830E+02  0.7546771E-02  0.1328755E+00
          2   -1    0    0  503    0  0.00000000000E+00  0.00000000000E+00  0.16383086963E+04  0.16383086963E+04  0.00000000000E+00 0. -1.
         -2   -1    0    0    0  501 -0.00000000000E+00 -0.00000000000E+00 -0.54101516086E+01  0.54101516086E+01  0.00000000000E+00 0.  1.
         21    1    1    2  502  501  0.39587519975E+02  0.18194089283E+02  0.87889944411E+02  0.98096070009E+02  0.00000000000E+00 0.  1.
         21    1    1    2  503  502 -0.39587519975E+02 -0.18194089283E+02  0.15450086003E+04  0.15456227779E+04  0.00000000000E+00 0. -1.
</event>
<event>
 4    1  0.5576842E+002  0.2243752E+02  0.7546771E-02  0.1499685E+00
          2   -1    0    0  502    0  0.00000000000E+00  0.00000000000E+00  0.51574409233E+03  0.51574409233E+03  0.00000000000E+00 0. -1.
         -2   -1    0    0    0  501 -0.00000000000E+00 -0.00000000000E+00 -0.10220250177E+01  0.10220250177E+01  0.00000000000E+00 0.  1.
         21    1    1    2  502  503  0.20811096649E+02  0.83869411455E+01  0.20261770311E+03  0.20385626343E+03  0.00000000000E+00 0.  1.
         21    1    1    2  503  501 -0.20811096649E+02 -0.83869411455E+01  0.31210436421E+03  0.31290985392E+03  0.00000000000E+00 0. -1.
</event>
<event>
 4    1  0.5576842E+002  0.2059206E+02  0.7546771E-02  0.1525170E+00
          2   -1    0    0  503    0  0.00000000000E+00  0.00000000000E+00  0.45030080931E+02  0.45030080931E+02  0.00000000000E+00 0. -1.
         -2   -1    0    0    0  501 -0.00000000000E+00 -0.00000000000E+00 -0.21301442301E+02  0.21301442301E+02  0.00000000000E+00 0.  1.
         21    1    1    2  502  501 -0.16392021181E+02  0.12463333395E+02 -0.12908820544E+02  0.24303717526E+02  0.00000000000E+00 0.  1.
         21    1    1    2  503  502  0.16392021181E+02 -0.12463333395E+02  0.36637459174E+02  0.42027805706E+02  0.00000000000E+00 0. -1.
</event>
<event>
 4    1  0.5576842E+002  0.2390578E+02  0.7546771E-02  0.1481427E+00
          2   -1    0    0  503    0  0.00000000000E+00  0.00000000000E+00  0.92684022585E+03  0.92684022585E+03  0.00000000000E+00 0.  1.
         -2   -1    0    0    0  501 -0.00000000000E+00 -0.00000000000E+00 -0.68921446112E+00  0.68921446112E+00  0.00000000000E+00 0. -1.
         21    1    1    2  502  501 -0.14125622608E+02 -0.19286087601E+02  0.31253869704E+03  0.31345162870E+03  0.00000000000E+00 0. -1.
         21    1    1    2  503  502  0.14125622608E+02  0.19286087601E+02  0.61361231435E+03  0.61407781161E+03  0.00000000000E+00 0.  1.
</event>
<event>
 4    1  0.5576842E+002  0.2760589E+02  0.7546771E-02  0.1441615E+00
          2   -1    0    0  503    0  0.00000000000E+00  0.00000000000E+00  0.10799385394E+04  0.10799385394E+04  0.00000000000E+00 0. -1.
         -2   -1    0    0    0  501 -0.00000000000E+00 -0.00000000000E+00 -0.93736948903E+00  0.93736948903E+00  0.00000000000E+00 0.  1.
         21    1    1    2  502  501 -0.23604587816E+02 -0.14314626495E+02  0.27081228976E+03  0.27221568908E+03  0.00000000000E+00 0.  1.
         21    1    1    2  503  502  0.23604587816E+02  0.14314626495E+02  0.80818888019E+03  0.80866021984E+03  0.00000000000E+00 0. -1.
</event>
<event>
 4    1  0.5576842E+002  0.3693391E+02  0.7546771E-02  0.1367454E+00
          2   -1    0    0  502    0  0.00000000000E+00  0.00000000000E+00  0.15795940935E+04  0.15795940935E+04  0.00000000000E+00 0.  1.
         -2   -1    0    0    0  501 -0.00000000000E+00 -0.00000000000E+00 -0.22407559007E+01  0.22407559007E+01  0.00000000000E+00 0. -1.
         21    1    1    2  502  503 -0.36616789557E+02  0.48295312164E+01  0.14087282218E+04  0.14092123036E+04  0.00000000000E+00 0.  1.
         21    1    1    2  503  501  0.36616789557E+02 -0.48295312164E+01  0.16862511580E+03  0.17262254583E+03  0.00000000000E+00 0. -1.
</event>
<event>
 4    1  0.5576842E+002  0.3013808E+02  0.7546771E-02  0.1418400E+00
          2   -1    0    0  502    0  0.00000000000E+00  0.00000000000E+00  0.79461644932E+02  0.79461644932E+02  0.00000000000E+00 0.  1.
         -2   -1    0    0    0  501 -0.00000000000E+00 -0.00000000000E+00 -0.13620126651E+02  0.13620126651E+02  0.00000000000E+00 0. -1.
         21    1    1    2  502  503  0.93958579374E+01 -0.28636024504E+02  0.51580559759E+02  0.59739921249E+02  0.00000000000E+00 0.  1.
         21    1    1    2  503  501 -0.93958579374E+01  0.28636024504E+02  0.14260958522E+02  0.33341850334E+02  0.00000000000E+00 0. -1.
</event>
<event>
 4    1  0.5576842E+002  0.3147774E+02  0.7546771E-02  0.1407175E+00
          2   -1    0    0  503    0  0.00000000000E+00  0.00000000000E+00  0.53562244019E+03  0.53562244019E+03  0.00000000000E+00 0.  1.
         -2   -1    0    0    0  501 -0.00000000000E+00 -0.00000000000E+00 -0.79957643295E+01  0.79957643295E+01  0.00000000000E+00 0. -1.
         21    1    1    2  502  501  0.26459444315E+02 -0.17051267921E+02  0.25512543878E+02  0.40518364063E+02  0.00000000000E+00 0. -1.
         21    1    1    2  503  502 -0.26459444315E+02  0.17051267921E+02  0.50211413198E+03  0.50309984045E+03  0.00000000000E+00 0.  1.
</event>
<event>
 4    1  0.5576842E+002  0.3500138E+02  0.7546771E-02  0.1380553E+00
          2   -1    0    0  503    0  0.00000000000E+00  0.00000000000E+00  0.23572237956E+02  0.23572237956E+02  0.00000000000E+00 0.  1.
         -2   -1    0    0    0  501 -0.00000000000E+00 -0.00000000000E+00 -0.17288376644E+03  0.17288376644E+03  0.00000000000E+00 0. -1.
         21    1    1    2  502  501  0.14796019660E+02  0.31720256865E+02 -0.15680290374E+03  0.16066190437E+03  0.00000000000E+00 0. -1.
         21    1    1    2  503  502 -0.14796019660E+02 -0.31720256865E+02  0.74913752599E+01  0.35794100026E+02  0.00000000000E+00 0.  1.
</event>
<event>
 4    1  0.5576842E+002  0.3237444E+02  0.7546771E-02  0.1400025E+00
          2   -1    0    0  503    0  0.00000000000E+00  0.00000000000E+00  0.10832246960E+02  0.10832246960E+02  0.00000000000E+00 0. -1.
         -2   -1    0    0    0  501 -0.00000000000E+00 -0.00000000000E+00 -0.10696478795E+03  0.10696478795E+03  0.00000000000E+00 0.  1.
         21    1    1    2  502  501  0.17102227377E+02  0.27488514687E+02 -0.66260441963E+02  0.73746530698E+02  0.00000000000E+00 0.  1.
         21    1    1    2  503  502 -0.17102227377E+02 -0.27488514687E+02 -0.29872099023E+02  0.44050504208E+02  0.00000000000E+00 0. -1.
</event>
<event>
 4    1  0.5576842E+002  0.5407452E+02  0.7546771E-02  0.1281412E+00
          2   -1    0    0  502    0  0.00000000000E+00  0.00000000000E+00  0.71389500848E+02  0.71389500848E+02  0.00000000000E+00 0. -1.
         -2   -1    0    0    0  501 -0.00000000000E+00 -0.00000000000E+00 -0.86916801828E+02  0.86916801828E+02  0.00000000000E+00 0.  1.
         21    1    1    2  502  503  0.25388691846E+02 -0.47743772115E+02  0.49792964584E+02  0.73507773545E+02  0.00000000000E+00 0. -1.
         21    1    1    2  503  501 -0.25388691846E+02  0.47743772115E+02 -0.65320265564E+02  0.84798529131E+02  0.00000000000E+00 0.  1.
</event>
<event>
 4    1  0.5576842E+002  0.2911069E+02  0.7546771E-02  0.1427485E+00
          2   -1    0    0  502    0  0.00000000000E+00  0.00000000000E+00  0.27760642125E+03  0.27760642125E+03  0.00000000000E+00 0.  1.
         -2   -1    0    0    0  501 -0.00000000000E+00 -0.00000000000E+00 -0.56333968770E+01  0.56333968770E+01  0.00000000000E+00 0. -1.
         21    1    1    2  502  503  0.28921931463E+02  0.33096849850E+01  0.23184107350E+03  0.23366154047E+03  0.00000000000E+00 0.  1.
         21    1    1    2  503  501 -0.28921931463E+02 -0.33096849850E+01  0.40131950870E+02  0.49578277652E+02  0.00000000000E+00 0. -1.
</event>
<event>
 4    1  0.5576842E+002  0.2012953E+02  0.7546771E-02  0.1532065E+00
          2   -1    0    0  502    0  0.00000000000E+00  0.00000000000E+00  0.28597767717E+01  0.28597767717E+01  0.00000000000E+00 0. -1.
         -2   -1    0    0    0  501 -0.00000000000E+00 -0.00000000000E+00 -0.79503648407E+03  0.79503648407E+03  0.00000000000E+00 0.  1.
         21    1    1    2  502  503 -0.19895464007E+02 -0.30608080960E+01 -0.34432816974E+02  0.39885046308E+02  0.00000000000E+00 0. -1.
         21    1    1    2  503  501  0.19895464007E+02  0.30608080960E+01 -0.75774389033E+03  0.75801121454E+03  0.00000000000E+00 0.  1.
</event>
<event>
 4    1  0.5576842E+002  0.3529959E+02  0.7546771E-02  0.1378469E+00
          2   -1    0    0  503    0  0.00000000000E+00  0.00000000000E+00  0.87497137409E+03  0.87497137409E+03  0.00000000000E+00 0. -1.
         -2   -1    0    0    0  501 -0.00000000000E+00 -0.00000000000E+00 -0.14264338052E+01  0.14264338052E+01  0.00000000000E+00 0.  1.
         21    1    1    2  502  501  0.25358076708E+02  0.24556641901E+02  0.45443633852E+03  0.45580527255E+03  0.00000000000E+00 0.  1.
         21    1    1    2  503  502 -0.25358076708E+02 -0.24556641901E+02  0.41910860176E+03  0.42059253535E+03  0.00000000000E+00 0. -1.
</event>
<event>
 4    1  0.5576842E+002  0.2533412E+02  0.7546771E-02  0.1465100E+00
          2   -1    0    0  502    0  0.00000000000E+00  0.00000000000E+00  0.19826836006E+04  0.19826836006E+04  0.00000000000E+00 0.  1.
         -2   -1    0    0    0  501 -0.00000000000E+00 -0.00000000000E+00 -0.33623265551E+00  0.33623265551E+00  0.00000000000E+00 0. -1.
         21    1    1    2  502  503  0.19147289990E+02  0.16589125001E+02  0.11825096873E+04  0.11827810357E+04  0.00000000000E+00 0.  1.
         21    1    1    2  503  501 -0.19147289990E+02 -0.16589125001E+02  0.79983768056E+03  0.80023879750E+03  0.00000000000E+00 0. -1.
</event>
<event>
 4    1  0.5576842E+002  0.4050541E+02  0.7546771E-02  0.1345549E+00
          2   -1    0    0  502    0  0.00000000000E+00  0.00000000000E+00  0.19167889395E+02  0.19167889395E+02  0.00000000000E+00 0. -1.
         -2   -1    0    0    0  501 -0.00000000000E+00 -0.00000000000E+00 -0.13006705015E+03  0.13006705015E+03  0.00000000000E+00 0.  1.
         21    1    1    2  502  503 -0.17615260695E+02  0.36474518136E+02 -0.11818366868E+02  0.42194332297E+02  0.00000000000E+00 0. -1.
         21    1    1    2  503  501  0.17615260695E+02 -0.36474518136E+02 -0.99080793891E+02  0.10704060725E+03  0.00000000000E+00 0.  1.
</event>
<event>
 4    1  0.5576842E+002  0.2383069E+02  0.7546771E-02  0.1482323E+00
          2   -1    0    0  503    0  0.00000000000E+00  0.00000000000E+00  0.13113200556E+04  0.13113200556E+04  0.00000000000E+00 0. -1.
         -2   -1    0    0    0  501 -0.00000000000E+00 -0.00000000000E+00 -0.64551460061E+00  0.64551460061E+00  0.00000000000E+00 0.  1.
         21    1    1    2  502  501 -0.20256150141E+02 -0.12553484840E+02  0.27901853034E+03  0.28003435838E+03  0.00000000000E+00 0.  1.
         21    1    1    2  503  502  0.20256150141E+02  0.12553484840E+02  0.10316560107E+04  0.10319312118E+04  0.00000000000E+00 0. -1.
</event>
<event>
 4    1  0.5576842E+002  0.2095590E+02  0.7546771E-02  0.1519895E+00
          2   -1    0    0  502    0  0.00000000000E+00  0.00000000000E+00  0.17660486726E+02  0.17660486726E+02  0.00000000000E+00 0. -1.
         -2   -1    0    0    0  501 -0.00000000000E+00 -0.00000000000E+00 -0.13199273354E+03  0.13199273354E+03  0.00000000000E+00 0.  1.
         21    1    1    2  502  503 -0.20858349429E+02 -0.20196889235E+01  0.10244680474E+02  0.23326023285E+02  0.00000000000E+00 0. -1.
         21    1    1    2  503  501  0.20858349429E+02  0.20196889235E+01 -0.12457692729E+03  0.12632719698E+03  0.00000000000E+00 0.  1.
</event>
<event>
 4    1  0.5576842E+002  0.2933099E+02  0.7546771E-02  0.1425501E+00
          2   -1    0    0  502    0  0.00000000000E+00  0.00000000000E+00  0.13170378675E+03  0.13170378675E+03  0.00000000000E+00 0.  1.
         -2   -1    0    0    0  501 -0.00000000000E+00 -0.00000000000E+00 -0.10276883047E+02  0.10276883047E+02  0.00000000000E+00 0. -1.
         21    1    1    2  502  503  0.57019661270E+01 -0.28771423828E+02  0.10356629816E+03  0.10763960870E+03  0.00000000000E+00 0.  1.
         21    1    1    2  503  501 -0.57019661270E+01  0.28771423828E+02  0.17860605542E+02  0.34341061095E+02  0.00000000000E+00 0. -1.
</event>
<event>
 4    1  0.5576842E+002  0.2311611E+02  0.7546771E-02  0.1491045E+00
          2   -1    0    0  502    0  0.00000000000E+00  0.00000000000E+00  0.88410204664E+03  0.88410204664E+03  0.00000000000E+00 0. -1.
         -2   -1    0    0    0  501 -0.00000000000E+00 -0.00000000000E+00 -0.75623006689E+00  0.75623006689E+00  0.00000000000E+00 0.  1.
         21    1    1    2  502  503  0.15245052192E+02  0.17376501788E+02  0.63991256706E+03  0.64032995237E+03  0.00000000000E+00 0. -1.
         21    1    1    2  503  501 -0.15245052192E+02 -0.17376501788E+02  0.24343324952E+03  0.24452832434E+03  0.00000000000E+00 0.  1.
</event>
<event>
 4    1  0.5576842E+002  0.3648575E+02  0.7546771E-02  0.1370408E+00
          2   -1    0    0  503    0  0.00000000000E+00  0.00000000000E+00  0.12139193454E+03  0.12139193454E+03  0.00000000000E+00 0. -1.
         -2   -1    0    0    0  501 -0.00000000000E+00 -0.00000000000E+00 -0.11628681345E+02  0.11628681345E+02  0.00000000000E+00 0.  1.
         21    1    1    2  502  501 -0.36434365607E+02 -0.19357762214E+01  0.39006939802E+02  0.53411155946E+02  0.00000000000E+00 0. -1.
         21    1    1    2  503  502  0.36434365607E+02  0.19357762214E+01  0.70756313393E+02  0.79609459939E+02  0.00000000000E+00 0.  1.
</event>
<event>
 4    1  0.5576842E+002  0.2505541E+02  0.7546771E-02  0.1468184E+00
          2   -1    0    0  503    0  0.00000000000E+00  0.00000000000E+00  0.33035067165E+01  0.33035067165E+01  0.00000000000E+00 0.  1.
         -2   -1    0    0    0  501 -0.00000000000E+00 -0.00000000000E+00 -0.19195850650E+03  0.19195850650E+03  0.00000000000E+00 0. -1.
         21    1    1    2  502  501  0.96902702075E+01 -0.23105680592E+02 -0.84548215360E+02  0.88182620356E+02  0.00000000000E+00 0. -1.
         21    1    1    2  503  502 -0.96902702075E+01  0.23105680592E+02 -0.10410678442E+03  0.10707939286E+03  0.00000000000E+00 0.  1.
</event>
<event>
 4    1  0.5576842E+002  0.2403219E+02  0.7546771E-02  0.1479928E+00
          2   -1    0    0  503    0  0.00000000000E+00  0.00000000000E+00  0.24565356794E+02  0.24565356794E+02  0.00000000000E+00 0.  1.
         -2   -1    0    0    0  501 -0.00000000000E+00 -0.00000000000E+00 -0.23510615108E+02  0.23510615108E+02  0.00000000000E+00 0. -1.
         21    1    1    2  502  501  0.22821359836E+02  0.75320455676E+01  0.54913302194E+00  0.24038463393E+02  0.00000000000E+00 0.  1.
         21    1    1    2  503  502 -0.22821359836E+02 -0.75320455676E+01  0.50560866371E+00  0.24037508509E+02  0.00000000000E+00 0. -1.
</event>
<event>
 4    1  0.5576842E+002  0.2077522E+02  0.7546771E-02  0.1522499E+00
          2   -1    0    0  502    0  0.00000000000E+00  0.00000000000E+00  0.96024813631E+03  0.96024813631E+03  0.00000000000E+00 0.  1.
         -2   -1    0    0    0  501 -0.00000000000E+00 -0.00000000000E+00 -0.30413240527E+01  0.30413240527E+01  0.00000000000E+00 0. -1.
         21    1    1    2  502  503 -0.63106837970E+01  0.19793556271E+02  0.92323481341E+03  0.92346853238E+03  0.00000000000E+00 0.  1.
         21    1    1    2  503  501  0.63106837970E+01 -0.19793556271E+02  0.33971998843E+02  0.39820927980E+02  0.00000000000E+00 0. -1.
</event>
<event>
 4    1  0.5576842E+002  0.2220854E+02  0.7546771E-02  0.1502683E+00
          2   -1    0    0  502    0  0.00000000000E+00  0.00000000000E+00  0.46747209840E+03  0.46747209840E+03  0.00000000000E+00 0.  1.
         -2   -1    0    0    0  501 -0.00000000000E+00 -0.00000000000E+00 -0.23054944112E+01  0.23054944112E+01  0.00000000000E+00 0. -1.
         21    1    1    2  502  503 -0.12327704497E+02  0.18472866686E+02  0.40556802719E+03  0.40617563169E+03  0.00000000000E+00 0.  1.
         21    1    1    2  503  501  0.12327704497E+02 -0.18472866686E+02  0.59598576799E+02  0.63601961120E+02  0.00000000000E+00 0. -1.
</event>
<event>
 4    1  0.5576842E+002  0.2289046E+02  0.7546771E-02  0.1493878E+00
          2   -1    0    0  503    0  0.00000000000E+00  0.00000000000E+00  0.45785616481E+02  0.45785616481E+02  0.00000000000E+00 0. -1.
         -2   -1    0    0    0  501 -0.00000000000E+00 -0.00000000000E+00 -0.49467017288E+02  0.49467017288E+02  0.00000000000E+00 0.  1.
         21    1    1    2  502  501 -0.89586888519E+01  0.21064543568E+02 -0.43596048718E+02  0.49240111347E+02  0.00000000000E+00 0.  1.
         21    1    1    2  503  502  0.89586888519E+01 -0.21064543568E+02  0.39914647912E+02  0.46012522421E+02  0.00000000000E+00 0. -1.
</event>
<event>
 4    1  0.5576842E+002  0.2697080E+02  0.7546771E-02  0.1447902E+00
          2   -1    0    0  502    0  0.00000000000E+00  0.00000000000E+00  0.23263218583E+04  0.23263218583E+04  0.00000000000E+00 0.  1.
         -2   -1    0    0    0  501 -0.00000000000E+00 -0.00000000000E+00 -0.63530588373E+00  0.63530588373E+00  0.00000000000E+00 0. -1.
         21    1    1    2  502  503  0.23579687298E+02  0.13092836545E+02  0.19919452782E+04  0.19921278612E+04  0.00000000000E+00 0.  1.
         21    1    1    2  503  501 -0.23579687298E+02 -0.13092836545E+02  0.33374127425E+03  0.33482930302E+03  0.00000000000E+00 0. -1.
</event>
<event>
 4    1  0.5576842E+002  0.2259182E+02  0.7546771E-02  0.1497688E+00
          2   -1    0    0  503    0  0.00000000000E+00  0.00000000000E+00  0.11406088255E+04  0.11406088255E+04  0.00000000000E+00 0. -1.
         -2   -1    0    0    0  501 -0.00000000000E+00 -0.00000000000E+00 -0.52652383770E+00  0.52652383770E+00  0.00000000000E+00 0.  1.
         21    1    1    2  502  501  0.22578838991E+02  0.76569864813E+00  0.34895846807E+03  0.34968900855E+03  0.00000000000E+00 0.  1.
         21    1    1    2  503  502 -0.22578838991E+02 -0.76569864813E+00  0.79112383362E+03  0.79144634082E+03  0.00000000000E+00 0. -1.
</event>
<event>
 4    1  0.5576842E+002  0.2119429E+02  0.7546771E-02  0.1516509E+00
          2   -1    0    0  503    0  0.00000000000E+00  0.00000000000E+00  0.15405817833E+04  0.15405817833E+04  0.00000000000E+00 0.  1.
         -2   -1    0    0    0  501 -0.00000000000E+00 -0.00000000000E+00 -0.19565934212E+02  0.19565934212E+02  0.00000000000E+00 0. -1.
         21    1    1    2  502  501  0.69145746148E+00 -0.21183002835E+02 -0.13731684179E+02  0.25253848675E+02  0.00000000000E+00 0. -1.
         21    1    1    2  503  502 -0.69145746148E+00  0.21183002835E+02  0.15347475333E+04  0.15348938689E+04  0.00000000000E+00 0.  1.
</event>
<event>
 4    1  0.5576842E+002  0.2296162E+02  0.7546771E-02  0.1492981E+00
          2   -1    0    0  503    0  0.00000000000E+00  0.00000000000E+00  0.16602698988E+04  0.16602698988E+04  0.00000000000E+00 0.  1.
         -2   -1    0    0    0  501 -0.00000000000E+00 -0.00000000000E+00 -0.37922904616E+01  0.37922904616E+01  0.00000000000E+00 0. -1.
         21    1    1    2  502  501 -0.28416715570E+01  0.22785098121E+02  0.31805701275E+02  0.39228031142E+02  0.00000000000E+00 0. -1.
         21    1    1    2  503  502  0.28416715570E+01 -0.22785098121E+02  0.16246719071E+04  0.16248341582E+04  0.00000000000E+00 0.  1.
</event>
<event>
 4    1  0.5576842E+002  0.2046042E+02  0.7546771E-02  0.1527110E+00
          2   -1    0    0  502    0  0.00000000000E+00  0.00000000000E+00  0.55577708652E+03  0.55577708652E+03  0.00000000000E+00 0. -1.
         -2   -1    0    0    0  501 -0.00000000000E+00 -0.00000000000E+00 -0.23734245140E+01  0.23734245140E+01  0.00000000000E+00 0.  1.
         21    1    1    2  502  503  0.13720362242E+02  0.15178282596E+02  0.50727939492E+03  0.50769184858E+03  0.00000000000E+00 0. -1.
         21    1    1    2  503  501 -0.13720362242E+02 -0.15178282596E+02  0.46124267092E+02  0.50458662462E+02  0.00000000000E+00 0.  1.
</event>
<event>
 4    1  0.5576842E+002  0.2762489E+02  0.7546771E-02  0.1441430E+00
          2   -1    0    0  503    0  0.00000000000E+00  0.00000000000E+00  0.66667211793E+02  0.66667211793E+02  0.00000000000E+00 0. -1.
         -2   -1    0    0    0  501 -0.00000000000E+00 -0.00000000000E+00 -0.13988363164E+02  0.13988363164E+02  0.00000000000E+00 0.  1.
         21    1    1    2  502  501 -0.25640751430E+02  0.10280395105E+02  0.91500284931E+01  0.29100819212E+02  0.00000000000E+00 0.  1.
         21    1    1    2  503  502  0.25640751430E+02 -0.10280395105E+02  0.43528820137E+02  0.51554755745E+02  0.00000000000E+00 0. -1.
</event>
<event>
 4    1  0.5576842E+002  0.2298489E+02  0.7546771E-02  0.1492688E+00
          2   -1    0    0  503    0  0.00000000000E+00  0.00000000000E+00  0.29532316502E+03  0.29532316502E+03  0.00000000000E+00 0. -1.
         -2   -1    0    0    0  501 -0.00000000000E+00 -0.00000000000E+00 -0.19076525988E+01  0.19076525988E+01  0.00000000000E+00 0.  1.
         21    1    1    2  502  501  0.22871266635E+02 -0.22825978057E+01  0.10962887759E+03  0.11201248096E+03  0.00000000000E+00 0.  1.
         21    1    1    2  503  502 -0.22871266635E+02  0.22825978057E+01  0.18378663483E+03  0.18521833665E+03  0.00000000000E+00 0. -1.
</event>
<event>
 4    1  0.5576842E+002  0.2141921E+02  0.7546771E-02  0.1513363E+00
          2   -1    0    0  503    0  0.00000000000E+00  0.00000000000E+00  0.18232038669E+04  0.18232038669E+04  0.00000000000E+00 0. -1.
         -2   -1    0    0    0  501 -0.00000000000E+00 -0.00000000000E+00 -0.25251716047E+00  0.25251716047E+00  0.00000000000E+00 0.  1.
         21    1    1    2  502  501  0.21152698930E+02  0.33683832371E+01  0.96535093724E+03  0.96558853281E+03  0.00000000000E+00 0. -1.
         21    1    1    2  503  502 -0.21152698930E+02 -0.33683832371E+01  0.85760041250E+03  0.85786785124E+03  0.00000000000E+00 0.  1.
</event>
<event>
 4    1  0.5576842E+002  0.2425252E+02  0.7546771E-02  0.1477342E+00
          2   -1    0    0  503    0  0.00000000000E+00  0.00000000000E+00  0.46051092244E+02  0.46051092244E+02  0.00000000000E+00 0. -1.
         -2   -1    0    0    0  501 -0.00000000000E+00 -0.00000000000E+00 -0.70519042182E+02  0.70519042182E+02  0.00000000000E+00 0.  1.
         21    1    1    2  502  501 -0.82738711226E+01  0.22797534938E+02 -0.64977279828E+02  0.69355832029E+02  0.00000000000E+00 0.  1.
         21    1    1    2  503  502  0.82738711226E+01 -0.22797534938E+02  0.40509329891E+02  0.47214302397E+02  0.00000000000E+00 0. -1.
</event>
<event>
 4    1  0.5576842E+002  0.5256518E+02  0.7546771E-02  0.1287418E+00
          2   -1    0    0  502    0  0.00000000000E+00  0.00000000000E+00  0.12200633426E+04  0.12200633426E+04  0.00000000000E+00 0. -1.
         -2   -1    0    0    0  501 -0.00000000000E+00 -0.00000000000E+00 -0.47700783796E+01  0.47700783796E+01  0.00000000000E+00 0.  1.
         21    1    1    2  502  503  0.48072178842E+02 -0.21264148422E+02  0.10514794895E+04  0.10527925794E+04  0.00000000000E+00 0. -1.
         21    1    1    2  503  501 -0.48072178842E+02  0.21264148422E+02  0.16381377480E+03  0.17204084166E+03  0.00000000000E+00 0.  1.
</event>
<event>
 4    1  0.5576842E+002  0.2210922E+02  0.7546771E-02  0.1503997E+00
          2   -1    0    0  503    0  0.00000000000E+00  0.00000000000E+00  0.15617495037E+04  0.15617495037E+04  0.00000000000E+00 0.  1.
         -2   -1    0    0    0  501 -0.00000000000E+00 -0.00000000000E+00 -0.31411003911E+00  0.31411003911E+00  0.00000000000E+00 0. -1.
         21    1    1    2  502  501 -0.18176419128E+02  0.12587104720E+02  0.82728359546E+03  0.82757897794E+03  0.00000000000E+00 0.  1.
         21    1    1    2  503  502  0.18176419128E+02 -0.12587104720E+02  0.73415179821E+03  0.73448463580E+03  0.00000000000E+00 0. -1.
</event>
<event>
 4    1  0.5576842E+002  0.2329530E+02  0.7546771E-02  0.1488823E+00
          2   -1    0    0  503    0  0.00000000000E+00  0.00000000000E+00  0.22200736615E+02  0.22200736615E+02  0.00000000000E+00 0.  1.
         -2   -1    0    0    0  501 -0.00000000000E+00 -0.00000000000E+00 -0.35080544463E+02  0.35080544463E+02  0.00000000000E+00 0. -1.
         21    1    1    2  502  501 -0.15266487823E+02  0.17595606916E+02 -0.22210688997E+02  0.32186732343E+02  0.00000000000E+00 0. -1.
         21    1    1    2  503  502  0.15266487823E+02 -0.17595606916E+02  0.93308811488E+01  0.25094548735E+02  0.00000000000E+00 0.  1.
</event>
<event>
 4    1  0.5576842E+002  0.2235430E+02  0.7546771E-02  0.1500769E+00
          2   -1    0    0  503    0  0.00000000000E+00  0.00000000000E+00  0.23992546713E+01  0.23992546713E+01  0.00000000000E+00 0.  1.
         -2   -1    0    0    0  501 -0.00000000000E+00 -0.00000000000E+00 -0.22351416582E+03  0.22351416582E+03  0.00000000000E+00 0. -1.
         21    1    1    2  502  501 -0.22162730333E+02 -0.29202669577E+01 -0.81066975196E+02  0.84092621807E+02  0.00000000000E+00 0.  1.
         21    1    1    2  503  502  0.22162730333E+02  0.29202669577E+01 -0.14004793596E+03  0.14182079869E+03  0.00000000000E+00 0. -1.
</event>
<event>
 4    1  0.5576842E+002  0.2152943E+02  0.7546771E-02  0.1511838E+00
          2   -1    0    0  502    0  0.00000000000E+00  0.00000000000E+00  0.29500998500E+03  0.29500998500E+03  0.00000000000E+00 0. -1.
         -2   -1    0    0    0  501 -0.00000000000E+00 -0.00000000000E+00 -0.35099373430E+01  0.35099373430E+01  0.00000000000E+00 0.  1.
         21    1    1    2  502  503  0.19652405921E+02  0.87920104060E+01  0.25668138414E+03  0.25758270413E+03  0.00000000000E+00 0. -1.
         21    1    1    2  503  501 -0.19652405921E+02 -0.87920104060E+01  0.34818663515E+02  0.40937218206E+02  0.00000000000E+00 0.  1.
</event>
<event>
 4    1  0.5576842E+002  0.5841218E+02  0.7546771E-02  0.1265325E+00
          2   -1    0    0  502    0  0.00000000000E+00  0.00000000000E+00  0.40157718018E+04  0.40157718018E+04  0.00000000000E+00 0. -1.
         -2   -1    0    0    0  501 -0.00000000000E+00 -0.00000000000E+00 -0.85320422387E+00  0.85320422387E+00  0.00000000000E+00 0.  1.
         21    1    1    2  502  503 -0.12099581196E+02 -0.57145275969E+02  0.18777556819E+04  0.18786639889E+04  0.00000000000E+00 0.  1.
         21    1    1    2  503  501  0.12099581196E+02  0.57145275969E+02  0.21371629157E+04  0.21379610171E+04  0.00000000000E+00 0. -1.
</event>
<event>
 4    1  0.5576842E+002  0.2110832E+02  0.7546771E-02  0.1517724E+00
          2   -1    0    0  503    0  0.00000000000E+00  0.00000000000E+00  0.34517489254E+02  0.34517489254E+02  0.00000000000E+00 0.  1.
         -2   -1    0    0    0  501 -0.00000000000E+00 -0.00000000000E+00 -0.13046151191E+02  0.13046151191E+02  0.00000000000E+00 0. -1.
         21    1    1    2  502  501 -0.20170989535E+02  0.62203311111E+01  0.82908640484E+01  0.22678178159E+02  0.00000000000E+00 0. -1.
         21    1    1    2  503  502  0.20170989535E+02 -0.62203311111E+01  0.13180474014E+02  0.24885462286E+02  0.00000000000E+00 0.  1.
</event>
<event>
 4    1  0.5576842E+002  0.2381880E+02  0.7546771E-02  0.1482465E+00
          2   -1    0    0  502    0  0.00000000000E+00  0.00000000000E+00  0.79864085785E+00  0.79864085785E+00  0.00000000000E+00 0.  1.
         -2   -1    0    0    0  501 -0.00000000000E+00 -0.00000000000E+00 -0.80434344368E+03  0.80434344368E+03  0.00000000000E+00 0. -1.
         21    1    1    2  502  503 -0.15613020906E+02 -0.17988015939E+02 -0.26417477744E+03  0.26524639144E+03  0.00000000000E+00 0.  1.
         21    1    1    2  503  501  0.15613020906E+02  0.17988015939E+02 -0.53937002538E+03  0.53989569309E+03  0.00000000000E+00 0. -1.
</event>
<event>
 4    1  0.5576842E+002  0.2503550E+02  0.7546771E-02  0.1468407E+00
          2   -1    0    0  503    0  0.00000000000E+00  0.00000000000E+00  0.72885795242E+02  0.72885795242E+02  0.00000000000E+00 0. -1.
         -2   -1    0    0    0  501 -0.00000000000E+00 -0.00000000000E+00 -0.33458358456E+03  0.33458358456E+03  0.00000000000E+00 0.  1.
         21    1    1    2  502  501 -0.24255145817E+02 -0.62019359198E+01 -0.33194835941E+03  0.33289110745E+03  0.00000000000E+00 0.  1.
         21    1    1    2  503  502  0.24255145817E+02  0.62019359198E+01  0.70250570093E+02  0.74578272346E+02  0.00000000000E+00 0. -1.
</event>
<event>
 4    1  0.5576842E+002  0.3589758E+02  0.7546771E-02  0.1374360E+00
          2   -1    0    0  502    0  0.00000000000E+00  0.00000000000E+00  0.10369574454E+04  0.10369574454E+04  0.00000000000E+00 0.  1.
         -2   -1    0    0    0  501 -0.00000000000E+00 -0.00000000000E+00 -0.28928606928E+01  0.28928606928E+01  0.00000000000E+00 0. -1.
         21    1    1    2  502  503 -0.82823944205E+01  0.34929042620E+02  0.90971252312E+03  0.91042051317E+03  0.00000000000E+00 0.  1.
         21    1    1    2  503  501  0.82823944205E+01 -0.34929042620E+02  0.12435206160E+03  0.12942979293E+03  0.00000000000E+00 0. -1.
</event>
<event>
 4    1  0.5576842E+002  0.3727383E+02  0.7546771E-02  0.1365247E+00
          2   -1    0    0  502    0  0.00000000000E+00  0.00000000000E+00  0.16217465662E+03  0.16217465662E+03  0.00000000000E+00 0. -1.
         -2   -1    0    0    0  501 -0.00000000000E+00 -0.00000000000E+00 -0.10244313427E+02  0.10244313427E+02  0.00000000000E+00 0.  1.
         21    1    1    2  502  503 -0.12354537599E+02  0.35166795495E+02  0.11084950718E+03  0.11694849869E+03  0.00000000000E+00 0. -1.
         21    1    1    2  503  501  0.12354537599E+02 -0.35166795495E+02  0.41080836015E+02  0.55470471355E+02  0.00000000000E+00 0.  1.
</event>
<event>
 4    1  0.5576842E+002  0.3318141E+02  0.7546771E-02  0.1393820E+00
          2   -1    0    0  502    0  0.00000000000E+00  0.00000000000E+00  0.18550935729E+02  0.18550935729E+02  0.00000000000E+00 0. -1.
         -2   -1    0    0    0  501 -0.00000000000E+00 -0.00000000000E+00 -0.88299183379E+02  0.88299183379E+02  0.00000000000E+00 0.  1.
         21    1    1    2  502  503 -0.35514915827E+00 -0.33179513646E+02 -0.42839809199E+01  0.33456819174E+02  0.00000000000E+00 0. -1.
         21    1    1    2  503  501  0.35514915827E+00  0.33179513646E+02 -0.65464266730E+02  0.73393299934E+02  0.00000000000E+00 0.  1.
</event>
<event>
 4    1  0.5576842E+002  0.3579512E+02  0.7546771E-02  0.1375058E+00
          2   -1    0    0  502    0  0.00000000000E+00  0.00000000000E+00  0.10508120960E+04  0.10508120960E+04  0.00000000000E+00 0.  1.
         -2   -1    0    0    0  501 -0.00000000000E+00 -0.00000000000E+00 -0.31388134623E+01  0.31388134623E+01  0.00000000000E+00 0. -1.
         21    1    1    2  502  503  0.21802838787E+02 -0.28388846074E+02  0.93593361817E+03  0.93661786657E+03  0.00000000000E+00 0.  1.
         21    1    1    2  503  501 -0.21802838787E+02  0.28388846074E+02  0.11173966434E+03  0.11733304286E+03  0.00000000000E+00 0. -1.
</event>
<event>
 4    1  0.5576842E+002  0.2930928E+02  0.7546771E-02  0.1425695E+00
          2   -1    0    0  502    0  0.00000000000E+00  0.00000000000E+00  0.70935319389E+03  0.70935319389E+03  0.00000000000E+00 0. -1.
         -2   -1    0    0    0  501 -0.00000000000E+00 -0.00000000000E+00 -0.33179944484E+01  0.33179944484E+01  0.00000000000E+00 0.  1.
         21    1    1    2  502  503 -0.16157713821E+02  0.24453266872E+02  0.63697423374E+03  0.63764818546E+03  0.00000000000E+00 0. -1.
         21    1    1    2  503  501  0.16157713821E+02 -0.24453266872E+02  0.69060965697E+02  0.75023002870E+02  0.00000000000E+00 0.  1.
</event>
<event>
 4    1  0.5576842E+002  0.5197668E+02  0.7546771E-02  0.1289822E+00
          2   -1    0    0  503    0  0.00000000000E+00  0.00000000000E+00  0.14321008079E+02  0.14321008079E+02  0.00000000000E+00 0. -1.
         -2   -1    0    0    0  501 -0.00000000000E+00 -0.00000000000E+00 -0.21563754440E+03  0.21563754440E+03  0.00000000000E+00 0.  1.
         21    1    1    2  502  501  0.35367201675E+02  0.38088526067E+02 -0.14133873429E+03  0.15059287029E+03  0.00000000000E+00 0.  1.
         21    1    1    2  503  502 -0.35367201675E+02 -0.38088526067E+02 -0.59977802030E+02  0.79365682185E+02  0.00000000000E+00 0. -1.
</event>
<event>
 4    1  0.5576842E+002  0.2991849E+02  0.7546771E-02  0.1420306E+00
          2   -1    0    0  502    0  0.00000000000E+00  0.00000000000E+00  0.22711360495E+04  0.22711360495E+04  0.00000000000E+00 0. -1.
         -2   -1    0    0    0  501 -0.00000000000E+00 -0.00000000000E+00 -0.12285658944E+01  0.12285658944E+01  0.00000000000E+00 0.  1.
         21    1    1    2  502  503 -0.29072998201E+02 -0.70623645896E+01  0.20713206211E+04  0.20715366837E+04  0.00000000000E+00 0. -1.
         21    1    1    2  503  501  0.29072998201E+02  0.70623645896E+01  0.19858686247E+03  0.20082793173E+03  0.00000000000E+00 0.  1.
</event>
<event>
 4    1  0.5576842E+002  0.2208278E+02  0.7546771E-02  0.1504348E+00
          2   -1    0    0  503    0  0.00000000000E+00  0.00000000000E+00  0.53323234748E+03  0.53323234748E+03  0.00000000000E+00 0. -1.
         -2   -1    0    0    0  501 -0.00000000000E+00 -0.00000000000E+00 -0.26081624581E+01  0.26081624581E+01  0.00000000000E+00 0.  1.
         21    1    1    2  502  501  0.19757769015E+02  0.98630445977E+01  0.49413550135E+02  0.54123451683E+02  0.00000000000E+00 0.  1.
         21    1    1    2  503  502 -0.19757769015E+02 -0.98630445977E+01  0.48121063489E+03  0.48171705825E+03  0.00000000000E+00 0. -1.
</event>
<event>
 4    1  0.5576842E+002  0.3128286E+02  0.7546771E-02  0.1408767E+00
          2   -1    0    0  502    0  0.00000000000E+00  0.00000000000E+00  0.77319150469E+03  0.77319150469E+03  0.00000000000E+00 0. -1.
         -2   -1    0    0    0  501 -0.00000000000E+00 -0.00000000000E+00 -0.12974376149E+01  0.12974376149E+01  0.00000000000E+00 0.  1.
         21    1    1    2  502  503  0.18619823577E+02 -0.25138005481E+02  0.44652705628E+03  0.44762152443E+03  0.00000000000E+00 0. -1.
         21    1    1    2  503  501 -0.18619823577E+02  0.25138005481E+02  0.32536701080E+03  0.32686741787E+03  0.00000000000E+00 0.  1.
</event>
<event>
 4    1  0.5576842E+002  0.2276314E+02  0.7546771E-02  0.1495494E+00
          2   -1    0    0  503    0  0.00000000000E+00  0.00000000000E+00  0.70818156460E+03  0.70818156460E+03  0.00000000000E+00 0. -1.
         -2   -1    0    0    0  501 -0.00000000000E+00 -0.00000000000E+00 -0.92457382983E+00  0.92457382983E+00  0.00000000000E+00 0.  1.
         21    1    1    2  502  501 -0.18728661877E+02 -0.12938232596E+02  0.19168174427E+03  0.19302862929E+03  0.00000000000E+00 0.  1.
         21    1    1    2  503  502  0.18728661877E+02  0.12938232596E+02  0.51557524651E+03  0.51607750915E+03  0.00000000000E+00 0. -1.
</event>
<event>
 4    1  0.5576842E+002  0.2983797E+02  0.7546771E-02  0.1421010E+00
          2   -1    0    0  502    0  0.00000000000E+00  0.00000000000E+00  0.49661994730E+02  0.49661994730E+02  0.00000000000E+00 0. -1.
         -2   -1    0    0    0  501 -0.00000000000E+00 -0.00000000000E+00 -0.27874030930E+02  0.27874030930E+02  0.00000000000E+00 0.  1.
         21    1    1    2  502  503 -0.21238194750E+02 -0.20958140929E+02  0.34052684639E+02  0.45275710028E+02  0.00000000000E+00 0. -1.
         21    1    1    2  503  501  0.21238194750E+02  0.20958140929E+02 -0.12264720839E+02  0.32260315632E+02  0.00000000000E+00 0.  1.
</event>
<event>
 4    1  0.5576842E+002  0.2985810E+02  0.7546771E-02  0.1420834E+00
          2   -1    0    0  502    0  0.00000000000E+00  0.00000000000E+00  0.17784556808E+04  0.17784556808E+04  0.00000000000E+00 0. -1.
         -2   -1    0    0    0  501 -0.00000000000E+00 -0.00000000000E+00 -0.61765481803E+00  0.61765481803E+00  0.00000000000E+00 0.  1.
         21    1    1    2  502  503 -0.27097457183E+02  0.12539288395E+02  0.12750358036E+04  0.12753853560E+04  0.00000000000E+00 0. -1.
         21    1    1    2  503  501  0.27097457183E+02 -0.12539288395E+02  0.50280222239E+03  0.50368797959E+03  0.00000000000E+00 0.  1.
</event>
<event>
 4    1  0.5576842E+002  0.2288313E+02  0.7546771E-02  0.1493971E+00
          2   -1    0    0  503    0  0.00000000000E+00  0.00000000000E+00  0.10949369742E+04  0.10949369742E+04  0.00000000000E+00 0. -1.
         -2   -1    0    0    0  501 -0.00000000000E+00 -0.00000000000E+00 -0.63588536531E+00  0.63588536531E+00  0.00000000000E+00 0.  1.
         21    1    1    2  502  501 -0.83151280232E+01  0.21318913553E+02  0.27439785815E+03  0.27535036224E+03  0.00000000000E+00 0.  1.
         21    1    1    2  503  502  0.83151280232E+01 -0.21318913553E+02  0.81990323070E+03  0.82022249734E+03  0.00000000000E+00 0. -1.
</event>
<event>
 4    1  0.5576842E+002  0.2662364E+02  0.7546771E-02  0.1451426E+00
          2   -1    0    0  503    0  0.00000000000E+00  0.00000000000E+00  0.15978697702E+04  0.15978697702E+04  0.00000000000E+00 0. -1.
         -2   -1    0    0    0  501 -0.00000000000E+00 -0.00000000000E+00 -0.45234377251E+00  0.45234377251E+00  0.00000000000E+00 0.  1.
         21    1    1    2  502  501 -0.58574497469E+01  0.25971298216E+02  0.90980575878E+03  0.91019521904E+03  0.00000000000E+00 0.  1.
         21    1    1    2  503  502  0.58574497469E+01 -0.25971298216E+02  0.68761166760E+03  0.68812689489E+03  0.00000000000E+00 0. -1.
</event>
<event>
 4    1  0.5576842E+002  0.2834768E+02  0.7546771E-02  0.1434521E+00
          2   -1    0    0  503    0  0.00000000000E+00  0.00000000000E+00  0.11332179415E+03  0.11332179415E+03  0.00000000000E+00 0.  1.
         -2   -1    0    0    0  501 -0.00000000000E+00 -0.00000000000E+00 -0.11167534763E+02  0.11167534763E+02  0.00000000000E+00 0. -1.
         21    1    1    2  502  501 -0.23232234835E+02 -0.16243589348E+02  0.13471160538E+02  0.31385714850E+02  0.00000000000E+00 0. -1.
         21    1    1    2  503  502  0.23232234835E+02  0.16243589348E+02  0.88683098853E+02  0.93103614068E+02  0.00000000000E+00 0.  1.
</event>
<event>
 4    1  0.5576842E+002  0.3288351E+02  0.7546771E-02  0.1396086E+00
          2   -1    0    0  503    0  0.00000000000E+00  0.00000000000E+00  0.15408653629E+03  0.15408653629E+03  0.00000000000E+00 0. -1.
         -2   -1    0    0    0  501 -0.00000000000E+00 -0.00000000000E+00 -0.11307230609E+02  0.11307230609E+02  0.00000000000E+00 0.  1.
         21    1    1    2  502  501 -0.13819453335E+02 -0.29838697238E+02  0.20454394529E+02  0.38726055814E+02  0.00000000000E+00 0.  1.
         21    1    1    2  503  502  0.13819453335E+02  0.29838697238E+02  0.12232491115E+03  0.12666771108E+03  0.00000000000E+00 0. -1.
</event>
<event>
 4    1  0.5576842E+002  0.3112753E+02  0.7546771E-02  0.1410045E+00
          2   -1    0    0  502    0  0.00000000000E+00  0.00000000000E+00  0.10675906815E+04  0.10675906815E+04  0.00000000000E+00 0.  1.
         -2   -1    0    0    0  501 -0.00000000000E+00 -0.00000000000E+00 -0.11381101492E+01  0.11381101492E+01  0.00000000000E+00 0. -1.
         21    1    1    2  502  503  0.89942965159E+01 -0.29799764524E+02  0.77372334709E+03  0.77434923721E+03  0.00000000000E+00 0.  1.
         21    1    1    2  503  501 -0.89942965159E+01  0.29799764524E+02  0.29272922427E+03  0.29437955445E+03  0.00000000000E+00 0. -1.
</event>
<event>
 4    1  0.5576842E+002  0.3012082E+02  0.7546771E-02  0.1418549E+00
          2   -1    0    0  502    0  0.00000000000E+00  0.00000000000E+00  0.11234325996E+02  0.11234325996E+02  0.00000000000E+00 0.  1.
         -2   -1    0    0    0  501 -0.00000000000E+00 -0.00000000000E+00 -0.10679161709E+03  0.10679161709E+03  0.00000000000E+00 0. -1.
         21    1    1    2  502  503 -0.11194254776E+02 -0.27963411807E+02 -0.18641658344E+02  0.35422805729E+02  0.00000000000E+00 0.  1.
         21    1    1    2  503  501  0.11194254776E+02  0.27963411807E+02 -0.76915632746E+02  0.82603137353E+02  0.00000000000E+00 0. -1.
</event>
<event>
 4    1  0.5576842E+002  0.2056047E+02  0.7546771E-02  0.1525634E+00
          2   -1    0    0  502    0  0.00000000000E+00  0.00000000000E+00  0.56297642507E+03  0.56297642507E+03  0.00000000000E+00 0.  1.
         -2   -1    0    0    0  501 -0.00000000000E+00 -0.00000000000E+00 -0.10765688935E+01  0.10765688935E+01  0.00000000000E+00 0. -1.
         21    1    1    2  502  503  0.11823320527E+01 -0.20526449883E+02  0.12583122027E+03  0.12749991784E+03  0.00000000000E+00 0.  1.
         21    1    1    2  503  501 -0.11823320527E+01  0.20526449883E+02  0.43606863591E+03  0.43655307613E+03  0.00000000000E+00 0. -1.
</event>
<event>
 4    1  0.5576842E+002  0.2003419E+02  0.7546771E-02  0.1533514E+00
          2   -1    0    0  502    0  0.00000000000E+00  0.00000000000E+00  0.94894188909E+02  0.94894188909E+02  0.00000000000E+00 0. -1.
         -2   -1    0    0    0  501 -0.00000000000E+00 -0.00000000000E+00 -0.70953084213E+02  0.70953084213E+02  0.00000000000E+00 0.  1.
         21    1    1    2  502  503  0.15801599726E+02  0.12315774899E+02  0.92384597165E+02  0.94531913440E+02  0.00000000000E+00 0. -1.
         21    1    1    2  503  501 -0.15801599726E+02 -0.12315774899E+02 -0.68443492469E+02  0.71315359682E+02  0.00000000000E+00 0.  1.
</event>
<event>
 4    1  0.5576842E+002  0.2367372E+02  0.7546771E-02  0.1484207E+00
          2   -1    0    0  503    0  0.00000000000E+00  0.00000000000E+00  0.18108351889E+02  0.18108351889E+02  0.00000000000E+00 0. -1.
         -2   -1    0    0    0  501 -0.00000000000E+00 -0.00000000000E+00 -0.62936317397E+02  0.62936317397E+02  0.00000000000E+00 0.  1.
         21    1    1    2  502  501 -0.22664370857E+02  0.68389383743E+01 -0.51302761336E+02  0.56501487637E+02  0.00000000000E+00 0.  1.
         21    1    1    2  503  502  0.22664370857E+02 -0.68389383743E+01  0.64747958276E+01  0.24543181649E+02  0.00000000000E+00 0. -1.
</event>
<event>
 4    1  0.5576842E+002  0.6898328E+02  0.7546771E-02  0.1232028E+00
          2   -1    0    0  502    0  0.00000000000E+00  0.00000000000E+00  0.57693718851E+03  0.57693718851E+03  0.00000000000E+00 0.  1.
         -2   -1    0    0    0  501 -0.00000000000E+00 -0.00000000000E+00 -0.10978025365E+02  0.10978025365E+02  0.00000000000E+00 0. -1.
         21    1    1    2  502  503  0.31108845698E+02 -0.61570554807E+02  0.42956473827E+03  0.43506845193E+03  0.00000000000E+00 0.  1.
         21    1    1    2  503  501 -0.31108845698E+02  0.61570554807E+02  0.13639442488E+03  0.15284676194E+03  0.00000000000E+00 0. -1.
</event>
<event>
 4    1  0.5576842E+002  0.3587220E+02  0.7546771E-02  0.1374533E+00
          2   -1    0    0  502    0  0.00000000000E+00  0.00000000000E+00  0.87504420816E+03  0.87504420816E+03  0.00000000000E+00 0. -1.
         -2   -1    0    0    0  501 -0.00000000000E+00 -0.00000000000E+00 -0.31320944699E+01  0.31320944699E+01  0.00000000000E+00 0.  1.
         21    1    1    2  502  503  0.33113899359E+02  0.13794356085E+02  0.75576274249E+03  0.75661359856E+03  0.00000000000E+00 0. -1.
         21    1    1    2  503  501 -0.33113899359E+02 -0.13794356085E+02  0.11614937120E+03  0.12156270407E+03  0.00000000000E+00 0.  1.
</event>
<event>
 4    1  0.5576842E+002  0.2003167E+02  0.7546771E-02  0.1533552E+00
          2   -1    0    0  502    0  0.00000000000E+00  0.00000000000E+00  0.55411669519E+03  0.55411669519E+03  0.00000000000E+00 0.  1.
         -2   -1    0    0    0  501 -0.00000000000E+00 -0.00000000000E+00 -0.31815094269E+01  0.31815094269E+01  0.00000000000E+00 0. -1.
         21    1    1    2  502  503  0.14969654372E+02  0.13310800436E+02  0.52035964373E+03  0.52074506889E+03  0.00000000000E+00 0.  1.
         21    1    1    2  503  501 -0.14969654372E+02 -0.13310800436E+02  0.30575542041E+02  0.36553135726E+02  0.00000000000E+00 0. -1.
</event>
<event>
 4    1  0.5576842E+002  0.3909727E+02  0.7546771E-02  0.1353858E+00
          2   -1    0    0  503    0  0.00000000000E+00  0.00000000000E+00  0.19384849848E+02  0.19384849848E+02  0.00000000000E+00 0. -1.
         -2   -1    0    0    0  501 -0.00000000000E+00 -0.00000000000E+00 -0.87001021129E+02  0.87001021129E+02  0.00000000000E+00 0.  1.
         21    1    1    2  502  501 -0.32263697198E+02  0.22082809253E+02 -0.17531674399E+02  0.42848059800E+02  0.00000000000E+00 0. -1.
         21    1    1    2  503  502  0.32263697198E+02 -0.22082809253E+02 -0.50084496882E+02  0.63537811178E+02  0.00000000000E+00 0.  1.
</event>
<event>
 4    1  0.5576842E+002  0.2316085E+02  0.7546771E-02  0.1490488E+00
          2   -1    0    0  503    0  0.00000000000E+00  0.00000000000E+00  0.20906160364E+03  0.20906160364E+03  0.00000000000E+00 0. -1.
         -2   -1    0    0    0  501 -0.00000000000E+00 -0.00000000000E+00 -0.38321960676E+01  0.38321960676E+01  0.00000000000E+00 0.  1.
         21    1    1    2  502  501 -0.23730146355E+01 -0.23038966323E+02  0.41424526907E+02  0.47459631237E+02  0.00000000000E+00 0.  1.
         21    1    1    2  503  502  0.23730146355E+01  0.23038966323E+02  0.16380488067E+03  0.16543416847E+03  0.00000000000E+00 0. -1.
</event>
<event>
 4    1  0.5576842E+002  0.2018484E+02  0.7546771E-02  0.1531229E+00
          2   -1    0    0  503    0  0.00000000000E+00  0.00000000000E+00  0.97734218883E+02  0.97734218883E+02  0.00000000000E+00 0.  1.
         -2   -1    0    0    0  501 -0.00000000000E+00 -0.00000000000E+00 -0.77702456834E+01  0.77702456834E+01  0.00000000000E+00 0. -1.
         21    1    1    2  502  501 -0.92156296606E+01 -0.17958278281E+02  0.90677937433E+01  0.22128092377E+02  0.00000000000E+00 0. -1.
         21    1    1    2  503  502  0.92156296606E+01  0.17958278281E+02  0.80896179457E+02  0.83376372190E+02  0.00000000000E+00 0.  1.
</event>
<event>
 4    1  0.5576842E+002  0.2923433E+02  0.7546771E-02  0.1426369E+00
          2   -1    0    0  502    0  0.00000000000E+00  0.00000000000E+00  0.70836252669E+03  0.70836252669E+03  0.00000000000E+00 0. -1.
         -2   -1    0    0    0  501 -0.00000000000E+00 -0.00000000000E+00 -0.16903172428E+01  0.16903172428E+01  0.00000000000E+00 0.  1.
         21    1    1    2  502  503  0.27063389166E+02  0.11055280627E+02  0.54327455056E+03  0.54406055136E+03  0.00000000000E+00 0. -1.
         21    1    1    2  503  501 -0.27063389166E+02 -0.11055280627E+02  0.16339765889E+03  0.16599229257E+03  0.00000000000E+00 0.  1.
</event>
<event>
 4    1  0.5576842E+002  0.2746330E+02  0.7546771E-02  0.1443009E+00
          2   -1    0    0  502    0  0.00000000000E+00  0.00000000000E+00  0.19758950134E+03  0.19758950134E+03  0.00000000000E+00 0. -1.
         -2   -1    0    0    0  501 -0.00000000000E+00 -0.00000000000E+00 -0.11272766012E+02  0.11272766012E+02  0.00000000000E+00 0.  1.
         21    1    1    2  502  503  0.61130242375E+01  0.26774315794E+02  0.17808734229E+03  0.18019249300E+03  0.00000000000E+00 0. -1.
         21    1    1    2  503  501 -0.61130242375E+01 -0.26774315794E+02  0.82293930439E+01  0.28669774352E+02  0.00000000000E+00 0.  1.
</event>
<event>
 4    1  0.5576842E+002  0.2421409E+02  0.7546771E-02  0.1477791E+00
          2   -1    0    0  502    0  0.00000000000E+00  0.00000000000E+00  0.30187289283E+03  0.30187289283E+03  0.00000000000E+00 0. -1.
         -2   -1    0    0    0  501 -0.00000000000E+00 -0.00000000000E+00 -0.20015865635E+02  0.20015865635E+02  0.00000000000E+00 0.  1.
         21    1    1    2  502  503 -0.24205642803E+02 -0.63970880801E+00  0.29386487691E+03  0.29486079470E+03  0.00000000000E+00 0. -1.
         21    1    1    2  503  501  0.24205642803E+02  0.63970880801E+00 -0.12007849709E+02  0.27027963769E+02  0.00000000000E+00 0.  1.
</event>
<event>
 4    1  0.5576842E+002  0.2471871E+02  0.7546771E-02  0.1471975E+00
          2   -1    0    0  502    0  0.00000000000E+00  0.00000000000E+00  0.84543656737E+03  0.84543656737E+03  0.00000000000E+00 0. -1.
         -2   -1    0    0    0  501 -0.00000000000E+00 -0.00000000000E+00 -0.43845219636E+01  0.43845219636E+01  0.00000000000E+00 0.  1.
         21    1    1    2  502  503 -0.15627947701E+02 -0.19151545577E+02  0.80884067055E+03  0.80921829242E+03  0.00000000000E+00 0. -1.
         21    1    1    2  503  501  0.15627947701E+02  0.19151545577E+02  0.32211374859E+02  0.40602796919E+02  0.00000000000E+00 0.  1.
</event>
<event>
 4    1  0.5576842E+002  0.2248753E+02  0.7546771E-02  0.1499035E+00
          2   -1    0    0  503    0  0.00000000000E+00  0.00000000000E+00  0.14567485585E+04  0.14567485585E+04  0.00000000000E+00 0.  1.
         -2   -1    0    0    0  501 -0.00000000000E+00 -0.00000000000E+00 -0.38890876354E+01  0.38890876354E+01  0.00000000000E+00 0. -1.
         21    1    1    2  502  501 -0.21794867901E+02 -0.55383022961E+01  0.29466328300E+02  0.37066879591E+02  0.00000000000E+00 0. -1.
         21    1    1    2  503  502  0.21794867901E+02  0.55383022961E+01  0.14233931426E+04  0.14235707666E+04  0.00000000000E+00 0.  1.
</event>
<event>
 4    1  0.5576842E+002  0.2130279E+02  0.7546771E-02  0.1514985E+00
          2   -1    0    0  502    0  0.00000000000E+00  0.00000000000E+00  0.78162333128E+01  0.78162333128E+01  0.00000000000E+00 0. -1.
         -2   -1    0    0    0  501 -0.00000000000E+00 -0.00000000000E+00 -0.59379632739E+02  0.59379632739E+02  0.00000000000E+00 0.  1.
         21    1    1    2  502  503  0.14686593730E+02  0.15430908842E+02 -0.20772683830E+02  0.29754216115E+02  0.00000000000E+00 0. -1.
         21    1    1    2  503  501 -0.14686593730E+02 -0.15430908842E+02 -0.30790715596E+02  0.37441649937E+02  0.00000000000E+00 0.  1.
</event>
<event>
 4    1  0.5576842E+002  0.2672989E+02  0.7546771E-02  0.1450340E+00
          2   -1    0    0  502    0  0.00000000000E+00  0.00000000000E+00  0.21831930793E+03  0.21831930793E+03  0.00000000000E+00 0.  1.
         -2   -1    0    0    0  501 -0.00000000000E+00 -0.00000000000E+00 -0.39273779349E+02  0.39273779349E+02  0.00000000000E+00 0. -1.
         21    1    1    2  502  503  0.70506299778E+01  0.25783247488E+02  0.21283631334E+03  0.21450823647E+03  0.00000000000E+00 0.  1.
         21    1    1    2  503  501 -0.70506299778E+01 -0.25783247488E+02 -0.33790784767E+02  0.43084850809E+02  0.00000000000E+00 0. -1.
</event>
<event>
 4    1  0.5576842E+002  0.3293329E+02  0.7546771E-02  0.1395705E+00
          2   -1    0    0  502    0  0.00000000000E+00  0.00000000000E+00  0.36695777210E+02  0.36695777210E+02  0.00000000000E+00 0. -1.
         -2   -1    0    0    0  501 -0.00000000000E+00 -0.00000000000E+00 -0.10110605449E+03  0.10110605449E+03  0.00000000000E+00 0.  1.
         21    1    1    2  502  503 -0.18406298074E+02  0.27309517855E+02  0.25756365299E+02  0.41808993383E+02  0.00000000000E+00 0. -1.
         21    1    1    2  503  501  0.18406298074E+02 -0.27309517855E+02 -0.90166642582E+02  0.95992838320E+02  0.00000000000E+00 0.  1.
</event>
<event>
 4    1  0.5576842E+002  0.2253785E+02  0.7546771E-02  0.1498384E+00
          2   -1    0    0  502    0  0.00000000000E+00  0.00000000000E+00  0.17425709325E+04  0.17425709325E+04  0.00000000000E+00 0.  1.
         -2   -1    0    0    0  501 -0.00000000000E+00 -0.00000000000E+00 -0.70642246636E+00  0.70642246636E+00  0.00000000000E+00 0. -1.
         21    1    1    2  502  503 -0.43191099904E+01  0.22120126399E+02  0.15389517485E+04  0.15391167723E+04  0.00000000000E+00 0.  1.
         21    1    1    2  503  501  0.43191099904E+01 -0.22120126399E+02  0.20291276154E+03  0.20416058263E+03  0.00000000000E+00 0. -1.
</event>
<event>
 4    1  0.5576842E+002  0.2202380E+02  0.7546771E-02  0.1505134E+00
          2   -1    0    0  503    0  0.00000000000E+00  0.00000000000E+00  0.17758150767E+03  0.17758150767E+03  0.00000000000E+00 0.  1.
         -2   -1    0    0    0  501 -0.00000000000E+00 -0.00000000000E+00 -0.40329008411E+01  0.40329008411E+01  0.00000000000E+00 0. -1.
         21    1    1    2  502  501 -0.59644737762E+01 -0.21200769373E+02  0.35188237680E+02  0.41512162561E+02  0.00000000000E+00 0. -1.
         21    1    1    2  503  502  0.59644737762E+01  0.21200769373E+02  0.13836036915E+03  0.14010224595E+03  0.00000000000E+00 0.  1.
</event>
<event>
 4    1  0.5576842E+002  0.2328997E+02  0.7546771E-02  0.1488889E+00
          2   -1    0    0  502    0  0.00000000000E+00  0.00000000000E+00  0.13298593982E+04  0.13298593982E+04  0.00000000000E+00 0. -1.
         -2   -1    0    0    0  501 -0.00000000000E+00 -0.00000000000E+00 -0.40793497331E+00  0.40793497331E+00  0.00000000000E+00 0.  1.
         21    1    1    2  502  503 -0.21648771111E+02  0.85879903646E+01  0.65699483344E+03  0.65740750987E+03  0.00000000000E+00 0. -1.
         21    1    1    2  503  501  0.21648771111E+02 -0.85879903646E+01  0.67245662979E+03  0.67285982331E+03  0.00000000000E+00 0.  1.
</event>
<event>
 4    1  0.5576842E+002  0.2383897E+02  0.7546771E-02  0.1482224E+00
          2   -1    0    0  503    0  0.00000000000E+00  0.00000000000E+00  0.15504916530E+02  0.15504916530E+02  0.00000000000E+00 0. -1.
         -2   -1    0    0    0  501 -0.00000000000E+00 -0.00000000000E+00 -0.15586097386E+03  0.15586097386E+03  0.00000000000E+00 0.  1.
         21    1    1    2  502  501  0.17443432788E+02  0.16248786295E+02 -0.14511203790E+03  0.14705713158E+03  0.00000000000E+00 0.  1.
         21    1    1    2  503  502 -0.17443432788E+02 -0.16248786295E+02  0.47559805779E+01  0.24308758807E+02  0.00000000000E+00 0. -1.
</event>
<event>
 4    1  0.5576842E+002  0.2822761E+02  0.7546771E-02  0.1435651E+00
          2   -1    0    0  503    0  0.00000000000E+00  0.00000000000E+00  0.39658626218E+03  0.39658626218E+03  0.00000000000E+00 0.  1.
         -2   -1    0    0    0  501 -0.00000000000E+00 -0.00000000000E+00 -0.31311781760E+01  0.31311781760E+01  0.00000000000E+00 0. -1.
         21    1    1    2  502  501  0.25214544371E+02  0.12689559871E+02  0.77088586997E+02  0.82094143657E+02  0.00000000000E+00 0. -1.
         21    1    1    2  503  502 -0.25214544371E+02 -0.12689559871E+02  0.31636649701E+03  0.31762329670E+03  0.00000000000E+00 0.  1.
</event>
<event>
 4    1  0.5576842E+002  0.2380220E+02  0.7546771E-02  0.1482663E+00
          2   -1    0    0  502    0  0.00000000000E+00  0.00000000000E+00  0.17676264969E+01  0.17676264969E+01  0.00000000000E+00 0.  1.
         -2   -1    0    0    0  501 -0.00000000000E+00 -0.00000000000E+00 -0.15119278461E+04  0.15119278461E+04  0.00000000000E+00 0. -1.
         21    1    1    2  502  503  0.19210556871E+02 -0.14053437818E+02 -0.83226334970E+02  0.86563083600E+02  0.00000000000E+00 0.  1.
         21    1    1    2  503  501 -0.19210556871E+02  0.14053437818E+02 -0.14269338846E+04  0.14271323890E+04  0.00000000000E+00 0. -1.
</event>
<event>
 4    1  0.5576842E+002  0.2330025E+02  0.7546771E-02  0.1488762E+00
          2   -1    0    0  503    0  0.00000000000E+00  0.00000000000E+00  0.90131680719E+01  0.90131680719E+01  0.00000000000E+00 0. -1.
         -2   -1    0    0    0  501 -0.00000000000E+00 -0.00000000000E+00 -0.61204782881E+02  0.61204782881E+02  0.00000000000E+00 0.  1.
         21    1    1    2  502  501  0.22699773001E+02 -0.52556464425E+01 -0.21674728698E+02  0.31822875074E+02  0.00000000000E+00 0. -1.
         21    1    1    2  503  502 -0.22699773001E+02  0.52556464425E+01 -0.30516886111E+02  0.38395075879E+02  0.00000000000E+00 0.  1.
</event>
<event>
 4    1  0.5576842E+002  0.2690757E+02  0.7546771E-02  0.1448539E+00
          2   -1    0    0  503    0  0.00000000000E+00  0.00000000000E+00  0.63664802307E+02  0.63664802307E+02  0.00000000000E+00 0.  1.
         -2   -1    0    0    0  501 -0.00000000000E+00 -0.00000000000E+00 -0.12365046139E+02  0.12365046139E+02  0.00000000000E+00 0. -1.
         21    1    1    2  502  501 -0.25590426293E+02 -0.83154889663E+01  0.14878572642E+02  0.30747181960E+02  0.00000000000E+00 0. -1.
         21    1    1    2  503  502  0.25590426293E+02  0.83154889663E+01  0.36421183526E+02  0.45282666486E+02  0.00000000000E+00 0.  1.
</event>
<event>
 4    1  0.5576842E+002  0.3703705E+02  0.7546771E-02  0.1366782E+00
          2   -1    0    0  502    0  0.00000000000E+00  0.00000000000E+00  0.22322777684E+03  0.22322777684E+03  0.00000000000E+00 0. -1.
         -2   -1    0    0    0  501 -0.00000000000E+00 -0.00000000000E+00 -0.60620063872E+02  0.60620063872E+02  0.00000000000E+00 0.  1.
         21    1    1    2  502  503  0.28223947931E+02  0.23982319324E+02  0.21584221734E+03  0.21899681656E+03  0.00000000000E+00 0. -1.
         21    1    1    2  503  501 -0.28223947931E+02 -0.23982319324E+02 -0.53234504376E+02  0.64851024149E+02  0.00000000000E+00 0.  1.
</event>
<event>
 4    1  0.5576842E+002  0.5151190E+02  0.7546771E-02  0.1291747E+00
          2   -1    0    0  502    0  0.00000000000E+00  0.00000000000E+00  0.99533949447E+03  0.99533949447E+03  0.00000000000E+00 0. -1.
         -2   -1    0    0    0  501 -0.00000000000E+00 -0.00000000000E+00 -0.28479768706E+01  0.28479768706E+01  0.00000000000E+00 0.  1.
         21    1    1    2  502  503 -0.23151566740E+02 -0.46016089284E+02  0.62244052153E+03  0.62456839366E+03  0.00000000000E+00 0.  1.
         21    1    1    2  503  501  0.23151566740E+02  0.46016089284E+02  0.37005099607E+03  0.37361907768E+03  0.00000000000E+00 0. -1.
</event>
<event>
 4    1  0.5576842E+002  0.2967434E+02  0.7546771E-02  0.1422448E+00
          2   -1    0    0  502    0  0.00000000000E+00  0.00000000000E+00  0.94204063630E+03  0.94204063630E+03  0.00000000000E+00 0. -1.
         -2   -1    0    0    0  501 -0.00000000000E+00 -0.00000000000E+00 -0.17030808638E+01  0.17030808638E+01  0.00000000000E+00 0.  1.
         21    1    1    2  502  503  0.29448332277E+02 -0.36554106221E+01  0.78711270719E+03  0.78767187338E+03  0.00000000000E+00 0. -1.
         21    1    1    2  503  501 -0.29448332277E+02  0.36554106221E+01  0.15322484825E+03  0.15607184378E+03  0.00000000000E+00 0.  1.
</event>
<event>
 4    1  0.5576842E+002  0.4912444E+02  0.7546771E-02  0.1302014E+00
          2   -1    0    0  502    0  0.00000000000E+00  0.00000000000E+00  0.10237347418E+04  0.10237347418E+04  0.00000000000E+00 0. -1.
         -2   -1    0    0    0  501 -0.00000000000E+00 -0.00000000000E+00 -0.48602960489E+01  0.48602960489E+01  0.00000000000E+00 0.  1.
         21    1    1    2  502  503  0.27753344238E+02 -0.40533477222E+02  0.87851377564E+03  0.87988616587E+03  0.00000000000E+00 0. -1.
         21    1    1    2  503  501 -0.27753344238E+02  0.40533477222E+02  0.14036067008E+03  0.14870887195E+03  0.00000000000E+00 0.  1.
</event>
<event>
 4    1  0.5576842E+002  0.3017936E+02  0.7546771E-02  0.1418044E+00
          2   -1    0    0  502    0  0.00000000000E+00  0.00000000000E+00  0.11742135270E+04  0.11742135270E+04  0.00000000000E+00 0. -1.
         -2   -1    0    0    0  501 -0.00000000000E+00 -0.00000000000E+00 -0.32380808783E+01  0.32380808783E+01  0.00000000000E+00 0.  1.
         21    1    1    2  502  503  0.29937259699E+02 -0.38150407731E+01  0.10988809067E+04  0.10992952475E+04  0.00000000000E+00 0. -1.
         21    1    1    2  503  501 -0.29937259699E+02  0.38150407731E+01  0.72094539453E+02  0.78156360415E+02  0.00000000000E+00 0.  1.
</event>
<event>
 4    1  0.5576842E+002  0.2546896E+02  0.7546771E-02  0.1463625E+00
          2   -1    0    0  503    0  0.00000000000E+00  0.00000000000E+00  0.91179808512E+02  0.91179808512E+02  0.00000000000E+00 0.  1.
         -2   -1    0    0    0  501 -0.00000000000E+00 -0.00000000000E+00 -0.71576989108E+01  0.71576989108E+01  0.00000000000E+00 0. -1.
         21    1    1    2  502  501  0.97753024878E+01 -0.23518320702E+02  0.45845744977E+02  0.52445212173E+02  0.00000000000E+00 0. -1.
         21    1    1    2  503  502 -0.97753024878E+01  0.23518320702E+02  0.38176364624E+02  0.45892295250E+02  0.00000000000E+00 0.  1.
</event>
<event>
 4    1  0.5576842E+002  0.2389682E+02  0.7546771E-02  0.1481534E+00
          2   -1    0    0  503    0  0.00000000000E+00  0.00000000000E+00  0.37108695701E+02  0.37108695701E+02  0.00000000000E+00 0.  1.
         -2   -1    0    0    0  501 -0.00000000000E+00 -0.00000000000E+00 -0.31320291203E+02  0.31320291203E+02  0.00000000000E+00 0. -1.
         21    1    1    2  502  501  0.23787361890E+02 -0.22846391657E+01 -0.21507801103E+02  0.32150329238E+02  0.00000000000E+00 0. -1.
         21    1    1    2  503  502 -0.23787361890E+02  0.22846391657E+01  0.27296205601E+02  0.36278657666E+02  0.00000000000E+00 0.  1.
</event>
<event>
 4    1  0.5576842E+002  0.2751218E+02  0.7546771E-02  0.1442530E+00
          2   -1    0    0  502    0  0.00000000000E+00  0.00000000000E+00  0.12805676980E+04  0.12805676980E+04  0.00000000000E+00 0. -1.
         -2   -1    0    0    0  501 -0.00000000000E+00 -0.00000000000E+00 -0.59165826510E+00  0.59165826510E+00  0.00000000000E+00 0.  1.
         21    1    1    2  502  503 -0.10484827337E+02  0.25435972866E+02  0.61999370400E+03  0.62060382961E+03  0.00000000000E+00 0. -1.
         21    1    1    2  503  501  0.10484827337E+02 -0.25435972866E+02  0.65998233569E+03  0.66055552662E+03  0.00000000000E+00 0.  1.
</event>
<event>
 4    1  0.5576842E+002  0.2101921E+02  0.7546771E-02  0.1518991E+00
          2   -1    0    0  503    0  0.00000000000E+00  0.00000000000E+00  0.12146207195E+02  0.12146207195E+02  0.00000000000E+00 0.  1.
         -2   -1    0    0    0  501 -0.00000000000E+00 -0.00000000000E+00 -0.47444439725E+03  0.47444439725E+03  0.00000000000E+00 0. -1.
         21    1    1    2  502  501  0.10975425101E+02 -0.17926164321E+02 -0.46493211639E+03  0.46540700486E+03  0.00000000000E+00 0. -1.
         21    1    1    2  503  502 -0.10975425101E+02  0.17926164321E+02  0.26339263339E+01  0.21183599584E+02  0.00000000000E+00 0.  1.
</event>
<event>
 4    1  0.5576842E+002  0.3459256E+02  0.7546771E-02  0.1383450E+00
          2   -1    0    0  503    0  0.00000000000E+00  0.00000000000E+00  0.21231133768E+01  0.21231133768E+01  0.00000000000E+00 0.  1.
         -2   -1    0    0    0  501 -0.00000000000E+00 -0.00000000000E+00 -0.61999346517E+03  0.61999346517E+03  0.00000000000E+00 0. -1.
         21    1    1    2  502  501 -0.13710257493E+01  0.34565378915E+02 -0.21514515923E+03  0.21790843185E+03  0.00000000000E+00 0.  1.
         21    1    1    2  503  502  0.13710257493E+01 -0.34565378915E+02 -0.40272519256E+03  0.40420814670E+03  0.00000000000E+00 0. -1.
</event>
<event>
 4    1  0.5576842E+002  0.2162462E+02  0.7546771E-02  0.1510531E+00
          2   -1    0    0  502    0  0.00000000000E+00  0.00000000000E+00  0.15961081379E+02  0.15961081379E+02  0.00000000000E+00 0.  1.
         -2   -1    0    0    0  501 -0.00000000000E+00 -0.00000000000E+00 -0.29432546664E+02  0.29432546664E+02  0.00000000000E+00 0. -1.
         21    1    1    2  502  503  0.20928621448E+02  0.54421599021E+01 -0.51999235253E+01  0.22241032008E+02  0.00000000000E+00 0. -1.
         21    1    1    2  503  501 -0.20928621448E+02 -0.54421599021E+01 -0.82715417597E+01  0.23152596036E+02  0.00000000000E+00 0.  1.
</event>
<event>
 4    1  0.5576842E+002  0.2159205E+02  0.7546771E-02  0.1510977E+00
          2   -1    0    0  503    0  0.00000000000E+00  0.00000000000E+00  0.50824151112E+02  0.50824151112E+02  0.00000000000E+00 0. -1.
         -2   -1    0    0    0  501 -0.00000000000E+00 -0.00000000000E+00 -0.35211406604E+02  0.35211406604E+02  0.00000000000E+00 0.  1.
         21    1    1    2  502  501  0.25110599314E+01 -0.21445543645E+02 -0.29186016604E+02  0.36304825153E+02  0.00000000000E+00 0.  1.
         21    1    1    2  503  502 -0.25110599314E+01  0.21445543645E+02  0.44798761111E+02  0.49730732563E+02  0.00000000000E+00 0. -1.
</event>
<event>
 4    1  0.5576842E+002  0.2270484E+02  0.7546771E-02  0.1496238E+00
          2   -1    0    0  503    0  0.00000000000E+00  0.00000000000E+00  0.22477895729E+03  0.22477895729E+03  0.00000000000E+00 0. -1.
         -2   -1    0    0    0  501 -0.00000000000E+00 -0.00000000000E+00 -0.25471489166E+01  0.25471489166E+01  0.00000000000E+00 0.  1.
         21    1    1    2  502  501 -0.45151196064E+01 -0.22251368417E+02  0.75241227087E+02  0.78592314860E+02  0.00000000000E+00 0.  1.
         21    1    1    2  503  502  0.45151196064E+01  0.22251368417E+02  0.14699058128E+03  0.14873379134E+03  0.00000000000E+00 0. -1.
</event>
<event>
 4    1  0.5576842E+002  0.2337245E+02  0.7546771E-02  0.1487873E+00
          2   -1    0    0  503    0  0.00000000000E+00  0.00000000000E+00  0.22131228817E+02  0.22131228817E+02  0.00000000000E+00 0.  1.
         -2   -1    0    0    0  501 -0.00000000000E+00 -0.00000000000E+00 -0.26440171189E+02  0.26440171189E+02  0.00000000000E+00 0. -1.
         21    1    1    2  502  501  0.23234456142E+02 -0.25360685759E+01 -0.84146879642E+01  0.24841066192E+02  0.00000000000E+00 0. -1.
         21    1    1    2  503  502 -0.23234456142E+02  0.25360685759E+01  0.41057455926E+01  0.23730333814E+02  0.00000000000E+00 0.  1.
</event>
<event>
 4    1  0.5576842E+002  0.2049567E+02  0.7546771E-02  0.1526589E+00
          2   -1    0    0  502    0  0.00000000000E+00  0.00000000000E+00  0.41730735253E+02  0.41730735253E+02  0.00000000000E+00 0.  1.
         -2   -1    0    0    0  501 -0.00000000000E+00 -0.00000000000E+00 -0.10066269156E+02  0.10066269156E+02  0.00000000000E+00 0. -1.
         21    1    1    2  502  503 -0.63455843161E+01  0.19488614299E+02  0.15853585058E+02  0.25911555082E+02  0.00000000000E+00 0. -1.
         21    1    1    2  503  501  0.63455843161E+01 -0.19488614299E+02  0.15810881039E+02  0.25885449326E+02  0.00000000000E+00 0.  1.
</event>
<event>
 4    1  0.5576842E+002  0.2631638E+02  0.7546771E-02  0.1454599E+00
          2   -1    0    0  502    0  0.00000000000E+00  0.00000000000E+00  0.62878615447E+02  0.62878615447E+02  0.00000000000E+00 0.  1.
         -2   -1    0    0    0  501 -0.00000000000E+00 -0.00000000000E+00 -0.19181381842E+02  0.19181381842E+02  0.00000000000E+00 0. -1.
         21    1    1    2  502  503  0.11619244135E+02  0.23612395132E+02  0.48621801938E+02  0.55286812730E+02  0.00000000000E+00 0.  1.
         21    1    1    2  503  501 -0.11619244135E+02 -0.23612395132E+02 -0.49245683336E+01  0.26773184559E+02  0.00000000000E+00 0. -1.
</event>
<event>
 4    1  0.5576842E+002  0.3785796E+02  0.7546771E-02  0.1361517E+00
          2   -1    0    0  503    0  0.00000000000E+00  0.00000000000E+00  0.10553557081E+04  0.10553557081E+04  0.00000000000E+00 0. -1.
         -2   -1    0    0    0  501 -0.00000000000E+00 -0.00000000000E+00 -0.26520994813E+02  0.26520994813E+02  0.00000000000E+00 0.  1.
         21    1    1    2  502  501  0.14254768761E+02 -0.35071740132E+02 -0.12489201360E+02  0.39864840887E+02  0.00000000000E+00 0.  1.
         21    1    1    2  503  502 -0.14254768761E+02  0.35071740132E+02  0.10413239146E+04  0.10420118620E+04  0.00000000000E+00 0. -1.
</event>
<event>
 4    1  0.5576842E+002  0.2409177E+02  0.7546771E-02  0.1479226E+00
          2   -1    0    0  503    0  0.00000000000E+00  0.00000000000E+00  0.21374423739E+01  0.21374423739E+01  0.00000000000E+00 0. -1.
         -2   -1    0    0    0  501 -0.00000000000E+00 -0.00000000000E+00 -0.28239998054E+03  0.28239998054E+03  0.00000000000E+00 0.  1.
         21    1    1    2  502  501 -0.18610627289E+02 -0.15298944492E+02 -0.16802321735E+03  0.16974161164E+03  0.00000000000E+00 0. -1.
         21    1    1    2  503  502  0.18610627289E+02  0.15298944492E+02 -0.11223932081E+03  0.11479581128E+03  0.00000000000E+00 0.  1.
</event>
<event>
 4    1  0.5576842E+002  0.2334547E+02  0.7546771E-02  0.1488205E+00
          2   -1    0    0  502    0  0.00000000000E+00  0.00000000000E+00  0.77575462687E+01  0.77575462687E+01  0.00000000000E+00 0. -1.
         -2   -1    0    0    0  501 -0.00000000000E+00 -0.00000000000E+00 -0.70886235833E+02  0.70886235833E+02  0.00000000000E+00 0.  1.
         21    1    1    2  502  503 -0.21714305679E+02 -0.85732080682E+01 -0.35273262471E+02  0.42299101800E+02  0.00000000000E+00 0. -1.
         21    1    1    2  503  501  0.21714305679E+02  0.85732080682E+01 -0.27855427093E+02  0.36344680302E+02  0.00000000000E+00 0.  1.
</event>
<event>
 4    1  0.5576842E+002  0.5026722E+02  0.7546771E-02  0.1297018E+00
          2   -1    0    0  503    0  0.00000000000E+00  0.00000000000E+00  0.13346153786E+02  0.13346153786E+02  0.00000000000E+00 0. -1.
         -2   -1    0    0    0  501 -0.00000000000E+00 -0.00000000000E+00 -0.20410155205E+03  0.20410155205E+03  0.00000000000E+00 0.  1.
         21    1    1    2  502  501 -0.44961944016E+02  0.22477021826E+02 -0.66125898373E+02  0.83062791642E+02  0.00000000000E+00 0. -1.
         21    1    1    2  503  502  0.44961944016E+02 -0.22477021826E+02 -0.12462949989E+03  0.13438491419E+03  0.00000000000E+00 0.  1.
</event>
<event>
 4    1  0.5576842E+002  0.2159541E+02  0.7546771E-02  0.1510931E+00
          2   -1    0    0  502    0  0.00000000000E+00  0.00000000000E+00  0.79540122488E+03  0.79540122488E+03  0.00000000000E+00 0. -1.
         -2   -1    0    0    0  501 -0.00000000000E+00 -0.00000000000E+00 -0.12917860881E+01  0.12917860881E+01  0.00000000000E+00 0.  1.
         21    1    1    2  502  503 -0.72425666260E+01  0.20344708552E+02  0.69143105468E+03  0.69176821646E+03  0.00000000000E+00 0. -1.
         21    1    1    2  503  501  0.72425666260E+01 -0.20344708552E+02  0.10267838412E+03  0.10492479451E+03  0.00000000000E+00 0.  1.
</event>
<event>
 4    1  0.5576842E+002  0.2084642E+02  0.7546771E-02  0.1521469E+00
          2   -1    0    0  503    0  0.00000000000E+00  0.00000000000E+00  0.12615210789E+04  0.12615210789E+04  0.00000000000E+00 0.  1.
         -2   -1    0    0    0  501 -0.00000000000E+00 -0.00000000000E+00 -0.94184081999E+01  0.94184081999E+01  0.00000000000E+00 0. -1.
         21    1    1    2  502  501 -0.24757833515E+01 -0.20698881341E+02  0.23111737777E+01  0.20974143992E+02  0.00000000000E+00 0. -1.
         21    1    1    2  503  502  0.24757833515E+01  0.20698881341E+02  0.12497914969E+04  0.12499653431E+04  0.00000000000E+00 0.  1.
</event>
<event>
 4    1  0.5576842E+002  0.2344702E+02  0.7546771E-02  0.1486960E+00
          2   -1    0    0  503    0  0.00000000000E+00  0.00000000000E+00  0.36435592112E+02  0.36435592112E+02  0.00000000000E+00 0.  1.
         -2   -1    0    0    0  501 -0.00000000000E+00 -0.00000000000E+00 -0.15955394892E+02  0.15955394892E+02  0.00000000000E+00 0. -1.
         21    1    1    2  502  501  0.10708197780E+02  0.20858984920E+02  0.16345670184E+02  0.28582226739E+02  0.00000000000E+00 0.  1.
         21    1    1    2  503  502 -0.10708197780E+02 -0.20858984920E+02  0.41345270355E+01  0.23808760266E+02  0.00000000000E+00 0. -1.
</event>
<event>
 4    1  0.5576842E+002  0.3193424E+02  0.7546771E-02  0.1403501E+00
          2   -1    0    0  502    0  0.00000000000E+00  0.00000000000E+00  0.96946417087E+02  0.96946417087E+02  0.00000000000E+00 0. -1.
         -2   -1    0    0    0  501 -0.00000000000E+00 -0.00000000000E+00 -0.14471790047E+02  0.14471790047E+02  0.00000000000E+00 0.  1.
         21    1    1    2  502  503 -0.28118144545E+02  0.15138207044E+02  0.70351713781E+02  0.77260332623E+02  0.00000000000E+00 0. -1.
         21    1    1    2  503  501  0.28118144545E+02 -0.15138207044E+02  0.12122913259E+02  0.34157874511E+02  0.00000000000E+00 0.  1.
</event>
<event>
 4    1  0.5576842E+002  0.3292915E+02  0.7546771E-02  0.1395737E+00
          2   -1    0    0  503    0  0.00000000000E+00  0.00000000000E+00  0.19245365668E+03  0.19245365668E+03  0.00000000000E+00 0.  1.
         -2   -1    0    0    0  501 -0.00000000000E+00 -0.00000000000E+00 -0.90584825678E+01  0.90584825678E+01  0.00000000000E+00 0. -1.
         21    1    1    2  502  501  0.32874026749E+02 -0.19045951802E+01  0.29749760612E+02  0.44377667514E+02  0.00000000000E+00 0. -1.
         21    1    1    2  503  502 -0.32874026749E+02  0.19045951802E+01  0.15364541350E+03  0.15713447173E+03  0.00000000000E+00 0.  1.
</event>
<event>
 4    1  0.5576842E+002  0.2133339E+02  0.7546771E-02  0.1514558E+00
          2   -1    0    0  503    0  0.00000000000E+00  0.00000000000E+00  0.28631518575E+03  0.28631518575E+03  0.00000000000E+00 0. -1.
         -2   -1    0    0    0  501 -0.00000000000E+00 -0.00000000000E+00 -0.16925875767E+01  0.16925875767E+01  0.00000000000E+00 0.  1.
         21    1    1    2  502  501 -0.21319439830E+02 -0.77135623581E+00  0.10678192042E+03  0.10889211190E+03  0.00000000000E+00 0.  1.
         21    1    1    2  503  502  0.21319439830E+02  0.77135623581E+00  0.17784067775E+03  0.17911566143E+03  0.00000000000E+00 0. -1.
</event>
<event>
 4    1  0.5576842E+002  0.4222098E+02  0.7546771E-02  0.1335940E+00
          2   -1    0    0  503    0  0.00000000000E+00  0.00000000000E+00  0.80967282664E+02  0.80967282664E+02  0.00000000000E+00 0. -1.
         -2   -1    0    0    0  501 -0.00000000000E+00 -0.00000000000E+00 -0.39100765558E+02  0.39100765558E+02  0.00000000000E+00 0.  1.
         21    1    1    2  502  501  0.23387649546E+02  0.35151516220E+02 -0.18749673780E+02  0.46196985948E+02  0.00000000000E+00 0. -1.
         21    1    1    2  503  502 -0.23387649546E+02 -0.35151516220E+02  0.60616190887E+02  0.73871062274E+02  0.00000000000E+00 0.  1.
</event>
<event>
 4    1  0.5576842E+002  0.2144131E+02  0.7546771E-02  0.1513056E+00
          2   -1    0    0  503    0  0.00000000000E+00  0.00000000000E+00  0.14551901612E+01  0.14551901612E+01  0.00000000000E+00 0. -1.
         -2   -1    0    0    0  501 -0.00000000000E+00 -0.00000000000E+00 -0.31692482366E+03  0.31692482366E+03  0.00000000000E+00 0.  1.
         21    1    1    2  502  501 -0.54824836265E+01  0.20728532393E+02 -0.16667999111E+03  0.16805341151E+03  0.00000000000E+00 0. -1.
         21    1    1    2  503  502  0.54824836265E+01 -0.20728532393E+02 -0.14878964239E+03  0.15032660232E+03  0.00000000000E+00 0.  1.
</event>
<event>
 4    1  0.5576842E+002  0.2434788E+02  0.7546771E-02  0.1476233E+00
          2   -1    0    0  503    0  0.00000000000E+00  0.00000000000E+00  0.11745005762E+04  0.11745005762E+04  0.00000000000E+00 0.  1.
         -2   -1    0    0    0  501 -0.00000000000E+00 -0.00000000000E+00 -0.55103297091E+01  0.55103297091E+01  0.00000000000E+00 0. -1.
         21    1    1    2  502  501  0.24298215587E+02 -0.15542866534E+01  0.22160536706E+02  0.32922765297E+02  0.00000000000E+00 0. -1.
         21    1    1    2  503  502 -0.24298215587E+02  0.15542866534E+01  0.11468297098E+04  0.11470881406E+04  0.00000000000E+00 0.  1.
</event>
<event>
 4    1  0.5576842E+002  0.3814552E+02  0.7546771E-02  0.1359709E+00
          2   -1    0    0  502    0  0.00000000000E+00  0.00000000000E+00  0.66372097919E+02  0.66372097919E+02  0.00000000000E+00 0. -1.
         -2   -1    0    0    0  501 -0.00000000000E+00 -0.00000000000E+00 -0.22251016762E+02  0.22251016762E+02  0.00000000000E+00 0.  1.
         21    1    1    2  502  503 -0.37677469192E+01  0.37958991356E+02  0.16681115703E+02  0.41633406811E+02  0.00000000000E+00 0.  1.
         21    1    1    2  503  501  0.37677469192E+01 -0.37958991356E+02  0.27439965454E+02  0.46989707870E+02  0.00000000000E+00 0. -1.
</event>
<event>
 4    1  0.5576842E+002  0.2293325E+02  0.7546771E-02  0.1493338E+00
          2   -1    0    0  503    0  0.00000000000E+00  0.00000000000E+00  0.33881589942E+03  0.33881589942E+03  0.00000000000E+00 0.  1.
         -2   -1    0    0    0  501 -0.00000000000E+00 -0.00000000000E+00 -0.30611097785E+01  0.30611097785E+01  0.00000000000E+00 0. -1.
         21    1    1    2  502  501  0.96005601435E+00 -0.22913141902E+02  0.47866133361E+02  0.53076364819E+02  0.00000000000E+00 0. -1.
         21    1    1    2  503  502 -0.96005601435E+00  0.22913141902E+02  0.28788865628E+03  0.28880064438E+03  0.00000000000E+00 0.  1.
</event>
<event>
 4    1  0.5576842E+002  0.2720046E+02  0.7546771E-02  0.1445605E+00
          2   -1    0    0  503    0  0.00000000000E+00  0.00000000000E+00  0.10659665398E+03  0.10659665398E+03  0.00000000000E+00 0.  1.
         -2   -1    0    0    0  501 -0.00000000000E+00 -0.00000000000E+00 -0.71744881714E+01  0.71744881714E+01  0.00000000000E+00 0. -1.
         21    1    1    2  502  501  0.23900846272E+02 -0.12985176824E+02  0.59977806724E+02  0.65857441258E+02  0.00000000000E+00 0.  1.
         21    1    1    2  503  502 -0.23900846272E+02  0.12985176824E+02  0.39444359083E+02  0.47913700892E+02  0.00000000000E+00 0. -1.
</event>
<event>
 4    1  0.5576842E+002  0.3016778E+02  0.7546771E-02  0.1418144E+00
          2   -1    0    0  503    0  0.00000000000E+00  0.00000000000E+00  0.60266464076E+02  0.60266464076E+02  0.00000000000E+00 0.  1.
         -2   -1    0    0    0  501 -0.00000000000E+00 -0.00000000000E+00 -0.16114960622E+02  0.16114960622E+02  0.00000000000E+00 0. -1.
         21    1    1    2  502  501 -0.17452682736E+02  0.24606889189E+02  0.12496895023E+02  0.32653751936E+02  0.00000000000E+00 0. -1.
         21    1    1    2  503  502  0.17452682736E+02 -0.24606889189E+02  0.31654608431E+02  0.43727672762E+02  0.00000000000E+00 0.  1.
</event>
<event>
 4    1  0.5576842E+002  0.2065109E+02  0.7546771E-02  0.1524305E+00
          2   -1    0    0  502    0  0.00000000000E+00  0.00000000000E+00  0.16035779849E+03  0.16035779849E+03  0.00000000000E+00 0.  1.
         -2   -1    0    0    0  501 -0.00000000000E+00 -0.00000000000E+00 -0.86357510059E+02  0.86357510059E+02  0.00000000000E+00 0. -1.
         21    1    1    2  502  503  0.18004632550E+02 -0.10114383185E+02  0.15844347722E+03  0.15978361310E+03  0.00000000000E+00 0.  1.
         21    1    1    2  503  501 -0.18004632550E+02  0.10114383185E+02 -0.84443188792E+02  0.86931695450E+02  0.00000000000E+00 0. -1.
</event>
<event>
 4    1  0.5576842E+002  0.3496396E+02  0.7546771E-02  0.1380817E+00
          2   -1    0    0  502    0  0.00000000000E+00  0.00000000000E+00  0.35799715129E+03  0.35799715129E+03  0.00000000000E+00 0. -1.
         -2   -1    0    0    0  501 -0.00000000000E+00 -0.00000000000E+00 -0.37900573443E+01  0.37900573443E+01  0.00000000000E+00 0.  1.
         21    1    1    2  502  503 -0.34283948746E+02  0.68621614813E+01  0.23402572673E+03  0.23662315857E+03  0.00000000000E+00 0. -1.
         21    1    1    2  503  501  0.34283948746E+02 -0.68621614813E+01  0.12018136722E+03  0.12516405006E+03  0.00000000000E+00 0.  1.
</event>
<event>
 4    1  0.5576842E+002  0.2166570E+02  0.7546771E-02  0.1509969E+00
          2   -1    0    0  503    0  0.00000000000E+00  0.00000000000E+00  0.41870734465E+03  0.41870734465E+03  0.00000000000E+00 0.  1.
         -2   -1    0    0    0  501 -0.00000000000E+00 -0.00000000000E+00 -0.15969584996E+01  0.15969584996E+01  0.00000000000E+00 0. -1.
         21    1    1    2  502  501 -0.20060063966E+01  0.21572628103E+02  0.93835668191E+02  0.96304387075E+02  0.00000000000E+00 0. -1.
         21    1    1    2  503  502  0.20060063966E+01 -0.21572628103E+02  0.32327471796E+03  0.32399991607E+03  0.00000000000E+00 0.  1.
</event>
<event>
 4    1  0.5576842E+002  0.4165965E+02  0.7546771E-02  0.1339025E+00
          2   -1    0    0  503    0  0.00000000000E+00  0.00000000000E+00  0.16997711630E+03  0.16997711630E+03  0.00000000000E+00 0.  1.
         -2   -1    0    0    0  501 -0.00000000000E+00 -0.00000000000E+00 -0.10431383959E+02  0.10431383959E+02  0.00000000000E+00 0. -1.
         21    1    1    2  502  501 -0.40778281619E+02 -0.85239932056E+01  0.92903344619E+02  0.10181629611E+03  0.00000000000E+00 0. -1.
         21    1    1    2  503  502  0.40778281619E+02  0.85239932056E+01  0.66642387724E+02  0.78592204152E+02  0.00000000000E+00 0.  1.
</event>
<event>
 4    1  0.5576842E+002  0.2729655E+02  0.7546771E-02  0.1444652E+00
          2   -1    0    0  503    0  0.00000000000E+00  0.00000000000E+00  0.32812770196E+03  0.32812770196E+03  0.00000000000E+00 0.  1.
         -2   -1    0    0    0  501 -0.00000000000E+00 -0.00000000000E+00 -0.22763139921E+01  0.22763139921E+01  0.00000000000E+00 0. -1.
         21    1    1    2  502  501 -0.25971579796E+02 -0.84011030179E+01  0.15477046478E+03  0.15715914945E+03  0.00000000000E+00 0.  1.
         21    1    1    2  503  502  0.25971579796E+02  0.84011030179E+01  0.17108092319E+03  0.17324486650E+03  0.00000000000E+00 0. -1.
</event>
<event>
 4    1  0.5576842E+002  0.2184703E+02  0.7546771E-02  0.1507507E+00
          2   -1    0    0  502    0  0.00000000000E+00  0.00000000000E+00  0.16941629754E+01  0.16941629754E+01  0.00000000000E+00 0.  1.
         -2   -1    0    0    0  501 -0.00000000000E+00 -0.00000000000E+00 -0.28370326350E+03  0.28370326350E+03  0.00000000000E+00 0. -1.
         21    1    1    2  502  503  0.20208986825E+02 -0.82999701623E+01 -0.15291237499E+03  0.15446516461E+03  0.00000000000E+00 0. -1.
         21    1    1    2  503  501 -0.20208986825E+02  0.82999701623E+01 -0.12909672554E+03  0.13093226187E+03  0.00000000000E+00 0.  1.
</event>
<event>
 4    1  0.5576842E+002  0.2174090E+02  0.7546771E-02  0.1508944E+00
          2   -1    0    0  502    0  0.00000000000E+00  0.00000000000E+00  0.37031240046E+01  0.37031240046E+01  0.00000000000E+00 0.  1.
         -2   -1    0    0    0  501 -0.00000000000E+00 -0.00000000000E+00 -0.12815147009E+03  0.12815147009E+03  0.00000000000E+00 0. -1.
         21    1    1    2  502  503 -0.87264509336E+01  0.19912700402E+02 -0.58059005407E+02  0.61996086102E+02  0.00000000000E+00 0. -1.
         21    1    1    2  503  501  0.87264509336E+01 -0.19912700402E+02 -0.66389340682E+02  0.69858507996E+02  0.00000000000E+00 0.  1.
</event>
<event>
 4    1  0.5576842E+002  0.2684731E+02  0.7546771E-02  0.1449148E+00
          2   -1    0    0  502    0  0.00000000000E+00  0.00000000000E+00  0.17207287601E+04  0.17207287601E+04  0.00000000000E+00 0. -1.
         -2   -1    0    0    0  501 -0.00000000000E+00 -0.00000000000E+00 -0.51417418718E+00  0.51417418718E+00  0.00000000000E+00 0.  1.
         21    1    1    2  502  503 -0.26846936187E+02  0.14180148328E+00  0.12306098998E+04  0.12309027190E+04  0.00000000000E+00 0. -1.
         21    1    1    2  503  501  0.26846936187E+02 -0.14180148328E+00  0.48960468606E+03  0.49034021526E+03  0.00000000000E+00 0.  1.
</event>
<event>
 4    1  0.5576842E+002  0.2250777E+02  0.7546771E-02  0.1498773E+00
          2   -1    0    0  503    0  0.00000000000E+00  0.00000000000E+00  0.14959667082E+03  0.14959667082E+03  0.00000000000E+00 0. -1.
         -2   -1    0    0    0  501 -0.00000000000E+00 -0.00000000000E+00 -0.40731815951E+01  0.40731815951E+01  0.00000000000E+00 0.  1.
         21    1    1    2  502  501 -0.77795805248E+01 -0.21120549974E+02  0.41212436957E+02  0.46958113935E+02  0.00000000000E+00 0.  1.
         21    1    1    2  503  502  0.77795805248E+01  0.21120549974E+02  0.10431105226E+03  0.10671173848E+03  0.00000000000E+00 0. -1.
</event>
<event>
 4    1  0.5576842E+002  0.2148706E+02  0.7546771E-02  0.1512423E+00
          2   -1    0    0  503    0  0.00000000000E+00  0.00000000000E+00  0.47747884659E+02  0.47747884659E+02  0.00000000000E+00 0. -1.
         -2   -1    0    0    0  501 -0.00000000000E+00 -0.00000000000E+00 -0.39465942262E+02  0.39465942262E+02  0.00000000000E+00 0.  1.
         21    1    1    2  502  501  0.21485679018E+02  0.24325902667E+00 -0.33749239194E+02  0.40008808080E+02  0.00000000000E+00 0.  1.
         21    1    1    2  503  502 -0.21485679018E+02 -0.24325902667E+00  0.42031181591E+02  0.47205018840E+02  0.00000000000E+00 0. -1.
</event>
<event>
 4    1  0.5576842E+002  0.3595797E+02  0.7546771E-02  0.1373951E+00
          2   -1    0    0  502    0  0.00000000000E+00  0.00000000000E+00  0.11263372999E+04  0.11263372999E+04  0.00000000000E+00 0. -1.
         -2   -1    0    0    0  501 -0.00000000000E+00 -0.00000000000E+00 -0.89299883501E+01  0.89299883501E+01  0.00000000000E+00 0.  1.
         21    1    1    2  502  503  0.21566091205E+02  0.28772891149E+02  0.10885982008E+04  0.10891919107E+04  0.00000000000E+00 0. -1.
         21    1    1    2  503  501 -0.21566091205E+02 -0.28772891149E+02  0.28809110778E+02  0.46075377575E+02  0.00000000000E+00 0.  1.
</event>
<event>
 4    1  0.5576842E+002  0.2221106E+02  0.7546771E-02  0.1502650E+00
          2   -1    0    0  503    0  0.00000000000E+00  0.00000000000E+00  0.10162479313E+02  0.10162479313E+02  0.00000000000E+00 0. -1.
         -2   -1    0    0    0  501 -0.00000000000E+00 -0.00000000000E+00 -0.11814022689E+03  0.11814022689E+03  0.00000000000E+00 0.  1.
         21    1    1    2  502  501 -0.10778604509E+02 -0.19420423824E+02 -0.10322667013E+03  0.10558918790E+03  0.00000000000E+00 0.  1.
         21    1    1    2  503  502  0.10778604509E+02  0.19420423824E+02 -0.47510774514E+01  0.22713518301E+02  0.00000000000E+00 0. -1.
</event>
<event>
 4    1  0.5576842E+002  0.2158928E+02  0.7546771E-02  0.1511015E+00
          2   -1    0    0  502    0  0.00000000000E+00  0.00000000000E+00  0.12377135451E+03  0.12377135451E+03  0.00000000000E+00 0. -1.
         -2   -1    0    0    0  501 -0.00000000000E+00 -0.00000000000E+00 -0.64113780630E+01  0.64113780630E+01  0.00000000000E+00 0.  1.
         21    1    1    2  502  503 -0.17910875529E+02 -0.12053940670E+02  0.16867232341E+02  0.27397088800E+02  0.00000000000E+00 0.  1.
         21    1    1    2  503  501  0.17910875529E+02  0.12053940670E+02  0.10049274411E+03  0.10278564378E+03  0.00000000000E+00 0. -1.
</event>
<event>
 4    1  0.5576842E+002  0.2277525E+02  0.7546771E-02  0.1495340E+00
          2   -1    0    0  503    0  0.00000000000E+00  0.00000000000E+00  0.17207921288E+01  0.17207921288E+01  0.00000000000E+00 0. -1.
         -2   -1    0    0    0  501 -0.00000000000E+00 -0.00000000000E+00 -0.30845716848E+03  0.30845716848E+03  0.00000000000E+00 0.  1.
         21    1    1    2  502  501 -0.21260116641E+02 -0.81682070811E+01 -0.17676333758E+03  0.17822454847E+03  0.00000000000E+00 0. -1.
         21    1    1    2  503  502  0.21260116641E+02  0.81682070811E+01 -0.12997303877E+03  0.13195341214E+03  0.00000000000E+00 0.  1.
</event>
<event>
 4    1  0.5576842E+002  0.3224370E+02  0.7546771E-02  0.1401050E+00
          2   -1    0    0  502    0  0.00000000000E+00  0.00000000000E+00  0.60636870866E+02  0.60636870866E+02  0.00000000000E+00 0.  1.
         -2   -1    0    0    0  501 -0.00000000000E+00 -0.00000000000E+00 -0.20877538238E+02  0.20877538238E+02  0.00000000000E+00 0. -1.
         21    1    1    2  502  503  0.32039190897E+02 -0.36257839124E+01  0.26478339424E+01  0.32352234651E+02  0.00000000000E+00 0. -1.
         21    1    1    2  503  501 -0.32039190897E+02  0.36257839124E+01  0.37111498686E+02  0.49162174454E+02  0.00000000000E+00 0.  1.
</event>
<event>
 4    1  0.5576842E+002  0.2358162E+02  0.7546771E-02  0.1485321E+00
          2   -1    0    0  502    0  0.00000000000E+00  0.00000000000E+00  0.38742406901E+03  0.38742406901E+03  0.00000000000E+00 0.  1.
         -2   -1    0    0    0  501 -0.00000000000E+00 -0.00000000000E+00 -0.38919869102E+01  0.38919869102E+01  0.00000000000E+00 0. -1.
         21    1    1    2  502  503 -0.19351832144E+02 -0.13475888430E+02  0.34721277334E+03  0.34801264768E+03  0.00000000000E+00 0.  1.
         21    1    1    2  503  501  0.19351832144E+02  0.13475888430E+02  0.36319308763E+02  0.43303408241E+02  0.00000000000E+00 0. -1.
</event>
<event>
 4    1  0.5576842E+002  0.2932695E+02  0.7546771E-02  0.1425537E+00
          2   -1    0    0  502    0  0.00000000000E+00  0.00000000000E+00  0.98447079627E+01  0.98447079627E+01  0.00000000000E+00 0. -1.
         -2   -1    0    0    0  501 -0.00000000000E+00 -0.00000000000E+00 -0.13805720240E+03  0.13805720240E+03  0.00000000000E+00 0.  1.
         21    1    1    2  502  503 -0.28310562402E+02 -0.76539000157E+01 -0.19294652918E+02  0.35104896527E+02  0.00000000000E+00 0.  1.
         21    1    1    2  503  501  0.28310562402E+02  0.76539000157E+01 -0.10891784152E+03  0.11279701383E+03  0.00000000000E+00 0. -1.
</event>
<event>
 4    1  0.5576842E+002  0.3035790E+02  0.7546771E-02  0.1416511E+00
          2   -1    0    0  502    0  0.00000000000E+00  0.00000000000E+00  0.47476395306E+02  0.47476395306E+02  0.00000000000E+00 0.  1.
         -2   -1    0    0    0  501 -0.00000000000E+00 -0.00000000000E+00 -0.19481362577E+02  0.19481362577E+02  0.00000000000E+00 0. -1.
         21    1    1    2  502  503 -0.28797012495E+02 -0.96090675851E+01  0.15998119898E+02  0.34315331104E+02  0.00000000000E+00 0. -1.
         21    1    1    2  503  501  0.28797012495E+02  0.96090675851E+01  0.11996912831E+02  0.32642426778E+02  0.00000000000E+00 0.  1.
</event>
<event>
 4    1  0.5576842E+002  0.3379502E+02  0.7546771E-02  0.1389238E+00
          2   -1    0    0  503    0  0.00000000000E+00  0.00000000000E+00  0.47569397533E+02  0.47569397533E+02  0.00000000000E+00 0.  1.
         -2   -1    0    0    0  501 -0.00000000000E+00 -0.00000000000E+00 -0.24167341068E+02  0.24167341068E+02  0.00000000000E+00 0. -1.
         21    1    1    2  502  501  0.69835705530E+01  0.33065583567E+02  0.14602528131E+02  0.36814900545E+02  0.00000000000E+00 0. -1.
         21    1    1    2  503  502 -0.69835705530E+01 -0.33065583567E+02  0.87995283342E+01  0.34921838056E+02  0.00000000000E+00 0.  1.
</event>
<event>
 4    1  0.5576842E+002  0.2164299E+02  0.7546771E-02  0.1510279E+00
          2   -1    0    0  503    0  0.00000000000E+00  0.00000000000E+00  0.53129017887E+03  0.53129017887E+03  0.00000000000E+00 0.  1.
         -2   -1    0    0    0  501 -0.00000000000E+00 -0.00000000000E+00 -0.95837212410E+00  0.95837212410E+00  0.00000000000E+00 0. -1.
         21    1    1    2  502  501 -0.40799796969E+01  0.21254943486E+02  0.18987524245E+03  0.19110475283E+03  0.00000000000E+00 0.  1.
         21    1    1    2  503  502  0.40799796969E+01 -0.21254943486E+02  0.34045656430E+03  0.34114379817E+03  0.00000000000E+00 0. -1.
</event>
<event>
 4    1  0.5576842E+002  0.3689420E+02  0.7546771E-02  0.1367714E+00
          2   -1    0    0  502    0  0.00000000000E+00  0.00000000000E+00  0.10981840057E+03  0.10981840057E+03  0.00000000000E+00 0. -1.
         -2   -1    0    0    0  501 -0.00000000000E+00 -0.00000000000E+00 -0.14704704657E+02  0.14704704657E+02  0.00000000000E+00 0.  1.
         21    1    1    2  502  503 -0.25135794228E+02 -0.27006924216E+02  0.22880292121E+02  0.43413015037E+02  0.00000000000E+00 0. -1.
         21    1    1    2  503  501  0.25135794228E+02  0.27006924216E+02  0.72233403790E+02  0.81110090187E+02  0.00000000000E+00 0.  1.
</event>
<event>
 4    1  0.5576842E+002  0.2572741E+02  0.7546771E-02  0.1460828E+00
          2   -1    0    0  503    0  0.00000000000E+00  0.00000000000E+00  0.15341014474E+04  0.15341014474E+04  0.00000000000E+00 0. -1.
         -2   -1    0    0    0  501 -0.00000000000E+00 -0.00000000000E+00 -0.10810893111E+01  0.10810893111E+01  0.00000000000E+00 0.  1.
         21    1    1    2  502  501  0.22443085710E+02 -0.12578053153E+02  0.17148835718E+03  0.17340748590E+03  0.00000000000E+00 0.  1.
         21    1    1    2  503  502 -0.22443085710E+02  0.12578053153E+02  0.13615320010E+04  0.13617750509E+04  0.00000000000E+00 0. -1.
</event>
<event>
 4    1  0.5576842E+002  0.3407302E+02  0.7546771E-02  0.1387200E+00
          2   -1    0    0  502    0  0.00000000000E+00  0.00000000000E+00  0.94621135351E+02  0.94621135351E+02  0.00000000000E+00 0.  1.
         -2   -1    0    0    0  501 -0.00000000000E+00 -0.00000000000E+00 -0.26565733757E+02  0.26565733757E+02  0.00000000000E+00 0. -1.
         21    1    1    2  502  503 -0.33037443852E+02 -0.83365521487E+01  0.78477805573E+02  0.85555460174E+02  0.00000000000E+00 0.  1.
         21    1    1    2  503  501  0.33037443852E+02  0.83365521487E+01 -0.10422403979E+02  0.35631408935E+02  0.00000000000E+00 0. -1.
</event>
<event>
 4    1  0.5576842E+002  0.2641658E+02  0.7546771E-02  0.1453558E+00
          2   -1    0    0  503    0  0.00000000000E+00  0.00000000000E+00  0.97824785998E+03  0.97824785998E+03  0.00000000000E+00 0.  1.
         -2   -1    0    0    0  501 -0.00000000000E+00 -0.00000000000E+00 -0.81386911966E+00  0.81386911966E+00  0.00000000000E+00 0. -1.
         21    1    1    2  502  501  0.23089130994E+02  0.12834634658E+02  0.31668027444E+03  0.31778016307E+03  0.00000000000E+00 0.  1.
         21    1    1    2  503  502 -0.23089130994E+02 -0.12834634658E+02  0.66075371641E+03  0.66128156603E+03  0.00000000000E+00 0. -1.
</event>
<event>
 4    1  0.5576842E+002  0.2524486E+02  0.7546771E-02  0.1466083E+00
          2   -1    0    0  502    0  0.00000000000E+00  0.00000000000E+00  0.52963876639E+01  0.52963876639E+01  0.00000000000E+00 0.  1.
         -2   -1    0    0    0  501 -0.00000000000E+00 -0.00000000000E+00 -0.12249069265E+03  0.12249069265E+03  0.00000000000E+00 0. -1.
         21    1    1    2  502  503  0.17494699265E+02  0.18199954143E+02 -0.50106913772E+02  0.56107090826E+02  0.00000000000E+00 0.  1.
         21    1    1    2  503  501 -0.17494699265E+02 -0.18199954143E+02 -0.67087391217E+02  0.71679989491E+02  0.00000000000E+00 0. -1.
</event>
<event>
 4    1  0.5576842E+002  0.2384744E+02  0.7546771E-02  0.1482122E+00
          2   -1    0    0  503    0  0.00000000000E+00  0.00000000000E+00  0.28599590974E+03  0.28599590974E+03  0.00000000000E+00 0. -1.
         -2   -1    0    0    0  501 -0.00000000000E+00 -0.00000000000E+00 -0.41141547121E+01  0.41141547121E+01  0.00000000000E+00 0.  1.
         21    1    1    2  502  501 -0.15609381264E+02  0.18029074569E+02  0.36675585914E+02  0.43746987501E+02  0.00000000000E+00 0.  1.
         21    1    1    2  503  502  0.15609381264E+02 -0.18029074569E+02  0.24520616912E+03  0.24636307695E+03  0.00000000000E+00 0. -1.
</event>
<event>
 4    1  0.5576842E+002  0.2335547E+02  0.7546771E-02  0.1488082E+00
          2   -1    0    0  502    0  0.00000000000E+00  0.00000000000E+00  0.12452458254E+03  0.12452458254E+03  0.00000000000E+00 0.  1.
         -2   -1    0    0    0  501 -0.00000000000E+00 -0.00000000000E+00 -0.63930048959E+02  0.63930048959E+02  0.00000000000E+00 0. -1.
         21    1    1    2  502  503  0.18378852263E+02 -0.14411656522E+02  0.12123907693E+03  0.12346818144E+03  0.00000000000E+00 0.  1.
         21    1    1    2  503  501 -0.18378852263E+02  0.14411656522E+02 -0.60644543343E+02  0.64986450060E+02  0.00000000000E+00 0. -1.
</event>
<event>
 4    1  0.5576842E+002  0.2324922E+02  0.7546771E-02  0.1489392E+00
          2   -1    0    0  503    0  0.00000000000E+00  0.00000000000E+00  0.18513587769E+01  0.18513587769E+01  0.00000000000E+00 0.  1.
         -2   -1    0    0    0  501 -0.00000000000E+00 -0.00000000000E+00 -0.42494672813E+03  0.42494672813E+03  0.00000000000E+00 0. -1.
         21    1    1    2  502  501 -0.11590643438E+02  0.20153984227E+02 -0.33092625867E+03  0.33174194003E+03  0.00000000000E+00 0.  1.
         21    1    1    2  503  502  0.11590643438E+02 -0.20153984227E+02 -0.92169110680E+02  0.95056146877E+02  0.00000000000E+00 0. -1.
</event>
<event>
 4    1  0.5576842E+002  0.2060123E+02  0.7546771E-02  0.1525035E+00
          2   -1    0    0  503    0  0.00000000000E+00  0.00000000000E+00  0.61461509445E+03  0.61461509445E+03  0.00000000000E+00 0. -1.
         -2   -1    0    0    0  501 -0.00000000000E+00 -0.00000000000E+00 -0.13198464570E+01  0.13198464570E+01  0.00000000000E+00 0.  1.
         21    1    1    2  502  501  0.14579001880E+02  0.14555527439E+02  0.93991743542E+02  0.96222962586E+02  0.00000000000E+00 0.  1.
         21    1    1    2  503  502 -0.14579001880E+02 -0.14555527439E+02  0.51930350445E+03  0.51971197832E+03  0.00000000000E+00 0. -1.
</event>
<event>
 4    1  0.5576842E+002  0.2447151E+02  0.7546771E-02  0.1474803E+00
          2   -1    0    0  502    0  0.00000000000E+00  0.00000000000E+00  0.29980861348E+03  0.29980861348E+03  0.00000000000E+00 0. -1.
         -2   -1    0    0    0  501 -0.00000000000E+00 -0.00000000000E+00 -0.73921150302E+01  0.73921150302E+01  0.00000000000E+00 0.  1.
         21    1    1    2  502  503 -0.87504413804E+01  0.22853550741E+02  0.27742516377E+03  0.27850238150E+03  0.00000000000E+00 0. -1.
         21    1    1    2  503  501  0.87504413804E+01 -0.22853550741E+02  0.14991334676E+02  0.28698347011E+02  0.00000000000E+00 0.  1.
</event>
<event>
 4    1  0.5576842E+002  0.2866242E+02  0.7546771E-02  0.1431587E+00
          2   -1    0    0  502    0  0.00000000000E+00  0.00000000000E+00  0.10016767006E+04  0.10016767006E+04  0.00000000000E+00 0. -1.
         -2   -1    0    0    0  501 -0.00000000000E+00 -0.00000000000E+00 -0.12276722398E+02  0.12276722398E+02  0.00000000000E+00 0.  1.
         21    1    1    2  502  503 -0.12700045748E+01 -0.28634268304E+02  0.98444945627E+03  0.98486662355E+03  0.00000000000E+00 0. -1.
         21    1    1    2  503  501  0.12700045748E+01  0.28634268304E+02  0.49505218945E+01  0.29086799411E+02  0.00000000000E+00 0.  1.
</event>
<event>
 4    1  0.5576842E+002  0.2021933E+02  0.7546771E-02  0.1530709E+00
          2   -1    0    0  503    0  0.00000000000E+00  0.00000000000E+00  0.15874413010E+02  0.15874413010E+02  0.00000000000E+00 0. -1.
         -2   -1    0    0    0  501 -0.00000000000E+00 -0.00000000000E+00 -0.35416048952E+02  0.35416048952E+02  0.00000000000E+00 0.  1.
         21    1    1    2  502  501  0.51018169525E+01 -0.19565092550E+02 -0.23166130684E+02  0.30748837272E+02  0.00000000000E+00 0.  1.
         21    1    1    2  503  502 -0.51018169525E+01  0.19565092550E+02  0.36244947419E+01  0.20541624689E+02  0.00000000000E+00 0. -1.
</event>
<event>
 4    1  0.5576842E+002  0.2422345E+02  0.7546771E-02  0.1477681E+00
          2   -1    0    0  503    0  0.00000000000E+00  0.00000000000E+00  0.33173331134E+02  0.33173331134E+02  0.00000000000E+00 0.  1.
         -2   -1    0    0    0  501 -0.00000000000E+00 -0.00000000000E+00 -0.30415495854E+02  0.30415495854E+02  0.00000000000E+00 0. -1.
         21    1    1    2  502  501 -0.17808853218E+02 -0.16420118950E+02 -0.19188128830E+02  0.30902424618E+02  0.00000000000E+00 0. -1.
         21    1    1    2  503  502  0.17808853218E+02  0.16420118950E+02  0.21945964109E+02  0.32686402371E+02  0.00000000000E+00 0.  1.
</event>
<event>
 4    1  0.5576842E+002  0.3926655E+02  0.7546771E-02  0.1352838E+00
          2   -1    0    0  502    0  0.00000000000E+00  0.00000000000E+00  0.20415581684E+03  0.20415581684E+03  0.00000000000E+00 0. -1.
         -2   -1    0    0    0  501 -0.00000000000E+00 -0.00000000000E+00 -0.81648520763E+01  0.81648520763E+01  0.00000000000E+00 0.  1.
         21    1    1    2  502  503 -0.10394759201E+02 -0.37865700277E+02  0.12707125872E+03  0.13299987620E+03  0.00000000000E+00 0. -1.
         21    1    1    2  503  501  0.10394759201E+02  0.37865700277E+02  0.68919706052E+02  0.79320792725E+02  0.00000000000E+00 0.  1.
</event>
<event>
 4    1  0.5576842E+002  0.2024098E+02  0.7546771E-02  0.1530383E+00
          2   -1    0    0  502    0  0.00000000000E+00  0.00000000000E+00  0.17057009315E+04  0.17057009315E+04  0.00000000000E+00 0.  1.
         -2   -1    0    0    0  501 -0.00000000000E+00 -0.00000000000E+00 -0.41368012870E+00  0.41368012870E+00  0.00000000000E+00 0. -1.
         21    1    1    2  502  503  0.18384048618E+02 -0.84689993357E+01  0.14050767046E+04  0.14052224888E+04  0.00000000000E+00 0.  1.
         21    1    1    2  503  501 -0.18384048618E+02  0.84689993357E+01  0.30021054683E+03  0.30089212290E+03  0.00000000000E+00 0. -1.
</event>
<event>
 4    1  0.5576842E+002  0.2125618E+02  0.7546771E-02  0.1515639E+00
          2   -1    0    0  503    0  0.00000000000E+00  0.00000000000E+00  0.73168096280E+03  0.73168096280E+03  0.00000000000E+00 0. -1.
         -2   -1    0    0    0  501 -0.00000000000E+00 -0.00000000000E+00 -0.66477295820E+00  0.66477295820E+00  0.00000000000E+00 0.  1.
         21    1    1    2  502  501  0.13440166171E+01  0.21213642066E+02  0.26787870929E+03  0.26872072470E+03  0.00000000000E+00 0.  1.
         21    1    1    2  503  502 -0.13440166171E+01 -0.21213642066E+02  0.46313748055E+03  0.46362501106E+03  0.00000000000E+00 0. -1.
</event>
<event>
 4    1  0.5576842E+002  0.2194888E+02  0.7546771E-02  0.1506136E+00
          2   -1    0    0  502    0  0.00000000000E+00  0.00000000000E+00  0.14044600033E+02  0.14044600033E+02  0.00000000000E+00 0.  1.
         -2   -1    0    0    0  501 -0.00000000000E+00 -0.00000000000E+00 -0.38852527840E+02  0.38852527840E+02  0.00000000000E+00 0. -1.
         21    1    1    2  502  503 -0.10288376174E+02 -0.19388212272E+02 -0.21455834369E+02  0.30693749980E+02  0.00000000000E+00 0. -1.
         21    1    1    2  503  501  0.10288376174E+02  0.19388212272E+02 -0.33520934383E+01  0.22203377892E+02  0.00000000000E+00 0.  1.
</event>
<event>
 4    1  0.5576842E+002  0.2065229E+02  0.7546771E-02  0.1524288E+00
          2   -1    0    0  502    0  0.00000000000E+00  0.00000000000E+00  0.20811289114E+01  0.20811289114E+01  0.00000000000E+00 0. -1.
         -2   -1    0    0    0  501 -0.00000000000E+00 -0.00000000000E+00 -0.20630358501E+03  0.20630358501E+03  0.00000000000E+00 0.  1.
         21    1    1    2  502  503 -0.19297948277E+02  0.73557054060E+01 -0.93656355462E+02  0.95906361249E+02  0.00000000000E+00 0. -1.
         21    1    1    2  503  501  0.19297948277E+02 -0.73557054060E+01 -0.11056610064E+03  0.11247835267E+03  0.00000000000E+00 0.  1.
</event>
<event>
 4    1  0.5576842E+002  0.4223617E+02  0.7546771E-02  0.1335858E+00
          2   -1    0    0  503    0  0.00000000000E+00  0.00000000000E+00  0.10594362719E+04  0.10594362719E+04  0.00000000000E+00 0. -1.
         -2   -1    0    0    0  501 -0.00000000000E+00 -0.00000000000E+00 -0.21694346208E+01  0.21694346208E+01  0.00000000000E+00 0.  1.
         21    1    1    2  502  501 -0.37295077541E+02 -0.19823501583E+02  0.27749777426E+03  0.28069362077E+03  0.00000000000E+00 0.  1.
         21    1    1    2  503  502  0.37295077541E+02  0.19823501583E+02  0.77976906298E+03  0.78091208571E+03  0.00000000000E+00 0. -1.
</event>
<event>
 4    1  0.5576842E+002  0.2862780E+02  0.7546771E-02  0.1431908E+00
          2   -1    0    0  502    0  0.00000000000E+00  0.00000000000E+00  0.11949166132E+03  0.11949166132E+03  0.00000000000E+00 0. -1.
         -2   -1    0    0    0  501 -0.00000000000E+00 -0.00000000000E+00 -0.15870675094E+02  0.15870675094E+02  0.00000000000E+00 0.  1.
         21    1    1    2  502  503 -0.12874492148E+02  0.25569487080E+02  0.10281181064E+03  0.10672309790E+03  0.00000000000E+00 0. -1.
         21    1    1    2  503  501  0.12874492148E+02 -0.25569487080E+02  0.80917558455E+00  0.28639238515E+02  0.00000000000E+00 0.  1.
</event>
<event>
 4    1  0.5576842E+002  0.5109127E+02  0.7546771E-02  0.1293509E+00
          2   -1    0    0  502    0  0.00000000000E+00  0.00000000000E+00  0.14322651223E+04  0.14322651223E+04  0.00000000000E+00 0. -1.
         -2   -1    0    0    0  501 -0.00000000000E+00 -0.00000000000E+00 -0.41454166791E+01  0.41454166791E+01  0.00000000000E+00 0.  1.
         21    1    1    2  502  503  0.23555686748E+02 -0.45337048347E+02  0.12516859225E+04  0.12527282095E+04  0.00000000000E+00 0. -1.
         21    1    1    2  503  501 -0.23555686748E+02  0.45337048347E+02  0.17643378313E+03  0.18368232947E+03  0.00000000000E+00 0.  1.
</event>
<event>
 4    1  0.5576842E+002  0.2068966E+02  0.7546771E-02  0.1523742E+00
          2   -1    0    0  503    0  0.00000000000E+00  0.00000000000E+00  0.53598456248E+03  0.53598456248E+03  0.00000000000E+00 0. -1.
         -2   -1    0    0    0  501 -0.00000000000E+00 -0.00000000000E+00 -0.14402748539E+01  0.14402748539E+01  0.00000000000E+00 0.  1.
         21    1    1    2  502  501  0.17304124075E+02 -0.11341493701E+02  0.87919895172E+02  0.90321482253E+02  0.00000000000E+00 0.  1.
         21    1    1    2  503  502 -0.17304124075E+02  0.11341493701E+02  0.44662439245E+03  0.44710335508E+03  0.00000000000E+00 0. -1.
</event>
<event>
 4    1  0.5576842E+002  0.3953842E+02  0.7546771E-02  0.1351212E+00
          2   -1    0    0  502    0  0.00000000000E+00  0.00000000000E+00  0.14970933962E+04  0.14970933962E+04  0.00000000000E+00 0.  1.
         -2   -1    0    0    0  501 -0.00000000000E+00 -0.00000000000E+00 -0.33193986607E+01  0.33193986607E+01  0.00000000000E+00 0. -1.
         21    1    1    2  502  503 -0.38497327405E+02 -0.90134672896E+01  0.13679838429E+04  0.13685551071E+04  0.00000000000E+00 0.  1.
         21    1    1    2  503  501  0.38497327405E+02  0.90134672896E+01  0.12579015462E+03  0.13185768772E+03  0.00000000000E+00 0. -1.
</event>
<event>
 4    1  0.5576842E+002  0.2048883E+02  0.7546771E-02  0.1526690E+00
          2   -1    0    0  502    0  0.00000000000E+00  0.00000000000E+00  0.12158764957E+02  0.12158764957E+02  0.00000000000E+00 0.  1.
         -2   -1    0    0    0  501 -0.00000000000E+00 -0.00000000000E+00 -0.37975249263E+02  0.37975249263E+02  0.00000000000E+00 0. -1.
         21    1    1    2  502  503 -0.22201882050E+01  0.20368188701E+02 -0.53534846731E+01  0.21176688711E+02  0.00000000000E+00 0.  1.
         21    1    1    2  503  501  0.22201882050E+01 -0.20368188701E+02 -0.20462999633E+02  0.28957325509E+02  0.00000000000E+00 0. -1.
</event>
<event>
 4    1  0.5576842E+002  0.2479307E+02  0.7546771E-02  0.1471132E+00
          2   -1    0    0  503    0  0.00000000000E+00  0.00000000000E+00  0.22893377764E+02  0.22893377764E+02  0.00000000000E+00 0. -1.
         -2   -1    0    0    0  501 -0.00000000000E+00 -0.00000000000E+00 -0.35344840186E+02  0.35344840186E+02  0.00000000000E+00 0.  1.
         21    1    1    2  502  501 -0.49796821891E+01  0.24287839474E+02 -0.20500938311E+02  0.32171180467E+02  0.00000000000E+00 0.  1.
         21    1    1    2  503  502  0.49796821891E+01 -0.24287839474E+02  0.80494758887E+01  0.26067037482E+02  0.00000000000E+00 0. -1.
</event>
<event>
 4    1  0.5576842E+002  0.2564969E+02  0.7546771E-02  0.1461665E+00
          2   -1    0    0  503    0  0.00000000000E+00  0.00000000000E+00  0.30949982626E+03  0.30949982626E+03  0.00000000000E+00 0.  1.
         -2   -1    0    0    0  501 -0.00000000000E+00 -0.00000000000E+00 -0.51538110090E+01  0.51538110090E+01  0.00000000000E+00 0. -1.
         21    1    1    2  502  501  0.25647233389E+02  0.35466049013E+00  0.31579531576E+02  0.40683819623E+02  0.00000000000E+00 0. -1.
         21    1    1    2  503  502 -0.25647233389E+02 -0.35466049013E+00  0.27276648367E+03  0.27396981764E+03  0.00000000000E+00 0.  1.
</event>
<event>
 4    1  0.5576842E+002  0.2008406E+02  0.7546771E-02  0.1532755E+00
          2   -1    0    0  502    0  0.00000000000E+00  0.00000000000E+00  0.10387950704E+04  0.10387950704E+04  0.00000000000E+00 0.  1.
         -2   -1    0    0    0  501 -0.00000000000E+00 -0.00000000000E+00 -0.41070468954E+00  0.41070468954E+00  0.00000000000E+00 0. -1.
         21    1    1    2  502  503  0.19814452462E+02  0.32798071256E+01  0.39784644158E+03  0.39835306041E+03  0.00000000000E+00 0. -1.
         21    1    1    2  503  501 -0.19814452462E+02 -0.32798071256E+01  0.64053792409E+03  0.64085271464E+03  0.00000000000E+00 0.  1.
</event>
<event>
 4    1  0.5576842E+002  0.2420144E+02  0.7546771E-02  0.1477939E+00
          2   -1    0    0  503    0  0.00000000000E+00  0.00000000000E+00  0.54158271722E+03  0.54158271722E+03  0.00000000000E+00 0. -1.
         -2   -1    0    0    0  501 -0.00000000000E+00 -0.00000000000E+00 -0.36549830557E+01  0.36549830557E+01  0.00000000000E+00 0.  1.
         21    1    1    2  502  501  0.22595693576E+02  0.86685920277E+01  0.40206177846E+02  0.46928100248E+02  0.00000000000E+00 0.  1.
         21    1    1    2  503  502 -0.22595693576E+02 -0.86685920277E+01  0.49772155632E+03  0.49830960003E+03  0.00000000000E+00 0. -1.
</event>
<event>
 4    1  0.5576842E+002  0.2179693E+02  0.7546771E-02  0.1508184E+00
          2   -1    0    0  503    0  0.00000000000E+00  0.00000000000E+00  0.31434168559E+01  0.31434168559E+01  0.00000000000E+00 0. -1.
         -2   -1    0    0    0  501 -0.00000000000E+00 -0.00000000000E+00 -0.16224085661E+03  0.16224085661E+03  0.00000000000E+00 0.  1.
         21    1    1    2  502  501 -0.12045627004E+02  0.18166151883E+02 -0.57921585290E+02  0.61887125048E+02  0.00000000000E+00 0. -1.
         21    1    1    2  503  502  0.12045627004E+02 -0.18166151883E+02 -0.10117585446E+03  0.10349714842E+03  0.00000000000E+00 0.  1.
</event>
<event>
 4    1  0.5576842E+002  0.2039742E+02  0.7546771E-02  0.1528045E+00
          2   -1    0    0  503    0  0.00000000000E+00  0.00000000000E+00  0.41093065663E+02  0.41093065663E+02  0.00000000000E+00 0.  1.
         -2   -1    0    0    0  501 -0.00000000000E+00 -0.00000000000E+00 -0.11093446312E+02  0.11093446312E+02  0.00000000000E+00 0. -1.
         21    1    1    2  502  501  0.13284048739E+02  0.15478659218E+02  0.22710632369E+02  0.30525852398E+02  0.00000000000E+00 0. -1.
         21    1    1    2  503  502 -0.13284048739E+02 -0.15478659218E+02  0.72889869818E+01  0.21660659577E+02  0.00000000000E+00 0.  1.
</event>
<event>
 4    1  0.5576842E+002  0.2050306E+02  0.7546771E-02  0.1526480E+00
          2   -1    0    0  502    0  0.00000000000E+00  0.00000000000E+00  0.63910497363E+02  0.63910497363E+02  0.00000000000E+00 0.  1.
         -2   -1    0    0    0  501 -0.00000000000E+00 -0.00000000000E+00 -0.67050968994E+01  0.67050968994E+01  0.00000000000E+00 0. -1.
         21    1    1    2  502  503  0.10781107471E+02 -0.17439696408E+02  0.33472171521E+02  0.39252535656E+02  0.00000000000E+00 0.  1.
         21    1    1    2  503  501 -0.10781107471E+02  0.17439696408E+02  0.23733228943E+02  0.31363058607E+02  0.00000000000E+00 0. -1.
</event>
<event>
 4    1  0.5576842E+002  0.2360187E+02  0.7546771E-02  0.1485076E+00
          2   -1    0    0  503    0  0.00000000000E+00  0.00000000000E+00  0.89639843540E+03  0.89639843540E+03  0.00000000000E+00 0. -1.
         -2   -1    0    0    0  501 -0.00000000000E+00 -0.00000000000E+00 -0.57451864843E+01  0.57451864843E+01  0.00000000000E+00 0.  1.
         21    1    1    2  502  501  0.22901036153E+02 -0.57088204035E+01  0.19347908367E+02  0.30518676994E+02  0.00000000000E+00 0.  1.
         21    1    1    2  503  502 -0.22901036153E+02  0.57088204035E+01  0.87130534055E+03  0.87162494489E+03  0.00000000000E+00 0. -1.
</event>
<event>
 4    1  0.5576842E+002  0.3860551E+02  0.7546771E-02  0.1356857E+00
          2   -1    0    0  503    0  0.00000000000E+00  0.00000000000E+00  0.42494324228E+02  0.42494324228E+02  0.00000000000E+00 0.  1.
         -2   -1    0    0    0  501 -0.00000000000E+00 -0.00000000000E+00 -0.35167001255E+02  0.35167001255E+02  0.00000000000E+00 0. -1.
         21    1    1    2  502  501  0.87991832190E+01  0.37589360708E+02  0.56757070641E+01  0.39020498644E+02  0.00000000000E+00 0.  1.
         21    1    1    2  503  502 -0.87991832190E+01 -0.37589360708E+02  0.16516159089E+01  0.38640826840E+02  0.00000000000E+00 0. -1.
</event>
<event>
 4    1  0.5576842E+002  0.2003381E+02  0.7546771E-02  0.1533519E+00
          2   -1    0    0  502    0  0.00000000000E+00  0.00000000000E+00  0.60121648104E+01  0.60121648104E+01  0.00000000000E+00 0.  1.
         -2   -1    0    0    0  501 -0.00000000000E+00 -0.00000000000E+00 -0.46530764722E+03  0.46530764722E+03  0.00000000000E+00 0. -1.
         21    1    1    2  502  503  0.19317577716E+02 -0.53089355296E+01 -0.11546866151E+02  0.23123229082E+02  0.00000000000E+00 0.  1.
         21    1    1    2  503  501 -0.19317577716E+02  0.53089355296E+01 -0.44774861626E+03  0.44819658295E+03  0.00000000000E+00 0. -1.
</event>
<event>
 4    1  0.5576842E+002  0.2207252E+02  0.7546771E-02  0.1504485E+00
          2   -1    0    0  502    0  0.00000000000E+00  0.00000000000E+00  0.39779503497E+01  0.39779503497E+01  0.00000000000E+00 0.  1.
         -2   -1    0    0    0  501 -0.00000000000E+00 -0.00000000000E+00 -0.14228064397E+03  0.14228064397E+03  0.00000000000E+00 0. -1.
         21    1    1    2  502  503  0.21628440297E+02 -0.44053268212E+01 -0.41866494162E+02  0.47328634752E+02  0.00000000000E+00 0.  1.
         21    1    1    2  503  501 -0.21628440297E+02  0.44053268212E+01 -0.96436199463E+02  0.98929959573E+02  0.00000000000E+00 0. -1.
</event>
<event>
 4    1  0.5576842E+002  0.2126636E+02  0.7546771E-02  0.1515496E+00
          2   -1    0    0  503    0  0.00000000000E+00  0.00000000000E+00  0.11928437677E+04  0.11928437677E+04  0.00000000000E+00 0.  1.
         -2   -1    0    0    0  501 -0.00000000000E+00 -0.00000000000E+00 -0.74041920692E+00  0.74041920692E+00  0.00000000000E+00 0. -1.
         21    1    1    2  502  501  0.18560141865E+02 -0.10381670168E+02  0.17917833969E+03  0.18043595915E+03  0.00000000000E+00 0. -1.
         21    1    1    2  503  502 -0.18560141865E+02  0.10381670168E+02  0.10129250088E+04  0.10131482277E+04  0.00000000000E+00 0.  1.
</event>
<event>
 4    1  0.5576842E+002  0.2343110E+02  0.7546771E-02  0.1487155E+00
          2   -1    0    0  502    0  0.00000000000E+00  0.00000000000E+00  0.66124231006E+01  0.66124231006E+01  0.00000000000E+00 0.  1.
         -2   -1    0    0    0  501 -0.00000000000E+00 -0.00000000000E+00 -0.88401634925E+02  0.88401634925E+02  0.00000000000E+00 0. -1.
         21    1    1    2  502  503  0.35631880828E+01  0.23158582776E+02 -0.29181776992E+02  0.37424488960E+02  0.00000000000E+00 0. -1.
         21    1    1    2  503  501 -0.35631880828E+01 -0.23158582776E+02 -0.52607434833E+02  0.57589569066E+02  0.00000000000E+00 0.  1.
</event>
<event>
 4    1  0.5576842E+002  0.2573780E+02  0.7546771E-02  0.1460716E+00
          2   -1    0    0  503    0  0.00000000000E+00  0.00000000000E+00  0.35749354755E+03  0.35749354755E+03  0.00000000000E+00 0. -1.
         -2   -1    0    0    0  501 -0.00000000000E+00 -0.00000000000E+00 -0.19884549797E+01  0.19884549797E+01  0.00000000000E+00 0.  1.
         21    1    1    2  502  501 -0.11264950811E+01  0.25713138426E+02  0.13083972652E+03  0.13334717288E+03  0.00000000000E+00 0.  1.
         21    1    1    2  503  502  0.11264950811E+01 -0.25713138426E+02  0.22466536606E+03  0.22613482966E+03  0.00000000000E+00 0. -1.
</event>
<event>
 4    1  0.5576842E+002  0.2252259E+02  0.7546771E-02  0.1498582E+00
          2   -1    0    0  502    0  0.00000000000E+00  0.00000000000E+00  0.55852446458E+01  0.55852446458E+01  0.00000000000E+00 0.  1.
         -2   -1    0    0    0  501 -0.00000000000E+00 -0.00000000000E+00 -0.20839051158E+03  0.20839051158E+03  0.00000000000E+00 0. -1.
         21    1    1    2  502  503  0.14411433020E+02  0.17308310116E+02 -0.21042653398E+02  0.30823047591E+02  0.00000000000E+00 0.  1.
         21    1    1    2  503  501 -0.14411433020E+02 -0.17308310116E+02 -0.18176261354E+03  0.18315270864E+03  0.00000000000E+00 0. -1.
</event>
<event>
 4    1  0.5576842E+002  0.3022408E+02  0.7546771E-02  0.1417659E+00
          2   -1    0    0  502    0  0.00000000000E+00  0.00000000000E+00  0.44560836495E+02  0.44560836495E+02  0.00000000000E+00 0.  1.
         -2   -1    0    0    0  501 -0.00000000000E+00 -0.00000000000E+00 -0.28615861069E+02  0.28615861069E+02  0.00000000000E+00 0. -1.
         21    1    1    2  502  503 -0.17134174502E+02  0.24898091258E+02  0.27457831044E+02  0.40834144656E+02  0.00000000000E+00 0.  1.
         21    1    1    2  503  501  0.17134174502E+02 -0.24898091258E+02 -0.11512855618E+02  0.32342552908E+02  0.00000000000E+00 0. -1.
</event>
<event>
 4    1  0.5576842E+002  0.3202426E+02  0.7546771E-02  0.1402784E+00
          2   -1    0    0  503    0  0.00000000000E+00  0.00000000000E+00  0.96566460519E+02  0.96566460519E+02  0.00000000000E+00 0.  1.
         -2   -1    0    0    0  501 -0.00000000000E+00 -0.00000000000E+00 -0.20518050523E+02  0.20518050523E+02  0.00000000000E+00 0. -1.
         21    1    1    2  502  501 -0.29966434874E+02  0.11294509940E+02 -0.26362554144E+01  0.32132584964E+02  0.00000000000E+00 0. -1.
         21    1    1    2  503  502  0.29966434874E+02 -0.11294509940E+02  0.78684665410E+02  0.84951926079E+02  0.00000000000E+00 0.  1.
</event>
<event>
 4    1  0.5576842E+002  0.2794417E+02  0.7546771E-02  0.1438347E+00
          2   -1    0    0  502    0  0.00000000000E+00  0.00000000000E+00  0.13532313203E+04  0.13532313203E+04  0.00000000000E+00 0. -1.
         -2   -1    0    0    0  501 -0.00000000000E+00 -0.00000000000E+00 -0.10565666862E+01  0.10565666862E+01  0.00000000000E+00 0.  1.
         21    1    1    2  502  503 -0.19981487487E+02  0.19535021568E+02  0.11322672834E+04  0.11326120598E+04  0.00000000000E+00 0.  1.
         21    1    1    2  503  501  0.19981487487E+02 -0.19535021568E+02  0.21990747016E+03  0.22167582715E+03  0.00000000000E+00 0. -1.
</event>
<event>
 4    1  0.5576842E+002  0.2711251E+02  0.7546771E-02  0.1446481E+00
          2   -1    0    0  503    0  0.00000000000E+00  0.00000000000E+00  0.69029455695E+01  0.69029455695E+01  0.00000000000E+00 0.  1.
         -2   -1    0    0    0  501 -0.00000000000E+00 -0.00000000000E+00 -0.26836155959E+03  0.26836155959E+03  0.00000000000E+00 0. -1.
         21    1    1    2  502  501 -0.14092194389E+02  0.23162432312E+02 -0.23762164970E+03  0.23916340986E+03  0.00000000000E+00 0. -1.
         21    1    1    2  503  502  0.14092194389E+02 -0.23162432312E+02 -0.23836964322E+02  0.36101095294E+02  0.00000000000E+00 0.  1.
</event>
<event>
 4    1  0.5576842E+002  0.2593425E+02  0.7546771E-02  0.1458618E+00
          2   -1    0    0  502    0  0.00000000000E+00  0.00000000000E+00  0.66481003202E+03  0.66481003202E+03  0.00000000000E+00 0. -1.
         -2   -1    0    0    0  501 -0.00000000000E+00 -0.00000000000E+00 -0.11475220993E+02  0.11475220993E+02  0.00000000000E+00 0.  1.
         21    1    1    2  502  503 -0.23625685337E+02 -0.10696375841E+02  0.64956023930E+03  0.65007775684E+03  0.00000000000E+00 0. -1.
         21    1    1    2  503  501  0.23625685337E+02  0.10696375841E+02  0.37745717284E+01  0.26207496170E+02  0.00000000000E+00 0.  1.
</event>
<event>
 4    1  0.5576842E+002  0.2054541E+02  0.7546771E-02  0.1525855E+00
          2   -1    0    0  503    0  0.00000000000E+00  0.00000000000E+00  0.36605290564E+02  0.36605290564E+02  0.00000000000E+00 0. -1.
         -2   -1    0    0    0  501 -0.00000000000E+00 -0.00000000000E+00 -0.15402746897E+02  0.15402746897E+02  0.00000000000E+00 0.  1.
         21    1    1    2  502  501 -0.14862704483E+02 -0.14184990394E+02 -0.24354011481E+01  0.20689251213E+02  0.00000000000E+00 0.  1.
         21    1    1    2  503  502  0.14862704483E+02  0.14184990394E+02  0.23637944815E+02  0.31318786249E+02  0.00000000000E+00 0. -1.
</event>
<event>
 4    1  0.5576842E+002  0.2461216E+02  0.7546771E-02  0.1473189E+00
          2   -1    0    0  503    0  0.00000000000E+00  0.00000000000E+00  0.14752950271E+03  0.14752950271E+03  0.00000000000E+00 0.  1.
         -2   -1    0    0    0  501 -0.00000000000E+00 -0.00000000000E+00 -0.27062181055E+02  0.27062181055E+02  0.00000000000E+00 0. -1.
         21    1    1    2  502  501  0.72289316216E+01 -0.23526598080E+02 -0.20167412050E+02  0.31819534541E+02  0.00000000000E+00 0. -1.
         21    1    1    2  503  502 -0.72289316216E+01  0.23526598080E+02  0.14063473370E+03  0.14277214922E+03  0.00000000000E+00 0.  1.
</event>
<event>
 4    1  0.5576842E+002  0.3657915E+02  0.7546771E-02  0.1369789E+00
          2   -1    0    0  503    0  0.00000000000E+00  0.00000000000E+00  0.18535956739E+03  0.18535956739E+03  0.00000000000E+00 0. -1.
         -2   -1    0    0    0  501 -0.00000000000E+00 -0.00000000000E+00 -0.12138272752E+02  0.12138272752E+02  0.00000000000E+00 0.  1.
         21    1    1    2  502  501 -0.23182555206E+02 -0.28294934278E+02  0.23743668764E+02  0.43609585851E+02  0.00000000000E+00 0.  1.
         21    1    1    2  503  502  0.23182555206E+02  0.28294934278E+02  0.14947762588E+03  0.15388825429E+03  0.00000000000E+00 0. -1.
</event>
<event>
 4    1  0.5576842E+002  0.2348483E+02  0.7546771E-02  0.1486498E+00
          2   -1    0    0  503    0  0.00000000000E+00  0.00000000000E+00  0.16873647018E+04  0.16873647018E+04  0.00000000000E+00 0. -1.
         -2   -1    0    0    0  501 -0.00000000000E+00 -0.00000000000E+00 -0.36267041052E+00  0.36267041052E+00  0.00000000000E+00 0.  1.
         21    1    1    2  502  501 -0.30997646335E+01  0.23279367067E+02  0.57834510261E+03  0.57882173006E+03  0.00000000000E+00 0.  1.
         21    1    1    2  503  502  0.30997646335E+01 -0.23279367067E+02  0.11086569288E+04  0.11089056422E+04  0.00000000000E+00 0. -1.
</event>
<event>
 4    1  0.5576842E+002  0.2412731E+02  0.7546771E-02  0.1478808E+00
          2   -1    0    0  502    0  0.00000000000E+00  0.00000000000E+00  0.21228846594E+03  0.21228846594E+03  0.00000000000E+00 0.  1.
         -2   -1    0    0    0  501 -0.00000000000E+00 -0.00000000000E+00 -0.53474335210E+01  0.53474335210E+01  0.00000000000E+00 0. -1.
         21    1    1    2  502  503 -0.19807243426E+02  0.13776792996E+02  0.17942532918E+03  0.18104025980E+03  0.00000000000E+00 0.  1.
         21    1    1    2  503  501  0.19807243426E+02 -0.13776792996E+02  0.27515703238E+02  0.36595639659E+02  0.00000000000E+00 0. -1.
</event>
<event>
 4    1  0.5576842E+002  0.3175994E+02  0.7546771E-02  0.1404895E+00
          2   -1    0    0  503    0  0.00000000000E+00  0.00000000000E+00  0.88252750001E+03  0.88252750001E+03  0.00000000000E+00 0. -1.
         -2   -1    0    0    0  501 -0.00000000000E+00 -0.00000000000E+00 -0.11796042691E+01  0.11796042691E+01  0.00000000000E+00 0.  1.
         21    1    1    2  502  501 -0.27780074100E+02  0.15393553252E+02  0.36279667257E+03  0.36418418366E+03  0.00000000000E+00 0.  1.
         21    1    1    2  503  502  0.27780074100E+02 -0.15393553252E+02  0.51855122317E+03  0.51952292062E+03  0.00000000000E+00 0. -1.
</event>
<event>
 4    1  0.5576842E+002  0.2010668E+02  0.7546771E-02  0.1532411E+00
          2   -1    0    0  503    0  0.00000000000E+00  0.00000000000E+00  0.18744581761E+04  0.18744581761E+04  0.00000000000E+00 0. -1.
         -2   -1    0    0    0  501 -0.00000000000E+00 -0.00000000000E+00 -0.32695067033E+00  0.32695067033E+00  0.00000000000E+00 0.  1.
         21    1    1    2  502  501 -0.10940216673E+01 -0.20076895156E+02  0.39020648763E+03  0.39072417585E+03  0.00000000000E+00 0.  1.
         21    1    1    2  503  502  0.10940216673E+01  0.20076895156E+02  0.14839247378E+04  0.14840609509E+04  0.00000000000E+00 0. -1.
</event>
<event>
 4    1  0.5576842E+002  0.2037942E+02  0.7546771E-02  0.1528312E+00
          2   -1    0    0  502    0  0.00000000000E+00  0.00000000000E+00  0.57235506477E+02  0.57235506477E+02  0.00000000000E+00 0. -1.
         -2   -1    0    0    0  501 -0.00000000000E+00 -0.00000000000E+00 -0.79313882739E+02  0.79313882739E+02  0.00000000000E+00 0.  1.
         21    1    1    2  502  503  0.70329340058E+01  0.19127432838E+02  0.54037412023E+02  0.57752599472E+02  0.00000000000E+00 0. -1.
         21    1    1    2  503  501 -0.70329340058E+01 -0.19127432838E+02 -0.76115788285E+02  0.78796789743E+02  0.00000000000E+00 0.  1.
</event>
<event>
 4    1  0.5576842E+002  0.2804026E+02  0.7546771E-02  0.1437429E+00
          2   -1    0    0  503    0  0.00000000000E+00  0.00000000000E+00  0.75861413667E+01  0.75861413667E+01  0.00000000000E+00 0. -1.
         -2   -1    0    0    0  501 -0.00000000000E+00 -0.00000000000E+00 -0.10689452506E+03  0.10689452506E+03  0.00000000000E+00 0.  1.
         21    1    1    2  502  501 -0.27620180082E+02 -0.48354601904E+01 -0.39672161051E+02  0.48581234911E+02  0.00000000000E+00 0. -1.
         21    1    1    2  503  502  0.27620180082E+02  0.48354601904E+01 -0.59636222641E+02  0.65899431514E+02  0.00000000000E+00 0.  1.
</event>
<event>
 4    1  0.5576842E+002  0.2989424E+02  0.7546771E-02  0.1420518E+00
          2   -1    0    0  502    0  0.00000000000E+00  0.00000000000E+00  0.22456077995E+03  0.22456077995E+03  0.00000000000E+00 0.  1.
         -2   -1    0    0    0  501 -0.00000000000E+00 -0.00000000000E+00 -0.74169979770E+01  0.74169979770E+01  0.00000000000E+00 0. -1.
         21    1    1    2  502  503  0.18132777568E+02  0.23766955703E+02  0.18753353256E+03  0.18990126814E+03  0.00000000000E+00 0.  1.
         21    1    1    2  503  501 -0.18132777568E+02 -0.23766955703E+02  0.29610249411E+02  0.42076509788E+02  0.00000000000E+00 0. -1.
</event>
<event>
 4    1  0.5576842E+002  0.2568845E+02  0.7546771E-02  0.1461247E+00
          2   -1    0    0  502    0  0.00000000000E+00  0.00000000000E+00  0.17057888730E+02  0.17057888730E+02  0.00000000000E+00 0.  1.
         -2   -1    0    0    0  501 -0.00000000000E+00 -0.00000000000E+00 -0.73778368813E+02  0.73778368813E+02  0.00000000000E+00 0. -1.
         21    1    1    2  502  503 -0.25671024069E+02  0.94591350422E+00  0.29634531384E+01  0.25858814427E+02  0.00000000000E+00 0.  1.
         21    1    1    2  503  501  0.25671024069E+02 -0.94591350422E+00 -0.59683933221E+02  0.64977443115E+02  0.00000000000E+00 0. -1.
</event>
<event>
 4    1  0.5576842E+002  0.2270723E+02  0.7546771E-02  0.1496208E+00
          2   -1    0    0  503    0  0.00000000000E+00  0.00000000000E+00  0.68251243698E+03  0.68251243698E+03  0.00000000000E+00 0.  1.
         -2   -1    0    0    0  501 -0.00000000000E+00 -0.00000000000E+00 -0.12422709216E+01  0.12422709216E+01  0.00000000000E+00 0. -1.
         21    1    1    2  502  501 -0.97404643025E+00 -0.22686330228E+02  0.12662342635E+03  0.12864334590E+03  0.00000000000E+00 0. -1.
         21    1    1    2  503  502  0.97404643025E+00  0.22686330228E+02  0.55464673971E+03  0.55511136200E+03  0.00000000000E+00 0.  1.
</event>
<event>
 4    1  0.5576842E+002  0.2060694E+02  0.7546771E-02  0.1524951E+00
          2   -1    0    0  503    0  0.00000000000E+00  0.00000000000E+00  0.89267924064E+02  0.89267924064E+02  0.00000000000E+00 0. -1.
         -2   -1    0    0    0  501 -0.00000000000E+00 -0.00000000000E+00 -0.85568707432E+01  0.85568707432E+01  0.00000000000E+00 0.  1.
         21    1    1    2  502  501  0.14029775713E+02  0.15093423695E+02  0.77608395334E+01  0.22019915432E+02  0.00000000000E+00 0.  1.
         21    1    1    2  503  502 -0.14029775713E+02 -0.15093423695E+02  0.72950213788E+02  0.75804879375E+02  0.00000000000E+00 0. -1.
</event>
<event>
 4    1  0.5576842E+002  0.2048670E+02  0.7546771E-02  0.1526721E+00
          2   -1    0    0  502    0  0.00000000000E+00  0.00000000000E+00  0.11598717078E+04  0.11598717078E+04  0.00000000000E+00 0.  1.
         -2   -1    0    0    0  501 -0.00000000000E+00 -0.00000000000E+00 -0.41148140113E+00  0.41148140113E+00  0.00000000000E+00 0. -1.
         21    1    1    2  502  503 -0.18674751967E+02 -0.84236828258E+01  0.78120340920E+03  0.78147199011E+03  0.00000000000E+00 0.  1.
         21    1    1    2  503  501  0.18674751967E+02  0.84236828258E+01  0.37825681724E+03  0.37881119912E+03  0.00000000000E+00 0. -1.
</event>
<event>
 4    1  0.5576842E+002  0.3188920E+02  0.7546771E-02  0.1403860E+00
          2   -1    0    0  503    0  0.00000000000E+00  0.00000000000E+00  0.45299300745E+02  0.45299300745E+02  0.00000000000E+00 0.  1.
         -2   -1    0    0    0  501 -0.00000000000E+00 -0.00000000000E+00 -0.51386487307E+02  0.51386487307E+02  0.00000000000E+00 0. -1.
         21    1    1    2  502  501  0.10181547439E+02  0.30220144693E+02 -0.39321237525E+02  0.50626877980E+02  0.00000000000E+00 0. -1.
         21    1    1    2  503  502 -0.10181547439E+02 -0.30220144693E+02  0.33234050964E+02  0.46058910072E+02  0.00000000000E+00 0.  1.
</event>
<event>
 4    1  0.5576842E+002  0.4568714E+02  0.7546771E-02  0.1318039E+00
          2   -1    0    0  503    0  0.00000000000E+00  0.00000000000E+00  0.45627756156E+03  0.45627756156E+03  0.00000000000E+00 0. -1.
         -2   -1    0    0    0  501 -0.00000000000E+00 -0.00000000000E+00 -0.74655154498E+01  0.74655154498E+01  0.00000000000E+00 0.  1.
         21    1    1    2  502  501 -0.19294402554E+02 -0.41413048896E+02  0.80117844034E+02  0.92228973330E+02  0.00000000000E+00 0.  1.
         21    1    1    2  503  502  0.19294402554E+02  0.41413048896E+02  0.36869420207E+03  0.37151410368E+03  0.00000000000E+00 0. -1.
</event>
<event>
 4    1  0.5576842E+002  0.2197399E+02  0.7546771E-02  0.1505800E+00
          2   -1    0    0  502    0  0.00000000000E+00  0.00000000000E+00  0.16987591636E+01  0.16987591636E+01  0.00000000000E+00 0.  1.
         -2   -1    0    0    0  501 -0.00000000000E+00 -0.00000000000E+00 -0.38536056065E+03  0.38536056065E+03  0.00000000000E+00 0. -1.
         21    1    1    2  502  503  0.20213620880E+02  0.86177594261E+01 -0.92694660419E+02  0.95263614863E+02  0.00000000000E+00 0.  1.
         21    1    1    2  503  501 -0.20213620880E+02 -0.86177594261E+01 -0.29096714107E+03  0.29179570495E+03  0.00000000000E+00 0. -1.
</event>
<event>
 4    1  0.5576842E+002  0.2973572E+02  0.7546771E-02  0.1421907E+00
          2   -1    0    0  502    0  0.00000000000E+00  0.00000000000E+00  0.95334694735E+03  0.95334694735E+03  0.00000000000E+00 0.  1.
         -2   -1    0    0    0  501 -0.00000000000E+00 -0.00000000000E+00 -0.36437283751E+01  0.36437283751E+01  0.00000000000E+00 0. -1.
         21    1    1    2  502  503  0.63082501600E+01 -0.29058887099E+02  0.88798398063E+03  0.88848171776E+03  0.00000000000E+00 0.  1.
         21    1    1    2  503  501 -0.63082501600E+01  0.29058887099E+02  0.61719238346E+02  0.68508957965E+02  0.00000000000E+00 0. -1.
</event>
<event>
 4    1  0.5576842E+002  0.2653999E+02  0.7546771E-02  0.1452285E+00
          2   -1    0    0  503    0  0.00000000000E+00  0.00000000000E+00  0.77911926899E+03  0.77911926899E+03  0.00000000000E+00 0.  1.
         -2   -1    0    0    0  501 -0.00000000000E+00 -0.00000000000E+00 -0.10313533772E+01  0.10313533772E+01  0.00000000000E+00 0. -1.
         21    1    1    2  502  501 -0.24730421631E+02 -0.96320906413E+01  0.52608379594E+03  0.52675281800E+03  0.00000000000E+00 0.  1.
         21    1    1    2  503  502  0.24730421631E+02  0.96320906413E+01  0.25200411968E+03  0.25339780437E+03  0.00000000000E+00 0. -1.
</event>
<event>
 4    1  0.5576842E+002  0.2137594E+02  0.7546771E-02  0.1513965E+00
          2   -1    0    0  502    0  0.00000000000E+00  0.00000000000E+00  0.11304801684E+04  0.11304801684E+04  0.00000000000E+00 0. -1.
         -2   -1    0    0    0  501 -0.00000000000E+00 -0.00000000000E+00 -0.78478767612E+00  0.78478767612E+00  0.00000000000E+00 0.  1.
         21    1    1    2  502  503 -0.21374121728E+02  0.27882029837E+00  0.95875159601E+03  0.95898986109E+03  0.00000000000E+00 0. -1.
         21    1    1    2  503  501  0.21374121728E+02 -0.27882029837E+00  0.17094378471E+03  0.17227509498E+03  0.00000000000E+00 0.  1.
</event>
<event>
 4    1  0.5576842E+002  0.3543450E+02  0.7546771E-02  0.1377534E+00
          2   -1    0    0  503    0  0.00000000000E+00  0.00000000000E+00  0.15998733769E+04  0.15998733769E+04  0.00000000000E+00 0. -1.
         -2   -1    0    0    0  501 -0.00000000000E+00 -0.00000000000E+00 -0.11308492055E+01  0.11308492055E+01  0.00000000000E+00 0.  1.
         21    1    1    2  502  501 -0.13586174207E+02 -0.32726438318E+02  0.35655869880E+03  0.35831509819E+03  0.00000000000E+00 0.  1.
         21    1    1    2  503  502  0.13586174207E+02  0.32726438318E+02  0.12421838289E+04  0.12426891280E+04  0.00000000000E+00 0. -1.
</event>
<event>
 4    1  0.5576842E+002  0.4042513E+02  0.7546771E-02  0.1346012E+00
          2   -1    0    0  502    0  0.00000000000E+00  0.00000000000E+00  0.12614106550E+02  0.12614106550E+02  0.00000000000E+00 0.  1.
         -2   -1    0    0    0  501 -0.00000000000E+00 -0.00000000000E+00 -0.41503316749E+03  0.41503316749E+03  0.00000000000E+00 0. -1.
         21    1    1    2  502  503 -0.40423263119E+02 -0.38874559064E+00 -0.23871237424E+02  0.46947069136E+02  0.00000000000E+00 0.  1.
         21    1    1    2  503  501  0.40423263119E+02  0.38874559064E+00 -0.37854782352E+03  0.38070020490E+03  0.00000000000E+00 0. -1.
</event>
<event>
 4    1  0.5576842E+002  0.3370043E+02  0.7546771E-02  0.1389937E+00
          2   -1    0    0  502    0  0.00000000000E+00  0.00000000000E+00  0.39345117610E+03  0.39345117610E+03  0.00000000000E+00 0.  1.
         -2   -1    0    0    0  501 -0.00000000000E+00 -0.00000000000E+00 -0.30038019468E+01  0.30038019468E+01  0.00000000000E+00 0. -1.
         21    1    1    2  502  503 -0.31194139307E+02  0.12753219740E+02  0.23438675792E+03  0.23679710984E+03  0.00000000000E+00 0.  1.
         21    1    1    2  503  501  0.31194139307E+02 -0.12753219740E+02  0.15606061623E+03  0.15965786820E+03  0.00000000000E+00 0. -1.
</event>
<event>
 4    1  0.5576842E+002  0.2001732E+02  0.7546771E-02  0.1533771E+00
          2   -1    0    0  502    0  0.00000000000E+00  0.00000000000E+00  0.11240739400E+02  0.11240739400E+02  0.00000000000E+00 0.  1.
         -2   -1    0    0    0  501 -0.00000000000E+00 -0.00000000000E+00 -0.23159624809E+03  0.23159624809E+03  0.00000000000E+00 0. -1.
         21    1    1    2  502  503 -0.19827732986E+02  0.27484864107E+01  0.15063641131E+01  0.20073921035E+02  0.00000000000E+00 0.  1.
         21    1    1    2  503  501  0.19827732986E+02 -0.27484864107E+01 -0.22186187280E+03  0.22276306645E+03  0.00000000000E+00 0. -1.
</event>
<event>
 4    1  0.5576842E+002  0.2888229E+02  0.7546771E-02  0.1429564E+00
          2   -1    0    0  503    0  0.00000000000E+00  0.00000000000E+00  0.33591027579E+03  0.33591027579E+03  0.00000000000E+00 0. -1.
         -2   -1    0    0    0  501 -0.00000000000E+00 -0.00000000000E+00 -0.37903452493E+01  0.37903452493E+01  0.00000000000E+00 0.  1.
         21    1    1    2  502  501  0.28863287751E+02  0.10476565171E+01  0.66321680130E+02  0.72337764821E+02  0.00000000000E+00 0.  1.
         21    1    1    2  503  502 -0.28863287751E+02 -0.10476565171E+01  0.26579825041E+03  0.26736285622E+03  0.00000000000E+00 0. -1.
</event>
<event>
 4    1  0.5576842E+002  0.2047792E+02  0.7546771E-02  0.1526851E+00
          2   -1    0    0  503    0  0.00000000000E+00  0.00000000000E+00  0.10650038396E+04  0.10650038396E+04  0.00000000000E+00 0.  1.
         -2   -1    0    0    0  501 -0.00000000000E+00 -0.00000000000E+00 -0.49069385691E+01  0.49069385691E+01  0.00000000000E+00 0. -1.
         21    1    1    2  502  501  0.39163025096E+01  0.20099941521E+02  0.17005169134E+02  0.26618054996E+02  0.00000000000E+00 0. -1.
         21    1    1    2  503  502 -0.39163025096E+01 -0.20099941521E+02  0.10430917319E+04  0.10432927232E+04  0.00000000000E+00 0.  1.
</event>
<event>
 4    1  0.5576842E+002  0.2058521E+02  0.7546771E-02  0.1525270E+00
          2   -1    0    0  502    0  0.00000000000E+00  0.00000000000E+00  0.11218526177E+03  0.11218526177E+03  0.00000000000E+00 0.  1.
         -2   -1    0    0    0  501 -0.00000000000E+00 -0.00000000000E+00 -0.18929221529E+02  0.18929221529E+02  0.00000000000E+00 0. -1.
         21    1    1    2  502  503 -0.17534197146E+02  0.10784371604E+02  0.10528085406E+03  0.10727445629E+03  0.00000000000E+00 0.  1.
         21    1    1    2  503  501  0.17534197146E+02 -0.10784371604E+02 -0.12024813820E+02  0.23840027010E+02  0.00000000000E+00 0. -1.
</event>
<event>
 4    1  0.5576842E+002  0.3494061E+02  0.7546771E-02  0.1380981E+00
          2   -1    0    0  503    0  0.00000000000E+00  0.00000000000E+00  0.18557401757E+01  0.18557401757E+01  0.00000000000E+00 0.  1.
         -2   -1    0    0    0  501 -0.00000000000E+00 -0.00000000000E+00 -0.96220385461E+03  0.96220385461E+03  0.00000000000E+00 0. -1.
         21    1    1    2  502  501  0.25000239236E+02  0.24409714759E+02 -0.75126280681E+03  0.75207489722E+03  0.00000000000E+00 0. -1.
         21    1    1    2  503  502 -0.25000239236E+02 -0.24409714759E+02 -0.20908530762E+03  0.21198469756E+03  0.00000000000E+00 0.  1.
</event>
<event>
 4    1  0.5576842E+002  0.2418982E+02  0.7546771E-02  0.1478075E+00
          2   -1    0    0  502    0  0.00000000000E+00  0.00000000000E+00  0.34420530580E+01  0.34420530580E+01  0.00000000000E+00 0. -1.
         -2   -1    0    0    0  501 -0.00000000000E+00 -0.00000000000E+00 -0.22397536878E+03  0.22397536878E+03  0.00000000000E+00 0.  1.
         21    1    1    2  502  503  0.24147340667E+02 -0.14329519949E+01 -0.54446212971E+02  0.59577995263E+02  0.00000000000E+00 0. -1.
         21    1    1    2  503  501 -0.24147340667E+02  0.14329519949E+01 -0.16608710276E+03  0.16783942658E+03  0.00000000000E+00 0.  1.
</event>
<event>
 4    1  0.5576842E+002  0.2222558E+02  0.7546771E-02  0.1502458E+00
          2   -1    0    0  502    0  0.00000000000E+00  0.00000000000E+00  0.60397791273E+01  0.60397791273E+01  0.00000000000E+00 0.  1.
         -2   -1    0    0    0  501 -0.00000000000E+00 -0.00000000000E+00 -0.89178839583E+02  0.89178839583E+02  0.00000000000E+00 0. -1.
         21    1    1    2  502  503 -0.55976042510E+00  0.22218534687E+02 -0.27862877691E+02  0.35641500650E+02  0.00000000000E+00 0. -1.
         21    1    1    2  503  501  0.55976042510E+00 -0.22218534687E+02 -0.55276182765E+02  0.59577118061E+02  0.00000000000E+00 0.  1.
</event>
<event>
 4    1  0.5576842E+002  0.2387483E+02  0.7546771E-02  0.1481796E+00
          2   -1    0    0  502    0  0.00000000000E+00  0.00000000000E+00  0.19391576306E+03  0.19391576306E+03  0.00000000000E+00 0. -1.
         -2   -1    0    0    0  501 -0.00000000000E+00 -0.00000000000E+00 -0.56779837909E+01  0.56779837909E+01  0.00000000000E+00 0.  1.
         21    1    1    2  502  503  0.12516550743E+02  0.20330844516E+02  0.16342607505E+03  0.16516079827E+03  0.00000000000E+00 0. -1.
         21    1    1    2  503  501 -0.12516550743E+02 -0.20330844516E+02  0.24811704219E+02  0.34432948574E+02  0.00000000000E+00 0.  1.
</event>
<event>
 4    1  0.5576842E+002  0.2176211E+02  0.7546771E-02  0.1508656E+00
          2   -1    0    0  503    0  0.00000000000E+00  0.00000000000E+00  0.32713304511E+03  0.32713304511E+03  0.00000000000E+00 0.  1.
         -2   -1    0    0    0  501 -0.00000000000E+00 -0.00000000000E+00 -0.53672425829E+01  0.53672425829E+01  0.00000000000E+00 0. -1.
         21    1    1    2  502  501 -0.20203035530E+02  0.80886892907E+01  0.18812281384E+02  0.28766151462E+02  0.00000000000E+00 0. -1.
         21    1    1    2  503  502  0.20203035530E+02 -0.80886892907E+01  0.30295352114E+03  0.30373413623E+03  0.00000000000E+00 0.  1.
</event>
<event>
 4    1  0.5576842E+002  0.2542610E+02  0.7546771E-02  0.1464093E+00
          2   -1    0    0  503    0  0.00000000000E+00  0.00000000000E+00  0.10125146501E+04  0.10125146501E+04  0.00000000000E+00 0. -1.
         -2   -1    0    0    0  501 -0.00000000000E+00 -0.00000000000E+00 -0.80868225330E+00  0.80868225330E+00  0.00000000000E+00 0.  1.
         21    1    1    2  502  501 -0.12294269863E+02 -0.22256181894E+02  0.27342354147E+03  0.27460320416E+03  0.00000000000E+00 0.  1.
         21    1    1    2  503  502  0.12294269863E+02  0.22256181894E+02  0.73828242639E+03  0.73872012821E+03  0.00000000000E+00 0. -1.
</event>
<event>
 4    1  0.5576842E+002  0.2677815E+02  0.7546771E-02  0.1449849E+00
          2   -1    0    0  503    0  0.00000000000E+00  0.00000000000E+00  0.15991491751E+03  0.15991491751E+03  0.00000000000E+00 0. -1.
         -2   -1    0    0    0  501 -0.00000000000E+00 -0.00000000000E+00 -0.62449398572E+01  0.62449398572E+01  0.00000000000E+00 0.  1.
         21    1    1    2  502  501  0.41779939542E+01 -0.26450212645E+02  0.32719017351E+02  0.42280060062E+02  0.00000000000E+00 0. -1.
         21    1    1    2  503  502 -0.41779939542E+01  0.26450212645E+02  0.12095096030E+03  0.12387979730E+03  0.00000000000E+00 0.  1.
</event>
<event>
 4    1  0.5576842E+002  0.2124330E+02  0.7546771E-02  0.1515819E+00
          2   -1    0    0  503    0  0.00000000000E+00  0.00000000000E+00  0.89518367751E+01  0.89518367751E+01  0.00000000000E+00 0.  1.
         -2   -1    0    0    0  501 -0.00000000000E+00 -0.00000000000E+00 -0.78596513520E+02  0.78596513520E+02  0.00000000000E+00 0. -1.
         21    1    1    2  502  501 -0.21109967049E+02  0.23763771551E+01 -0.61035742633E+02  0.64626927484E+02  0.00000000000E+00 0. -1.
         21    1    1    2  503  502  0.21109967049E+02 -0.23763771551E+01 -0.86089341117E+01  0.22921422812E+02  0.00000000000E+00 0.  1.
</event>
<event>
 4    1  0.5576842E+002  0.2208041E+02  0.7546771E-02  0.1504380E+00
          2   -1    0    0  502    0  0.00000000000E+00  0.00000000000E+00  0.29359870958E+03  0.29359870958E+03  0.00000000000E+00 0.  1.
         -2   -1    0    0    0  501 -0.00000000000E+00 -0.00000000000E+00 -0.16989755952E+01  0.16989755952E+01  0.00000000000E+00 0. -1.
         21    1    1    2  502  503  0.17262646613E+02 -0.13767557886E+02  0.16814552712E+03  0.16958910020E+03  0.00000000000E+00 0. -1.
         21    1    1    2  503  501 -0.17262646613E+02  0.13767557886E+02  0.12375420687E+03  0.12570858498E+03  0.00000000000E+00 0.  1.
</event>
<event>
 4    1  0.5576842E+002  0.2832645E+02  0.7546771E-02  0.1434720E+00
          2   -1    0    0  503    0  0.00000000000E+00  0.00000000000E+00  0.15775161597E+04  0.15775161597E+04  0.00000000000E+00 0. -1.
         -2   -1    0    0    0  501 -0.00000000000E+00 -0.00000000000E+00 -0.17192754942E+01  0.17192754942E+01  0.00000000000E+00 0.  1.
         21    1    1    2  502  501 -0.56331763562E+01 -0.27760675829E+02  0.12529932659E+03  0.12846131341E+03  0.00000000000E+00 0.  1.
         21    1    1    2  503  502  0.56331763562E+01  0.27760675829E+02  0.14504975576E+04  0.14507741218E+04  0.00000000000E+00 0. -1.
</event>
<event>
 4    1  0.5576842E+002  0.2472674E+02  0.7546771E-02  0.1471884E+00
          2   -1    0    0  502    0  0.00000000000E+00  0.00000000000E+00  0.94190284767E+03  0.94190284767E+03  0.00000000000E+00 0.  1.
         -2   -1    0    0    0  501 -0.00000000000E+00 -0.00000000000E+00 -0.43738109249E+01  0.43738109249E+01  0.00000000000E+00 0. -1.
         21    1    1    2  502  503 -0.79302492884E+00  0.24714018384E+02  0.90538391589E+03  0.90572150617E+03  0.00000000000E+00 0.  1.
         21    1    1    2  503  501  0.79302492884E+00 -0.24714018384E+02  0.32145120863E+02  0.40555152429E+02  0.00000000000E+00 0. -1.
</event>
<event>
 4    1  0.5576842E+002  0.2145046E+02  0.7546771E-02  0.1512930E+00
          2   -1    0    0  503    0  0.00000000000E+00  0.00000000000E+00  0.22742732472E+02  0.22742732472E+02  0.00000000000E+00 0.  1.
         -2   -1    0    0    0  501 -0.00000000000E+00 -0.00000000000E+00 -0.24992419893E+02  0.24992419893E+02  0.00000000000E+00 0. -1.
         21    1    1    2  502  501  0.17062713178E+02  0.12999471234E+02 -0.11541873395E+02  0.24358515448E+02  0.00000000000E+00 0. -1.
         21    1    1    2  503  502 -0.17062713178E+02 -0.12999471234E+02  0.92921859743E+01  0.23376636917E+02  0.00000000000E+00 0.  1.
</event>
<event>
 4    1  0.5576842E+002  0.2772254E+02  0.7546771E-02  0.1440482E+00
          2   -1    0    0  502    0  0.00000000000E+00  0.00000000000E+00  0.89422993449E+03  0.89422993449E+03  0.00000000000E+00 0. -1.
         -2   -1    0    0    0  501 -0.00000000000E+00 -0.00000000000E+00 -0.88072045634E+00  0.88072045634E+00  0.00000000000E+00 0.  1.
         21    1    1    2  502  503 -0.12890806874E+02 -0.24543148635E+02  0.51624020361E+03  0.51698402961E+03  0.00000000000E+00 0.  1.
         21    1    1    2  503  501  0.12890806874E+02  0.24543148635E+02  0.37710901043E+03  0.37812662534E+03  0.00000000000E+00 0. -1.
</event>
<event>
 4    1  0.5576842E+002  0.4076744E+02  0.7546771E-02  0.1344046E+00
          2   -1    0    0  503    0  0.00000000000E+00  0.00000000000E+00  0.18160376563E+02  0.18160376563E+02  0.00000000000E+00 0.  1.
         -2   -1    0    0    0  501 -0.00000000000E+00 -0.00000000000E+00 -0.18681205884E+03  0.18681205884E+03  0.00000000000E+00 0. -1.
         21    1    1    2  502  501 -0.40320673865E+02  0.60189333252E+01 -0.15752364704E+03  0.16271350182E+03  0.00000000000E+00 0. -1.
         21    1    1    2  503  502  0.40320673865E+02 -0.60189333252E+01 -0.11128035244E+02  0.42258933585E+02  0.00000000000E+00 0.  1.
</event>
<event>
 4    1  0.5576842E+002  0.2005333E+02  0.7546771E-02  0.1533222E+00
          2   -1    0    0  502    0  0.00000000000E+00  0.00000000000E+00  0.60904545353E+03  0.60904545353E+03  0.00000000000E+00 0.  1.
         -2   -1    0    0    0  501 -0.00000000000E+00 -0.00000000000E+00 -0.13773961610E+01  0.13773961610E+01  0.00000000000E+00 0. -1.
         21    1    1    2  502  503 -0.11437692051E+02  0.16471652720E+02  0.52405987592E+03  0.52444340943E+03  0.00000000000E+00 0.  1.
         21    1    1    2  503  501  0.11437692051E+02 -0.16471652720E+02  0.83608181443E+02  0.85979440257E+02  0.00000000000E+00 0. -1.
</event>
<event>
 4    1  0.5576842E+002  0.2082413E+02  0.7546771E-02  0.1521791E+00
          2   -1    0    0  503    0  0.00000000000E+00  0.00000000000E+00  0.18589592019E+04  0.18589592019E+04  0.00000000000E+00 0.  1.
         -2   -1    0    0    0  501 -0.00000000000E+00 -0.00000000000E+00 -0.28597785022E+00  0.28597785022E+00  0.00000000000E+00 0. -1.
         21    1    1    2  502  501 -0.13344883436E+02  0.15986202317E+02  0.53025044598E+03  0.53065919388E+03  0.00000000000E+00 0. -1.
         21    1    1    2  503  502  0.13344883436E+02 -0.15986202317E+02  0.13284227780E+04  0.13285859858E+04  0.00000000000E+00 0.  1.
</event>
<event>
 4    1  0.5576842E+002  0.2124490E+02  0.7546771E-02  0.1515797E+00
          2   -1    0    0  502    0  0.00000000000E+00  0.00000000000E+00  0.50086496296E+03  0.50086496296E+03  0.00000000000E+00 0. -1.
         -2   -1    0    0    0  501 -0.00000000000E+00 -0.00000000000E+00 -0.26372229819E+01  0.26372229819E+01  0.00000000000E+00 0.  1.
         21    1    1    2  502  503 -0.20869391250E+02 -0.39767162322E+01  0.45337423336E+03  0.45387172333E+03  0.00000000000E+00 0. -1.
         21    1    1    2  503  501  0.20869391250E+02  0.39767162322E+01  0.44853506610E+02  0.49630462605E+02  0.00000000000E+00 0.  1.
</event>
<event>
 4    1  0.5576842E+002  0.4944870E+02  0.7546771E-02  0.1300581E+00
          2   -1    0    0  502    0  0.00000000000E+00  0.00000000000E+00  0.10365629999E+03  0.10365629999E+03  0.00000000000E+00 0.  1.
         -2   -1    0    0    0  501 -0.00000000000E+00 -0.00000000000E+00 -0.70600426028E+02  0.70600426028E+02  0.00000000000E+00 0. -1.
         21    1    1    2  502  503  0.14765376005E+02  0.47192768640E+02  0.87625788917E+02  0.10061536972E+03  0.00000000000E+00 0.  1.
         21    1    1    2  503  501 -0.14765376005E+02 -0.47192768640E+02 -0.54569914950E+02  0.73641356303E+02  0.00000000000E+00 0. -1.
</event>
<event>
 4    1  0.5576842E+002  0.2544121E+02  0.7546771E-02  0.1463928E+00
          2   -1    0    0  502    0  0.00000000000E+00  0.00000000000E+00  0.13544806058E+03  0.13544806058E+03  0.00000000000E+00 0.  1.
         -2   -1    0    0    0  501 -0.00000000000E+00 -0.00000000000E+00 -0.90491904222E+01  0.90491904222E+01  0.00000000000E+00 0. -1.
         21    1    1    2  502  503  0.86036936916E+01  0.23942257385E+02  0.11283209046E+03  0.11566475640E+03  0.00000000000E+00 0.  1.
         21    1    1    2  503  501 -0.86036936916E+01 -0.23942257385E+02  0.13566779692E+02  0.28832494603E+02  0.00000000000E+00 0. -1.
</event>
<event>
 4    1  0.5576842E+002  0.2375260E+02  0.7546771E-02  0.1483258E+00
          2   -1    0    0  503    0  0.00000000000E+00  0.00000000000E+00  0.16462658313E+03  0.16462658313E+03  0.00000000000E+00 0. -1.
         -2   -1    0    0    0  501 -0.00000000000E+00 -0.00000000000E+00 -0.57031819751E+01  0.57031819751E+01  0.00000000000E+00 0.  1.
         21    1    1    2  502  501  0.22950904925E+02  0.61190022629E+01  0.25659616843E+02  0.34965728394E+02  0.00000000000E+00 0.  1.
         21    1    1    2  503  502 -0.22950904925E+02 -0.61190022629E+01  0.13326378431E+03  0.13536403671E+03  0.00000000000E+00 0. -1.
</event>
<event>
 4    1  0.5576842E+002  0.2399947E+02  0.7546771E-02  0.1480315E+00
          2   -1    0    0  502    0  0.00000000000E+00  0.00000000000E+00  0.49177741793E+03  0.49177741793E+03  0.00000000000E+00 0. -1.
         -2   -1    0    0    0  501 -0.00000000000E+00 -0.00000000000E+00 -0.13975962639E+01  0.13975962639E+01  0.00000000000E+00 0.  1.
         21    1    1    2  502  503 -0.23779711280E+02 -0.32403528751E+01  0.34443416807E+03  0.34526927273E+03  0.00000000000E+00 0. -1.
         21    1    1    2  503  501  0.23779711280E+02  0.32403528751E+01  0.14594565360E+03  0.14790574147E+03  0.00000000000E+00 0.  1.
</event>
<event>
 4    1  0.5576842E+002  0.2714931E+02  0.7546771E-02  0.1446114E+00
          2   -1    0    0  502    0  0.00000000000E+00  0.00000000000E+00  0.99354022270E+02  0.99354022270E+02  0.00000000000E+00 0.  1.
         -2   -1    0    0    0  501 -0.00000000000E+00 -0.00000000000E+00 -0.17135456940E+02  0.17135456940E+02  0.00000000000E+00 0. -1.
         21    1    1    2  502  503  0.24184019244E+02  0.12337673956E+02  0.84969208253E+02  0.89201184614E+02  0.00000000000E+00 0.  1.
         21    1    1    2  503  501 -0.24184019244E+02 -0.12337673956E+02 -0.27506429230E+01  0.27288294595E+02  0.00000000000E+00 0. -1.
</event>
<event>
 4    1  0.5576842E+002  0.3276955E+02  0.7546771E-02  0.1396961E+00
          2   -1    0    0  503    0  0.00000000000E+00  0.00000000000E+00  0.25218144548E+02  0.25218144548E+02  0.00000000000E+00 0. -1.
         -2   -1    0    0    0  501 -0.00000000000E+00 -0.00000000000E+00 -0.61362700932E+02  0.61362700932E+02  0.00000000000E+00 0.  1.
         21    1    1    2  502  501  0.18914668216E+02 -0.26759652196E+02 -0.42021608272E+02  0.53288452982E+02  0.00000000000E+00 0.  1.
         21    1    1    2  503  502 -0.18914668216E+02  0.26759652196E+02  0.58770518880E+01  0.33292392499E+02  0.00000000000E+00 0. -1.
</event>
<event>
 4    1  0.5576842E+002  0.3073388E+02  0.7546771E-02  0.1413324E+00
          2   -1    0    0  502    0  0.00000000000E+00  0.00000000000E+00  0.10118566209E+03  0.10118566209E+03  0.00000000000E+00 0. -1.
         -2   -1    0    0    0  501 -0.00000000000E+00 -0.00000000000E+00 -0.93476133780E+01  0.93476133780E+01  0.00000000000E+00 0.  1.
         21    1    1    2  502  503 -0.21935963331E+01 -0.30655498019E+02  0.47946574714E+02  0.56951255038E+02  0.00000000000E+00 0.  1.
         21    1    1    2  503  501  0.21935963331E+01  0.30655498019E+02  0.43891474002E+02  0.53582020433E+02  0.00000000000E+00 0. -1.
</event>
<event>
 4    1  0.5576842E+002  0.5630739E+02  0.7546771E-02  0.1272923E+00
          2   -1    0    0  503    0  0.00000000000E+00  0.00000000000E+00  0.19739819956E+03  0.19739819956E+03  0.00000000000E+00 0.  1.
         -2   -1    0    0    0  501 -0.00000000000E+00 -0.00000000000E+00 -0.25832544116E+02  0.25832544116E+02  0.00000000000E+00 0. -1.
         21    1    1    2  502  501 -0.22801833882E+02 -0.51483961562E+02  0.17137703071E+02  0.58857648552E+02  0.00000000000E+00 0.  1.
         21    1    1    2  503  502  0.22801833882E+02  0.51483961562E+02  0.15442795238E+03  0.16437309513E+03  0.00000000000E+00 0. -1.
</event>
<event>
 4    1  0.5576842E+002  0.3774801E+02  0.7546771E-02  0.1362213E+00
          2   -1    0    0  503    0  0.00000000000E+00  0.00000000000E+00  0.25323699803E+02  0.25323699803E+02  0.00000000000E+00 0. -1.
         -2   -1    0    0    0  501 -0.00000000000E+00 -0.00000000000E+00 -0.24094871348E+03  0.24094871348E+03  0.00000000000E+00 0.  1.
         21    1    1    2  502  501  0.37736882675E+02 -0.91639642294E+00 -0.22437121631E+03  0.22752440486E+03  0.00000000000E+00 0.  1.
         21    1    1    2  503  502 -0.37736882675E+02  0.91639642294E+00  0.87462026351E+01  0.38748008426E+02  0.00000000000E+00 0. -1.
</event>
<event>
 4    1  0.5576842E+002  0.2269379E+02  0.7546771E-02  0.1496379E+00
          2   -1    0    0  502    0  0.00000000000E+00  0.00000000000E+00  0.81338010011E+03  0.81338010011E+03  0.00000000000E+00 0.  1.
         -2   -1    0    0    0  501 -0.00000000000E+00 -0.00000000000E+00 -0.74422086828E+00  0.74422086828E+00  0.00000000000E+00 0. -1.
         21    1    1    2  502  503  0.20527816339E+02  0.96755763029E+01  0.56356062363E+03  0.56401736190E+03  0.00000000000E+00 0.  1.
         21    1    1    2  503  501 -0.20527816339E+02 -0.96755763029E+01  0.24907525562E+03  0.25010695908E+03  0.00000000000E+00 0. -1.
</event>
<event>
 4    1  0.5576842E+002  0.2523876E+02  0.7546771E-02  0.1466150E+00
          2   -1    0    0  502    0  0.00000000000E+00  0.00000000000E+00  0.75232965085E+03  0.75232965085E+03  0.00000000000E+00 0.  1.
         -2   -1    0    0    0  501 -0.00000000000E+00 -0.00000000000E+00 -0.92403812368E+01  0.92403812368E+01  0.00000000000E+00 0. -1.
         21    1    1    2  502  503  0.14470023521E+02  0.20678812594E+02  0.73446491100E+03  0.73489842860E+03  0.00000000000E+00 0.  1.
         21    1    1    2  503  501 -0.14470023521E+02 -0.20678812594E+02  0.86243586137E+01  0.26671603486E+02  0.00000000000E+00 0. -1.
</event>
<event>
 4    1  0.5576842E+002  0.2666812E+02  0.7546771E-02  0.1450971E+00
          2   -1    0    0  503    0  0.00000000000E+00  0.00000000000E+00  0.63675088166E+03  0.63675088166E+03  0.00000000000E+00 0. -1.
         -2   -1    0    0    0  501 -0.00000000000E+00 -0.00000000000E+00 -0.24222199872E+01  0.24222199872E+01  0.00000000000E+00 0.  1.
         21    1    1    2  502  501  0.26338841700E+02 -0.41777800902E+01  0.82557939540E+02  0.86758295336E+02  0.00000000000E+00 0.  1.
         21    1    1    2  503  502 -0.26338841700E+02  0.41777800902E+01  0.55177072213E+03  0.55241480631E+03  0.00000000000E+00 0. -1.
</event>
<event>
 4    1  0.5576842E+002  0.1088441E+03  0.7546771E-02  0.1149306E+00
          2   -1    0    0  503    0  0.00000000000E+00  0.00000000000E+00  0.12148879473E+04  0.12148879473E+04  0.00000000000E+00 0. -1.
         -2   -1    0    0    0  501 -0.00000000000E+00 -0.00000000000E+00 -0.13333290944E+02  0.13333290944E+02  0.00000000000E+00 0.  1.
         21    1    1    2  502  501  0.61453351022E+02  0.89836099202E+02  0.28248579262E+03  0.30272968488E+03  0.00000000000E+00 0.  1.
         21    1    1    2  503  502 -0.61453351022E+02 -0.89836099202E+02  0.91906886373E+03  0.92549155337E+03  0.00000000000E+00 0. -1.
</event>
<event>
 4    1  0.5576842E+002  0.2573252E+02  0.7546771E-02  0.1460773E+00
          2   -1    0    0  502    0  0.00000000000E+00  0.00000000000E+00  0.46677098279E+02  0.46677098279E+02  0.00000000000E+00 0. -1.
         -2   -1    0    0    0  501 -0.00000000000E+00 -0.00000000000E+00 -0.85527343656E+02  0.85527343656E+02  0.00000000000E+00 0.  1.
         21    1    1    2  502  503 -0.13232188228E+01  0.25698476238E+02  0.40946676533E+02  0.48361068104E+02  0.00000000000E+00 0. -1.
         21    1    1    2  503  501  0.13232188228E+01 -0.25698476238E+02 -0.79796921911E+02  0.83843373831E+02  0.00000000000E+00 0.  1.
</event>
<event>
 4    1  0.5576842E+002  0.2165537E+02  0.7546771E-02  0.1510110E+00
          2   -1    0    0  503    0  0.00000000000E+00  0.00000000000E+00  0.20057249407E+01  0.20057249407E+01  0.00000000000E+00 0. -1.
         -2   -1    0    0    0  501 -0.00000000000E+00 -0.00000000000E+00 -0.28022417227E+03  0.28022417227E+03  0.00000000000E+00 0.  1.
         21    1    1    2  502  501  0.16500911638E+02  0.14024084354E+02 -0.19654119762E+03  0.19773061824E+03  0.00000000000E+00 0.  1.
         21    1    1    2  503  502 -0.16500911638E+02 -0.14024084354E+02 -0.81677249709E+02  0.84499278972E+02  0.00000000000E+00 0. -1.
</event>
<event>
 4    1  0.5576842E+002  0.2027344E+02  0.7546771E-02  0.1529896E+00
          2   -1    0    0  502    0  0.00000000000E+00  0.00000000000E+00  0.83412811885E+02  0.83412811885E+02  0.00000000000E+00 0.  1.
         -2   -1    0    0    0  501 -0.00000000000E+00 -0.00000000000E+00 -0.16893238605E+02  0.16893238605E+02  0.00000000000E+00 0. -1.
         21    1    1    2  502  503 -0.10387134994E+01  0.20246816328E+02  0.75469395889E+02  0.78145007601E+02  0.00000000000E+00 0.  1.
         21    1    1    2  503  501  0.10387134994E+01 -0.20246816328E+02 -0.89498226096E+01  0.22161042888E+02  0.00000000000E+00 0. -1.
</event>
<event>
 4    1  0.5576842E+002  0.2265774E+02  0.7546771E-02  0.1496841E+00
          2   -1    0    0  502    0  0.00000000000E+00  0.00000000000E+00  0.86677155505E+03  0.86677155505E+03  0.00000000000E+00 0.  1.
         -2   -1    0    0    0  501 -0.00000000000E+00 -0.00000000000E+00 -0.70373598771E+00  0.70373598771E+00  0.00000000000E+00 0. -1.
         21    1    1    2  502  503 -0.52566902519E+01  0.22039517623E+02  0.26042222946E+03  0.26140602657E+03  0.00000000000E+00 0. -1.
         21    1    1    2  503  501  0.52566902519E+01 -0.22039517623E+02  0.60564558960E+03  0.60606926446E+03  0.00000000000E+00 0.  1.
</event>
<event>
 4    1  0.5576842E+002  0.7943350E+02  0.7546771E-02  0.1205169E+00
          2   -1    0    0  503    0  0.00000000000E+00  0.00000000000E+00  0.13094153961E+04  0.13094153961E+04  0.00000000000E+00 0. -1.
         -2   -1    0    0    0  501 -0.00000000000E+00 -0.00000000000E+00 -0.50627395957E+01  0.50627395957E+01  0.00000000000E+00 0.  1.
         21    1    1    2  502  501  0.58611624703E+02 -0.53613039567E+02  0.50787832492E+03  0.51405259797E+03  0.00000000000E+00 0.  1.
         21    1    1    2  503  502 -0.58611624703E+02  0.53613039567E+02  0.79647433161E+03  0.80042553774E+03  0.00000000000E+00 0. -1.
</event>
<event>
 4    1  0.5576842E+002  0.2317518E+02  0.7546771E-02  0.1490310E+00
          2   -1    0    0  503    0  0.00000000000E+00  0.00000000000E+00  0.26064872205E+04  0.26064872205E+04  0.00000000000E+00 0.  1.
         -2   -1    0    0    0  501 -0.00000000000E+00 -0.00000000000E+00 -0.20606053005E+00  0.20606053005E+00  0.00000000000E+00 0. -1.
         21    1    1    2  502  501  0.18539513093E+02  0.13905956830E+02  0.12991809829E+04  0.12993876694E+04  0.00000000000E+00 0. -1.
         21    1    1    2  503  502 -0.18539513093E+02 -0.13905956830E+02  0.13071001771E+04  0.13073056116E+04  0.00000000000E+00 0.  1.
</event>
<event>
 4    1  0.5576842E+002  0.2610090E+02  0.7546771E-02  0.1456855E+00
          2   -1    0    0  503    0  0.00000000000E+00  0.00000000000E+00  0.23864983747E+03  0.23864983747E+03  0.00000000000E+00 0.  1.
         -2   -1    0    0    0  501 -0.00000000000E+00 -0.00000000000E+00 -0.34069688055E+01  0.34069688055E+01  0.00000000000E+00 0. -1.
         21    1    1    2  502  501 -0.20294270880E+02  0.16413392715E+02  0.68890340632E+02  0.73669097479E+02  0.00000000000E+00 0. -1.
         21    1    1    2  503  502  0.20294270880E+02 -0.16413392715E+02  0.16635252803E+03  0.16838770879E+03  0.00000000000E+00 0.  1.
</event>
<event>
 4    1  0.5576842E+002  0.2167884E+02  0.7546771E-02  0.1509790E+00
          2   -1    0    0  502    0  0.00000000000E+00  0.00000000000E+00  0.12393209753E+04  0.12393209753E+04  0.00000000000E+00 0. -1.
         -2   -1    0    0    0  501 -0.00000000000E+00 -0.00000000000E+00 -0.14384957328E+01  0.14384957328E+01  0.00000000000E+00 0.  1.
         21    1    1    2  502  503 -0.38652311606E+01  0.21331476524E+02  0.11513048822E+04  0.11515089681E+04  0.00000000000E+00 0. -1.
         21    1    1    2  503  501  0.38652311606E+01 -0.21331476524E+02  0.86577597332E+02  0.89250502869E+02  0.00000000000E+00 0.  1.
</event>
<event>
 4    1  0.5576842E+002  0.2775677E+02  0.7546771E-02  0.1440151E+00
          2   -1    0    0  503    0  0.00000000000E+00  0.00000000000E+00  0.83695498937E+03  0.83695498937E+03  0.00000000000E+00 0. -1.
         -2   -1    0    0    0  501 -0.00000000000E+00 -0.00000000000E+00 -0.10700836834E+01  0.10700836834E+01  0.00000000000E+00 0.  1.
         21    1    1    2  502  501  0.24616701194E+02  0.12824056523E+02  0.26129503219E+03  0.26276516559E+03  0.00000000000E+00 0.  1.
         21    1    1    2  503  502 -0.24616701194E+02 -0.12824056523E+02  0.57458987350E+03  0.57525990746E+03  0.00000000000E+00 0. -1.
</event>
<event>
 4    1  0.5576842E+002  0.2333936E+02  0.7546771E-02  0.1488280E+00
          2   -1    0    0  502    0  0.00000000000E+00  0.00000000000E+00  0.81951144916E+03  0.81951144916E+03  0.00000000000E+00 0.  1.
         -2   -1    0    0    0  501 -0.00000000000E+00 -0.00000000000E+00 -0.83958638761E+01  0.83958638761E+01  0.00000000000E+00 0. -1.
         21    1    1    2  502  503 -0.17018935837E+02  0.15971271113E+02  0.80278738179E+03  0.80312658158E+03  0.00000000000E+00 0.  1.
         21    1    1    2  503  501  0.17018935837E+02 -0.15971271113E+02  0.83282034907E+01  0.24780731454E+02  0.00000000000E+00 0. -1.
</event>
<event>
 4    1  0.5576842E+002  0.2681057E+02  0.7546771E-02  0.1449520E+00
          2   -1    0    0  503    0  0.00000000000E+00  0.00000000000E+00  0.11383677668E+03  0.11383677668E+03  0.00000000000E+00 0.  1.
         -2   -1    0    0    0  501 -0.00000000000E+00 -0.00000000000E+00 -0.37874166436E+02  0.37874166436E+02  0.00000000000E+00 0. -1.
         21    1    1    2  502  501  0.20215549032E+02 -0.17610739885E+02 -0.31262754978E+02  0.41184541162E+02  0.00000000000E+00 0. -1.
         21    1    1    2  503  502 -0.20215549032E+02  0.17610739885E+02  0.10722536522E+03  0.11052640195E+03  0.00000000000E+00 0.  1.
</event>
<event>
 4    1  0.5576842E+002  0.3160503E+02  0.7546771E-02  0.1406143E+00
          2   -1    0    0  503    0  0.00000000000E+00  0.00000000000E+00  0.14437022207E+04  0.14437022207E+04  0.00000000000E+00 0. -1.
         -2   -1    0    0    0  501 -0.00000000000E+00 -0.00000000000E+00 -0.11507575294E+01  0.11507575294E+01  0.00000000000E+00 0.  1.
         21    1    1    2  502  501  0.60858851507E+01  0.31013541918E+02  0.26508425564E+03  0.26696168333E+03  0.00000000000E+00 0.  1.
         21    1    1    2  503  502 -0.60858851507E+01 -0.31013541918E+02  0.11774672076E+04  0.11778912949E+04  0.00000000000E+00 0. -1.
</event>
<event>
 4    1  0.5576842E+002  0.2664151E+02  0.7546771E-02  0.1451243E+00
          2   -1    0    0  503    0  0.00000000000E+00  0.00000000000E+00  0.50392810748E+03  0.50392810748E+03  0.00000000000E+00 0.  1.
         -2   -1    0    0    0  501 -0.00000000000E+00 -0.00000000000E+00 -0.15387444129E+01  0.15387444129E+01  0.00000000000E+00 0. -1.
         21    1    1    2  502  501  0.70954227844E+01  0.25679271362E+02  0.17765849102E+03  0.17964495382E+03  0.00000000000E+00 0.  1.
         21    1    1    2  503  502 -0.70954227844E+01 -0.25679271362E+02  0.32473087204E+03  0.32582189807E+03  0.00000000000E+00 0. -1.
</event>
<event>
 4    1  0.5576842E+002  0.2197685E+02  0.7546771E-02  0.1505762E+00
          2   -1    0    0  503    0  0.00000000000E+00  0.00000000000E+00  0.40373741145E+03  0.40373741145E+03  0.00000000000E+00 0. -1.
         -2   -1    0    0    0  501 -0.00000000000E+00 -0.00000000000E+00 -0.12991027618E+01  0.12991027618E+01  0.00000000000E+00 0.  1.
         21    1    1    2  502  501  0.95079791062E+01 -0.19813640772E+02  0.25819517306E+03  0.25912878925E+03  0.00000000000E+00 0. -1.
         21    1    1    2  503  502 -0.95079791062E+01  0.19813640772E+02  0.14424313562E+03  0.14590772496E+03  0.00000000000E+00 0.  1.
</event>
<event>
 4    1  0.5576842E+002  0.2951550E+02  0.7546771E-02  0.1423854E+00
          2   -1    0    0  503    0  0.00000000000E+00  0.00000000000E+00  0.40367934601E+02  0.40367934601E+02  0.00000000000E+00 0.  1.
         -2   -1    0    0    0  501 -0.00000000000E+00 -0.00000000000E+00 -0.25116801892E+02  0.25116801892E+02  0.00000000000E+00 0. -1.
         21    1    1    2  502  501  0.25282292071E+02  0.15230583969E+02 -0.46600042675E+01  0.29881108081E+02  0.00000000000E+00 0. -1.
         21    1    1    2  503  502 -0.25282292071E+02 -0.15230583969E+02  0.19911136977E+02  0.35603628412E+02  0.00000000000E+00 0.  1.
</event>
<event>
 4    1  0.5576842E+002  0.2438149E+02  0.7546771E-02  0.1475843E+00
          2   -1    0    0  502    0  0.00000000000E+00  0.00000000000E+00  0.98441270975E+01  0.98441270975E+01  0.00000000000E+00 0.  1.
         -2   -1    0    0    0  501 -0.00000000000E+00 -0.00000000000E+00 -0.64567166772E+02  0.64567166772E+02  0.00000000000E+00 0. -1.
         21    1    1    2  502  503 -0.21092456941E+02 -0.12229683549E+02 -0.17894747585E+02  0.30243658685E+02  0.00000000000E+00 0.  1.
         21    1    1    2  503  501  0.21092456941E+02  0.12229683549E+02 -0.36828292089E+02  0.44167635184E+02  0.00000000000E+00 0. -1.
</event>
<event>
 4    1  0.5576842E+002  0.3127381E+02  0.7546771E-02  0.1408841E+00
          2   -1    0    0  503    0  0.00000000000E+00  0.00000000000E+00  0.87043218276E+02  0.87043218276E+02  0.00000000000E+00 0.  1.
         -2   -1    0    0    0  501 -0.00000000000E+00 -0.00000000000E+00 -0.48132504136E+02  0.48132504136E+02  0.00000000000E+00 0. -1.
         21    1    1    2  502  501 -0.23281611911E+02 -0.20881043449E+02 -0.39719851554E+02  0.50554109983E+02  0.00000000000E+00 0. -1.
         21    1    1    2  503  502  0.23281611911E+02  0.20881043449E+02  0.78630565694E+02  0.84621612429E+02  0.00000000000E+00 0.  1.
</event>
<event>
 4    1  0.5576842E+002  0.2512125E+02  0.7546771E-02  0.1467451E+00
          2   -1    0    0  502    0  0.00000000000E+00  0.00000000000E+00  0.51991143149E+03  0.51991143149E+03  0.00000000000E+00 0. -1.
         -2   -1    0    0    0  501 -0.00000000000E+00 -0.00000000000E+00 -0.22720694686E+01  0.22720694686E+01  0.00000000000E+00 0.  1.
         21    1    1    2  502  503 -0.20614837084E+02 -0.14356390288E+02  0.43700706273E+03  0.43772851213E+03  0.00000000000E+00 0. -1.
         21    1    1    2  503  501  0.20614837084E+02  0.14356390288E+02  0.80632299291E+02  0.84454988834E+02  0.00000000000E+00 0.  1.
</event>
<event>
 4    1  0.5576842E+002  0.2363536E+02  0.7546771E-02  0.1484670E+00
          2   -1    0    0  502    0  0.00000000000E+00  0.00000000000E+00  0.23999343547E+03  0.23999343547E+03  0.00000000000E+00 0. -1.
         -2   -1    0    0    0  501 -0.00000000000E+00 -0.00000000000E+00 -0.23832270295E+01  0.23832270295E+01  0.00000000000E+00 0.  1.
         21    1    1    2  502  503 -0.16566692055E+02 -0.16857483614E+02  0.13730520047E+03  0.13932461417E+03  0.00000000000E+00 0. -1.
         21    1    1    2  503  501  0.16566692055E+02  0.16857483614E+02  0.10030500797E+03  0.10305204832E+03  0.00000000000E+00 0.  1.
</event>
<event>
 4    1  0.5576842E+002  0.2116193E+02  0.7546771E-02  0.1516965E+00
          2   -1    0    0  503    0  0.00000000000E+00  0.00000000000E+00  0.12776407405E+04  0.12776407405E+04  0.00000000000E+00 0.  1.
         -2   -1    0    0    0  501 -0.00000000000E+00 -0.00000000000E+00 -0.73069708343E+00  0.73069708343E+00  0.00000000000E+00 0. -1.
         21    1    1    2  502  501 -0.19924268778E+02 -0.71309886386E+01  0.17739620992E+03  0.17865397499E+03  0.00000000000E+00 0. -1.
         21    1    1    2  503  502  0.19924268778E+02  0.71309886386E+01  0.10995138335E+04  0.10997174626E+04  0.00000000000E+00 0.  1.
</event>
<event>
 4    1  0.5576842E+002  0.3198053E+02  0.7546771E-02  0.1403132E+00
          2   -1    0    0  503    0  0.00000000000E+00  0.00000000000E+00  0.59732700962E+02  0.59732700962E+02  0.00000000000E+00 0.  1.
         -2   -1    0    0    0  501 -0.00000000000E+00 -0.00000000000E+00 -0.12844477390E+03  0.12844477390E+03  0.00000000000E+00 0. -1.
         21    1    1    2  502  501  0.29465663227E+02  0.12430969917E+02 -0.12194937341E+03  0.12607301058E+03  0.00000000000E+00 0. -1.
         21    1    1    2  503  502 -0.29465663227E+02 -0.12430969917E+02  0.53237300469E+02  0.62104464282E+02  0.00000000000E+00 0.  1.
</event>
<event>
 4    1  0.5576842E+002  0.2121076E+02  0.7546771E-02  0.1516277E+00
          2   -1    0    0  503    0  0.00000000000E+00  0.00000000000E+00  0.80201960402E+01  0.80201960402E+01  0.00000000000E+00 0.  1.
         -2   -1    0    0    0  501 -0.00000000000E+00 -0.00000000000E+00 -0.11690857919E+03  0.11690857919E+03  0.00000000000E+00 0. -1.
         21    1    1    2  502  501 -0.10104721121E+02 -0.18649159085E+02 -0.99495557504E+02  0.10173132500E+03  0.00000000000E+00 0. -1.
         21    1    1    2  503  502  0.10104721121E+02  0.18649159085E+02 -0.93928256466E+01  0.23197450230E+02  0.00000000000E+00 0.  1.
</event>
<event>
 4    1  0.5576842E+002  0.2620955E+02  0.7546771E-02  0.1455714E+00
          2   -1    0    0  502    0  0.00000000000E+00  0.00000000000E+00  0.18996548411E+03  0.18996548411E+03  0.00000000000E+00 0. -1.
         -2   -1    0    0    0  501 -0.00000000000E+00 -0.00000000000E+00 -0.36541640737E+01  0.36541640737E+01  0.00000000000E+00 0.  1.
         21    1    1    2  502  503 -0.25385210294E+02 -0.65216287622E+01  0.10303191002E+03  0.10631328715E+03  0.00000000000E+00 0. -1.
         21    1    1    2  503  501  0.25385210294E+02  0.65216287622E+01  0.83279410022E+02  0.87306361034E+02  0.00000000000E+00 0.  1.
</event>
<event>
 4    1  0.5576842E+002  0.2645554E+02  0.7546771E-02  0.1453155E+00
          2   -1    0    0  503    0  0.00000000000E+00  0.00000000000E+00  0.74353009346E+00  0.74353009346E+00  0.00000000000E+00 0. -1.
         -2   -1    0    0    0  501 -0.00000000000E+00 -0.00000000000E+00 -0.11628049658E+04  0.11628049658E+04  0.00000000000E+00 0.  1.
         21    1    1    2  502  501  0.24760379186E+02 -0.93176940185E+01 -0.83493988842E+03  0.83535891273E+03  0.00000000000E+00 0.  1.
         21    1    1    2  503  502 -0.24760379186E+02  0.93176940185E+01 -0.32712154731E+03  0.32818958319E+03  0.00000000000E+00 0. -1.
</event>
<event>
 4    1  0.5576842E+002  0.2412320E+02  0.7546771E-02  0.1478856E+00
          2   -1    0    0  502    0  0.00000000000E+00  0.00000000000E+00  0.17472214784E+02  0.17472214784E+02  0.00000000000E+00 0. -1.
         -2   -1    0    0    0  501 -0.00000000000E+00 -0.00000000000E+00 -0.46300968203E+02  0.46300968203E+02  0.00000000000E+00 0.  1.
         21    1    1    2  502  503 -0.21709635263E+02  0.10517617379E+02  0.24784245831E+01  0.24250177875E+02  0.00000000000E+00 0. -1.
         21    1    1    2  503  501  0.21709635263E+02 -0.10517617379E+02 -0.31307178003E+02  0.39523005112E+02  0.00000000000E+00 0.  1.
</event>
<event>
 4    1  0.5576842E+002  0.2308713E+02  0.7546771E-02  0.1491407E+00
          2   -1    0    0  502    0  0.00000000000E+00  0.00000000000E+00  0.41533268500E+03  0.41533268500E+03  0.00000000000E+00 0.  1.
         -2   -1    0    0    0  501 -0.00000000000E+00 -0.00000000000E+00 -0.19538191419E+01  0.19538191419E+01  0.00000000000E+00 0. -1.
         21    1    1    2  502  503  0.16502964873E+02 -0.16145202511E+02  0.32891243715E+03  0.32972171103E+03  0.00000000000E+00 0.  1.
         21    1    1    2  503  501 -0.16502964873E+02  0.16145202511E+02  0.84466428709E+02  0.87564793111E+02  0.00000000000E+00 0. -1.
</event>
<event>
 4    1  0.5576842E+002  0.3751794E+02  0.7546771E-02  0.1363678E+00
          2   -1    0    0  502    0  0.00000000000E+00  0.00000000000E+00  0.11125218741E+02  0.11125218741E+02  0.00000000000E+00 0. -1.
         -2   -1    0    0    0  501 -0.00000000000E+00 -0.00000000000E+00 -0.12709412295E+03  0.12709412295E+03  0.00000000000E+00 0.  1.
         21    1    1    2  502  503 -0.32721360233E+02 -0.18355058621E+02 -0.53351513326E+02  0.65222538794E+02  0.00000000000E+00 0.  1.
         21    1    1    2  503  501  0.32721360233E+02  0.18355058621E+02 -0.62617390883E+02  0.72996802899E+02  0.00000000000E+00 0. -1.
</event>
<event>
 4    1  0.5576842E+002  0.8160543E+02  0.7546771E-02  0.1200169E+00
          2   -1    0    0  502    0  0.00000000000E+00  0.00000000000E+00  0.10378287263E+04  0.10378287263E+04  0.00000000000E+00 0. -1.
         -2   -1    0    0    0  501 -0.00000000000E+00 -0.00000000000E+00 -0.70504802616E+01  0.70504802616E+01  0.00000000000E+00 0.  1.
         21    1    1    2  502  503 -0.32554052896E+02  0.74831007513E+02  0.67202550489E+03  0.67696212986E+03  0.00000000000E+00 0.  1.
         21    1    1    2  503  501  0.32554052896E+02 -0.74831007513E+02  0.35875274115E+03  0.36791707671E+03  0.00000000000E+00 0. -1.
</event>
<event>
 4    1  0.5576842E+002  0.3908543E+02  0.7546771E-02  0.1353930E+00
          2   -1    0    0  502    0  0.00000000000E+00  0.00000000000E+00  0.96175921878E+01  0.96175921878E+01  0.00000000000E+00 0. -1.
         -2   -1    0    0    0  501 -0.00000000000E+00 -0.00000000000E+00 -0.26913290023E+03  0.26913290023E+03  0.00000000000E+00 0.  1.
         21    1    1    2  502  503  0.35119504806E+02  0.17154909283E+02 -0.40535329158E+02  0.56309710000E+02  0.00000000000E+00 0. -1.
         21    1    1    2  503  501 -0.35119504806E+02 -0.17154909283E+02 -0.21897997888E+03  0.22244078242E+03  0.00000000000E+00 0.  1.
</event>
<event>
 4    1  0.5576842E+002  0.2656892E+02  0.7546771E-02  0.1451987E+00
          2   -1    0    0  502    0  0.00000000000E+00  0.00000000000E+00  0.19727948978E+04  0.19727948978E+04  0.00000000000E+00 0. -1.
         -2   -1    0    0    0  501 -0.00000000000E+00 -0.00000000000E+00 -0.21007645072E+01  0.21007645072E+01  0.00000000000E+00 0.  1.
         21    1    1    2  502  503  0.26331932205E+02 -0.35407255489E+01  0.18847765782E+04  0.18849638345E+04  0.00000000000E+00 0. -1.
         21    1    1    2  503  501 -0.26331932205E+02  0.35407255489E+01  0.85917555030E+02  0.89931827811E+02  0.00000000000E+00 0.  1.
</event>
<event>
 4    1  0.5576842E+002  0.2715652E+02  0.7546771E-02  0.1446042E+00
          2   -1    0    0  503    0  0.00000000000E+00  0.00000000000E+00  0.19158340384E+01  0.19158340384E+01  0.00000000000E+00 0.  1.
         -2   -1    0    0    0  501 -0.00000000000E+00 -0.00000000000E+00 -0.41135065037E+03  0.41135065037E+03  0.00000000000E+00 0. -1.
         21    1    1    2  502  501  0.25406875119E+02 -0.95899541790E+01 -0.15235694083E+03  0.15475824354E+03  0.00000000000E+00 0. -1.
         21    1    1    2  503  502 -0.25406875119E+02  0.95899541790E+01 -0.25707787549E+03  0.25850824086E+03  0.00000000000E+00 0.  1.
</event>
<event>
 4    1  0.5576842E+002  0.2415161E+02  0.7546771E-02  0.1478522E+00
          2   -1    0    0  502    0  0.00000000000E+00  0.00000000000E+00  0.38251975831E+02  0.38251975831E+02  0.00000000000E+00 0.  1.
         -2   -1    0    0    0  501 -0.00000000000E+00 -0.00000000000E+00 -0.16555054463E+02  0.16555054463E+02  0.00000000000E+00 0. -1.
         21    1    1    2  502  503 -0.13988332531E+02 -0.19688236575E+02  0.18545792059E+02  0.30450722644E+02  0.00000000000E+00 0.  1.
         21    1    1    2  503  501  0.13988332531E+02  0.19688236575E+02  0.31511293097E+01  0.24356307650E+02  0.00000000000E+00 0. -1.
</event>
<event>
 4    1  0.5576842E+002  0.2637216E+02  0.7546771E-02  0.1454019E+00
          2   -1    0    0  502    0  0.00000000000E+00  0.00000000000E+00  0.97683088887E+03  0.97683088887E+03  0.00000000000E+00 0. -1.
         -2   -1    0    0    0  501 -0.00000000000E+00 -0.00000000000E+00 -0.94291350218E+01  0.94291350218E+01  0.00000000000E+00 0.  1.
         21    1    1    2  502  503 -0.21481738156E+02  0.15297903267E+02  0.95784756010E+03  0.95821054018E+03  0.00000000000E+00 0. -1.
         21    1    1    2  503  501  0.21481738156E+02 -0.15297903267E+02  0.95541937509E+01  0.28049483717E+02  0.00000000000E+00 0.  1.
</event>
<event>
 4    1  0.5576842E+002  0.2255546E+02  0.7546771E-02  0.1498157E+00
          2   -1    0    0  503    0  0.00000000000E+00  0.00000000000E+00  0.58339864616E+03  0.58339864616E+03  0.00000000000E+00 0. -1.
         -2   -1    0    0    0  501 -0.00000000000E+00 -0.00000000000E+00 -0.42774296815E+01  0.42774296815E+01  0.00000000000E+00 0.  1.
         21    1    1    2  502  501 -0.12982767641E+02 -0.18444417821E+02  0.27380473808E+02  0.35474485906E+02  0.00000000000E+00 0.  1.
         21    1    1    2  503  502  0.12982767641E+02  0.18444417821E+02  0.55174074267E+03  0.55220158994E+03  0.00000000000E+00 0. -1.
</event>
<event>
 4    1  0.5576842E+002  0.2701707E+02  0.7546771E-02  0.1447437E+00
          2   -1    0    0  502    0  0.00000000000E+00  0.00000000000E+00  0.11674671232E+04  0.11674671232E+04  0.00000000000E+00 0.  1.
         -2   -1    0    0    0  501 -0.00000000000E+00 -0.00000000000E+00 -0.77686004746E+00  0.77686004746E+00  0.00000000000E+00 0. -1.
         21    1    1    2  502  503  0.62001360811E+01 -0.26296010388E+02  0.32527276444E+03  0.32639285092E+03  0.00000000000E+00 0. -1.
         21    1    1    2  503  501 -0.62001360811E+01  0.26296010388E+02  0.84141749869E+03  0.84185113230E+03  0.00000000000E+00 0.  1.
</event>
<event>
 4    1  0.5576842E+002  0.3249474E+02  0.7546771E-02  0.1399087E+00
          2   -1    0    0  503    0  0.00000000000E+00  0.00000000000E+00  0.96028914796E+01  0.96028914796E+01  0.00000000000E+00 0. -1.
         -2   -1    0    0    0  501 -0.00000000000E+00 -0.00000000000E+00 -0.24777416271E+03  0.24777416271E+03  0.00000000000E+00 0.  1.
         21    1    1    2  502  501 -0.29998449910E+02  0.12490042791E+02 -0.21506170884E+03  0.21750275118E+03  0.00000000000E+00 0.  1.
         21    1    1    2  503  502  0.29998449910E+02 -0.12490042791E+02 -0.23109562393E+02  0.39874303003E+02  0.00000000000E+00 0. -1.
</event>
<event>
 4    1  0.5576842E+002  0.3406622E+02  0.7546771E-02  0.1387249E+00
          2   -1    0    0  502    0  0.00000000000E+00  0.00000000000E+00  0.19000778575E+04  0.19000778575E+04  0.00000000000E+00 0. -1.
         -2   -1    0    0    0  501 -0.00000000000E+00 -0.00000000000E+00 -0.16528527780E+01  0.16528527780E+01  0.00000000000E+00 0.  1.
         21    1    1    2  502  503  0.30516900974E+02 -0.15140215600E+02  0.17042237058E+04  0.17045641516E+04  0.00000000000E+00 0. -1.
         21    1    1    2  503  501 -0.30516900974E+02  0.15140215600E+02  0.19420129889E+03  0.19716655869E+03  0.00000000000E+00 0.  1.
</event>
<event>
 4    1  0.5576842E+002  0.6155716E+02  0.7546771E-02  0.1254632E+00
          2   -1    0    0  502    0  0.00000000000E+00  0.00000000000E+00  0.19997172608E+04  0.19997172608E+04  0.00000000000E+00 0. -1.
         -2   -1    0    0    0  501 -0.00000000000E+00 -0.00000000000E+00 -0.33133659700E+01  0.33133659700E+01  0.00000000000E+00 0.  1.
         21    1    1    2  502  503  0.40236136580E+02  0.46586875072E+02  0.16534879142E+04  0.16546333630E+04  0.00000000000E+00 0. -1.
         21    1    1    2  503  501 -0.40236136580E+02 -0.46586875072E+02  0.34291598056E+03  0.34839726368E+03  0.00000000000E+00 0.  1.
</event>
<event>
 4    1  0.5576842E+002  0.4111487E+02  0.7546771E-02  0.1342074E+00
          2   -1    0    0  502    0  0.00000000000E+00  0.00000000000E+00  0.12308615402E+03  0.12308615402E+03  0.00000000000E+00 0.  1.
         -2   -1    0    0    0  501 -0.00000000000E+00 -0.00000000000E+00 -0.51781868884E+02  0.51781868884E+02  0.00000000000E+00 0. -1.
         21    1    1    2  502  503 -0.32005056467E+02 -0.25809085082E+02  0.11059982872E+03  0.11799472287E+03  0.00000000000E+00 0.  1.
         21    1    1    2  503  501  0.32005056467E+02  0.25809085082E+02 -0.39295543579E+02  0.56873300039E+02  0.00000000000E+00 0. -1.
</event>
<event>
 4    1  0.5576842E+002  0.6551385E+02  0.7546771E-02  0.1242168E+00
          2   -1    0    0  503    0  0.00000000000E+00  0.00000000000E+00  0.59171103705E+03  0.59171103705E+03  0.00000000000E+00 0. -1.
         -2   -1    0    0    0  501 -0.00000000000E+00 -0.00000000000E+00 -0.30819341531E+02  0.30819341531E+02  0.00000000000E+00 0.  1.
         21    1    1    2  502  501 -0.61959447327E+02 -0.21285930011E+02  0.82641096711E+01  0.66033017787E+02  0.00000000000E+00 0.  1.
         21    1    1    2  503  502  0.61959447327E+02  0.21285930011E+02  0.55262758584E+03  0.55649736079E+03  0.00000000000E+00 0. -1.
</event>
<event>
 4    1  0.5576842E+002  0.6099358E+02  0.7546771E-02  0.1256494E+00
          2   -1    0    0  503    0  0.00000000000E+00  0.00000000000E+00  0.17358650035E+03  0.17358650035E+03  0.00000000000E+00 0.  1.
         -2   -1    0    0    0  501 -0.00000000000E+00 -0.00000000000E+00 -0.41846177912E+02  0.41846177912E+02  0.00000000000E+00 0. -1.
         21    1    1    2  502  501  0.58639322298E+02 -0.16782333811E+02 -0.93657334021E+01  0.61708458171E+02  0.00000000000E+00 0. -1.
         21    1    1    2  503  502 -0.58639322298E+02  0.16782333811E+02  0.14110605584E+03  0.15372422009E+03  0.00000000000E+00 0.  1.
</event>
<event>
 4    1  0.5576842E+002  0.4434963E+02  0.7546771E-02  0.1324724E+00
          2   -1    0    0  502    0  0.00000000000E+00  0.00000000000E+00  0.23090221522E+02  0.23090221522E+02  0.00000000000E+00 0. -1.
         -2   -1    0    0    0  501 -0.00000000000E+00 -0.00000000000E+00 -0.18007522190E+03  0.18007522190E+03  0.00000000000E+00 0.  1.
         21    1    1    2  502  503 -0.52818645769E+01  0.44033982491E+02 -0.47515664721E+01  0.44603442596E+02  0.00000000000E+00 0. -1.
         21    1    1    2  503  501  0.52818645769E+01 -0.44033982491E+02 -0.15223343390E+03  0.15856200082E+03  0.00000000000E+00 0.  1.
</event>
<event>
 4    1  0.5576842E+002  0.2001926E+02  0.7546771E-02  0.1533741E+00
          2   -1    0    0  503    0  0.00000000000E+00  0.00000000000E+00  0.12375630473E+02  0.12375630473E+02  0.00000000000E+00 0. -1.
         -2   -1    0    0    0  501 -0.00000000000E+00 -0.00000000000E+00 -0.65649647488E+02  0.65649647488E+02  0.00000000000E+00 0.  1.
         21    1    1    2  502  501 -0.18701016318E+02  0.71444195913E+01 -0.54407783740E+02  0.57973939611E+02  0.00000000000E+00 0.  1.
         21    1    1    2  503  502  0.18701016318E+02 -0.71444195913E+01  0.11337667255E+01  0.20051338350E+02  0.00000000000E+00 0. -1.
</event>
<event>
 4    1  0.5576842E+002  0.2763122E+02  0.7546771E-02  0.1441368E+00
          2   -1    0    0  502    0  0.00000000000E+00  0.00000000000E+00  0.13777465716E+02  0.13777465716E+02  0.00000000000E+00 0. -1.
         -2   -1    0    0    0  501 -0.00000000000E+00 -0.00000000000E+00 -0.70552006008E+02  0.70552006008E+02  0.00000000000E+00 0.  1.
         21    1    1    2  502  503  0.27215283078E+02 -0.47762603239E+01 -0.88569928038E+01  0.29016040689E+02  0.00000000000E+00 0. -1.
         21    1    1    2  503  501 -0.27215283078E+02  0.47762603239E+01 -0.47917547487E+02  0.55313431035E+02  0.00000000000E+00 0.  1.
</event>
<event>
 4    1  0.5576842E+002  0.2915539E+02  0.7546771E-02  0.1427081E+00
          2   -1    0    0  502    0  0.00000000000E+00  0.00000000000E+00  0.11324710695E+02  0.11324710695E+02  0.00000000000E+00 0.  1.
         -2   -1    0    0    0  501 -0.00000000000E+00 -0.00000000000E+00 -0.29131019556E+03  0.29131019556E+03  0.00000000000E+00 0. -1.
         21    1    1    2  502  503 -0.28731882176E+02 -0.49513494109E+01 -0.96193192522E+01  0.30701273870E+02  0.00000000000E+00 0.  1.
         21    1    1    2  503  501  0.28731882176E+02  0.49513494109E+01 -0.27036616562E+03  0.27193363239E+03  0.00000000000E+00 0. -1.
</event>
<event>
 4    1  0.5576842E+002  0.2020000E+02  0.7546771E-02  0.1531000E+00
          2   -1    0    0  502    0  0.00000000000E+00  0.00000000000E+00  0.42582790287E+03  0.42582790287E+03  0.00000000000E+00 0. -1.
         -2   -1    0    0    0  501 -0.00000000000E+00 -0.00000000000E+00 -0.99459905082E+00  0.99459905082E+00  0.00000000000E+00 0.  1.
         21    1    1    2  502  503  0.12256073586E+02  0.16057047125E+02  0.25322724107E+03  0.25403164315E+03  0.00000000000E+00 0. -1.
         21    1    1    2  503  501 -0.12256073586E+02 -0.16057047125E+02  0.17160606275E+03  0.17279085877E+03  0.00000000000E+00 0.  1.
</event>
<event>
 4    1  0.5576842E+002  0.2564865E+02  0.7546771E-02  0.1461676E+00
          2   -1    0    0  502    0  0.00000000000E+00  0.00000000000E+00  0.11237875760E+04  0.11237875760E+04  0.00000000000E+00 0. -1.
         -2   -1    0    0    0  501 -0.00000000000E+00 -0.00000000000E+00 -0.16950405681E+01  0.16950405681E+01  0.00000000000E+00 0.  1.
         21    1    1    2  502  503 -0.22890138773E+02 -0.11571292728E+02  0.10163613079E+04  0.10166848880E+04  0.00000000000E+00 0. -1.
         21    1    1    2  503  501  0.22890138773E+02  0.11571292728E+02  0.10573122750E+03  0.10879772855E+03  0.00000000000E+00 0.  1.
</event>
<event>
 4    1  0.5576842E+002  0.2157397E+02  0.7546771E-02  0.1511226E+00
          2   -1    0    0  502    0  0.00000000000E+00  0.00000000000E+00  0.14962988916E+04  0.14962988916E+04  0.00000000000E+00 0. -1.
         -2   -1    0    0    0  501 -0.00000000000E+00 -0.00000000000E+00 -0.88475273193E+00  0.88475273193E+00  0.00000000000E+00 0.  1.
         21    1    1    2  502  503 -0.19456963590E+02 -0.93200241616E+01  0.13505086969E+04  0.13506810048E+04  0.00000000000E+00 0. -1.
         21    1    1    2  503  501  0.19456963590E+02  0.93200241616E+01  0.14490544199E+03  0.14650263956E+03  0.00000000000E+00 0.  1.
</event>
<event>
 4    1  0.5576842E+002  0.2429674E+02  0.7546771E-02  0.1476827E+00
          2   -1    0    0  503    0  0.00000000000E+00  0.00000000000E+00  0.16586232689E+04  0.16586232689E+04  0.00000000000E+00 0. -1.
         -2   -1    0    0    0  501 -0.00000000000E+00 -0.00000000000E+00 -0.82991072509E+00  0.82991072509E+00  0.00000000000E+00 0.  1.
         21    1    1    2  502  501 -0.19553669201E+02 -0.14421701774E+02  0.20184140563E+03  0.20329851079E+03  0.00000000000E+00 0.  1.
         21    1    1    2  503  502  0.19553669201E+02  0.14421701774E+02  0.14559519526E+04  0.14561546689E+04  0.00000000000E+00 0. -1.
</event>
<event>
 4    1  0.5576842E+002  0.2378110E+02  0.7546771E-02  0.1482916E+00
          2   -1    0    0  502    0  0.00000000000E+00  0.00000000000E+00  0.99637584742E+03  0.99637584742E+03  0.00000000000E+00 0.  1.
         -2   -1    0    0    0  501 -0.00000000000E+00 -0.00000000000E+00 -0.47874654903E+01  0.47874654903E+01  0.00000000000E+00 0. -1.
         21    1    1    2  502  503 -0.18443328637E+02 -0.15012806985E+02  0.96576568820E+03  0.96605843781E+03  0.00000000000E+00 0.  1.
         21    1    1    2  503  501  0.18443328637E+02  0.15012806985E+02  0.25822693724E+02  0.35104875102E+02  0.00000000000E+00 0. -1.
</event>
<event>
 4    1  0.5576842E+002  0.3500026E+02  0.7546771E-02  0.1380561E+00
          2   -1    0    0  502    0  0.00000000000E+00  0.00000000000E+00  0.99657352967E+01  0.99657352967E+01  0.00000000000E+00 0.  1.
         -2   -1    0    0    0  501 -0.00000000000E+00 -0.00000000000E+00 -0.12543917762E+03  0.12543917762E+03  0.00000000000E+00 0. -1.
         21    1    1    2  502  503  0.25406298216E+02 -0.24073600219E+02 -0.67325367303E+02  0.75879663277E+02  0.00000000000E+00 0. -1.
         21    1    1    2  503  501 -0.25406298216E+02  0.24073600219E+02 -0.48148075020E+02  0.59525249639E+02  0.00000000000E+00 0.  1.
</event>
<event>
 4    1  0.5576842E+002  0.2377884E+02  0.7546771E-02  0.1482943E+00
          2   -1    0    0  502    0  0.00000000000E+00  0.00000000000E+00  0.84623858335E+03  0.84623858335E+03  0.00000000000E+00 0.  1.
         -2   -1    0    0    0  501 -0.00000000000E+00 -0.00000000000E+00 -0.73744206890E+00  0.73744206890E+00  0.00000000000E+00 0. -1.
         21    1    1    2  502  503  0.23195198583E+02 -0.52360447777E+01  0.29295848377E+03  0.29392193966E+03  0.00000000000E+00 0. -1.
         21    1    1    2  503  501 -0.23195198583E+02  0.52360447777E+01  0.55254265751E+03  0.55305408576E+03  0.00000000000E+00 0.  1.
</event>
<event>
 4    1  0.5576842E+002  0.2658157E+02  0.7546771E-02  0.1451857E+00
          2   -1    0    0  502    0  0.00000000000E+00  0.00000000000E+00  0.13396142933E+04  0.13396142933E+04  0.00000000000E+00 0.  1.
         -2   -1    0    0    0  501 -0.00000000000E+00 -0.00000000000E+00 -0.19047279439E+01  0.19047279439E+01  0.00000000000E+00 0. -1.
         21    1    1    2  502  503  0.10400080483E+02 -0.24462582590E+02  0.12392306624E+04  0.12395157176E+04  0.00000000000E+00 0.  1.
         21    1    1    2  503  501 -0.10400080483E+02  0.24462582590E+02  0.98478903020E+02  0.10200330368E+03  0.00000000000E+00 0. -1.
</event>
<event>
 4    1  0.5576842E+002  0.2041598E+02  0.7546771E-02  0.1527769E+00
          2   -1    0    0  503    0  0.00000000000E+00  0.00000000000E+00  0.30954115560E+02  0.30954115560E+02  0.00000000000E+00 0. -1.
         -2   -1    0    0    0  501 -0.00000000000E+00 -0.00000000000E+00 -0.52847699531E+02  0.52847699531E+02  0.00000000000E+00 0.  1.
         21    1    1    2  502  501 -0.76352710315E+01  0.18934488731E+02 -0.47117786036E+02  0.51350735031E+02  0.00000000000E+00 0.  1.
         21    1    1    2  503  502  0.76352710315E+01 -0.18934488731E+02  0.25224202065E+02  0.32451080060E+02  0.00000000000E+00 0. -1.
</event>
<event>
 4    1  0.5576842E+002  0.2067765E+02  0.7546771E-02  0.1523917E+00
          2   -1    0    0  502    0  0.00000000000E+00  0.00000000000E+00  0.61149853646E+03  0.61149853646E+03  0.00000000000E+00 0.  1.
         -2   -1    0    0    0  501 -0.00000000000E+00 -0.00000000000E+00 -0.27074121577E+01  0.27074121577E+01  0.00000000000E+00 0. -1.
         21    1    1    2  502  503 -0.20671056643E+02  0.52212272877E+00  0.56888642483E+03  0.56926209214E+03  0.00000000000E+00 0.  1.
         21    1    1    2  503  501  0.20671056643E+02 -0.52212272877E+00  0.39904699474E+02  0.44943856477E+02  0.00000000000E+00 0. -1.
</event>
<event>
 4    1  0.5576842E+002  0.2092379E+02  0.7546771E-02  0.1520356E+00
          2   -1    0    0  503    0  0.00000000000E+00  0.00000000000E+00  0.38600222884E+02  0.38600222884E+02  0.00000000000E+00 0. -1.
         -2   -1    0    0    0  501 -0.00000000000E+00 -0.00000000000E+00 -0.14686769146E+02  0.14686769146E+02  0.00000000000E+00 0.  1.
         21    1    1    2  502  501 -0.46718669215E+01 -0.20395558403E+02 -0.75805078018E+00  0.20937520964E+02  0.00000000000E+00 0.  1.
         21    1    1    2  503  502  0.46718669215E+01  0.20395558403E+02  0.24671504518E+02  0.32349471067E+02  0.00000000000E+00 0. -1.
</event>
<event>
 4    1  0.5576842E+002  0.2196441E+02  0.7546771E-02  0.1505928E+00
          2   -1    0    0  502    0  0.00000000000E+00  0.00000000000E+00  0.66938414081E+03  0.66938414081E+03  0.00000000000E+00 0. -1.
         -2   -1    0    0    0  501 -0.00000000000E+00 -0.00000000000E+00 -0.74743553816E+00  0.74743553816E+00  0.00000000000E+00 0.  1.
         21    1    1    2  502  503  0.19768416239E+02 -0.95731496360E+01  0.39767065072E+03  0.39827676548E+03  0.00000000000E+00 0.  1.
         21    1    1    2  503  501 -0.19768416239E+02  0.95731496360E+01  0.27096605455E+03  0.27185481087E+03  0.00000000000E+00 0. -1.
</event>
<event>
 4    1  0.5576842E+002  0.2255619E+02  0.7546771E-02  0.1498148E+00
          2   -1    0    0  503    0  0.00000000000E+00  0.00000000000E+00  0.54535846890E+01  0.54535846890E+01  0.00000000000E+00 0.  1.
         -2   -1    0    0    0  501 -0.00000000000E+00 -0.00000000000E+00 -0.23004251458E+03  0.23004251458E+03  0.00000000000E+00 0. -1.
         21    1    1    2  502  501  0.17351832771E+02  0.14411651202E+02 -0.20307911337E+03  0.20432794248E+03  0.00000000000E+00 0. -1.
         21    1    1    2  503  502 -0.17351832771E+02 -0.14411651202E+02 -0.21509816521E+02  0.31168156789E+02  0.00000000000E+00 0.  1.
</event>
<event>
 4    1  0.5576842E+002  0.2112596E+02  0.7546771E-02  0.1517474E+00
          2   -1    0    0  502    0  0.00000000000E+00  0.00000000000E+00  0.59996074407E+03  0.59996074407E+03  0.00000000000E+00 0.  1.
         -2   -1    0    0    0  501 -0.00000000000E+00 -0.00000000000E+00 -0.74533925444E+00  0.74533925444E+00  0.00000000000E+00 0. -1.
         21    1    1    2  502  503  0.67672894979E+01 -0.20012744228E+02  0.31284173655E+03  0.31355423497E+03  0.00000000000E+00 0.  1.
         21    1    1    2  503  501 -0.67672894979E+01  0.20012744228E+02  0.28637366826E+03  0.28715184835E+03  0.00000000000E+00 0. -1.
</event>
<event>
 4    1  0.5576842E+002  0.3062614E+02  0.7546771E-02  0.1414232E+00
          2   -1    0    0  502    0  0.00000000000E+00  0.00000000000E+00  0.44299597656E+03  0.44299597656E+03  0.00000000000E+00 0. -1.
         -2   -1    0    0    0  501 -0.00000000000E+00 -0.00000000000E+00 -0.52531414740E+01  0.52531414740E+01  0.00000000000E+00 0.  1.
         21    1    1    2  502  503 -0.26919752410E+02  0.14604361050E+02  0.39203483967E+03  0.39322929182E+03  0.00000000000E+00 0. -1.
         21    1    1    2  503  501  0.26919752410E+02 -0.14604361050E+02  0.45707995417E+02  0.55019826213E+02  0.00000000000E+00 0.  1.
</event>
<event>
 4    1  0.5576842E+002  0.2287480E+02  0.7546771E-02  0.1494076E+00
          2   -1    0    0  502    0  0.00000000000E+00  0.00000000000E+00  0.58007753355E+02  0.58007753355E+02  0.00000000000E+00 0.  1.
         -2   -1    0    0    0  501 -0.00000000000E+00 -0.00000000000E+00 -0.12382296426E+02  0.12382296426E+02  0.00000000000E+00 0. -1.
         21    1    1    2  502  503  0.12299912302E+02  0.19286484969E+02  0.41151459139E+02  0.47081832317E+02  0.00000000000E+00 0. -1.
         21    1    1    2  503  501 -0.12299912302E+02 -0.19286484969E+02  0.44739977910E+01  0.23308217464E+02  0.00000000000E+00 0.  1.
</event>
<event>
 4    1  0.5576842E+002  0.2014094E+02  0.7546771E-02  0.1531892E+00
          2   -1    0    0  502    0  0.00000000000E+00  0.00000000000E+00  0.70121787121E+02  0.70121787121E+02  0.00000000000E+00 0.  1.
         -2   -1    0    0    0  501 -0.00000000000E+00 -0.00000000000E+00 -0.24552807541E+02  0.24552807541E+02  0.00000000000E+00 0. -1.
         21    1    1    2  502  503  0.19952570619E+02 -0.27481600457E+01  0.64171034350E+02  0.67257557996E+02  0.00000000000E+00 0.  1.
         21    1    1    2  503  501 -0.19952570619E+02  0.27481600457E+01 -0.18602054770E+02  0.27417036667E+02  0.00000000000E+00 0. -1.
</event>
<event>
 4    1  0.5576842E+002  0.2198645E+02  0.7546771E-02  0.1505633E+00
          2   -1    0    0  502    0  0.00000000000E+00  0.00000000000E+00  0.20930132030E+02  0.20930132030E+02  0.00000000000E+00 0. -1.
         -2   -1    0    0    0  501 -0.00000000000E+00 -0.00000000000E+00 -0.36766120765E+02  0.36766120765E+02  0.00000000000E+00 0.  1.
         21    1    1    2  502  503  0.12654948158E+02  0.17979328629E+02  0.96725239870E+01  0.24020026876E+02  0.00000000000E+00 0. -1.
         21    1    1    2  503  501 -0.12654948158E+02 -0.17979328629E+02 -0.25508512722E+02  0.33676225919E+02  0.00000000000E+00 0.  1.
</event>
<event>
 4    1  0.5576842E+002  0.2122547E+02  0.7546771E-02  0.1516070E+00
          2   -1    0    0  502    0  0.00000000000E+00  0.00000000000E+00  0.36964581623E+03  0.36964581623E+03  0.00000000000E+00 0. -1.
         -2   -1    0    0    0  501 -0.00000000000E+00 -0.00000000000E+00 -0.25877421996E+01  0.25877421996E+01  0.00000000000E+00 0.  1.
         21    1    1    2  502  503  0.15917848782E+01 -0.21165703412E+02  0.31889799922E+03  0.31960358992E+03  0.00000000000E+00 0. -1.
         21    1    1    2  503  501 -0.15917848782E+01  0.21165703412E+02  0.48160074802E+02  0.52629968506E+02  0.00000000000E+00 0.  1.
</event>
<event>
 4    1  0.5576842E+002  0.2379508E+02  0.7546771E-02  0.1482749E+00
          2   -1    0    0  503    0  0.00000000000E+00  0.00000000000E+00  0.96369534708E+01  0.96369534708E+01  0.00000000000E+00 0. -1.
         -2   -1    0    0    0  501 -0.00000000000E+00 -0.00000000000E+00 -0.76781391342E+02  0.76781391342E+02  0.00000000000E+00 0.  1.
         21    1    1    2  502  501 -0.21241159847E+02  0.10724690254E+02 -0.54509440158E+02  0.59476759486E+02  0.00000000000E+00 0.  1.
         21    1    1    2  503  502  0.21241159847E+02 -0.10724690254E+02 -0.12634997713E+02  0.26941585326E+02  0.00000000000E+00 0. -1.
</event>
<event>
 4    1  0.5576842E+002  0.2610779E+02  0.7546771E-02  0.1456782E+00
          2   -1    0    0  502    0  0.00000000000E+00  0.00000000000E+00  0.17756599373E+04  0.17756599373E+04  0.00000000000E+00 0. -1.
         -2   -1    0    0    0  501 -0.00000000000E+00 -0.00000000000E+00 -0.10495838402E+01  0.10495838402E+01  0.00000000000E+00 0.  1.
         21    1    1    2  502  503 -0.25327252454E+02 -0.63361776943E+01  0.15947990922E+04  0.15950127778E+04  0.00000000000E+00 0. -1.
         21    1    1    2  503  501  0.25327252454E+02  0.63361776943E+01  0.17981126131E+03  0.18169674339E+03  0.00000000000E+00 0.  1.
</event>
<event>
 4    1  0.5576842E+002  0.2364553E+02  0.7546771E-02  0.1484547E+00
          2   -1    0    0  503    0  0.00000000000E+00  0.00000000000E+00  0.62899996159E+01  0.62899996159E+01  0.00000000000E+00 0. -1.
         -2   -1    0    0    0  501 -0.00000000000E+00 -0.00000000000E+00 -0.19402640340E+03  0.19402640340E+03  0.00000000000E+00 0.  1.
         21    1    1    2  502  501 -0.10307361886E+02 -0.21280727707E+02 -0.16759662622E+03  0.16925643326E+03  0.00000000000E+00 0.  1.
         21    1    1    2  503  502  0.10307361886E+02  0.21280727707E+02 -0.20139777569E+02  0.31059969757E+02  0.00000000000E+00 0. -1.
</event>
<event>
 4    1  0.5576842E+002  0.2431303E+02  0.7546771E-02  0.1476637E+00
          2   -1    0    0  502    0  0.00000000000E+00  0.00000000000E+00  0.12235125853E+04  0.12235125853E+04  0.00000000000E+00 0. -1.
         -2   -1    0    0    0  501 -0.00000000000E+00 -0.00000000000E+00 -0.52976617462E+00  0.52976617462E+00  0.00000000000E+00 0.  1.
         21    1    1    2  502  503  0.17986794470E+02  0.16358445742E+02  0.79306629513E+03  0.79343888989E+03  0.00000000000E+00 0. -1.
         21    1    1    2  503  501 -0.17986794470E+02 -0.16358445742E+02  0.42991652402E+03  0.43060346161E+03  0.00000000000E+00 0.  1.
</event>
<event>
 4    1  0.5576842E+002  0.2447384E+02  0.7546771E-02  0.1474776E+00
          2   -1    0    0  503    0  0.00000000000E+00  0.00000000000E+00  0.97995909547E+03  0.97995909547E+03  0.00000000000E+00 0. -1.
         -2   -1    0    0    0  501 -0.00000000000E+00 -0.00000000000E+00 -0.82208556894E+00  0.82208556894E+00  0.00000000000E+00 0.  1.
         21    1    1    2  502  501  0.15592331089E+02 -0.18863936919E+02  0.24120474168E+03  0.24244318162E+03  0.00000000000E+00 0.  1.
         21    1    1    2  503  502 -0.15592331089E+02  0.18863936919E+02  0.73793226822E+03  0.73833799942E+03  0.00000000000E+00 0. -1.
</event>
<event>
 4    1  0.5576842E+002  0.2166417E+02  0.7546771E-02  0.1509990E+00
          2   -1    0    0  503    0  0.00000000000E+00  0.00000000000E+00  0.10457013006E+02  0.10457013006E+02  0.00000000000E+00 0.  1.
         -2   -1    0    0    0  501 -0.00000000000E+00 -0.00000000000E+00 -0.44984859172E+02  0.44984859172E+02  0.00000000000E+00 0. -1.
         21    1    1    2  502  501  0.35155084770E+01  0.21377026212E+02 -0.18586764456E+02  0.28544769442E+02  0.00000000000E+00 0.  1.
         21    1    1    2  503  502 -0.35155084770E+01 -0.21377026212E+02 -0.15941081710E+02  0.26897102737E+02  0.00000000000E+00 0. -1.
</event>
<event>
 4    1  0.5576842E+002  0.2658513E+02  0.7546771E-02  0.1451821E+00
          2   -1    0    0  502    0  0.00000000000E+00  0.00000000000E+00  0.10446075767E+02  0.10446075767E+02  0.00000000000E+00 0.  1.
         -2   -1    0    0    0  501 -0.00000000000E+00 -0.00000000000E+00 -0.70822169270E+02  0.70822169270E+02  0.00000000000E+00 0. -1.
         21    1    1    2  502  503  0.10741453285E+02  0.24318513921E+02 -0.21600258950E+02  0.34254052676E+02  0.00000000000E+00 0. -1.
         21    1    1    2  503  501 -0.10741453285E+02 -0.24318513921E+02 -0.38775834553E+02  0.47014192360E+02  0.00000000000E+00 0.  1.
</event>
<event>
 4    1  0.5576842E+002  0.2139038E+02  0.7546771E-02  0.1513764E+00
          2   -1    0    0  503    0  0.00000000000E+00  0.00000000000E+00  0.88023940989E+03  0.88023940989E+03  0.00000000000E+00 0.  1.
         -2   -1    0    0    0  501 -0.00000000000E+00 -0.00000000000E+00 -0.52303570048E+00  0.52303570048E+00  0.00000000000E+00 0. -1.
         21    1    1    2  502  501 -0.28943406725E+01  0.21193654352E+02  0.40521909224E+03  0.40578326839E+03  0.00000000000E+00 0.  1.
         21    1    1    2  503  502  0.28943406725E+01 -0.21193654352E+02  0.47449728195E+03  0.47497917719E+03  0.00000000000E+00 0. -1.
</event>
<event>
 4    1  0.5576842E+002  0.2565094E+02  0.7546771E-02  0.1461651E+00
          2   -1    0    0  503    0  0.00000000000E+00  0.00000000000E+00  0.14036991590E+03  0.14036991590E+03  0.00000000000E+00 0.  1.
         -2   -1    0    0    0  501 -0.00000000000E+00 -0.00000000000E+00 -0.66101514095E+01  0.66101514095E+01  0.00000000000E+00 0. -1.
         21    1    1    2  502  501  0.44512240913E+01 -0.25261779267E+02  0.27244454233E+02  0.37419662934E+02  0.00000000000E+00 0. -1.
         21    1    1    2  503  502 -0.44512240913E+01  0.25261779267E+02  0.10651531025E+03  0.10956040437E+03  0.00000000000E+00 0.  1.
</event>
<event>
 4    1  0.5576842E+002  0.2008041E+02  0.7546771E-02  0.1532810E+00
          2   -1    0    0  503    0  0.00000000000E+00  0.00000000000E+00  0.19983999199E+01  0.19983999199E+01  0.00000000000E+00 0. -1.
         -2   -1    0    0    0  501 -0.00000000000E+00 -0.00000000000E+00 -0.20499272174E+03  0.20499272174E+03  0.00000000000E+00 0.  1.
         21    1    1    2  502  501 -0.20054707913E+02  0.10155888757E+01 -0.11446822895E+03  0.11621617000E+03  0.00000000000E+00 0. -1.
         21    1    1    2  503  502  0.20054707913E+02 -0.10155888757E+01 -0.88526092876E+02  0.90774951667E+02  0.00000000000E+00 0.  1.
</event>
<event>
 4    1  0.5576842E+002  0.2988475E+02  0.7546771E-02  0.1420601E+00
          2   -1    0    0  502    0  0.00000000000E+00  0.00000000000E+00  0.97860018332E+03  0.97860018332E+03  0.00000000000E+00 0.  1.
         -2   -1    0    0    0  501 -0.00000000000E+00 -0.00000000000E+00 -0.97291837663E+00  0.97291837663E+00  0.00000000000E+00 0. -1.
         21    1    1    2  502  503  0.22632419803E+02  0.19515938348E+02  0.61073824139E+03  0.61146896714E+03  0.00000000000E+00 0.  1.
         21    1    1    2  503  501 -0.22632419803E+02 -0.19515938348E+02  0.36688902355E+03  0.36810413455E+03  0.00000000000E+00 0. -1.
</event>
<event>
 4    1  0.5576842E+002  0.2622331E+02  0.7546771E-02  0.1455570E+00
          2   -1    0    0  502    0  0.00000000000E+00  0.00000000000E+00  0.43512755671E+01  0.43512755671E+01  0.00000000000E+00 0. -1.
         -2   -1    0    0    0  501 -0.00000000000E+00 -0.00000000000E+00 -0.20841826529E+03  0.20841826529E+03  0.00000000000E+00 0.  1.
         21    1    1    2  502  503 -0.78835187146E+01  0.25010244178E+02 -0.15433888668E+03  0.15655080364E+03  0.00000000000E+00 0.  1.
         21    1    1    2  503  501  0.78835187146E+01 -0.25010244178E+02 -0.49728103043E+02  0.56218737209E+02  0.00000000000E+00 0. -1.
</event>
<event>
 4    1  0.5576842E+002  0.3831608E+02  0.7546771E-02  0.1358646E+00
          2   -1    0    0  502    0  0.00000000000E+00  0.00000000000E+00  0.20955126591E+04  0.20955126591E+04  0.00000000000E+00 0. -1.
         -2   -1    0    0    0  501 -0.00000000000E+00 -0.00000000000E+00 -0.17498018025E+01  0.17498018025E+01  0.00000000000E+00 0.  1.
         21    1    1    2  502  503 -0.28157843630E+02  0.25985728595E+02  0.18588837514E+04  0.18592786029E+04  0.00000000000E+00 0. -1.
         21    1    1    2  503  501  0.28157843630E+02 -0.25985728595E+02  0.23487910590E+03  0.23798385793E+03  0.00000000000E+00 0.  1.
</event>
<event>
 4    1  0.5576842E+002  0.3099886E+02  0.7546771E-02  0.1411110E+00
          2   -1    0    0  503    0  0.00000000000E+00  0.00000000000E+00  0.18725915290E+04  0.18725915290E+04  0.00000000000E+00 0.  1.
         -2   -1    0    0    0  501 -0.00000000000E+00 -0.00000000000E+00 -0.19434696693E+01  0.19434696693E+01  0.00000000000E+00 0. -1.
         21    1    1    2  502  501  0.29773238180E+02  0.86303901304E+01  0.13126024880E+03  0.13487098376E+03  0.00000000000E+00 0. -1.
         21    1    1    2  503  502 -0.29773238180E+02 -0.86303901304E+01  0.17393878106E+04  0.17396640149E+04  0.00000000000E+00 0.  1.
</event>
<event>
 4    1  0.5576842E+002  0.4765237E+02  0.7546771E-02  0.1308685E+00
          2   -1    0    0  502    0  0.00000000000E+00  0.00000000000E+00  0.49238248864E+01  0.49238248864E+01  0.00000000000E+00 0.  1.
         -2   -1    0    0    0  501 -0.00000000000E+00 -0.00000000000E+00 -0.55498829074E+03  0.55498829074E+03  0.00000000000E+00 0. -1.
         21    1    1    2  502  503 -0.12732536575E+02  0.45919835847E+02 -0.15993143746E+03  0.16687963776E+03  0.00000000000E+00 0.  1.
         21    1    1    2  503  501  0.12732536575E+02 -0.45919835847E+02 -0.39013302840E+03  0.39303247787E+03  0.00000000000E+00 0. -1.
</event>
<event>
 4    1  0.5576842E+002  0.2385401E+02  0.7546771E-02  0.1482044E+00
          2   -1    0    0  502    0  0.00000000000E+00  0.00000000000E+00  0.58455648206E+02  0.58455648206E+02  0.00000000000E+00 0.  1.
         -2   -1    0    0    0  501 -0.00000000000E+00 -0.00000000000E+00 -0.35371261438E+02  0.35371261438E+02  0.00000000000E+00 0. -1.
         21    1    1    2  502  503 -0.20554376204E+02  0.12105021831E+02 -0.28397708560E+02  0.37086975964E+02  0.00000000000E+00 0. -1.
         21    1    1    2  503  501  0.20554376204E+02 -0.12105021831E+02  0.51482095328E+02  0.56739933680E+02  0.00000000000E+00 0.  1.
</event>
<event>
 4    1  0.5576842E+002  0.2257218E+02  0.7546771E-02  0.1497941E+00
          2   -1    0    0  502    0  0.00000000000E+00  0.00000000000E+00  0.45763269242E+03  0.45763269242E+03  0.00000000000E+00 0.  1.
         -2   -1    0    0    0  501 -0.00000000000E+00 -0.00000000000E+00 -0.85735396723E+01  0.85735396723E+01  0.00000000000E+00 0. -1.
         21    1    1    2  502  503  0.19712736722E+02 -0.10995967042E+02  0.44197139164E+03  0.44254741476E+03  0.00000000000E+00 0.  1.
         21    1    1    2  503  501 -0.19712736722E+02  0.10995967042E+02  0.70877611100E+01  0.23658817337E+02  0.00000000000E+00 0. -1.
</event>
<event>
 4    1  0.5576842E+002  0.2743343E+02  0.7546771E-02  0.1443302E+00
          2   -1    0    0  503    0  0.00000000000E+00  0.00000000000E+00  0.15726888275E+04  0.15726888275E+04  0.00000000000E+00 0. -1.
         -2   -1    0    0    0  501 -0.00000000000E+00 -0.00000000000E+00 -0.23336842296E+01  0.23336842296E+01  0.00000000000E+00 0.  1.
         21    1    1    2  502  501  0.12474847095E+02 -0.24432998182E+02  0.83036042195E+02  0.87450428894E+02  0.00000000000E+00 0.  1.
         21    1    1    2  503  502 -0.12474847095E+02  0.24432998182E+02  0.14873191011E+04  0.14875720829E+04  0.00000000000E+00 0. -1.
</event>
<event>
 4    1  0.5576842E+002  0.2262972E+02  0.7546771E-02  0.1497201E+00
          2   -1    0    0  502    0  0.00000000000E+00  0.00000000000E+00  0.13291658160E+01  0.13291658160E+01  0.00000000000E+00 0. -1.
         -2   -1    0    0    0  501 -0.00000000000E+00 -0.00000000000E+00 -0.41096213339E+03  0.41096213339E+03  0.00000000000E+00 0.  1.
         21    1    1    2  502  503 -0.22628724732E+02 -0.21221586045E+00 -0.15328550644E+03  0.15494692867E+03  0.00000000000E+00 0. -1.
         21    1    1    2  503  501  0.22628724732E+02  0.21221586045E+00 -0.25634746113E+03  0.25734437054E+03  0.00000000000E+00 0.  1.
</event>
<event>
 4    1  0.5576842E+002  0.3234611E+02  0.7546771E-02  0.1400247E+00
          2   -1    0    0  502    0  0.00000000000E+00  0.00000000000E+00  0.13710746606E+02  0.13710746606E+02  0.00000000000E+00 0. -1.
         -2   -1    0    0    0  501 -0.00000000000E+00 -0.00000000000E+00 -0.98079959002E+02  0.98079959002E+02  0.00000000000E+00 0.  1.
         21    1    1    2  502  503 -0.73580043760E+01  0.31498107277E+02 -0.15850928258E+02  0.36021145415E+02  0.00000000000E+00 0. -1.
         21    1    1    2  503  501  0.73580043760E+01 -0.31498107277E+02 -0.68518284139E+02  0.75769560192E+02  0.00000000000E+00 0.  1.
</event>
<event>
 4    1  0.5576842E+002  0.3108949E+02  0.7546771E-02  0.1410359E+00
          2   -1    0    0  502    0  0.00000000000E+00  0.00000000000E+00  0.14910071090E+03  0.14910071090E+03  0.00000000000E+00 0.  1.
         -2   -1    0    0    0  501 -0.00000000000E+00 -0.00000000000E+00 -0.12617412703E+02  0.12617412703E+02  0.00000000000E+00 0. -1.
         21    1    1    2  502  503  0.31088616193E+02  0.23257988291E+00  0.12462425903E+03  0.12844361444E+03  0.00000000000E+00 0.  1.
         21    1    1    2  503  501 -0.31088616193E+02 -0.23257988291E+00  0.11859039161E+02  0.33274509162E+02  0.00000000000E+00 0. -1.
</event>
<event>
 4    1  0.5576842E+002  0.2242897E+02  0.7546771E-02  0.1499796E+00
          2   -1    0    0  503    0  0.00000000000E+00  0.00000000000E+00  0.12383785378E+02  0.12383785378E+02  0.00000000000E+00 0.  1.
         -2   -1    0    0    0  501 -0.00000000000E+00 -0.00000000000E+00 -0.49477392781E+02  0.49477392781E+02  0.00000000000E+00 0. -1.
         21    1    1    2  502  501 -0.81126546079E+01  0.20910364107E+02 -0.31631994654E+02  0.38776817529E+02  0.00000000000E+00 0. -1.
         21    1    1    2  503  502  0.81126546079E+01 -0.20910364107E+02 -0.54616127488E+01  0.23084360630E+02  0.00000000000E+00 0.  1.
</event>
<event>
 4    1  0.5576842E+002  0.2864092E+02  0.7546771E-02  0.1431786E+00
          2   -1    0    0  503    0  0.00000000000E+00  0.00000000000E+00  0.60923235740E+03  0.60923235740E+03  0.00000000000E+00 0.  1.
         -2   -1    0    0    0  501 -0.00000000000E+00 -0.00000000000E+00 -0.48100615530E+01  0.48100615530E+01  0.00000000000E+00 0. -1.
         21    1    1    2  502  501  0.48816122528E+01  0.28221836160E+02  0.41681279186E+02  0.50573028473E+02  0.00000000000E+00 0. -1.
         21    1    1    2  503  502 -0.48816122528E+01 -0.28221836160E+02  0.56274101666E+03  0.56346939048E+03  0.00000000000E+00 0.  1.
</event>
<event>
 4    1  0.5576842E+002  0.2126598E+02  0.7546771E-02  0.1515501E+00
          2   -1    0    0  503    0  0.00000000000E+00  0.00000000000E+00  0.22422325978E+02  0.22422325978E+02  0.00000000000E+00 0. -1.
         -2   -1    0    0    0  501 -0.00000000000E+00 -0.00000000000E+00 -0.20737157951E+02  0.20737157951E+02  0.00000000000E+00 0.  1.
         21    1    1    2  502  501 -0.15858929213E+02 -0.14168140675E+02 -0.27285378790E+01  0.21440307016E+02  0.00000000000E+00 0.  1.
         21    1    1    2  503  502  0.15858929213E+02  0.14168140675E+02  0.44137059062E+01  0.21719176913E+02  0.00000000000E+00 0. -1.
</event>
<event>
 4    1  0.5576842E+002  0.3539611E+02  0.7546771E-02  0.1377800E+00
          2   -1    0    0  503    0  0.00000000000E+00  0.00000000000E+00  0.96340587802E+02  0.96340587802E+02  0.00000000000E+00 0.  1.
         -2   -1    0    0    0  501 -0.00000000000E+00 -0.00000000000E+00 -0.14207958807E+02  0.14207958807E+02  0.00000000000E+00 0. -1.
         21    1    1    2  502  501  0.22107626945E+01  0.35327006485E+02  0.24981041061E+02  0.43323634097E+02  0.00000000000E+00 0. -1.
         21    1    1    2  503  502 -0.22107626945E+01 -0.35327006485E+02  0.57151587934E+02  0.67224912512E+02  0.00000000000E+00 0.  1.
</event>
<event>
 4    1  0.5576842E+002  0.2359155E+02  0.7546771E-02  0.1485201E+00
          2   -1    0    0  503    0  0.00000000000E+00  0.00000000000E+00  0.26785113859E+02  0.26785113859E+02  0.00000000000E+00 0.  1.
         -2   -1    0    0    0  501 -0.00000000000E+00 -0.00000000000E+00 -0.90555724453E+02  0.90555724453E+02  0.00000000000E+00 0. -1.
         21    1    1    2  502  501 -0.19524140554E+02  0.13242705951E+02 -0.83386498031E+02  0.86659502532E+02  0.00000000000E+00 0. -1.
         21    1    1    2  503  502  0.19524140554E+02 -0.13242705951E+02  0.19615887437E+02  0.30681335780E+02  0.00000000000E+00 0.  1.
</event>
<event>
 4    1  0.5576842E+002  0.2521735E+02  0.7546771E-02  0.1466386E+00
          2   -1    0    0  503    0  0.00000000000E+00  0.00000000000E+00  0.83585096707E+03  0.83585096707E+03  0.00000000000E+00 0.  1.
         -2   -1    0    0    0  501 -0.00000000000E+00 -0.00000000000E+00 -0.76319963563E+00  0.76319963563E+00  0.00000000000E+00 0. -1.
         21    1    1    2  502  501  0.35054081542E+01 -0.24972523585E+02  0.44100308502E+03  0.44172348344E+03  0.00000000000E+00 0. -1.
         21    1    1    2  503  502 -0.35054081542E+01  0.24972523585E+02  0.39408468241E+03  0.39489068327E+03  0.00000000000E+00 0.  1.
</event>
<event>
 4    1  0.5576842E+002  0.2597231E+02  0.7546771E-02  0.1458214E+00
          2   -1    0    0  503    0  0.00000000000E+00  0.00000000000E+00  0.10155367222E+04  0.10155367222E+04  0.00000000000E+00 0. -1.
         -2   -1    0    0    0  501 -0.00000000000E+00 -0.00000000000E+00 -0.48528285525E+01  0.48528285525E+01  0.00000000000E+00 0.  1.
         21    1    1    2  502  501  0.24742373525E+02 -0.78978216496E+01  0.31348478725E+02  0.40709799223E+02  0.00000000000E+00 0.  1.
         21    1    1    2  503  502 -0.24742373525E+02  0.78978216496E+01  0.97933541493E+03  0.97967975154E+03  0.00000000000E+00 0. -1.
</event>
<event>
 4    1  0.5576842E+002  0.2732756E+02  0.7546771E-02  0.1444345E+00
          2   -1    0    0  503    0  0.00000000000E+00  0.00000000000E+00  0.39879641338E+03  0.39879641338E+03  0.00000000000E+00 0. -1.
         -2   -1    0    0    0  501 -0.00000000000E+00 -0.00000000000E+00 -0.29160535157E+01  0.29160535157E+01  0.00000000000E+00 0.  1.
         21    1    1    2  502  501 -0.19356111920E+02  0.19290834140E+02  0.77791410057E+02  0.82451797004E+02  0.00000000000E+00 0.  1.
         21    1    1    2  503  502  0.19356111920E+02 -0.19290834140E+02  0.31808894980E+03  0.31926066989E+03  0.00000000000E+00 0. -1.
</event>
<event>
 4    1  0.5576842E+002  0.2622268E+02  0.7546771E-02  0.1455577E+00
          2   -1    0    0  502    0  0.00000000000E+00  0.00000000000E+00  0.48173450054E+02  0.48173450054E+02  0.00000000000E+00 0.  1.
         -2   -1    0    0    0  501 -0.00000000000E+00 -0.00000000000E+00 -0.26874269730E+02  0.26874269730E+02  0.00000000000E+00 0. -1.
         21    1    1    2  502  503 -0.19552897724E+02 -0.17473205922E+02 -0.15044235074E+02  0.30231734048E+02  0.00000000000E+00 0. -1.
         21    1    1    2  503  501  0.19552897724E+02  0.17473205922E+02  0.36343415398E+02  0.44815985735E+02  0.00000000000E+00 0.  1.
</event>
<event>
 4    1  0.5576842E+002  0.2035479E+02  0.7546771E-02  0.1528679E+00
          2   -1    0    0  503    0  0.00000000000E+00  0.00000000000E+00  0.20101146310E+01  0.20101146310E+01  0.00000000000E+00 0.  1.
         -2   -1    0    0    0  501 -0.00000000000E+00 -0.00000000000E+00 -0.12631617253E+04  0.12631617253E+04  0.00000000000E+00 0. -1.
         21    1    1    2  502  501 -0.20309669289E+02 -0.13545798008E+01 -0.12092536446E+04  0.12094249437E+04  0.00000000000E+00 0. -1.
         21    1    1    2  503  502  0.20309669289E+02  0.13545798008E+01 -0.51897966046E+02  0.55746896172E+02  0.00000000000E+00 0.  1.
</event>
<event>
 4    1  0.5576842E+002  0.3136261E+02  0.7546771E-02  0.1408114E+00
          2   -1    0    0  503    0  0.00000000000E+00  0.00000000000E+00  0.59624371492E+01  0.59624371492E+01  0.00000000000E+00 0. -1.
         -2   -1    0    0    0  501 -0.00000000000E+00 -0.00000000000E+00 -0.38824870918E+03  0.38824870918E+03  0.00000000000E+00 0.  1.
         21    1    1    2  502  501  0.22014769121E+02 -0.22337482746E+02 -0.34061835261E+03  0.34205916934E+03  0.00000000000E+00 0.  1.
         21    1    1    2  503  502 -0.22014769121E+02  0.22337482746E+02 -0.41667919415E+02  0.52151976984E+02  0.00000000000E+00 0. -1.
</event>
<event>
 4    1  0.5576842E+002  0.4739259E+02  0.7546771E-02  0.1309891E+00
          2   -1    0    0  503    0  0.00000000000E+00  0.00000000000E+00  0.30678792680E+02  0.30678792680E+02  0.00000000000E+00 0.  1.
         -2   -1    0    0    0  501 -0.00000000000E+00 -0.00000000000E+00 -0.11099280927E+03  0.11099280927E+03  0.00000000000E+00 0. -1.
         21    1    1    2  502  501 -0.46743935490E+02 -0.78142509250E+01  0.11706305210E+01  0.47407050092E+02  0.00000000000E+00 0.  1.
         21    1    1    2  503  502  0.46743935490E+02  0.78142509250E+01 -0.81484647115E+02  0.94264551864E+02  0.00000000000E+00 0. -1.
</event>
<event>
 4    1  0.5576842E+002  0.2909637E+02  0.7546771E-02  0.1427615E+00
          2   -1    0    0  502    0  0.00000000000E+00  0.00000000000E+00  0.12775443050E+01  0.12775443050E+01  0.00000000000E+00 0. -1.
         -2   -1    0    0    0  501 -0.00000000000E+00 -0.00000000000E+00 -0.79618784932E+03  0.79618784932E+03  0.00000000000E+00 0.  1.
         21    1    1    2  502  503  0.28654799198E+02 -0.50498563057E+01 -0.23417507459E+03  0.23597577021E+03  0.00000000000E+00 0. -1.
         21    1    1    2  503  501 -0.28654799198E+02  0.50498563057E+01 -0.56073523042E+03  0.56148962342E+03  0.00000000000E+00 0.  1.
</event>
<event>
 4    1  0.5576842E+002  0.2079805E+02  0.7546771E-02  0.1522168E+00
          2   -1    0    0  502    0  0.00000000000E+00  0.00000000000E+00  0.17490640391E+03  0.17490640391E+03  0.00000000000E+00 0.  1.
         -2   -1    0    0    0  501 -0.00000000000E+00 -0.00000000000E+00 -0.53664743547E+01  0.53664743547E+01  0.00000000000E+00 0. -1.
         21    1    1    2  502  503 -0.61301810798E+01 -0.19874098954E+02  0.15095488995E+03  0.15238089687E+03  0.00000000000E+00 0.  1.
         21    1    1    2  503  501  0.61301810798E+01  0.19874098954E+02  0.18585039606E+02  0.27891981401E+02  0.00000000000E+00 0. -1.
</event>
<event>
 4    1  0.5576842E+002  0.2626745E+02  0.7546771E-02  0.1455109E+00
          2   -1    0    0  503    0  0.00000000000E+00  0.00000000000E+00  0.15818155739E+02  0.15818155739E+02  0.00000000000E+00 0.  1.
         -2   -1    0    0    0  501 -0.00000000000E+00 -0.00000000000E+00 -0.10480498275E+03  0.10480498275E+03  0.00000000000E+00 0. -1.
         21    1    1    2  502  501 -0.23887882685E+02 -0.10924643262E+02 -0.90575713263E+02  0.94307680507E+02  0.00000000000E+00 0. -1.
         21    1    1    2  503  502  0.23887882685E+02  0.10924643262E+02  0.15888862473E+01  0.26315457987E+02  0.00000000000E+00 0.  1.
</event>
<event>
 4    1  0.5576842E+002  0.2252544E+02  0.7546771E-02  0.1498545E+00
          2   -1    0    0  502    0  0.00000000000E+00  0.00000000000E+00  0.19623274864E+01  0.19623274864E+01  0.00000000000E+00 0.  1.
         -2   -1    0    0    0  501 -0.00000000000E+00 -0.00000000000E+00 -0.25863645494E+03  0.25863645494E+03  0.00000000000E+00 0. -1.
         21    1    1    2  502  503 -0.21722118853E+02  0.59619614178E+01 -0.12621990706E+03  0.12821411923E+03  0.00000000000E+00 0.  1.
         21    1    1    2  503  501  0.21722118853E+02 -0.59619614178E+01 -0.13045422039E+03  0.13238466320E+03  0.00000000000E+00 0. -1.
</event>
<event>
 4    1  0.5576842E+002  0.2839549E+02  0.7546771E-02  0.1434072E+00
          2   -1    0    0  503    0  0.00000000000E+00  0.00000000000E+00  0.39732055117E+02  0.39732055117E+02  0.00000000000E+00 0. -1.
         -2   -1    0    0    0  501 -0.00000000000E+00 -0.00000000000E+00 -0.49596253268E+02  0.49596253268E+02  0.00000000000E+00 0.  1.
         21    1    1    2  502  501  0.12139735292E+02  0.25669646400E+02 -0.39263270445E+02  0.48455219794E+02  0.00000000000E+00 0.  1.
         21    1    1    2  503  502 -0.12139735292E+02 -0.25669646400E+02  0.29399072294E+02  0.40873088591E+02  0.00000000000E+00 0. -1.
</event>
<event>
 4    1  0.5576842E+002  0.2100526E+02  0.7546771E-02  0.1519190E+00
          2   -1    0    0  502    0  0.00000000000E+00  0.00000000000E+00  0.12340928173E+03  0.12340928173E+03  0.00000000000E+00 0.  1.
         -2   -1    0    0    0  501 -0.00000000000E+00 -0.00000000000E+00 -0.92776880183E+01  0.92776880183E+01  0.00000000000E+00 0. -1.
         21    1    1    2  502  503  0.15093554818E+02 -0.14608411320E+02  0.10907833583E+03  0.11108242177E+03  0.00000000000E+00 0.  1.
         21    1    1    2  503  501 -0.15093554818E+02  0.14608411320E+02  0.50532578848E+01  0.21604547984E+02  0.00000000000E+00 0. -1.
</event>
<event>
 4    1  0.5576842E+002  0.2889321E+02  0.7546771E-02  0.1429464E+00
          2   -1    0    0  502    0  0.00000000000E+00  0.00000000000E+00  0.14577789925E+04  0.14577789925E+04  0.00000000000E+00 0. -1.
         -2   -1    0    0    0  501 -0.00000000000E+00 -0.00000000000E+00 -0.22408073890E+01  0.22408073890E+01  0.00000000000E+00 0.  1.
         21    1    1    2  502  503 -0.46245082711E+01 -0.28520724184E+02  0.13576278239E+04  0.13579352437E+04  0.00000000000E+00 0. -1.
         21    1    1    2  503  501  0.46245082711E+01  0.28520724184E+02  0.97910361166E+02  0.10208455617E+03  0.00000000000E+00 0.  1.
</event>
<event>
 4    1  0.5576842E+002  0.2021614E+02  0.7546771E-02  0.1530757E+00
          2   -1    0    0  503    0  0.00000000000E+00  0.00000000000E+00  0.15620272475E+03  0.15620272475E+03  0.00000000000E+00 0. -1.
         -2   -1    0    0    0  501 -0.00000000000E+00 -0.00000000000E+00 -0.12304283974E+02  0.12304283974E+02  0.00000000000E+00 0.  1.
         21    1    1    2  502  501 -0.14379662711E+02 -0.14209777250E+02 -0.28115451616E+01  0.20410714230E+02  0.00000000000E+00 0.  1.
         21    1    1    2  503  502  0.14379662711E+02  0.14209777250E+02  0.14670998594E+03  0.14809629450E+03  0.00000000000E+00 0. -1.
</event>
<event>
 4    1  0.5576842E+002  0.2207896E+02  0.7546771E-02  0.1504399E+00
          2   -1    0    0  503    0  0.00000000000E+00  0.00000000000E+00  0.16644367372E+04  0.16644367372E+04  0.00000000000E+00 0. -1.
         -2   -1    0    0    0  501 -0.00000000000E+00 -0.00000000000E+00 -0.44302765801E+00  0.44302765801E+00  0.00000000000E+00 0.  1.
         21    1    1    2  502  501 -0.20773935164E+02 -0.74782418147E+01  0.34738222328E+03  0.34808316468E+03  0.00000000000E+00 0.  1.
         21    1    1    2  503  502  0.20773935164E+02  0.74782418147E+01  0.13166114862E+04  0.13167966001E+04  0.00000000000E+00 0. -1.
</event>
<event>
 4    1  0.5576842E+002  0.2800111E+02  0.7546771E-02  0.1437803E+00
          2   -1    0    0  503    0  0.00000000000E+00  0.00000000000E+00  0.30435243595E+03  0.30435243595E+03  0.00000000000E+00 0. -1.
         -2   -1    0    0    0  501 -0.00000000000E+00 -0.00000000000E+00 -0.25938762216E+01  0.25938762216E+01  0.00000000000E+00 0.  1.
         21    1    1    2  502  501 -0.27999902898E+02  0.25962681331E+00  0.13819729927E+03  0.14100551583E+03  0.00000000000E+00 0.  1.
         21    1    1    2  503  502  0.27999902898E+02 -0.25962681331E+00  0.16356126045E+03  0.16594079634E+03  0.00000000000E+00 0. -1.
</event>
<event>
 4    1  0.5576842E+002  0.2119983E+02  0.7546771E-02  0.1516431E+00
          2   -1    0    0  503    0  0.00000000000E+00  0.00000000000E+00  0.85338798750E+03  0.85338798750E+03  0.00000000000E+00 0. -1.
         -2   -1    0    0    0  501 -0.00000000000E+00 -0.00000000000E+00 -0.77991138779E+00  0.77991138779E+00  0.00000000000E+00 0.  1.
         21    1    1    2  502  501 -0.10476019724E+02  0.18430571821E+02  0.18292736774E+03  0.18415171690E+03  0.00000000000E+00 0.  1.
         21    1    1    2  503  502  0.10476019724E+02 -0.18430571821E+02  0.66968070837E+03  0.67001618199E+03  0.00000000000E+00 0. -1.
</event>
<event>
 4    1  0.5576842E+002  0.4042306E+02  0.7546771E-02  0.1346024E+00
          2   -1    0    0  503    0  0.00000000000E+00  0.00000000000E+00  0.31181699921E+03  0.31181699921E+03  0.00000000000E+00 0.  1.
         -2   -1    0    0    0  501 -0.00000000000E+00 -0.00000000000E+00 -0.21148121366E+02  0.21148121366E+02  0.00000000000E+00 0. -1.
         21    1    1    2  502  501 -0.23701349429E+02 -0.32745535914E+02  0.94421581220E+00  0.40434089955E+02  0.00000000000E+00 0. -1.
         21    1    1    2  503  502  0.23701349429E+02  0.32745535914E+02  0.28972466203E+03  0.29253103062E+03  0.00000000000E+00 0.  1.
</event>
<event>
 4    1  0.5576842E+002  0.8207796E+02  0.7546771E-02  0.1199104E+00
          2   -1    0    0  503    0  0.00000000000E+00  0.00000000000E+00  0.25975940301E+03  0.25975940301E+03  0.00000000000E+00 0.  1.
         -2   -1    0    0    0  501 -0.00000000000E+00 -0.00000000000E+00 -0.35363381002E+02  0.35363381002E+02  0.00000000000E+00 0. -1.
         21    1    1    2  502  501 -0.57761798329E+02 -0.58312656948E+02  0.36004056132E+02  0.89627469921E+02  0.00000000000E+00 0. -1.
         21    1    1    2  503  502  0.57761798329E+02  0.58312656948E+02  0.18839196588E+03  0.20549531409E+03  0.00000000000E+00 0.  1.
</event>
<event>
 4    1  0.5576842E+002  0.2146642E+02  0.7546771E-02  0.1512709E+00
          2   -1    0    0  503    0  0.00000000000E+00  0.00000000000E+00  0.18128514061E+03  0.18128514061E+03  0.00000000000E+00 0.  1.
         -2   -1    0    0    0  501 -0.00000000000E+00 -0.00000000000E+00 -0.27107161911E+01  0.27107161911E+01  0.00000000000E+00 0. -1.
         21    1    1    2  502  501 -0.73279647392E+01  0.20176923553E+02  0.66328214877E+02  0.69715417234E+02  0.00000000000E+00 0.  1.
         21    1    1    2  503  502  0.73279647392E+01 -0.20176923553E+02  0.11224620954E+03  0.11428043957E+03  0.00000000000E+00 0. -1.
</event>
<event>
 4    1  0.5576842E+002  0.3715330E+02  0.7546771E-02  0.1366026E+00
          2   -1    0    0  503    0  0.00000000000E+00  0.00000000000E+00  0.77385063764E+03  0.77385063764E+03  0.00000000000E+00 0.  1.
         -2   -1    0    0    0  501 -0.00000000000E+00 -0.00000000000E+00 -0.18129081510E+01  0.18129081510E+01  0.00000000000E+00 0. -1.
         21    1    1    2  502  501 -0.32209966801E+02 -0.18517164231E+02  0.43519191056E+03  0.43677496076E+03  0.00000000000E+00 0. -1.
         21    1    1    2  503  502  0.32209966801E+02  0.18517164231E+02  0.33684581893E+03  0.33888858502E+03  0.00000000000E+00 0.  1.
</event>
<event>
 4    1  0.5576842E+002  0.2035592E+02  0.7546771E-02  0.1528663E+00
          2   -1    0    0  503    0  0.00000000000E+00  0.00000000000E+00  0.83004634225E+00  0.83004634225E+00  0.00000000000E+00 0.  1.
         -2   -1    0    0    0  501 -0.00000000000E+00 -0.00000000000E+00 -0.68205205433E+03  0.68205205433E+03  0.00000000000E+00 0. -1.
         21    1    1    2  502  501  0.11230675741E+02  0.16977491181E+02 -0.51739826082E+03  0.51779853571E+03  0.00000000000E+00 0. -1.
         21    1    1    2  503  502 -0.11230675741E+02 -0.16977491181E+02 -0.16382374717E+03  0.16508356497E+03  0.00000000000E+00 0.  1.
</event>
<event>
 4    1  0.5576842E+002  0.2356290E+02  0.7546771E-02  0.1485548E+00
          2   -1    0    0  502    0  0.00000000000E+00  0.00000000000E+00  0.12438566617E+04  0.12438566617E+04  0.00000000000E+00 0.  1.
         -2   -1    0    0    0  501 -0.00000000000E+00 -0.00000000000E+00 -0.44673628776E+00  0.44673628776E+00  0.00000000000E+00 0. -1.
         21    1    1    2  502  503  0.20076366535E+02 -0.12334902096E+02  0.60369577382E+03  0.60415544161E+03  0.00000000000E+00 0. -1.
         21    1    1    2  503  501 -0.20076366535E+02  0.12334902096E+02  0.63971415164E+03  0.64014795642E+03  0.00000000000E+00 0.  1.
</event>
<event>
 4    1  0.5576842E+002  0.2153346E+02  0.7546771E-02  0.1511783E+00
          2   -1    0    0  502    0  0.00000000000E+00  0.00000000000E+00  0.74197003502E+03  0.74197003502E+03  0.00000000000E+00 0. -1.
         -2   -1    0    0    0  501 -0.00000000000E+00 -0.00000000000E+00 -0.15218047897E+01  0.15218047897E+01  0.00000000000E+00 0.  1.
         21    1    1    2  502  503  0.15301162507E+02 -0.15151378521E+02  0.65560784885E+03  0.65596138706E+03  0.00000000000E+00 0. -1.
         21    1    1    2  503  501 -0.15301162507E+02  0.15151378521E+02  0.84840381379E+02  0.87530452744E+02  0.00000000000E+00 0.  1.
</event>
<event>
 4    1  0.5576842E+002  0.2059242E+02  0.7546771E-02  0.1525164E+00
          2   -1    0    0  502    0  0.00000000000E+00  0.00000000000E+00  0.17422564510E+01  0.17422564510E+01  0.00000000000E+00 0.  1.
         -2   -1    0    0    0  501 -0.00000000000E+00 -0.00000000000E+00 -0.58675018981E+03  0.58675018981E+03  0.00000000000E+00 0. -1.
         21    1    1    2  502  503  0.29891888461E+01 -0.20374308755E+02 -0.67412370599E+02  0.70487413181E+02  0.00000000000E+00 0.  1.
         21    1    1    2  503  501 -0.29891888461E+01  0.20374308755E+02 -0.51759556276E+03  0.51800503308E+03  0.00000000000E+00 0. -1.
</event>
<event>
 4    1  0.5576842E+002  0.2940667E+02  0.7546771E-02  0.1424823E+00
          2   -1    0    0  503    0  0.00000000000E+00  0.00000000000E+00  0.21813104517E+04  0.21813104517E+04  0.00000000000E+00 0.  1.
         -2   -1    0    0    0  501 -0.00000000000E+00 -0.00000000000E+00 -0.51013421018E+00  0.51013421018E+00  0.00000000000E+00 0. -1.
         21    1    1    2  502  501  0.25514374981E+02 -0.14620846853E+02  0.57538330970E+03  0.57613427738E+03  0.00000000000E+00 0. -1.
         21    1    1    2  503  502 -0.25514374981E+02  0.14620846853E+02  0.16054170078E+04  0.16056863086E+04  0.00000000000E+00 0.  1.
</event>
<event>
 4    1  0.5576842E+002  0.3057503E+02  0.7546771E-02  0.1414664E+00
          2   -1    0    0  502    0  0.00000000000E+00  0.00000000000E+00  0.55779581081E+03  0.55779581081E+03  0.00000000000E+00 0. -1.
         -2   -1    0    0    0  501 -0.00000000000E+00 -0.00000000000E+00 -0.57231013989E+01  0.57231013989E+01  0.00000000000E+00 0.  1.
         21    1    1    2  502  503  0.38769650573E+01 -0.30328232781E+02  0.51297615495E+03  0.51388653233E+03  0.00000000000E+00 0. -1.
         21    1    1    2  503  501 -0.38769650573E+01  0.30328232781E+02  0.39096554453E+02  0.49632379872E+02  0.00000000000E+00 0.  1.
</event>
<event>
 4    1  0.5576842E+002  0.7104950E+02  0.7546771E-02  0.1226305E+00
          2   -1    0    0  503    0  0.00000000000E+00  0.00000000000E+00  0.76521873403E+03  0.76521873403E+03  0.00000000000E+00 0. -1.
         -2   -1    0    0    0  501 -0.00000000000E+00 -0.00000000000E+00 -0.71889031184E+01  0.71889031184E+01  0.00000000000E+00 0.  1.
         21    1    1    2  502  501  0.67908499355E+02  0.20891799906E+02  0.48984721905E+03  0.49497305947E+03  0.00000000000E+00 0. -1.
         21    1    1    2  503  502 -0.67908499355E+02 -0.20891799906E+02  0.26818261187E+03  0.27743457768E+03  0.00000000000E+00 0.  1.
</event>
<event>
 4    1  0.5576842E+002  0.2176321E+02  0.7546771E-02  0.1508641E+00
          2   -1    0    0  502    0  0.00000000000E+00  0.00000000000E+00  0.36983493889E+00  0.36983493889E+00  0.00000000000E+00 0.  1.
         -2   -1    0    0    0  501 -0.00000000000E+00 -0.00000000000E+00 -0.12806789245E+04  0.12806789245E+04  0.00000000000E+00 0. -1.
         21    1    1    2  502  503 -0.92101125576E+01  0.19718294963E+02 -0.64162087095E+03  0.64198985924E+03  0.00000000000E+00 0.  1.
         21    1    1    2  503  501  0.92101125576E+01 -0.19718294963E+02 -0.63868821857E+03  0.63905890016E+03  0.00000000000E+00 0. -1.
</event>
<event>
 4    1  0.5576842E+002  0.2369234E+02  0.7546771E-02  0.1483983E+00
          2   -1    0    0  502    0  0.00000000000E+00  0.00000000000E+00  0.49756652827E+02  0.49756652827E+02  0.00000000000E+00 0. -1.
         -2   -1    0    0    0  501 -0.00000000000E+00 -0.00000000000E+00 -0.52791530120E+02  0.52791530120E+02  0.00000000000E+00 0.  1.
         21    1    1    2  502  503  0.23207748597E+02  0.47673249619E+01  0.43949179974E+02  0.49928522937E+02  0.00000000000E+00 0. -1.
         21    1    1    2  503  501 -0.23207748597E+02 -0.47673249619E+01 -0.46984057267E+02  0.52619660010E+02  0.00000000000E+00 0.  1.
</event>
<event>
 4    1  0.5576842E+002  0.2592953E+02  0.7546771E-02  0.1458668E+00
          2   -1    0    0  503    0  0.00000000000E+00  0.00000000000E+00  0.76460280496E+02  0.76460280496E+02  0.00000000000E+00 0.  1.
         -2   -1    0    0    0  501 -0.00000000000E+00 -0.00000000000E+00 -0.13016111241E+02  0.13016111241E+02  0.00000000000E+00 0. -1.
         21    1    1    2  502  501  0.25346102762E+02 -0.54695336664E+01  0.62398818400E+01  0.26669774073E+02  0.00000000000E+00 0. -1.
         21    1    1    2  503  502 -0.25346102762E+02  0.54695336664E+01  0.57204287415E+02  0.62806617664E+02  0.00000000000E+00 0.  1.
</event>
<event>
 4    1  0.5576842E+002  0.4839414E+02  0.7546771E-02  0.1305289E+00
          2   -1    0    0  502    0  0.00000000000E+00  0.00000000000E+00  0.15020060741E+03  0.15020060741E+03  0.00000000000E+00 0.  1.
         -2   -1    0    0    0  501 -0.00000000000E+00 -0.00000000000E+00 -0.16607493561E+02  0.16607493561E+02  0.00000000000E+00 0. -1.
         21    1    1    2  502  503  0.17754307936E+02  0.45019740574E+02  0.87416224793E+02  0.99917910550E+02  0.00000000000E+00 0. -1.
         21    1    1    2  503  501 -0.17754307936E+02 -0.45019740574E+02  0.46176889056E+02  0.66890190421E+02  0.00000000000E+00 0.  1.
</event>
<event>
 4    1  0.5576842E+002  0.2033012E+02  0.7546771E-02  0.1529048E+00
          2   -1    0    0  503    0  0.00000000000E+00  0.00000000000E+00  0.67762637611E+02  0.67762637611E+02  0.00000000000E+00 0. -1.
         -2   -1    0    0    0  501 -0.00000000000E+00 -0.00000000000E+00 -0.64641847643E+01  0.64641847643E+01  0.00000000000E+00 0.  1.
         21    1    1    2  502  501 -0.12553534401E+02  0.15991324153E+02  0.21833204943E+02  0.29832909885E+02  0.00000000000E+00 0. -1.
         21    1    1    2  503  502  0.12553534401E+02 -0.15991324153E+02  0.39465247903E+02  0.44393912490E+02  0.00000000000E+00 0.  1.
</event>
<event>
 4    1  0.5576842E+002  0.5846226E+02  0.7546771E-02  0.1265149E+00
          2   -1    0    0  503    0  0.00000000000E+00  0.00000000000E+00  0.83108272158E+02  0.83108272158E+02  0.00000000000E+00 0.  1.
         -2   -1    0    0    0  501 -0.00000000000E+00 -0.00000000000E+00 -0.10557305962E+03  0.10557305962E+03  0.00000000000E+00 0. -1.
         21    1    1    2  502  501  0.37691282916E+02  0.44690077936E+02 -0.84942489378E+02  0.10311674149E+03  0.00000000000E+00 0. -1.
         21    1    1    2  503  502 -0.37691282916E+02 -0.44690077936E+02  0.62477701918E+02  0.85564590286E+02  0.00000000000E+00 0.  1.
</event>
<event>
 4    1  0.5576842E+002  0.2201098E+02  0.7546771E-02  0.1505305E+00
          2   -1    0    0  502    0  0.00000000000E+00  0.00000000000E+00  0.17678490077E+02  0.17678490077E+02  0.00000000000E+00 0.  1.
         -2   -1    0    0    0  501 -0.00000000000E+00 -0.00000000000E+00 -0.69287098637E+02  0.69287098637E+02  0.00000000000E+00 0. -1.
         21    1    1    2  502  503  0.20415006303E+02 -0.82286423344E+01  0.80025138590E+01  0.23420573543E+02  0.00000000000E+00 0.  1.
         21    1    1    2  503  501 -0.20415006303E+02  0.82286423344E+01 -0.59611122419E+02  0.63545015171E+02  0.00000000000E+00 0. -1.
</event>
<event>
 4    1  0.5576842E+002  0.2098657E+02  0.7546771E-02  0.1519457E+00
          2   -1    0    0  502    0  0.00000000000E+00  0.00000000000E+00  0.16872593990E+04  0.16872593990E+04  0.00000000000E+00 0.  1.
         -2   -1    0    0    0  501 -0.00000000000E+00 -0.00000000000E+00 -0.84683334484E+00  0.84683334484E+00  0.00000000000E+00 0. -1.
         21    1    1    2  502  503 -0.10954653289E+02 -0.17900604878E+02  0.15452180007E+04  0.15453605100E+04  0.00000000000E+00 0.  1.
         21    1    1    2  503  501  0.10954653289E+02  0.17900604878E+02  0.14119456492E+03  0.14274572234E+03  0.00000000000E+00 0. -1.
</event>
<event>
 4    1  0.5576842E+002  0.2251489E+02  0.7546771E-02  0.1498681E+00
          2   -1    0    0  502    0  0.00000000000E+00  0.00000000000E+00  0.35437835509E+02  0.35437835509E+02  0.00000000000E+00 0. -1.
         -2   -1    0    0    0  501 -0.00000000000E+00 -0.00000000000E+00 -0.27178918742E+02  0.27178918742E+02  0.00000000000E+00 0.  1.
         21    1    1    2  502  503  0.21985492053E+02 -0.48537160453E+01  0.25677526050E+02  0.34150487029E+02  0.00000000000E+00 0. -1.
         21    1    1    2  503  501 -0.21985492053E+02  0.48537160453E+01 -0.17418609283E+02  0.28466267222E+02  0.00000000000E+00 0.  1.
</event>
<event>
 4    1  0.5576842E+002  0.4721724E+02  0.7546771E-02  0.1310710E+00
          2   -1    0    0  503    0  0.00000000000E+00  0.00000000000E+00  0.87525177853E+02  0.87525177853E+02  0.00000000000E+00 0.  1.
         -2   -1    0    0    0  501 -0.00000000000E+00 -0.00000000000E+00 -0.15238353086E+03  0.15238353086E+03  0.00000000000E+00 0. -1.
         21    1    1    2  502  501  0.16338705221E+02  0.44300280804E+02 -0.14189965543E+03  0.14954925737E+03  0.00000000000E+00 0. -1.
         21    1    1    2  503  502 -0.16338705221E+02 -0.44300280804E+02  0.77041302426E+02  0.90359451344E+02  0.00000000000E+00 0.  1.
</event>
<event>
 4    1  0.5576842E+002  0.3725007E+02  0.7546771E-02  0.1365400E+00
          2   -1    0    0  503    0  0.00000000000E+00  0.00000000000E+00  0.48461834378E+02  0.48461834378E+02  0.00000000000E+00 0. -1.
         -2   -1    0    0    0  501 -0.00000000000E+00 -0.00000000000E+00 -0.10089870497E+03  0.10089870497E+03  0.00000000000E+00 0.  1.
         21    1    1    2  502  501  0.34084335858E+01  0.37093805316E+02 -0.89420559752E+02  0.96869005976E+02  0.00000000000E+00 0.  1.
         21    1    1    2  503  502 -0.34084335858E+01 -0.37093805316E+02  0.36983689157E+02  0.52491533374E+02  0.00000000000E+00 0. -1.
</event>
<event>
 4    1  0.5576842E+002  0.3619052E+02  0.7546771E-02  0.1372381E+00
          2   -1    0    0  503    0  0.00000000000E+00  0.00000000000E+00  0.47164570508E+03  0.47164570508E+03  0.00000000000E+00 0. -1.
         -2   -1    0    0    0  501 -0.00000000000E+00 -0.00000000000E+00 -0.47212276530E+01  0.47212276530E+01  0.00000000000E+00 0.  1.
         21    1    1    2  502  501 -0.16643538080E+02 -0.32136371172E+02  0.80614430168E+02  0.88365378193E+02  0.00000000000E+00 0.  1.
         21    1    1    2  503  502  0.16643538080E+02  0.32136371172E+02  0.38631004726E+03  0.38800155454E+03  0.00000000000E+00 0. -1.
</event>
<event>
 4    1  0.5576842E+002  0.4043830E+02  0.7546771E-02  0.1345936E+00
          2   -1    0    0  503    0  0.00000000000E+00  0.00000000000E+00  0.13308488787E+03  0.13308488787E+03  0.00000000000E+00 0.  1.
         -2   -1    0    0    0  501 -0.00000000000E+00 -0.00000000000E+00 -0.51096830263E+02  0.51096830263E+02  0.00000000000E+00 0. -1.
         21    1    1    2  502  501 -0.34900615861E+02 -0.20425541071E+02 -0.39264032146E+02  0.56364172449E+02  0.00000000000E+00 0. -1.
         21    1    1    2  503  502  0.34900615861E+02  0.20425541071E+02  0.12125208975E+03  0.12781754569E+03  0.00000000000E+00 0.  1.
</event>
<event>
 4    1  0.5576842E+002  0.2157167E+02  0.7546771E-02  0.1511257E+00
          2   -1    0    0  503    0  0.00000000000E+00  0.00000000000E+00  0.99696660787E+02  0.99696660787E+02  0.00000000000E+00 0. -1.
         -2   -1    0    0    0  501 -0.00000000000E+00 -0.00000000000E+00 -0.53726078883E+02  0.53726078883E+02  0.00000000000E+00 0.  1.
         21    1    1    2  502  501  0.14622485877E+02 -0.15859374075E+02 -0.50318178167E+02  0.54747199867E+02  0.00000000000E+00 0.  1.
         21    1    1    2  503  502 -0.14622485877E+02  0.15859374075E+02  0.96288760071E+02  0.98675539802E+02  0.00000000000E+00 0. -1.
</event>
<event>
 4    1  0.5576842E+002  0.2485748E+02  0.7546771E-02  0.1470404E+00
          2   -1    0    0  503    0  0.00000000000E+00  0.00000000000E+00  0.88210055441E+03  0.88210055441E+03  0.00000000000E+00 0.  1.
         -2   -1    0    0    0  501 -0.00000000000E+00 -0.00000000000E+00 -0.10232579865E+01  0.10232579865E+01  0.00000000000E+00 0. -1.
         21    1    1    2  502  501 -0.22806589894E+02 -0.98870464888E+01  0.19253923647E+03  0.19413719842E+03  0.00000000000E+00 0. -1.
         21    1    1    2  503  502  0.22806589894E+02  0.98870464888E+01  0.68853805996E+03  0.68898661398E+03  0.00000000000E+00 0.  1.
</event>
<event>
 4    1  0.5576842E+002  0.2148502E+02  0.7546771E-02  0.1512451E+00
          2   -1    0    0  503    0  0.00000000000E+00  0.00000000000E+00  0.72601464116E+01  0.72601464116E+01  0.00000000000E+00 0.  1.
         -2   -1    0    0    0  501 -0.00000000000E+00 -0.00000000000E+00 -0.63623618201E+02  0.63623618201E+02  0.00000000000E+00 0. -1.
         21    1    1    2  502  501 -0.11572310565E+02  0.18102145067E+02 -0.27262463267E+02  0.34710919482E+02  0.00000000000E+00 0.  1.
         21    1    1    2  503  502  0.11572310565E+02 -0.18102145067E+02 -0.29101008522E+02  0.36172845131E+02  0.00000000000E+00 0. -1.
</event>
<event>
 4    1  0.5576842E+002  0.2277118E+02  0.7546771E-02  0.1495392E+00
          2   -1    0    0  502    0  0.00000000000E+00  0.00000000000E+00  0.54133615772E+01  0.54133615772E+01  0.00000000000E+00 0.  1.
         -2   -1    0    0    0  501 -0.00000000000E+00 -0.00000000000E+00 -0.12579002765E+03  0.12579002765E+03  0.00000000000E+00 0. -1.
         21    1    1    2  502  503  0.20383828299E+02  0.10150173008E+02 -0.28149346681E+02  0.36206521329E+02  0.00000000000E+00 0.  1.
         21    1    1    2  503  501 -0.20383828299E+02 -0.10150173008E+02 -0.92227319391E+02  0.94996867897E+02  0.00000000000E+00 0. -1.
</event>
<event>
 4    1  0.5576842E+002  0.3099618E+02  0.7546771E-02  0.1411133E+00
          2   -1    0    0  502    0  0.00000000000E+00  0.00000000000E+00  0.28205886874E+03  0.28205886874E+03  0.00000000000E+00 0.  1.
         -2   -1    0    0    0  501 -0.00000000000E+00 -0.00000000000E+00 -0.23759146740E+02  0.23759146740E+02  0.00000000000E+00 0. -1.
         21    1    1    2  502  503  0.28051131162E+02 -0.13187015682E+02  0.27067407536E+03  0.27244305536E+03  0.00000000000E+00 0.  1.
         21    1    1    2  503  501 -0.28051131162E+02  0.13187015682E+02 -0.12374353359E+02  0.33374960122E+02  0.00000000000E+00 0. -1.
</event>
<event>
 4    1  0.5576842E+002  0.3038509E+02  0.7546771E-02  0.1416279E+00
          2   -1    0    0  503    0  0.00000000000E+00  0.00000000000E+00  0.26837077406E+03  0.26837077406E+03  0.00000000000E+00 0.  1.
         -2   -1    0    0    0  501 -0.00000000000E+00 -0.00000000000E+00 -0.38314796134E+02  0.38314796134E+02  0.00000000000E+00 0. -1.
         21    1    1    2  502  501  0.68912684594E+01 -0.29593307009E+02 -0.31268728552E+02  0.43600307178E+02  0.00000000000E+00 0. -1.
         21    1    1    2  503  502 -0.68912684594E+01  0.29593307009E+02  0.26132470648E+03  0.26308526301E+03  0.00000000000E+00 0.  1.
</event>
<event>
 4    1  0.5576842E+002  0.2343182E+02  0.7546771E-02  0.1487146E+00
          2   -1    0    0  503    0  0.00000000000E+00  0.00000000000E+00  0.96372690618E+03  0.96372690618E+03  0.00000000000E+00 0.  1.
         -2   -1    0    0    0  501 -0.00000000000E+00 -0.00000000000E+00 -0.94731168717E+00  0.94731168717E+00  0.00000000000E+00 0. -1.
         21    1    1    2  502  501  0.13017689756E+02  0.19483064571E+02  0.17686820576E+03  0.17841359887E+03  0.00000000000E+00 0. -1.
         21    1    1    2  503  502 -0.13017689756E+02 -0.19483064571E+02  0.78591138873E+03  0.78626061900E+03  0.00000000000E+00 0.  1.
</event>
<event>
 4    1  0.5576842E+002  0.2104114E+02  0.7546771E-02  0.1518678E+00
          2   -1    0    0  503    0  0.00000000000E+00  0.00000000000E+00  0.16895109654E+04  0.16895109654E+04  0.00000000000E+00 0. -1.
         -2   -1    0    0    0  501 -0.00000000000E+00 -0.00000000000E+00 -0.31251288936E+00  0.31251288936E+00  0.00000000000E+00 0.  1.
         21    1    1    2  502  501  0.18699296689E+02 -0.96470649514E+01  0.11841312376E+04  0.11843181656E+04  0.00000000000E+00 0. -1.
         21    1    1    2  503  502 -0.18699296689E+02  0.96470649514E+01  0.50506721500E+03  0.50550531276E+03  0.00000000000E+00 0.  1.
</event>
<event>
 4    1  0.5576842E+002  0.3010334E+02  0.7546771E-02  0.1418701E+00
          2   -1    0    0  502    0  0.00000000000E+00  0.00000000000E+00  0.84366335672E+02  0.84366335672E+02  0.00000000000E+00 0.  1.
         -2   -1    0    0    0  501 -0.00000000000E+00 -0.00000000000E+00 -0.19711598426E+02  0.19711598426E+02  0.00000000000E+00 0. -1.
         21    1    1    2  502  503  0.28583635632E+02  0.94438766332E+01  0.67432387335E+02  0.73846718908E+02  0.00000000000E+00 0.  1.
         21    1    1    2  503  501 -0.28583635632E+02 -0.94438766332E+01 -0.27776500893E+01  0.30231215189E+02  0.00000000000E+00 0. -1.
</event>
<event>
 4    1  0.5576842E+002  0.3794282E+02  0.7546771E-02  0.1360982E+00
          2   -1    0    0  502    0  0.00000000000E+00  0.00000000000E+00  0.22538951304E+04  0.22538951304E+04  0.00000000000E+00 0.  1.
         -2   -1    0    0    0  501 -0.00000000000E+00 -0.00000000000E+00 -0.11859623853E+01  0.11859623853E+01  0.00000000000E+00 0. -1.
         21    1    1    2  502  503  0.11729501333E+02  0.36084292282E+02  0.18922648094E+04  0.18926451771E+04  0.00000000000E+00 0.  1.
         21    1    1    2  503  501 -0.11729501333E+02 -0.36084292282E+02  0.36044435856E+03  0.36243591567E+03  0.00000000000E+00 0. -1.
</event>
<event>
 4    1  0.5576842E+002  0.2266912E+02  0.7546771E-02  0.1496695E+00
          2   -1    0    0  502    0  0.00000000000E+00  0.00000000000E+00  0.40201673486E+03  0.40201673486E+03  0.00000000000E+00 0.  1.
         -2   -1    0    0    0  501 -0.00000000000E+00 -0.00000000000E+00 -0.12901334739E+01  0.12901334739E+01  0.00000000000E+00 0. -1.
         21    1    1    2  502  503 -0.20349325203E+02  0.99896858570E+01  0.18103200856E+03  0.18244581931E+03  0.00000000000E+00 0.  1.
         21    1    1    2  503  501  0.20349325203E+02 -0.99896858570E+01  0.21969459283E+03  0.22086104903E+03  0.00000000000E+00 0. -1.
</event>
<event>
 4    1  0.5576842E+002  0.2057235E+02  0.7546771E-02  0.1525459E+00
          2   -1    0    0  502    0  0.00000000000E+00  0.00000000000E+00  0.15543681647E+04  0.15543681647E+04  0.00000000000E+00 0. -1.
         -2   -1    0    0    0  501 -0.00000000000E+00 -0.00000000000E+00 -0.37447343741E+00  0.37447343741E+00  0.00000000000E+00 0.  1.
         21    1    1    2  502  503 -0.84614832289E+01  0.18751660571E+02  0.11830960082E+04  0.11832748565E+04  0.00000000000E+00 0. -1.
         21    1    1    2  503  501  0.84614832289E+01 -0.18751660571E+02  0.37089768303E+03  0.37146778158E+03  0.00000000000E+00 0.  1.
</event>
<event>
 4    1  0.5576842E+002  0.2096272E+02  0.7546771E-02  0.1519798E+00
          2   -1    0    0  503    0  0.00000000000E+00  0.00000000000E+00  0.10685605640E+04  0.10685605640E+04  0.00000000000E+00 0.  1.
         -2   -1    0    0    0  501 -0.00000000000E+00 -0.00000000000E+00 -0.29065604313E+01  0.29065604313E+01  0.00000000000E+00 0. -1.
         21    1    1    2  502  501  0.20297574262E+02  0.52387305065E+01  0.36437876897E+02  0.42037539069E+02  0.00000000000E+00 0. -1.
         21    1    1    2  503  502 -0.20297574262E+02 -0.52387305065E+01  0.10292161267E+04  0.10294295854E+04  0.00000000000E+00 0.  1.
</event>
<event>
 4    1  0.5576842E+002  0.2490570E+02  0.7546771E-02  0.1469861E+00
          2   -1    0    0  503    0  0.00000000000E+00  0.00000000000E+00  0.91265853707E+03  0.91265853707E+03  0.00000000000E+00 0. -1.
         -2   -1    0    0    0  501 -0.00000000000E+00 -0.00000000000E+00 -0.30218620473E+01  0.30218620473E+01  0.00000000000E+00 0.  1.
         21    1    1    2  502  501 -0.20665849588E+02 -0.13900233646E+02  0.51740281199E+02  0.57422561186E+02  0.00000000000E+00 0.  1.
         21    1    1    2  503  502  0.20665849588E+02  0.13900233646E+02  0.85789639382E+03  0.85825783793E+03  0.00000000000E+00 0. -1.
</event>
<event>
 4    1  0.5576842E+002  0.3391402E+02  0.7546771E-02  0.1388363E+00
          2   -1    0    0  502    0  0.00000000000E+00  0.00000000000E+00  0.21683778775E+02  0.21683778775E+02  0.00000000000E+00 0.  1.
         -2   -1    0    0    0  501 -0.00000000000E+00 -0.00000000000E+00 -0.78206420462E+02  0.78206420462E+02  0.00000000000E+00 0. -1.
         21    1    1    2  502  503 -0.59558756733E+01  0.33386947649E+02  0.69637920892E-01  0.33914091139E+02  0.00000000000E+00 0. -1.
         21    1    1    2  503  501  0.59558756733E+01 -0.33386947649E+02 -0.56592279608E+02  0.65976108097E+02  0.00000000000E+00 0.  1.
</event>
<event>
 4    1  0.5576842E+002  0.2435097E+02  0.7546771E-02  0.1476197E+00
          2   -1    0    0  502    0  0.00000000000E+00  0.00000000000E+00  0.11723635102E+01  0.11723635102E+01  0.00000000000E+00 0. -1.
         -2   -1    0    0    0  501 -0.00000000000E+00 -0.00000000000E+00 -0.55118065657E+03  0.55118065657E+03  0.00000000000E+00 0.  1.
         21    1    1    2  502  503  0.22571558448E+01 -0.24246133311E+02 -0.35425847917E+03  0.35509440970E+03  0.00000000000E+00 0. -1.
         21    1    1    2  503  501 -0.22571558448E+01  0.24246133311E+02 -0.19574981389E+03  0.19725861038E+03  0.00000000000E+00 0.  1.
</event>
<event>
 4    1  0.5576842E+002  0.3339423E+02  0.7546771E-02  0.1392218E+00
          2   -1    0    0  502    0  0.00000000000E+00  0.00000000000E+00  0.29390246678E+03  0.29390246678E+03  0.00000000000E+00 0. -1.
         -2   -1    0    0    0  501 -0.00000000000E+00 -0.00000000000E+00 -0.78483287420E+01  0.78483287420E+01  0.00000000000E+00 0.  1.
         21    1    1    2  502  503  0.21810133853E+02  0.25288187476E+02  0.25146208779E+03  0.25366977739E+03  0.00000000000E+00 0. -1.
         21    1    1    2  503  501 -0.21810133853E+02 -0.25288187476E+02  0.34592050251E+02  0.48081018137E+02  0.00000000000E+00 0.  1.
</event>
<event>
 4    1  0.5576842E+002  0.2745277E+02  0.7546771E-02  0.1443112E+00
          2   -1    0    0  503    0  0.00000000000E+00  0.00000000000E+00  0.59863062097E+02  0.59863062097E+02  0.00000000000E+00 0.  1.
         -2   -1    0    0    0  501 -0.00000000000E+00 -0.00000000000E+00 -0.15275524532E+02  0.15275524532E+02  0.00000000000E+00 0. -1.
         21    1    1    2  502  501  0.19344817666E+02 -0.19479036212E+02  0.65402324005E+01  0.28221081874E+02  0.00000000000E+00 0. -1.
         21    1    1    2  503  502 -0.19344817666E+02  0.19479036212E+02  0.38047305164E+02  0.46917504756E+02  0.00000000000E+00 0.  1.
</event>
<event>
 4    1  0.5576842E+002  0.2284596E+02  0.7546771E-02  0.1494442E+00
          2   -1    0    0  502    0  0.00000000000E+00  0.00000000000E+00  0.92262196308E+03  0.92262196308E+03  0.00000000000E+00 0.  1.
         -2   -1    0    0    0  501 -0.00000000000E+00 -0.00000000000E+00 -0.15066590679E+01  0.15066590679E+01  0.00000000000E+00 0. -1.
         21    1    1    2  502  503 -0.17755058156E+01  0.22776863892E+02  0.82571296094E+03  0.82602895338E+03  0.00000000000E+00 0.  1.
         21    1    1    2  503  501  0.17755058156E+01 -0.22776863892E+02  0.95402343071E+02  0.98099668771E+02  0.00000000000E+00 0. -1.
</event>
<event>
 4    1  0.5576842E+002  0.2337730E+02  0.7546771E-02  0.1487814E+00
          2   -1    0    0  503    0  0.00000000000E+00  0.00000000000E+00  0.28902673516E+03  0.28902673516E+03  0.00000000000E+00 0.  1.
         -2   -1    0    0    0  501 -0.00000000000E+00 -0.00000000000E+00 -0.59247608440E+01  0.59247608440E+01  0.00000000000E+00 0. -1.
         21    1    1    2  502  501 -0.10228780691E+02  0.21020707381E+02  0.19862398752E+02  0.30675934825E+02  0.00000000000E+00 0. -1.
         21    1    1    2  503  502  0.10228780691E+02 -0.21020707381E+02  0.26323957557E+03  0.26427556118E+03  0.00000000000E+00 0.  1.
</event>
<event>
 4    1  0.5576842E+002  0.2409525E+02  0.7546771E-02  0.1479185E+00
          2   -1    0    0  503    0  0.00000000000E+00  0.00000000000E+00  0.20263860813E+03  0.20263860813E+03  0.00000000000E+00 0.  1.
         -2   -1    0    0    0  501 -0.00000000000E+00 -0.00000000000E+00 -0.28655470336E+01  0.28655470336E+01  0.00000000000E+00 0. -1.
         21    1    1    2  502  501 -0.22023194747E+02 -0.97754843018E+01  0.98612559226E+02  0.10151363474E+03  0.00000000000E+00 0. -1.
         21    1    1    2  503  502  0.22023194747E+02  0.97754843018E+01  0.10116050188E+03  0.10399052043E+03  0.00000000000E+00 0.  1.
</event>
<event>
 4    1  0.5576842E+002  0.4143376E+02  0.7546771E-02  0.1340283E+00
          2   -1    0    0  503    0  0.00000000000E+00  0.00000000000E+00  0.13652201574E+03  0.13652201574E+03  0.00000000000E+00 0. -1.
         -2   -1    0    0    0  501 -0.00000000000E+00 -0.00000000000E+00 -0.22365367974E+03  0.22365367974E+03  0.00000000000E+00 0.  1.
         21    1    1    2  502  501 -0.37950299814E+02  0.16629223898E+02 -0.21851771803E+03  0.22241121698E+03  0.00000000000E+00 0.  1.
         21    1    1    2  503  502  0.37950299814E+02 -0.16629223898E+02  0.13138605403E+03  0.13776447850E+03  0.00000000000E+00 0. -1.
</event>
<event>
 4    1  0.5576842E+002  0.2564948E+02  0.7546771E-02  0.1461667E+00
          2   -1    0    0  502    0  0.00000000000E+00  0.00000000000E+00  0.18759240318E+04  0.18759240318E+04  0.00000000000E+00 0.  1.
         -2   -1    0    0    0  501 -0.00000000000E+00 -0.00000000000E+00 -0.80477970077E+00  0.80477970077E+00  0.00000000000E+00 0. -1.
         21    1    1    2  502  503  0.90477692664E+01 -0.24000699061E+02  0.16424096783E+04  0.16426099497E+04  0.00000000000E+00 0.  1.
         21    1    1    2  503  501 -0.90477692664E+01  0.24000699061E+02  0.23270957385E+03  0.23411886179E+03  0.00000000000E+00 0. -1.
</event>
<event>
 4    1  0.5576842E+002  0.2399704E+02  0.7546771E-02  0.1480344E+00
          2   -1    0    0  503    0  0.00000000000E+00  0.00000000000E+00  0.21770040039E+04  0.21770040039E+04  0.00000000000E+00 0.  1.
         -2   -1    0    0    0  501 -0.00000000000E+00 -0.00000000000E+00 -0.43284183278E+00  0.43284183278E+00  0.00000000000E+00 0. -1.
         21    1    1    2  502  501  0.18125104477E+02  0.15726997547E+02  0.40935854877E+03  0.41006131165E+03  0.00000000000E+00 0. -1.
         21    1    1    2  503  502 -0.18125104477E+02 -0.15726997547E+02  0.17672126133E+04  0.17673755341E+04  0.00000000000E+00 0.  1.
</event>
<event>
 4    1  0.5576842E+002  0.3655478E+02  0.7546771E-02  0.1369950E+00
          2   -1    0    0  502    0  0.00000000000E+00  0.00000000000E+00  0.57148478417E+03  0.57148478417E+03  0.00000000000E+00 0. -1.
         -2   -1    0    0    0  501 -0.00000000000E+00 -0.00000000000E+00 -0.27905441453E+01  0.27905441453E+01  0.00000000000E+00 0.  1.
         21    1    1    2  502  503 -0.14677433643E+02 -0.33478717439E+02  0.16874247591E+03  0.17265652248E+03  0.00000000000E+00 0.  1.
         21    1    1    2  503  501  0.14677433643E+02  0.33478717439E+02  0.39995176411E+03  0.40161880583E+03  0.00000000000E+00 0. -1.
</event>
<event>
 4    1  0.5576842E+002  0.4766677E+02  0.7546771E-02  0.1308618E+00
          2   -1    0    0  503    0  0.00000000000E+00  0.00000000000E+00  0.27054061953E+01  0.27054061953E+01  0.00000000000E+00 0.  1.
         -2   -1    0    0    0  501 -0.00000000000E+00 -0.00000000000E+00 -0.87341662601E+03  0.87341662601E+03  0.00000000000E+00 0. -1.
         21    1    1    2  502  501 -0.44975952885E+00  0.47664648224E+02 -0.52123959743E+03  0.52341459561E+03  0.00000000000E+00 0. -1.
         21    1    1    2  503  502  0.44975952885E+00 -0.47664648224E+02 -0.34947162239E+03  0.35270743660E+03  0.00000000000E+00 0.  1.
</event>
<event>
 4    1  0.5576842E+002  0.2126043E+02  0.7546771E-02  0.1515579E+00
          2   -1    0    0  503    0  0.00000000000E+00  0.00000000000E+00  0.86051456462E+03  0.86051456462E+03  0.00000000000E+00 0.  1.
         -2   -1    0    0    0  501 -0.00000000000E+00 -0.00000000000E+00 -0.21270008529E+01  0.21270008529E+01  0.00000000000E+00 0. -1.
         21    1    1    2  502  501 -0.21255718283E+02 -0.44763569690E+00  0.54901579685E+02  0.58874352560E+02  0.00000000000E+00 0. -1.
         21    1    1    2  503  502  0.21255718283E+02  0.44763569690E+00  0.80348598409E+03  0.80376721292E+03  0.00000000000E+00 0.  1.
</event>
<event>
 4    1  0.5576842E+002  0.4776578E+02  0.7546771E-02  0.1308161E+00
          2   -1    0    0  503    0  0.00000000000E+00  0.00000000000E+00  0.17643976725E+03  0.17643976725E+03  0.00000000000E+00 0.  1.
         -2   -1    0    0    0  501 -0.00000000000E+00 -0.00000000000E+00 -0.16215028930E+02  0.16215028930E+02  0.00000000000E+00 0. -1.
         21    1    1    2  502  501  0.47713768144E+02  0.22284470251E+01  0.36762845661E+02  0.60275006991E+02  0.00000000000E+00 0. -1.
         21    1    1    2  503  502 -0.47713768144E+02 -0.22284470251E+01  0.12346189266E+03  0.13237978919E+03  0.00000000000E+00 0.  1.
</event>
<event>
 4    1  0.5576842E+002  0.5479679E+02  0.7546771E-02  0.1278615E+00
          2   -1    0    0  503    0  0.00000000000E+00  0.00000000000E+00  0.32550237251E+04  0.32550237251E+04  0.00000000000E+00 0. -1.
         -2   -1    0    0    0  501 -0.00000000000E+00 -0.00000000000E+00 -0.92515609734E+00  0.92515609734E+00  0.00000000000E+00 0.  1.
         21    1    1    2  502  501  0.25594451740E+02 -0.48452167780E+02  0.17146352768E+04  0.17155106590E+04  0.00000000000E+00 0.  1.
         21    1    1    2  503  502 -0.25594451740E+02  0.48452167780E+02  0.15394632922E+04  0.15404382222E+04  0.00000000000E+00 0. -1.
</event>
<event>
 4    1  0.5576842E+002  0.4492409E+02  0.7546771E-02  0.1321819E+00
          2   -1    0    0  502    0  0.00000000000E+00  0.00000000000E+00  0.31106410920E+03  0.31106410920E+03  0.00000000000E+00 0.  1.
         -2   -1    0    0    0  501 -0.00000000000E+00 -0.00000000000E+00 -0.87019161517E+01  0.87019161517E+01  0.00000000000E+00 0. -1.
         21    1    1    2  502  503  0.43922641849E+02  0.94326955728E+01  0.23182629731E+03  0.23613895557E+03  0.00000000000E+00 0.  1.
         21    1    1    2  503  501 -0.43922641849E+02 -0.94326955728E+01  0.70535895738E+02  0.83627069782E+02  0.00000000000E+00 0. -1.
</event>
<event>
 4    1  0.5576842E+002  0.2612153E+02  0.7546771E-02  0.1456638E+00
          2   -1    0    0  503    0  0.00000000000E+00  0.00000000000E+00  0.13298269242E+03  0.13298269242E+03  0.00000000000E+00 0.  1.
         -2   -1    0    0    0  501 -0.00000000000E+00 -0.00000000000E+00 -0.97522054374E+01  0.97522054374E+01  0.00000000000E+00 0. -1.
         21    1    1    2  502  501  0.15996645630E+02  0.20650467113E+02  0.12487559013E+02  0.28952954832E+02  0.00000000000E+00 0. -1.
         21    1    1    2  503  502 -0.15996645630E+02 -0.20650467113E+02  0.11074292797E+03  0.11378194303E+03  0.00000000000E+00 0.  1.
</event>
<event>
 4    1  0.5576842E+002  0.3665399E+02  0.7546771E-02  0.1369294E+00
          2   -1    0    0  503    0  0.00000000000E+00  0.00000000000E+00  0.48067462864E+03  0.48067462864E+03  0.00000000000E+00 0.  1.
         -2   -1    0    0    0  501 -0.00000000000E+00 -0.00000000000E+00 -0.44119426445E+01  0.44119426445E+01  0.00000000000E+00 0. -1.
         21    1    1    2  502  501 -0.34283497818E+02  0.12967526890E+02  0.91301807837E+02  0.98384628325E+02  0.00000000000E+00 0. -1.
         21    1    1    2  503  502  0.34283497818E+02 -0.12967526890E+02  0.38496087816E+03  0.38670194296E+03  0.00000000000E+00 0.  1.
</event>
<event>
 4    1  0.5576842E+002  0.2212804E+02  0.7546771E-02  0.1503748E+00
          2   -1    0    0  502    0  0.00000000000E+00  0.00000000000E+00  0.58448008675E+02  0.58448008675E+02  0.00000000000E+00 0.  1.
         -2   -1    0    0    0  501 -0.00000000000E+00 -0.00000000000E+00 -0.84158294908E+01  0.84158294908E+01  0.00000000000E+00 0. -1.
         21    1    1    2  502  503 -0.21798363767E+02  0.38054345358E+01  0.22760788106E+02  0.31744345483E+02  0.00000000000E+00 0. -1.
         21    1    1    2  503  501  0.21798363767E+02 -0.38054345358E+01  0.27271391078E+02  0.35119492682E+02  0.00000000000E+00 0.  1.
</event>
<event>
 4    1  0.5576842E+002  0.4619211E+02  0.7546771E-02  0.1315584E+00
          2   -1    0    0  502    0  0.00000000000E+00  0.00000000000E+00  0.27291471478E+02  0.27291471478E+02  0.00000000000E+00 0.  1.
         -2   -1    0    0    0  501 -0.00000000000E+00 -0.00000000000E+00 -0.87391930178E+02  0.87391930178E+02  0.00000000000E+00 0. -1.
         21    1    1    2  502  503 -0.46191787525E+02 -0.17156777298E+00 -0.11435555541E+02  0.47586580049E+02  0.00000000000E+00 0.  1.
         21    1    1    2  503  501  0.46191787525E+02  0.17156777298E+00 -0.48664903159E+02  0.67096821607E+02  0.00000000000E+00 0. -1.
</event>
<event>
 4    1  0.5576842E+002  0.2335704E+02  0.7546771E-02  0.1488063E+00
          2   -1    0    0  503    0  0.00000000000E+00  0.00000000000E+00  0.99356567753E+02  0.99356567753E+02  0.00000000000E+00 0.  1.
         -2   -1    0    0    0  501 -0.00000000000E+00 -0.00000000000E+00 -0.76912384299E+01  0.76912384299E+01  0.00000000000E+00 0. -1.
         21    1    1    2  502  501 -0.21092475293E+02 -0.10032892002E+02  0.17204079540E+02  0.29009167322E+02  0.00000000000E+00 0. -1.
         21    1    1    2  503  502  0.21092475293E+02  0.10032892002E+02  0.74461249784E+02  0.78038638861E+02  0.00000000000E+00 0.  1.
</event>
<event>
 4    1  0.5576842E+002  0.2101178E+02  0.7546771E-02  0.1519097E+00
          2   -1    0    0  503    0  0.00000000000E+00  0.00000000000E+00  0.27827831373E+03  0.27827831373E+03  0.00000000000E+00 0.  1.
         -2   -1    0    0    0  501 -0.00000000000E+00 -0.00000000000E+00 -0.16088746898E+01  0.16088746898E+01  0.00000000000E+00 0. -1.
         21    1    1    2  502  501  0.18877273380E+02 -0.92273206295E+01  0.12183985314E+03  0.12363836261E+03  0.00000000000E+00 0. -1.
         21    1    1    2  503  502 -0.18877273380E+02  0.92273206295E+01  0.15482958590E+03  0.15624882581E+03  0.00000000000E+00 0.  1.
</event>
<event>
 4    1  0.5576842E+002  0.2368578E+02  0.7546771E-02  0.1484062E+00
          2   -1    0    0  503    0  0.00000000000E+00  0.00000000000E+00  0.83265389885E+03  0.83265389885E+03  0.00000000000E+00 0.  1.
         -2   -1    0    0    0  501 -0.00000000000E+00 -0.00000000000E+00 -0.11005996480E+01  0.11005996480E+01  0.00000000000E+00 0. -1.
         21    1    1    2  502  501 -0.22001129165E+02  0.87730506222E+01  0.67538668748E+03  0.67580188941E+03  0.00000000000E+00 0.  1.
         21    1    1    2  503  502  0.22001129165E+02 -0.87730506222E+01  0.15616661173E+03  0.15795260909E+03  0.00000000000E+00 0. -1.
</event>
<event>
 4    1  0.5576842E+002  0.4973360E+02  0.7546771E-02  0.1299332E+00
          2   -1    0    0  502    0  0.00000000000E+00  0.00000000000E+00  0.21020646141E+04  0.21020646141E+04  0.00000000000E+00 0.  1.
         -2   -1    0    0    0  501 -0.00000000000E+00 -0.00000000000E+00 -0.25518704689E+01  0.25518704689E+01  0.00000000000E+00 0. -1.
         21    1    1    2  502  503 -0.42032267831E+02  0.26584193645E+02  0.18222538608E+04  0.18229324080E+04  0.00000000000E+00 0.  1.
         21    1    1    2  503  501  0.42032267831E+02 -0.26584193645E+02  0.27725888283E+03  0.28168407658E+03  0.00000000000E+00 0. -1.
</event>
<event>
 4    1  0.5576842E+002  0.5305650E+02  0.7546771E-02  0.1285438E+00
          2   -1    0    0  502    0  0.00000000000E+00  0.00000000000E+00  0.11055417919E+04  0.11055417919E+04  0.00000000000E+00 0. -1.
         -2   -1    0    0    0  501 -0.00000000000E+00 -0.00000000000E+00 -0.67642921188E+01  0.67642921188E+01  0.00000000000E+00 0.  1.
         21    1    1    2  502  503  0.92299845721E+01 -0.52247487594E+02  0.98856442722E+03  0.98998718140E+03  0.00000000000E+00 0. -1.
         21    1    1    2  503  501 -0.92299845721E+01  0.52247487594E+02  0.11021307260E+03  0.12231890266E+03  0.00000000000E+00 0.  1.
</event>
<event>
 4    1  0.5576842E+002  0.2593846E+02  0.7546771E-02  0.1458573E+00
          2   -1    0    0  502    0  0.00000000000E+00  0.00000000000E+00  0.11727775683E+03  0.11727775683E+03  0.00000000000E+00 0.  1.
         -2   -1    0    0    0  501 -0.00000000000E+00 -0.00000000000E+00 -0.18300919655E+02  0.18300919655E+02  0.00000000000E+00 0. -1.
         21    1    1    2  502  503 -0.23716369571E+02 -0.10504178966E+02  0.10565658453E+03  0.10879392362E+03  0.00000000000E+00 0.  1.
         21    1    1    2  503  501  0.23716369571E+02  0.10504178966E+02 -0.66797473576E+01  0.26784752867E+02  0.00000000000E+00 0. -1.
</event>
<event>
 4    1  0.5576842E+002  0.2513558E+02  0.7546771E-02  0.1467292E+00
          2   -1    0    0  502    0  0.00000000000E+00  0.00000000000E+00  0.46612201716E+02  0.46612201716E+02  0.00000000000E+00 0. -1.
         -2   -1    0    0    0  501 -0.00000000000E+00 -0.00000000000E+00 -0.17957545638E+02  0.17957545638E+02  0.00000000000E+00 0.  1.
         21    1    1    2  502  503 -0.20578458062E+02 -0.14433443647E+02  0.30314089975E+02  0.39379452545E+02  0.00000000000E+00 0.  1.
         21    1    1    2  503  501  0.20578458062E+02  0.14433443647E+02 -0.16594338975E+01  0.25190294809E+02  0.00000000000E+00 0. -1.
</event>
<event>
 4    1  0.5576842E+002  0.2322943E+02  0.7546771E-02  0.1489637E+00
          2   -1    0    0  503    0  0.00000000000E+00  0.00000000000E+00  0.24657358334E+03  0.24657358334E+03  0.00000000000E+00 0. -1.
         -2   -1    0    0    0  501 -0.00000000000E+00 -0.00000000000E+00 -0.10885547320E+02  0.10885547320E+02  0.00000000000E+00 0.  1.
         21    1    1    2  502  501  0.10465186437E+02 -0.20738525745E+02  0.27795907395E+01  0.23395142699E+02  0.00000000000E+00 0.  1.
         21    1    1    2  503  502 -0.10465186437E+02  0.20738525745E+02  0.23290844528E+03  0.23406398796E+03  0.00000000000E+00 0. -1.
</event>
<event>
 4    1  0.5576842E+002  0.2647535E+02  0.7546771E-02  0.1452951E+00
          2   -1    0    0  502    0  0.00000000000E+00  0.00000000000E+00  0.79317040165E+03  0.79317040165E+03  0.00000000000E+00 0.  1.
         -2   -1    0    0    0  501 -0.00000000000E+00 -0.00000000000E+00 -0.95740139660E+00  0.95740139660E+00  0.00000000000E+00 0. -1.
         21    1    1    2  502  503  0.12732569789E+02  0.23212622656E+02  0.50625505129E+03  0.50694686225E+03  0.00000000000E+00 0.  1.
         21    1    1    2  503  501 -0.12732569789E+02 -0.23212622656E+02  0.28595794896E+03  0.28718094079E+03  0.00000000000E+00 0. -1.
</event>
<event>
 4    1  0.5576842E+002  0.2188889E+02  0.7546771E-02  0.1506942E+00
          2   -1    0    0  502    0  0.00000000000E+00  0.00000000000E+00  0.11117172100E+04  0.11117172100E+04  0.00000000000E+00 0.  1.
         -2   -1    0    0    0  501 -0.00000000000E+00 -0.00000000000E+00 -0.52905003160E+00  0.52905003160E+00  0.00000000000E+00 0. -1.
         21    1    1    2  502  503 -0.73015203576E+01  0.20635196421E+02  0.79503557303E+03  0.79533683803E+03  0.00000000000E+00 0.  1.
         21    1    1    2  503  501  0.73015203576E+01 -0.20635196421E+02  0.31615258690E+03  0.31690942197E+03  0.00000000000E+00 0. -1.
</event>
<event>
 4    1  0.5576842E+002  0.2020070E+02  0.7546771E-02  0.1530990E+00
          2   -1    0    0  503    0  0.00000000000E+00  0.00000000000E+00  0.10485722354E+04  0.10485722354E+04  0.00000000000E+00 0.  1.
         -2   -1    0    0    0  501 -0.00000000000E+00 -0.00000000000E+00 -0.52385722141E+00  0.52385722141E+00  0.00000000000E+00 0. -1.
         21    1    1    2  502  501 -0.12870007160E+02  0.15570198479E+02  0.25804404501E+03  0.25883353209E+03  0.00000000000E+00 0.  1.
         21    1    1    2  503  502  0.12870007160E+02 -0.15570198479E+02  0.79000433321E+03  0.79026256058E+03  0.00000000000E+00 0. -1.
</event>
<event>
 4    1  0.5576842E+002  0.2257040E+02  0.7546771E-02  0.1497964E+00
          2   -1    0    0  502    0  0.00000000000E+00  0.00000000000E+00  0.20838843376E+03  0.20838843376E+03  0.00000000000E+00 0. -1.
         -2   -1    0    0    0  501 -0.00000000000E+00 -0.00000000000E+00 -0.30254697225E+01  0.30254697225E+01  0.00000000000E+00 0.  1.
         21    1    1    2  502  503  0.13677960501E+02 -0.17953724277E+02  0.14899981017E+03  0.15069958941E+03  0.00000000000E+00 0. -1.
         21    1    1    2  503  501 -0.13677960501E+02  0.17953724277E+02  0.56363153863E+02  0.60714314064E+02  0.00000000000E+00 0.  1.
</event>
<event>
 4    1  0.5576842E+002  0.2114006E+02  0.7546771E-02  0.1517274E+00
          2   -1    0    0  503    0  0.00000000000E+00  0.00000000000E+00  0.36202746588E+02  0.36202746588E+02  0.00000000000E+00 0.  1.
         -2   -1    0    0    0  501 -0.00000000000E+00 -0.00000000000E+00 -0.14628957050E+02  0.14628957050E+02  0.00000000000E+00 0. -1.
         21    1    1    2  502  501  0.21056608593E+02  0.18765110198E+01  0.20830663322E+02  0.29678588131E+02  0.00000000000E+00 0.  1.
         21    1    1    2  503  502 -0.21056608593E+02 -0.18765110198E+01  0.74312621592E+00  0.21153115506E+02  0.00000000000E+00 0. -1.
</event>
<event>
 4    1  0.5576842E+002  0.2493483E+02  0.7546771E-02  0.1469534E+00
          2   -1    0    0  502    0  0.00000000000E+00  0.00000000000E+00  0.79056083459E+03  0.79056083459E+03  0.00000000000E+00 0. -1.
         -2   -1    0    0    0  501 -0.00000000000E+00 -0.00000000000E+00 -0.96705552900E+01  0.96705552900E+01  0.00000000000E+00 0.  1.
         21    1    1    2  502  503 -0.14810869755E+02 -0.20059507240E+02  0.77394609269E+03  0.77434766099E+03  0.00000000000E+00 0. -1.
         21    1    1    2  503  501  0.14810869755E+02  0.20059507240E+02  0.69441866143E+01  0.25883728892E+02  0.00000000000E+00 0.  1.
</event>
<event>
 4    1  0.5576842E+002  0.2801931E+02  0.7546771E-02  0.1437629E+00
          2   -1    0    0  502    0  0.00000000000E+00  0.00000000000E+00  0.10347651366E+04  0.10347651366E+04  0.00000000000E+00 0. -1.
         -2   -1    0    0    0  501 -0.00000000000E+00 -0.00000000000E+00 -0.13041131373E+01  0.13041131373E+01  0.00000000000E+00 0.  1.
         21    1    1    2  502  503  0.38764183194E+01  0.27749866666E+02  0.85174367319E+03  0.85220441594E+03  0.00000000000E+00 0. -1.
         21    1    1    2  503  501 -0.38764183194E+01 -0.27749866666E+02  0.18171735023E+03  0.18386483376E+03  0.00000000000E+00 0.  1.
</event>
<event>
 4    1  0.5576842E+002  0.2239901E+02  0.7546771E-02  0.1500186E+00
          2   -1    0    0  502    0  0.00000000000E+00  0.00000000000E+00  0.31460330802E+03  0.31460330802E+03  0.00000000000E+00 0.  1.
         -2   -1    0    0    0  501 -0.00000000000E+00 -0.00000000000E+00 -0.28588256141E+02  0.28588256141E+02  0.00000000000E+00 0. -1.
         21    1    1    2  502  503 -0.11669377453E+02 -0.19119138988E+02  0.30974851312E+03  0.31055733324E+03  0.00000000000E+00 0.  1.
         21    1    1    2  503  501  0.11669377453E+02  0.19119138988E+02 -0.23733461241E+02  0.32634230928E+02  0.00000000000E+00 0. -1.
</event>
<event>
 4    1  0.5576842E+002  0.2446836E+02  0.7546771E-02  0.1474839E+00
          2   -1    0    0  503    0  0.00000000000E+00  0.00000000000E+00  0.19683562849E+02  0.19683562849E+02  0.00000000000E+00 0.  1.
         -2   -1    0    0    0  501 -0.00000000000E+00 -0.00000000000E+00 -0.32583553730E+02  0.32583553730E+02  0.00000000000E+00 0. -1.
         21    1    1    2  502  501  0.20385399691E+02  0.13532785127E+02 -0.13189935403E+02  0.27797035629E+02  0.00000000000E+00 0. -1.
         21    1    1    2  503  502 -0.20385399691E+02 -0.13532785127E+02  0.28994452202E+00  0.24470080949E+02  0.00000000000E+00 0.  1.
</event>
<event>
 4    1  0.5576842E+002  0.2458330E+02  0.7546771E-02  0.1473519E+00
          2   -1    0    0  503    0  0.00000000000E+00  0.00000000000E+00  0.15720615360E+03  0.15720615360E+03  0.00000000000E+00 0. -1.
         -2   -1    0    0    0  501 -0.00000000000E+00 -0.00000000000E+00 -0.13317905424E+03  0.13317905424E+03  0.00000000000E+00 0.  1.
         21    1    1    2  502  501  0.23518207826E+02  0.71577056118E+01 -0.13106820107E+03  0.13335371079E+03  0.00000000000E+00 0.  1.
         21    1    1    2  503  502 -0.23518207826E+02 -0.71577056118E+01  0.15509530043E+03  0.15703149705E+03  0.00000000000E+00 0. -1.
</event>
<event>
 4    1  0.5576842E+002  0.4872037E+02  0.7546771E-02  0.1303818E+00
          2   -1    0    0  503    0  0.00000000000E+00  0.00000000000E+00  0.21710553387E+03  0.21710553387E+03  0.00000000000E+00 0. -1.
         -2   -1    0    0    0  501 -0.00000000000E+00 -0.00000000000E+00 -0.14082465319E+02  0.14082465319E+02  0.00000000000E+00 0.  1.
         21    1    1    2  502  501  0.72755601781E+01 -0.48174070533E+02  0.46848304195E+02  0.67590224542E+02  0.00000000000E+00 0. -1.
         21    1    1    2  503  502 -0.72755601781E+01  0.48174070533E+02  0.15617476436E+03  0.16359777465E+03  0.00000000000E+00 0.  1.
</event>
<event>
 4    1  0.5576842E+002  0.2380341E+02  0.7546771E-02  0.1482649E+00
          2   -1    0    0  503    0  0.00000000000E+00  0.00000000000E+00  0.81309329580E+02  0.81309329580E+02  0.00000000000E+00 0.  1.
         -2   -1    0    0    0  501 -0.00000000000E+00 -0.00000000000E+00 -0.17953428612E+02  0.17953428612E+02  0.00000000000E+00 0. -1.
         21    1    1    2  502  501 -0.76877880800E+01  0.22527763619E+02 -0.71443897320E+01  0.24852455088E+02  0.00000000000E+00 0. -1.
         21    1    1    2  503  502  0.76877880800E+01 -0.22527763619E+02  0.70500290700E+02  0.74410303104E+02  0.00000000000E+00 0.  1.
</event>
<event>
 4    1  0.5576842E+002  0.2209815E+02  0.7546771E-02  0.1504144E+00
          2   -1    0    0  502    0  0.00000000000E+00  0.00000000000E+00  0.22326524846E+03  0.22326524846E+03  0.00000000000E+00 0. -1.
         -2   -1    0    0    0  501 -0.00000000000E+00 -0.00000000000E+00 -0.92027252154E+01  0.92027252154E+01  0.00000000000E+00 0.  1.
         21    1    1    2  502  503  0.13930097503E+02  0.17154606398E+02  0.20851691949E+03  0.20968460566E+03  0.00000000000E+00 0. -1.
         21    1    1    2  503  501 -0.13930097503E+02 -0.17154606398E+02  0.55456037542E+01  0.22783368015E+02  0.00000000000E+00 0.  1.
</event>
<event>
 4    1  0.5576842E+002  0.2173774E+02  0.7546771E-02  0.1508987E+00
          2   -1    0    0  502    0  0.00000000000E+00  0.00000000000E+00  0.18620906721E+01  0.18620906721E+01  0.00000000000E+00 0. -1.
         -2   -1    0    0    0  501 -0.00000000000E+00 -0.00000000000E+00 -0.25872908012E+03  0.25872908012E+03  0.00000000000E+00 0.  1.
         21    1    1    2  502  503 -0.19269242269E+02  0.10061093149E+02 -0.11038155580E+03  0.11250163179E+03  0.00000000000E+00 0.  1.
         21    1    1    2  503  501  0.19269242269E+02 -0.10061093149E+02 -0.14648543365E+03  0.14808953901E+03  0.00000000000E+00 0. -1.
</event>
<event>
 4    1  0.5576842E+002  0.3322133E+02  0.7546771E-02  0.1393518E+00
          2   -1    0    0  503    0  0.00000000000E+00  0.00000000000E+00  0.60970969909E+03  0.60970969909E+03  0.00000000000E+00 0. -1.
         -2   -1    0    0    0  501 -0.00000000000E+00 -0.00000000000E+00 -0.20596172314E+01  0.20596172314E+01  0.00000000000E+00 0.  1.
         21    1    1    2  502  501 -0.30852505809E+02  0.12319875467E+02  0.19736543696E+03  0.20014188005E+03  0.00000000000E+00 0.  1.
         21    1    1    2  503  502  0.30852505809E+02 -0.12319875467E+02  0.41028464490E+03  0.41162743627E+03  0.00000000000E+00 0. -1.
</event>
<event>
 4    1  0.5576842E+002  0.2264053E+02  0.7546771E-02  0.1497062E+00
          2   -1    0    0  503    0  0.00000000000E+00  0.00000000000E+00  0.52254315788E+03  0.52254315788E+03  0.00000000000E+00 0.  1.
         -2   -1    0    0    0  501 -0.00000000000E+00 -0.00000000000E+00 -0.39338214048E+01  0.39338214048E+01  0.00000000000E+00 0. -1.
         21    1    1    2  502  501 -0.39165881354E+01 -0.22299194786E+02  0.31237049239E+02  0.38579100507E+02  0.00000000000E+00 0. -1.
         21    1    1    2  503  502  0.39165881354E+01  0.22299194786E+02  0.48737228724E+03  0.48789787878E+03  0.00000000000E+00 0.  1.
</event>
<event>
 4    1  0.5576842E+002  0.5884348E+02  0.7546771E-02  0.1263813E+00
          2   -1    0    0  503    0  0.00000000000E+00  0.00000000000E+00  0.70107083006E+03  0.70107083006E+03  0.00000000000E+00 0.  1.
         -2   -1    0    0    0  501 -0.00000000000E+00 -0.00000000000E+00 -0.73053562880E+01  0.73053562880E+01  0.00000000000E+00 0. -1.
         21    1    1    2  502  501  0.26780533199E+02  0.52396170659E+02  0.14529799103E+03  0.15676116182E+03  0.00000000000E+00 0. -1.
         21    1    1    2  503  502 -0.26780533199E+02 -0.52396170659E+02  0.54846748275E+03  0.55161502453E+03  0.00000000000E+00 0.  1.
</event>
<event>
 4    1  0.5576842E+002  0.2278735E+02  0.7546771E-02  0.1495186E+00
          2   -1    0    0  503    0  0.00000000000E+00  0.00000000000E+00  0.12337695418E+04  0.12337695418E+04  0.00000000000E+00 0.  1.
         -2   -1    0    0    0  501 -0.00000000000E+00 -0.00000000000E+00 -0.42421881139E+00  0.42421881139E+00  0.00000000000E+00 0. -1.
         21    1    1    2  502  501  0.18320348785E+02 -0.13550948604E+02  0.67145568776E+03  0.67184224638E+03  0.00000000000E+00 0. -1.
         21    1    1    2  503  502 -0.18320348785E+02  0.13550948604E+02  0.56188963521E+03  0.56235151422E+03  0.00000000000E+00 0.  1.
</event>
<event>
 4    1  0.5576842E+002  0.2297294E+02  0.7546771E-02  0.1492838E+00
          2   -1    0    0  502    0  0.00000000000E+00  0.00000000000E+00  0.46008668538E+02  0.46008668538E+02  0.00000000000E+00 0. -1.
         -2   -1    0    0    0  501 -0.00000000000E+00 -0.00000000000E+00 -0.15290958644E+02  0.15290958644E+02  0.00000000000E+00 0.  1.
         21    1    1    2  502  503 -0.19604346192E+02 -0.11976051101E+02  0.30678589357E+02  0.38326649143E+02  0.00000000000E+00 0. -1.
         21    1    1    2  503  501  0.19604346192E+02  0.11976051101E+02  0.39120536922E-01  0.22972978039E+02  0.00000000000E+00 0.  1.
</event>
<event>
 4    1  0.5576842E+002  0.2432573E+02  0.7546771E-02  0.1476490E+00
          2   -1    0    0  502    0  0.00000000000E+00  0.00000000000E+00  0.17462699721E+04  0.17462699721E+04  0.00000000000E+00 0.  1.
         -2   -1    0    0    0  501 -0.00000000000E+00 -0.00000000000E+00 -0.36839193145E+01  0.36839193145E+01  0.00000000000E+00 0. -1.
         21    1    1    2  502  503 -0.99151041353E+01  0.22213329851E+02  0.17050576359E+04  0.17052311523E+04  0.00000000000E+00 0.  1.
         21    1    1    2  503  501  0.99151041353E+01 -0.22213329851E+02  0.37528416915E+02  0.44722739062E+02  0.00000000000E+00 0. -1.
</event>
<event>
 4    1  0.5576842E+002  0.2090560E+02  0.7546771E-02  0.1520617E+00
          2   -1    0    0  502    0  0.00000000000E+00  0.00000000000E+00  0.61038922878E+01  0.61038922878E+01  0.00000000000E+00 0. -1.
         -2   -1    0    0    0  501 -0.00000000000E+00 -0.00000000000E+00 -0.71721676621E+02  0.71721676621E+02  0.00000000000E+00 0.  1.
         21    1    1    2  502  503 -0.13180799730E+02 -0.16226853951E+02 -0.31212159513E+02  0.37566516636E+02  0.00000000000E+00 0.  1.
         21    1    1    2  503  501  0.13180799730E+02  0.16226853951E+02 -0.34405624821E+02  0.40259052273E+02  0.00000000000E+00 0. -1.
</event>
<event>
 4    1  0.5576842E+002  0.2939765E+02  0.7546771E-02  0.1424904E+00
          2   -1    0    0  502    0  0.00000000000E+00  0.00000000000E+00  0.29585873150E+03  0.29585873150E+03  0.00000000000E+00 0. -1.
         -2   -1    0    0    0  501 -0.00000000000E+00 -0.00000000000E+00 -0.14528288196E+02  0.14528288196E+02  0.00000000000E+00 0.  1.
         21    1    1    2  502  503 -0.86915130953E+01  0.28083439782E+02  0.27938249305E+03  0.28092489995E+03  0.00000000000E+00 0. -1.
         21    1    1    2  503  501  0.86915130953E+01 -0.28083439782E+02  0.19479502588E+01  0.29462119749E+02  0.00000000000E+00 0.  1.
</event>
<event>
 4    1  0.5576842E+002  0.3217782E+02  0.7546771E-02  0.1401569E+00
          2   -1    0    0  502    0  0.00000000000E+00  0.00000000000E+00  0.11939419331E+04  0.11939419331E+04  0.00000000000E+00 0. -1.
         -2   -1    0    0    0  501 -0.00000000000E+00 -0.00000000000E+00 -0.44566356706E+01  0.44566356706E+01  0.00000000000E+00 0.  1.
         21    1    1    2  502  503 -0.13981517465E+02 -0.28981534572E+02  0.11324915149E+04  0.11329485617E+04  0.00000000000E+00 0. -1.
         21    1    1    2  503  501  0.13981517465E+02  0.28981534572E+02  0.56993782559E+02  0.65450007083E+02  0.00000000000E+00 0.  1.
</event>
<event>
 4    1  0.5576842E+002  0.2161209E+02  0.7546771E-02  0.1510702E+00
          2   -1    0    0  502    0  0.00000000000E+00  0.00000000000E+00  0.90385455383E+03  0.90385455383E+03  0.00000000000E+00 0.  1.
         -2   -1    0    0    0  501 -0.00000000000E+00 -0.00000000000E+00 -0.51683540606E+00  0.51683540606E+00  0.00000000000E+00 0. -1.
         21    1    1    2  502  503 -0.19086888836E+02 -0.10137717664E+02  0.44648513390E+03  0.44700789415E+03  0.00000000000E+00 0. -1.
         21    1    1    2  503  501  0.19086888836E+02  0.10137717664E+02  0.45685258453E+03  0.45736349509E+03  0.00000000000E+00 0.  1.
</event>
<event>
 4    1  0.5576842E+002  0.2642952E+02  0.7546771E-02  0.1453424E+00
          2   -1    0    0  502    0  0.00000000000E+00  0.00000000000E+00  0.13805841520E+04  0.13805841520E+04  0.00000000000E+00 0. -1.
         -2   -1    0    0    0  501 -0.00000000000E+00 -0.00000000000E+00 -0.12292425192E+01  0.12292425192E+01  0.00000000000E+00 0.  1.
         21    1    1    2  502  503 -0.23791656802E+00  0.26428447664E+02  0.12196517393E+04  0.12199380659E+04  0.00000000000E+00 0.  1.
         21    1    1    2  503  501  0.23791656802E+00 -0.26428447664E+02  0.15970317016E+03  0.16187532860E+03  0.00000000000E+00 0. -1.
</event>
<event>
 4    1  0.5576842E+002  0.2153562E+02  0.7546771E-02  0.1511753E+00
          2   -1    0    0  503    0  0.00000000000E+00  0.00000000000E+00  0.19585349005E+04  0.19585349005E+04  0.00000000000E+00 0. -1.
         -2   -1    0    0    0  501 -0.00000000000E+00 -0.00000000000E+00 -0.27739264628E+00  0.27739264628E+00  0.00000000000E+00 0.  1.
         21    1    1    2  502  501  0.46695979212E+01  0.21023271167E+02  0.13537854882E+04  0.13539567686E+04  0.00000000000E+00 0. -1.
         21    1    1    2  503  502 -0.46695979212E+01 -0.21023271167E+02  0.60447201965E+03  0.60485552458E+03  0.00000000000E+00 0.  1.
</event>
<event>
 4    1  0.5576842E+002  0.3346930E+02  0.7546771E-02  0.1391656E+00
          2   -1    0    0  503    0  0.00000000000E+00  0.00000000000E+00  0.17579263560E+03  0.17579263560E+03  0.00000000000E+00 0.  1.
         -2   -1    0    0    0  501 -0.00000000000E+00 -0.00000000000E+00 -0.20990624019E+02  0.20990624019E+02  0.00000000000E+00 0. -1.
         21    1    1    2  502  501  0.92506902065E+01  0.32165490430E+02 -0.47088072389E+01  0.33798918762E+02  0.00000000000E+00 0. -1.
         21    1    1    2  503  502 -0.92506902065E+01 -0.32165490430E+02  0.15951081882E+03  0.16298434086E+03  0.00000000000E+00 0.  1.
</event>
<event>
 4    1  0.5576842E+002  0.2467447E+02  0.7546771E-02  0.1472478E+00
          2   -1    0    0  502    0  0.00000000000E+00  0.00000000000E+00  0.97579896829E+02  0.97579896829E+02  0.00000000000E+00 0.  1.
         -2   -1    0    0    0  501 -0.00000000000E+00 -0.00000000000E+00 -0.19580759413E+02  0.19580759413E+02  0.00000000000E+00 0. -1.
         21    1    1    2  502  503 -0.24429844365E+02 -0.34658918315E+01  0.87354280089E+02  0.90772242188E+02  0.00000000000E+00 0.  1.
         21    1    1    2  503  501  0.24429844365E+02  0.34658918315E+01 -0.93551426724E+01  0.26388414054E+02  0.00000000000E+00 0. -1.
</event>
<event>
 4    1  0.5576842E+002  0.2182679E+02  0.7546771E-02  0.1507780E+00
          2   -1    0    0  503    0  0.00000000000E+00  0.00000000000E+00  0.27307183652E+01  0.27307183652E+01  0.00000000000E+00 0.  1.
         -2   -1    0    0    0  501 -0.00000000000E+00 -0.00000000000E+00 -0.50350915206E+03  0.50350915206E+03  0.00000000000E+00 0. -1.
         21    1    1    2  502  501 -0.18658612719E+02 -0.11325405526E+02 -0.45501070486E+03  0.45553391770E+03  0.00000000000E+00 0. -1.
         21    1    1    2  503  502  0.18658612719E+02  0.11325405526E+02 -0.45767728832E+02  0.50705952722E+02  0.00000000000E+00 0.  1.
</event>
<event>
 4    1  0.5576842E+002  0.3955110E+02  0.7546771E-02  0.1351137E+00
          2   -1    0    0  502    0  0.00000000000E+00  0.00000000000E+00  0.49395321003E+02  0.49395321003E+02  0.00000000000E+00 0.  1.
         -2   -1    0    0    0  501 -0.00000000000E+00 -0.00000000000E+00 -0.53265792312E+02  0.53265792312E+02  0.00000000000E+00 0. -1.
         21    1    1    2  502  503 -0.24206944201E+02 -0.31278004483E+02  0.30749771478E+02  0.50098284980E+02  0.00000000000E+00 0.  1.
         21    1    1    2  503  501  0.24206944201E+02  0.31278004483E+02 -0.34620242787E+02  0.52562828335E+02  0.00000000000E+00 0. -1.
</event>
<event>
 4    1  0.5576842E+002  0.2459448E+02  0.7546771E-02  0.1473391E+00
          2   -1    0    0  503    0  0.00000000000E+00  0.00000000000E+00  0.36358899640E+03  0.36358899640E+03  0.00000000000E+00 0. -1.
         -2   -1    0    0    0  501 -0.00000000000E+00 -0.00000000000E+00 -0.57917888329E+01  0.57917888329E+01  0.00000000000E+00 0.  1.
         21    1    1    2  502  501  0.12518535275E+02 -0.21170135036E+02  0.22974023198E+02  0.33655520866E+02  0.00000000000E+00 0.  1.
         21    1    1    2  503  502 -0.12518535275E+02  0.21170135036E+02  0.33482318436E+03  0.33572526436E+03  0.00000000000E+00 0. -1.
</event>
<event>
 4    1  0.5576842E+002  0.2161143E+02  0.7546771E-02  0.1510711E+00
          2   -1    0    0  503    0  0.00000000000E+00  0.00000000000E+00  0.77928589546E+02  0.77928589546E+02  0.00000000000E+00 0.  1.
         -2   -1    0    0    0  501 -0.00000000000E+00 -0.00000000000E+00 -0.78901227000E+01  0.78901227000E+01  0.00000000000E+00 0. -1.
         21    1    1    2  502  501 -0.21344476918E+02 -0.33863482388E+01  0.13980640936E+02  0.25739315653E+02  0.00000000000E+00 0. -1.
         21    1    1    2  503  502  0.21344476918E+02  0.33863482388E+01  0.56057825910E+02  0.60079396593E+02  0.00000000000E+00 0.  1.
</event>
<event>
 4    1  0.5576842E+002  0.2175421E+02  0.7546771E-02  0.1508763E+00
          2   -1    0    0  503    0  0.00000000000E+00  0.00000000000E+00  0.23981619686E+04  0.23981619686E+04  0.00000000000E+00 0. -1.
         -2   -1    0    0    0  501 -0.00000000000E+00 -0.00000000000E+00 -0.21895576657E+00  0.21895576657E+00  0.00000000000E+00 0.  1.
         21    1    1    2  502  501  0.69358221628E+00  0.21743152672E+02  0.15757853663E+04  0.15759355210E+04  0.00000000000E+00 0. -1.
         21    1    1    2  503  502 -0.69358221628E+00 -0.21743152672E+02  0.82215764648E+03  0.82244540330E+03  0.00000000000E+00 0.  1.
</event>
<event>
 4    1  0.5576842E+002  0.2220798E+02  0.7546771E-02  0.1502690E+00
          2   -1    0    0  503    0  0.00000000000E+00  0.00000000000E+00  0.74215631977E+02  0.74215631977E+02  0.00000000000E+00 0. -1.
         -2   -1    0    0    0  501 -0.00000000000E+00 -0.00000000000E+00 -0.16602233543E+02  0.16602233543E+02  0.00000000000E+00 0.  1.
         21    1    1    2  502  501 -0.22289314264E+01  0.22095843202E+02 -0.63589072636E+01  0.23100435574E+02  0.00000000000E+00 0.  1.
         21    1    1    2  503  502  0.22289314264E+01 -0.22095843202E+02  0.63972305698E+02  0.67717429946E+02  0.00000000000E+00 0. -1.
</event>
<event>
 4    1  0.5576842E+002  0.4615038E+02  0.7546771E-02  0.1315785E+00
          2   -1    0    0  502    0  0.00000000000E+00  0.00000000000E+00  0.88260317255E+03  0.88260317255E+03  0.00000000000E+00 0. -1.
         -2   -1    0    0    0  501 -0.00000000000E+00 -0.00000000000E+00 -0.48534517575E+01  0.48534517575E+01  0.00000000000E+00 0.  1.
         21    1    1    2  502  503  0.46082274540E+02 -0.25063839337E+01  0.75351427839E+03  0.75492623860E+03  0.00000000000E+00 0. -1.
         21    1    1    2  503  501 -0.46082274540E+02  0.25063839337E+01  0.12423544241E+03  0.13253038571E+03  0.00000000000E+00 0.  1.
</event>
<event>
 4    1  0.5576842E+002  0.3088761E+02  0.7546771E-02  0.1412037E+00
          2   -1    0    0  503    0  0.00000000000E+00  0.00000000000E+00  0.70189092235E+03  0.70189092235E+03  0.00000000000E+00 0.  1.
         -2   -1    0    0    0  501 -0.00000000000E+00 -0.00000000000E+00 -0.14316858226E+01  0.14316858226E+01  0.00000000000E+00 0. -1.
         21    1    1    2  502  501 -0.28529158812E+02  0.11837705035E+02  0.27112861315E+03  0.27288233551E+03  0.00000000000E+00 0. -1.
         21    1    1    2  503  502  0.28529158812E+02 -0.11837705035E+02  0.42933062337E+03  0.43044027266E+03  0.00000000000E+00 0.  1.
</event>
<event>
 4    1  0.5576842E+002  0.3094290E+02  0.7546771E-02  0.1411576E+00
          2   -1    0    0  502    0  0.00000000000E+00  0.00000000000E+00  0.67229251947E+03  0.67229251947E+03  0.00000000000E+00 0.  1.
         -2   -1    0    0    0  501 -0.00000000000E+00 -0.00000000000E+00 -0.24445137938E+01  0.24445137938E+01  0.00000000000E+00 0. -1.
         21    1    1    2  502  503 -0.15782507535E+02 -0.26615329819E+02  0.55288568370E+03  0.55375088493E+03  0.00000000000E+00 0.  1.
         21    1    1    2  503  501  0.15782507535E+02  0.26615329819E+02  0.11696232198E+03  0.12098614833E+03  0.00000000000E+00 0. -1.
</event>
<event>
 4    1  0.5576842E+002  0.2408133E+02  0.7546771E-02  0.1479349E+00
          2   -1    0    0  502    0  0.00000000000E+00  0.00000000000E+00  0.15865617498E+03  0.15865617498E+03  0.00000000000E+00 0. -1.
         -2   -1    0    0    0  501 -0.00000000000E+00 -0.00000000000E+00 -0.37879374912E+01  0.37879374912E+01  0.00000000000E+00 0.  1.
         21    1    1    2  502  503  0.19833246525E+00  0.24080517259E+02  0.92641916199E+02  0.95720610551E+02  0.00000000000E+00 0. -1.
         21    1    1    2  503  501 -0.19833246525E+00 -0.24080517259E+02  0.62226321285E+02  0.66723501915E+02  0.00000000000E+00 0.  1.
</event>
<event>
 4    1  0.5576842E+002  0.2410747E+02  0.7546771E-02  0.1479041E+00
          2   -1    0    0  502    0  0.00000000000E+00  0.00000000000E+00  0.63195397974E+02  0.63195397974E+02  0.00000000000E+00 0.  1.
         -2   -1    0    0    0  501 -0.00000000000E+00 -0.00000000000E+00 -0.11637268262E+02  0.11637268262E+02  0.00000000000E+00 0. -1.
         21    1    1    2  502  503 -0.21290985808E+02 -0.11307702929E+02  0.42914998836E+02  0.49222630439E+02  0.00000000000E+00 0.  1.
         21    1    1    2  503  501  0.21290985808E+02  0.11307702929E+02  0.86431308760E+01  0.25610035797E+02  0.00000000000E+00 0. -1.
</event>
<event>
 4    1  0.5576842E+002  0.2124365E+02  0.7546771E-02  0.1515814E+00
          2   -1    0    0  503    0  0.00000000000E+00  0.00000000000E+00  0.53501601485E+02  0.53501601485E+02  0.00000000000E+00 0. -1.
         -2   -1    0    0    0  501 -0.00000000000E+00 -0.00000000000E+00 -0.10558807704E+02  0.10558807704E+02  0.00000000000E+00 0.  1.
         21    1    1    2  502  501  0.50632964231E+01 -0.20631420839E+02  0.71066668321E+01  0.22400830564E+02  0.00000000000E+00 0. -1.
         21    1    1    2  503  502 -0.50632964231E+01  0.20631420839E+02  0.35836126949E+02  0.41659578625E+02  0.00000000000E+00 0.  1.
</event>
<event>
 4    1  0.5576842E+002  0.2665484E+02  0.7546771E-02  0.1451106E+00
          2   -1    0    0  502    0  0.00000000000E+00  0.00000000000E+00  0.20247197026E+03  0.20247197026E+03  0.00000000000E+00 0.  1.
         -2   -1    0    0    0  501 -0.00000000000E+00 -0.00000000000E+00 -0.39864171537E+01  0.39864171537E+01  0.00000000000E+00 0. -1.
         21    1    1    2  502  503  0.21799074081E+02 -0.15338867789E+02  0.13496561036E+03  0.13757251352E+03  0.00000000000E+00 0.  1.
         21    1    1    2  503  501 -0.21799074081E+02  0.15338867789E+02  0.63519942747E+02  0.68885873896E+02  0.00000000000E+00 0. -1.
</event>
<event>
 4    1  0.5576842E+002  0.2588703E+02  0.7546771E-02  0.1459120E+00
          2   -1    0    0  502    0  0.00000000000E+00  0.00000000000E+00  0.56728368403E+03  0.56728368403E+03  0.00000000000E+00 0.  1.
         -2   -1    0    0    0  501 -0.00000000000E+00 -0.00000000000E+00 -0.24042389996E+01  0.24042389996E+01  0.00000000000E+00 0. -1.
         21    1    1    2  502  503 -0.22051514374E+02 -0.13559830977E+02  0.48559059448E+03  0.48628012888E+03  0.00000000000E+00 0.  1.
         21    1    1    2  503  501  0.22051514374E+02  0.13559830977E+02  0.79288850557E+02  0.83407794150E+02  0.00000000000E+00 0. -1.
</event>
<event>
 4    1  0.5576842E+002  0.7068769E+02  0.7546771E-02  0.1227291E+00
          2   -1    0    0  502    0  0.00000000000E+00  0.00000000000E+00  0.28552830440E+02  0.28552830440E+02  0.00000000000E+00 0. -1.
         -2   -1    0    0    0  501 -0.00000000000E+00 -0.00000000000E+00 -0.21614046214E+03  0.21614046214E+03  0.00000000000E+00 0.  1.
         21    1    1    2  502  503  0.69324034683E+02 -0.13817677548E+02 -0.40416374640E+02  0.81426244765E+02  0.00000000000E+00 0. -1.
         21    1    1    2  503  501 -0.69324034683E+02  0.13817677548E+02 -0.14717125706E+03  0.16326704781E+03  0.00000000000E+00 0.  1.
</event>
<event>
 4    1  0.5576842E+002  0.2394565E+02  0.7546771E-02  0.1480953E+00
          2   -1    0    0  503    0  0.00000000000E+00  0.00000000000E+00  0.13427483022E+03  0.13427483022E+03  0.00000000000E+00 0. -1.
         -2   -1    0    0    0  501 -0.00000000000E+00 -0.00000000000E+00 -0.91528223771E+01  0.91528223771E+01  0.00000000000E+00 0.  1.
         21    1    1    2  502  501 -0.91357214388E+00  0.23928215275E+02  0.10183185957E+02  0.26020979547E+02  0.00000000000E+00 0.  1.
         21    1    1    2  503  502  0.91357214388E+00 -0.23928215275E+02  0.11493882189E+03  0.11740667305E+03  0.00000000000E+00 0. -1.
</event>
<event>
 4    1  0.5576842E+002  0.2225630E+02  0.7546771E-02  0.1502054E+00
          2   -1    0    0  503    0  0.00000000000E+00  0.00000000000E+00  0.15220190397E+02  0.15220190397E+02  0.00000000000E+00 0.  1.
         -2   -1    0    0    0  501 -0.00000000000E+00 -0.00000000000E+00 -0.46839786815E+02  0.46839786815E+02  0.00000000000E+00 0. -1.
         21    1    1    2  502  501  0.12288856661E+02 -0.18556051472E+02 -0.32951781153E+02  0.39763839420E+02  0.00000000000E+00 0. -1.
         21    1    1    2  503  502 -0.12288856661E+02  0.18556051472E+02  0.13321847342E+01  0.22296137792E+02  0.00000000000E+00 0.  1.
</event>
<event>
 4    1  0.5576842E+002  0.2170131E+02  0.7546771E-02  0.1509483E+00
          2   -1    0    0  503    0  0.00000000000E+00  0.00000000000E+00  0.14155808072E+03  0.14155808072E+03  0.00000000000E+00 0. -1.
         -2   -1    0    0    0  501 -0.00000000000E+00 -0.00000000000E+00 -0.34300116986E+01  0.34300116986E+01  0.00000000000E+00 0.  1.
         21    1    1    2  502  501  0.20598336795E+02  0.68304814463E+01  0.81634389212E+02  0.84469642224E+02  0.00000000000E+00 0. -1.
         21    1    1    2  503  502 -0.20598336795E+02 -0.68304814463E+01  0.56493679814E+02  0.60518450199E+02  0.00000000000E+00 0.  1.
</event>
<event>
 4    1  0.5576842E+002  0.3028092E+02  0.7546771E-02  0.1417171E+00
          2   -1    0    0  502    0  0.00000000000E+00  0.00000000000E+00  0.23733501743E+02  0.23733501743E+02  0.00000000000E+00 0.  1.
         -2   -1    0    0    0  501 -0.00000000000E+00 -0.00000000000E+00 -0.22811358561E+03  0.22811358561E+03  0.00000000000E+00 0. -1.
         21    1    1    2  502  503  0.22422370420E+02  0.20351199565E+02  0.12575603295E+02  0.32788409801E+02  0.00000000000E+00 0.  1.
         21    1    1    2  503  501 -0.22422370420E+02 -0.20351199565E+02 -0.21695568716E+03  0.21905867755E+03  0.00000000000E+00 0. -1.
</event>
<event>
 4    1  0.5576842E+002  0.2320700E+02  0.7546771E-02  0.1489915E+00
          2   -1    0    0  502    0  0.00000000000E+00  0.00000000000E+00  0.22821135627E+03  0.22821135627E+03  0.00000000000E+00 0. -1.
         -2   -1    0    0    0  501 -0.00000000000E+00 -0.00000000000E+00 -0.71879834376E+01  0.71879834376E+01  0.00000000000E+00 0.  1.
         21    1    1    2  502  503 -0.15829770973E+02 -0.16970067151E+02  0.20697392811E+03  0.20827090951E+03  0.00000000000E+00 0. -1.
         21    1    1    2  503  501  0.15829770973E+02  0.16970067151E+02  0.14049444716E+02  0.27128430198E+02  0.00000000000E+00 0.  1.
</event>
<event>
 4    1  0.5576842E+002  0.2302684E+02  0.7546771E-02  0.1492161E+00
          2   -1    0    0  503    0  0.00000000000E+00  0.00000000000E+00  0.28099615213E+02  0.28099615213E+02  0.00000000000E+00 0. -1.
         -2   -1    0    0    0  501 -0.00000000000E+00 -0.00000000000E+00 -0.24897029968E+02  0.24897029968E+02  0.00000000000E+00 0.  1.
         21    1    1    2  502  501  0.51937746385E+00  0.23020984036E+02 -0.11436431141E+02  0.25710453442E+02  0.00000000000E+00 0.  1.
         21    1    1    2  503  502 -0.51937746385E+00 -0.23020984036E+02  0.14639016386E+02  0.27286191740E+02  0.00000000000E+00 0. -1.
</event>
<event>
 4    1  0.5576842E+002  0.2638759E+02  0.7546771E-02  0.1453859E+00
          2   -1    0    0  503    0  0.00000000000E+00  0.00000000000E+00  0.19720874606E+01  0.19720874606E+01  0.00000000000E+00 0.  1.
         -2   -1    0    0    0  501 -0.00000000000E+00 -0.00000000000E+00 -0.36375090540E+03  0.36375090540E+03  0.00000000000E+00 0. -1.
         21    1    1    2  502  501  0.74002281032E+01 -0.25328673624E+02 -0.21220901511E+03  0.21384333325E+03  0.00000000000E+00 0. -1.
         21    1    1    2  503  502 -0.74002281032E+01  0.25328673624E+02 -0.14956980283E+03  0.15187965960E+03  0.00000000000E+00 0.  1.
</event>
<event>
 4    1  0.5576842E+002  0.2675654E+02  0.7546771E-02  0.1450069E+00
          2   -1    0    0  503    0  0.00000000000E+00  0.00000000000E+00  0.11530380706E+04  0.11530380706E+04  0.00000000000E+00 0.  1.
         -2   -1    0    0    0  501 -0.00000000000E+00 -0.00000000000E+00 -0.11235284760E+01  0.11235284760E+01  0.00000000000E+00 0. -1.
         21    1    1    2  502  501  0.23761358875E+02  0.12300823392E+02  0.18997134947E+03  0.19184636054E+03  0.00000000000E+00 0. -1.
         21    1    1    2  503  502 -0.23761358875E+02 -0.12300823392E+02  0.96194319264E+03  0.96231523852E+03  0.00000000000E+00 0.  1.
</event>
<event>
 4    1  0.5576842E+002  0.2253091E+02  0.7546771E-02  0.1498474E+00
          2   -1    0    0  503    0  0.00000000000E+00  0.00000000000E+00  0.64103619116E+00  0.64103619116E+00  0.00000000000E+00 0.  1.
         -2   -1    0    0    0  501 -0.00000000000E+00 -0.00000000000E+00 -0.83567897068E+03  0.83567897068E+03  0.00000000000E+00 0. -1.
         21    1    1    2  502  501 -0.17558203527E+02  0.14119191792E+02 -0.32181878872E+03  0.32260653257E+03  0.00000000000E+00 0.  1.
         21    1    1    2  503  502  0.17558203527E+02 -0.14119191792E+02 -0.51321914578E+03  0.51371347430E+03  0.00000000000E+00 0. -1.
</event>
<event>
 4    1  0.5576842E+002  0.2406744E+02  0.7546771E-02  0.1479512E+00
          2   -1    0    0  503    0  0.00000000000E+00  0.00000000000E+00  0.37520573359E+02  0.37520573359E+02  0.00000000000E+00 0. -1.
         -2   -1    0    0    0  501 -0.00000000000E+00 -0.00000000000E+00 -0.31335116758E+02  0.31335116758E+02  0.00000000000E+00 0.  1.
         21    1    1    2  502  501  0.20460913143E+02 -0.12672522591E+02 -0.21429145904E+02  0.32224991693E+02  0.00000000000E+00 0.  1.
         21    1    1    2  503  502 -0.20460913143E+02  0.12672522591E+02  0.27614602505E+02  0.36630698423E+02  0.00000000000E+00 0. -1.
</event>
<event>
 4    1  0.5576842E+002  0.3030748E+02  0.7546771E-02  0.1416943E+00
          2   -1    0    0  503    0  0.00000000000E+00  0.00000000000E+00  0.10028192002E+03  0.10028192002E+03  0.00000000000E+00 0.  1.
         -2   -1    0    0    0  501 -0.00000000000E+00 -0.00000000000E+00 -0.24433553719E+02  0.24433553719E+02  0.00000000000E+00 0. -1.
         21    1    1    2  502  501 -0.23959113783E+02 -0.18560829412E+02 -0.11378730426E+02  0.32373121997E+02  0.00000000000E+00 0. -1.
         21    1    1    2  503  502  0.23959113783E+02  0.18560829412E+02  0.87227096731E+02  0.92342351745E+02  0.00000000000E+00 0.  1.
</event>
<event>
 4    1  0.5576842E+002  0.2072996E+02  0.7546771E-02  0.1523155E+00
          2   -1    0    0  502    0  0.00000000000E+00  0.00000000000E+00  0.24738477076E+03  0.24738477076E+03  0.00000000000E+00 0.  1.
         -2   -1    0    0    0  501 -0.00000000000E+00 -0.00000000000E+00 -0.27406714267E+01  0.27406714267E+01  0.00000000000E+00 0. -1.
         21    1    1    2  502  503  0.20725711883E+02 -0.41959695218E+00  0.19800086249E+03  0.19908308000E+03  0.00000000000E+00 0. -1.
         21    1    1    2  503  501 -0.20725711883E+02  0.41959695218E+00  0.46643236848E+02  0.51042362194E+02  0.00000000000E+00 0.  1.
</event>
<event>
 4    1  0.5576842E+002  0.3718563E+02  0.7546771E-02  0.1365817E+00
          2   -1    0    0  503    0  0.00000000000E+00  0.00000000000E+00  0.79848481483E+02  0.79848481483E+02  0.00000000000E+00 0.  1.
         -2   -1    0    0    0  501 -0.00000000000E+00 -0.00000000000E+00 -0.17611347813E+02  0.17611347813E+02  0.00000000000E+00 0. -1.
         21    1    1    2  502  501  0.20321724939E+02 -0.31141590724E+02  0.37413714698E+02  0.52749949998E+02  0.00000000000E+00 0.  1.
         21    1    1    2  503  502 -0.20321724939E+02  0.31141590724E+02  0.24823418972E+02  0.44709879298E+02  0.00000000000E+00 0. -1.
</event>
<event>
 4    1  0.5576842E+002  0.3012746E+02  0.7546771E-02  0.1418492E+00
          2   -1    0    0  503    0  0.00000000000E+00  0.00000000000E+00  0.13203141792E+03  0.13203141792E+03  0.00000000000E+00 0. -1.
         -2   -1    0    0    0  501 -0.00000000000E+00 -0.00000000000E+00 -0.23700227079E+02  0.23700227079E+02  0.00000000000E+00 0.  1.
         21    1    1    2  502  501 -0.29994700803E+02  0.28252123263E+01 -0.11442311305E+02  0.32227168491E+02  0.00000000000E+00 0.  1.
         21    1    1    2  503  502  0.29994700803E+02 -0.28252123263E+01  0.11977350214E+03  0.12350447650E+03  0.00000000000E+00 0. -1.
</event>
<event>
 4    1  0.5576842E+002  0.2320565E+02  0.7546771E-02  0.1489932E+00
          2   -1    0    0  502    0  0.00000000000E+00  0.00000000000E+00  0.83900410235E+02  0.83900410235E+02  0.00000000000E+00 0.  1.
         -2   -1    0    0    0  501 -0.00000000000E+00 -0.00000000000E+00 -0.68085252497E+01  0.68085252497E+01  0.00000000000E+00 0. -1.
         21    1    1    2  502  503 -0.22601913257E+02 -0.52588684098E+01  0.27688600251E+02  0.36127008784E+02  0.00000000000E+00 0.  1.
         21    1    1    2  503  501  0.22601913257E+02  0.52588684098E+01  0.49403284734E+02  0.54581926701E+02  0.00000000000E+00 0. -1.
</event>
<event>
 4    1  0.5576842E+002  0.3130965E+02  0.7546771E-02  0.1408547E+00
          2   -1    0    0  503    0  0.00000000000E+00  0.00000000000E+00  0.31998121215E+03  0.31998121215E+03  0.00000000000E+00 0. -1.
         -2   -1    0    0    0  501 -0.00000000000E+00 -0.00000000000E+00 -0.42612220857E+01  0.42612220857E+01  0.00000000000E+00 0.  1.
         21    1    1    2  502  501 -0.10564945688E+02 -0.29473308000E+02  0.71912555939E+02  0.78432835366E+02  0.00000000000E+00 0.  1.
         21    1    1    2  503  502  0.10564945688E+02  0.29473308000E+02  0.24380743412E+03  0.24580959887E+03  0.00000000000E+00 0. -1.
</event>
<event>
 4    1  0.5576842E+002  0.2465168E+02  0.7546771E-02  0.1472738E+00
          2   -1    0    0  502    0  0.00000000000E+00  0.00000000000E+00  0.48076193239E+03  0.48076193239E+03  0.00000000000E+00 0.  1.
         -2   -1    0    0    0  501 -0.00000000000E+00 -0.00000000000E+00 -0.26333626572E+01  0.26333626572E+01  0.00000000000E+00 0. -1.
         21    1    1    2  502  503 -0.24514473116E+02  0.25972783259E+01  0.41335289892E+03  0.41408733896E+03  0.00000000000E+00 0.  1.
         21    1    1    2  503  501  0.24514473116E+02 -0.25972783259E+01  0.64775670817E+02  0.69307956085E+02  0.00000000000E+00 0. -1.
</event>
<event>
 4    1  0.5576842E+002  0.3739722E+02  0.7546771E-02  0.1364452E+00
          2   -1    0    0  503    0  0.00000000000E+00  0.00000000000E+00  0.15972033438E+03  0.15972033438E+03  0.00000000000E+00 0.  1.
         -2   -1    0    0    0  501 -0.00000000000E+00 -0.00000000000E+00 -0.13380584131E+02  0.13380584131E+02  0.00000000000E+00 0. -1.
         21    1    1    2  502  501  0.45982298779E+01  0.37113454020E+02  0.22288815558E+02  0.43535542793E+02  0.00000000000E+00 0. -1.
         21    1    1    2  503  502 -0.45982298779E+01 -0.37113454020E+02  0.12405093469E+03  0.12956537572E+03  0.00000000000E+00 0.  1.
</event>
<event>
 4    1  0.5576842E+002  0.2249535E+02  0.7546771E-02  0.1498934E+00
          2   -1    0    0  503    0  0.00000000000E+00  0.00000000000E+00  0.31945146974E+03  0.31945146974E+03  0.00000000000E+00 0. -1.
         -2   -1    0    0    0  501 -0.00000000000E+00 -0.00000000000E+00 -0.21861007895E+01  0.21861007895E+01  0.00000000000E+00 0.  1.
         21    1    1    2  502  501  0.56723781220E+01  0.21768436241E+02  0.74240367927E+02  0.77573661251E+02  0.00000000000E+00 0.  1.
         21    1    1    2  503  502 -0.56723781220E+01 -0.21768436241E+02  0.24302500102E+03  0.24406390928E+03  0.00000000000E+00 0. -1.
</event>
<event>
 4    1  0.5576842E+002  0.2235601E+02  0.7546771E-02  0.1500747E+00
          2   -1    0    0  503    0  0.00000000000E+00  0.00000000000E+00  0.14861059896E+04  0.14861059896E+04  0.00000000000E+00 0.  1.
         -2   -1    0    0    0  501 -0.00000000000E+00 -0.00000000000E+00 -0.36574488249E+00  0.36574488249E+00  0.00000000000E+00 0. -1.
         21    1    1    2  502  501  0.10915036980E+02 -0.19510332073E+02  0.53201958235E+03  0.53248908636E+03  0.00000000000E+00 0.  1.
         21    1    1    2  503  502 -0.10915036980E+02  0.19510332073E+02  0.95372066235E+03  0.95398264810E+03  0.00000000000E+00 0. -1.
</event>
<event>
 4    1  0.5576842E+002  0.2173799E+02  0.7546771E-02  0.1508984E+00
          2   -1    0    0  503    0  0.00000000000E+00  0.00000000000E+00  0.10465210899E+02  0.10465210899E+02  0.00000000000E+00 0.  1.
         -2   -1    0    0    0  501 -0.00000000000E+00 -0.00000000000E+00 -0.80393719432E+02  0.80393719432E+02  0.00000000000E+00 0. -1.
         21    1    1    2  502  501 -0.18344752169E+02 -0.11662337407E+02 -0.65042075105E+02  0.68578506690E+02  0.00000000000E+00 0. -1.
         21    1    1    2  503  502  0.18344752169E+02  0.11662337407E+02 -0.48864334286E+01  0.22280423640E+02  0.00000000000E+00 0.  1.
</event>
<event>
 4    1  0.5576842E+002  0.2136176E+02  0.7546771E-02  0.1514162E+00
          2   -1    0    0  503    0  0.00000000000E+00  0.00000000000E+00  0.55518305369E+02  0.55518305369E+02  0.00000000000E+00 0.  1.
         -2   -1    0    0    0  501 -0.00000000000E+00 -0.00000000000E+00 -0.14511092232E+02  0.14511092232E+02  0.00000000000E+00 0. -1.
         21    1    1    2  502  501 -0.15608820641E+02 -0.14583885373E+02 -0.25524709954E+01  0.21513718938E+02  0.00000000000E+00 0. -1.
         21    1    1    2  503  502  0.15608820641E+02  0.14583885373E+02  0.43559684133E+02  0.48515678663E+02  0.00000000000E+00 0.  1.
</event>
<event>
 4    1  0.5576842E+002  0.6043006E+02  0.7546771E-02  0.1258378E+00
          2   -1    0    0  503    0  0.00000000000E+00  0.00000000000E+00  0.60034438557E+02  0.60034438557E+02  0.00000000000E+00 0.  1.
         -2   -1    0    0    0  501 -0.00000000000E+00 -0.00000000000E+00 -0.24803917149E+03  0.24803917149E+03  0.00000000000E+00 0. -1.
         21    1    1    2  502  501  0.26444802570E+01 -0.60372167425E+02 -0.22782510628E+03  0.23570335366E+03  0.00000000000E+00 0. -1.
         21    1    1    2  503  502 -0.26444802570E+01  0.60372167425E+02  0.39820373349E+02  0.72370256384E+02  0.00000000000E+00 0.  1.
</event>
<event>
 4    1  0.5576842E+002  0.2129431E+02  0.7546771E-02  0.1515104E+00
          2   -1    0    0  502    0  0.00000000000E+00  0.00000000000E+00  0.17236103407E+01  0.17236103407E+01  0.00000000000E+00 0.  1.
         -2   -1    0    0    0  501 -0.00000000000E+00 -0.00000000000E+00 -0.32120266016E+03  0.32120266016E+03  0.00000000000E+00 0. -1.
         21    1    1    2  502  503 -0.18780720596E+02  0.10036546389E+02 -0.91055480554E+02  0.93512289398E+02  0.00000000000E+00 0.  1.
         21    1    1    2  503  501  0.18780720596E+02 -0.10036546389E+02 -0.22842356926E+03  0.22941398110E+03  0.00000000000E+00 0. -1.
</event>
<event>
 4    1  0.5576842E+002  0.5148012E+02  0.7546771E-02  0.1291880E+00
          2   -1    0    0  502    0  0.00000000000E+00  0.00000000000E+00  0.43796233492E+03  0.43796233492E+03  0.00000000000E+00 0. -1.
         -2   -1    0    0    0  501 -0.00000000000E+00 -0.00000000000E+00 -0.12870780378E+02  0.12870780378E+02  0.00000000000E+00 0.  1.
         21    1    1    2  502  503 -0.92090730560E+01 -0.50649740782E+02  0.37662809937E+03  0.38013014680E+03  0.00000000000E+00 0. -1.
         21    1    1    2  503  501  0.92090730560E+01  0.50649740782E+02  0.48463455173E+02  0.70702968503E+02  0.00000000000E+00 0.  1.
</event>
<event>
 4    1  0.5576842E+002  0.2118972E+02  0.7546771E-02  0.1516573E+00
          2   -1    0    0  503    0  0.00000000000E+00  0.00000000000E+00  0.10410800105E+04  0.10410800105E+04  0.00000000000E+00 0. -1.
         -2   -1    0    0    0  501 -0.00000000000E+00 -0.00000000000E+00 -0.52902854123E+00  0.52902854123E+00  0.00000000000E+00 0.  1.
         21    1    1    2  502  501 -0.22973432069E+01 -0.21064813553E+02  0.29641624454E+03  0.29717266729E+03  0.00000000000E+00 0.  1.
         21    1    1    2  503  502  0.22973432069E+01  0.21064813553E+02  0.74413473743E+03  0.74443637177E+03  0.00000000000E+00 0. -1.
</event>
<event>
 4    1  0.5576842E+002  0.2708393E+02  0.7546771E-02  0.1446767E+00
          2   -1    0    0  502    0  0.00000000000E+00  0.00000000000E+00  0.88148317271E+02  0.88148317271E+02  0.00000000000E+00 0.  1.
         -2   -1    0    0    0  501 -0.00000000000E+00 -0.00000000000E+00 -0.23523973239E+02  0.23523973239E+02  0.00000000000E+00 0. -1.
         21    1    1    2  502  503  0.24970670607E+02 -0.10488327856E+02  0.77198603152E+02  0.81811757960E+02  0.00000000000E+00 0.  1.
         21    1    1    2  503  501 -0.24970670607E+02  0.10488327856E+02 -0.12574259120E+02  0.29860532550E+02  0.00000000000E+00 0. -1.
</event>
<event>
 4    1  0.5576842E+002  0.2203224E+02  0.7546771E-02  0.1505021E+00
          2   -1    0    0  502    0  0.00000000000E+00  0.00000000000E+00  0.13922052092E+04  0.13922052092E+04  0.00000000000E+00 0. -1.
         -2   -1    0    0    0  501 -0.00000000000E+00 -0.00000000000E+00 -0.39114889980E+01  0.39114889980E+01  0.00000000000E+00 0.  1.
         21    1    1    2  502  503 -0.65942830543E+01  0.21022250613E+02  0.13603667208E+04  0.13605451241E+04  0.00000000000E+00 0. -1.
         21    1    1    2  503  501  0.65942830543E+01 -0.21022250613E+02  0.27926999403E+02  0.35571574122E+02  0.00000000000E+00 0.  1.
</event>
<event>
 4    1  0.5576842E+002  0.2326294E+02  0.7546771E-02  0.1489222E+00
          2   -1    0    0  503    0  0.00000000000E+00  0.00000000000E+00  0.50628978877E+03  0.50628978877E+03  0.00000000000E+00 0.  1.
         -2   -1    0    0    0  501 -0.00000000000E+00 -0.00000000000E+00 -0.19841804703E+01  0.19841804703E+01  0.00000000000E+00 0. -1.
         21    1    1    2  502  501 -0.75680118760E+01  0.21997494997E+02  0.79545806349E+02  0.82877620005E+02  0.00000000000E+00 0.  1.
         21    1    1    2  503  502  0.75680118760E+01 -0.21997494997E+02  0.42475980195E+03  0.42539634923E+03  0.00000000000E+00 0. -1.
</event>
<event>
 4    1  0.5576842E+002  0.4175842E+02  0.7546771E-02  0.1338479E+00
          2   -1    0    0  503    0  0.00000000000E+00  0.00000000000E+00  0.18164345187E+04  0.18164345187E+04  0.00000000000E+00 0.  1.
         -2   -1    0    0    0  501 -0.00000000000E+00 -0.00000000000E+00 -0.96031013798E+00  0.96031013798E+00  0.00000000000E+00 0. -1.
         21    1    1    2  502  501  0.25109546849E+02 -0.33365796934E+02  0.89124266425E+03  0.89222040569E+03  0.00000000000E+00 0. -1.
         21    1    1    2  503  502 -0.25109546849E+02  0.33365796934E+02  0.92423154427E+03  0.92517442310E+03  0.00000000000E+00 0.  1.
</event>
<event>
 4    1  0.5576842E+002  0.2002382E+02  0.7546771E-02  0.1533672E+00
          2   -1    0    0  503    0  0.00000000000E+00  0.00000000000E+00  0.89633454270E+03  0.89633454270E+03  0.00000000000E+00 0. -1.
         -2   -1    0    0    0  501 -0.00000000000E+00 -0.00000000000E+00 -0.50448848586E+00  0.50448848586E+00  0.00000000000E+00 0.  1.
         21    1    1    2  502  501  0.96356416230E+01  0.17552994489E+02  0.29697072610E+03  0.29764503249E+03  0.00000000000E+00 0.  1.
         21    1    1    2  503  502 -0.96356416230E+01 -0.17552994489E+02  0.59885932811E+03  0.59919399869E+03  0.00000000000E+00 0. -1.
</event>
<event>
 4    1  0.5576842E+002  0.2429628E+02  0.7546771E-02  0.1476832E+00
          2   -1    0    0  503    0  0.00000000000E+00  0.00000000000E+00  0.64764428594E+03  0.64764428594E+03  0.00000000000E+00 0.  1.
         -2   -1    0    0    0  501 -0.00000000000E+00 -0.00000000000E+00 -0.57895237647E+01  0.57895237647E+01  0.00000000000E+00 0. -1.
         21    1    1    2  502  501 -0.79200097878E+01  0.22969172986E+02  0.21029498361E+02  0.32133304593E+02  0.00000000000E+00 0. -1.
         21    1    1    2  503  502  0.79200097878E+01 -0.22969172986E+02  0.62082526381E+03  0.62130050511E+03  0.00000000000E+00 0.  1.
</event>
<event>
 4    1  0.5576842E+002  0.2601839E+02  0.7546771E-02  0.1457726E+00
          2   -1    0    0  503    0  0.00000000000E+00  0.00000000000E+00  0.11719969980E+03  0.11719969980E+03  0.00000000000E+00 0.  1.
         -2   -1    0    0    0  501 -0.00000000000E+00 -0.00000000000E+00 -0.63948679469E+01  0.63948679469E+01  0.00000000000E+00 0. -1.
         21    1    1    2  502  501 -0.68745364963E+01  0.25093767075E+02  0.36179473704E+02  0.44563558156E+02  0.00000000000E+00 0. -1.
         21    1    1    2  503  502  0.68745364963E+01 -0.25093767075E+02  0.74625358154E+02  0.79031009595E+02  0.00000000000E+00 0.  1.
</event>
<event>
 4    1  0.5576842E+002  0.4020921E+02  0.7546771E-02  0.1347264E+00
          2   -1    0    0  503    0  0.00000000000E+00  0.00000000000E+00  0.10063527972E+04  0.10063527972E+04  0.00000000000E+00 0.  1.
         -2   -1    0    0    0  501 -0.00000000000E+00 -0.00000000000E+00 -0.86088473347E+01  0.86088473347E+01  0.00000000000E+00 0. -1.
         21    1    1    2  502  501 -0.39174749200E+02 -0.90619874712E+01  0.41187005130E+02  0.57559968584E+02  0.00000000000E+00 0. -1.
         21    1    1    2  503  502  0.39174749200E+02  0.90619874712E+01  0.95655694476E+03  0.95740167597E+03  0.00000000000E+00 0.  1.
</event>
<event>
 4    1  0.5576842E+002  0.2134553E+02  0.7546771E-02  0.1514388E+00
          2   -1    0    0  502    0  0.00000000000E+00  0.00000000000E+00  0.49352168374E+03  0.49352168374E+03  0.00000000000E+00 0.  1.
         -2   -1    0    0    0  501 -0.00000000000E+00 -0.00000000000E+00 -0.16733532069E+01  0.16733532069E+01  0.00000000000E+00 0. -1.
         21    1    1    2  502  503  0.21179954757E+02 -0.26534931835E+01  0.41169962968E+03  0.41225261259E+03  0.00000000000E+00 0.  1.
         21    1    1    2  503  501 -0.21179954757E+02  0.26534931835E+01  0.80148700859E+02  0.82942424362E+02  0.00000000000E+00 0. -1.
</event>
<event>
 4    1  0.5576842E+002  0.2667347E+02  0.7546771E-02  0.1450916E+00
          2   -1    0    0  502    0  0.00000000000E+00  0.00000000000E+00  0.28859686249E+01  0.28859686249E+01  0.00000000000E+00 0.  1.
         -2   -1    0    0    0  501 -0.00000000000E+00 -0.00000000000E+00 -0.44132009767E+03  0.44132009767E+03  0.00000000000E+00 0. -1.
         21    1    1    2  502  503 -0.20213454510E+02 -0.17403743195E+02 -0.71659135334E+02  0.76462446320E+02  0.00000000000E+00 0. -1.
         21    1    1    2  503  501  0.20213454510E+02  0.17403743195E+02 -0.36677499371E+03  0.36774361997E+03  0.00000000000E+00 0.  1.
</event>
<event>
 4    1  0.5576842E+002  0.2243679E+02  0.7546771E-02  0.1499694E+00
          2   -1    0    0  503    0  0.00000000000E+00  0.00000000000E+00  0.40913770260E+02  0.40913770260E+02  0.00000000000E+00 0. -1.
         -2   -1    0    0    0  501 -0.00000000000E+00 -0.00000000000E+00 -0.14338879187E+02  0.14338879187E+02  0.00000000000E+00 0.  1.
         21    1    1    2  502  501 -0.18353597687E+02  0.12905613358E+02  0.28806218588E+01  0.22620950168E+02  0.00000000000E+00 0.  1.
         21    1    1    2  503  502  0.18353597687E+02 -0.12905613358E+02  0.23694269214E+02  0.32631699279E+02  0.00000000000E+00 0. -1.
</event>
<event>
 4    1  0.5576842E+002  0.3266589E+02  0.7546771E-02  0.1397760E+00
          2   -1    0    0  502    0  0.00000000000E+00  0.00000000000E+00  0.33478484098E+01  0.33478484098E+01  0.00000000000E+00 0.  1.
         -2   -1    0    0    0  501 -0.00000000000E+00 -0.00000000000E+00 -0.85056369505E+03  0.85056369505E+03  0.00000000000E+00 0. -1.
         21    1    1    2  502  503 -0.32235650184E+02  0.52842199319E+01 -0.85996335906E+02  0.91991466519E+02  0.00000000000E+00 0.  1.
         21    1    1    2  503  501  0.32235650184E+02 -0.52842199319E+01 -0.76121951073E+03  0.76192007694E+03  0.00000000000E+00 0. -1.
</event>
<event>
 4    1  0.5576842E+002  0.3681464E+02  0.7546771E-02  0.1368236E+00
          2   -1    0    0  503    0  0.00000000000E+00  0.00000000000E+00  0.11712012509E+03  0.11712012509E+03  0.00000000000E+00 0. -1.
         -2   -1    0    0    0  501 -0.00000000000E+00 -0.00000000000E+00 -0.12772547057E+02  0.12772547057E+02  0.00000000000E+00 0.  1.
         21    1    1    2  502  501  0.33194909834E+02  0.15919039943E+02  0.32262487469E+02  0.48950852590E+02  0.00000000000E+00 0.  1.
         21    1    1    2  503  502 -0.33194909834E+02 -0.15919039943E+02  0.72085090563E+02  0.80941819557E+02  0.00000000000E+00 0. -1.
</event>
<event>
 4    1  0.5576842E+002  0.2069678E+02  0.7546771E-02  0.1523638E+00
          2   -1    0    0  502    0  0.00000000000E+00  0.00000000000E+00  0.93778619522E+03  0.93778619522E+03  0.00000000000E+00 0.  1.
         -2   -1    0    0    0  501 -0.00000000000E+00 -0.00000000000E+00 -0.50035469641E+00  0.50035469641E+00  0.00000000000E+00 0. -1.
         21    1    1    2  502  503 -0.19140760135E+02 -0.78732469320E+01  0.60709887939E+03  0.60745156686E+03  0.00000000000E+00 0.  1.
         21    1    1    2  503  501  0.19140760135E+02  0.78732469320E+01  0.33018696113E+03  0.33083498306E+03  0.00000000000E+00 0. -1.
</event>
<event>
 4    1  0.5576842E+002  0.3554094E+02  0.7546771E-02  0.1376800E+00
          2   -1    0    0  502    0  0.00000000000E+00  0.00000000000E+00  0.30435194442E+02  0.30435194442E+02  0.00000000000E+00 0.  1.
         -2   -1    0    0    0  501 -0.00000000000E+00 -0.00000000000E+00 -0.84787391850E+02  0.84787391850E+02  0.00000000000E+00 0. -1.
         21    1    1    2  502  503  0.34066383347E+02 -0.10131154089E+02  0.13986853142E+02  0.38194120206E+02  0.00000000000E+00 0.  1.
         21    1    1    2  503  501 -0.34066383347E+02  0.10131154089E+02 -0.68339050549E+02  0.77028466086E+02  0.00000000000E+00 0. -1.
</event>
<event>
 4    1  0.5576842E+002  0.6847978E+02  0.7546771E-02  0.1233458E+00
          2   -1    0    0  502    0  0.00000000000E+00  0.00000000000E+00  0.25743635906E+03  0.25743635906E+03  0.00000000000E+00 0.  1.
         -2   -1    0    0    0  501 -0.00000000000E+00 -0.00000000000E+00 -0.71420264778E+02  0.71420264778E+02  0.00000000000E+00 0. -1.
         21    1    1    2  502  503 -0.51790984621E+02  0.44801494936E+02  0.23492647352E+03  0.24470375559E+03  0.00000000000E+00 0.  1.
         21    1    1    2  503  501  0.51790984621E+02 -0.44801494936E+02 -0.48910379244E+02  0.84152868247E+02  0.00000000000E+00 0. -1.
</event>
<event>
 4    1  0.5576842E+002  0.2113485E+02  0.7546771E-02  0.1517348E+00
          2   -1    0    0  502    0  0.00000000000E+00  0.00000000000E+00  0.15771587805E+03  0.15771587805E+03  0.00000000000E+00 0. -1.
         -2   -1    0    0    0  501 -0.00000000000E+00 -0.00000000000E+00 -0.25496796061E+02  0.25496796061E+02  0.00000000000E+00 0.  1.
         21    1    1    2  502  503  0.20092180064E+02 -0.65563832557E+01  0.15247831764E+03  0.15393608807E+03  0.00000000000E+00 0. -1.
         21    1    1    2  503  501 -0.20092180064E+02  0.65563832557E+01 -0.20259235648E+02  0.29276586041E+02  0.00000000000E+00 0.  1.
</event>
<event>
 4    1  0.5576842E+002  0.3832330E+02  0.7546771E-02  0.1358602E+00
          2   -1    0    0  502    0  0.00000000000E+00  0.00000000000E+00  0.58116535269E+03  0.58116535269E+03  0.00000000000E+00 0. -1.
         -2   -1    0    0    0  501 -0.00000000000E+00 -0.00000000000E+00 -0.27917207460E+01  0.27917207460E+01  0.00000000000E+00 0.  1.
         21    1    1    2  502  503  0.33979124432E+02  0.17722698537E+02  0.37907652450E+03  0.38100877466E+03  0.00000000000E+00 0. -1.
         21    1    1    2  503  501 -0.33979124432E+02 -0.17722698537E+02  0.19929710744E+03  0.20294829877E+03  0.00000000000E+00 0.  1.
</event>
<event>
 4    1  0.5576842E+002  0.3204739E+02  0.7546771E-02  0.1402601E+00
          2   -1    0    0  503    0  0.00000000000E+00  0.00000000000E+00  0.76313526403E+03  0.76313526403E+03  0.00000000000E+00 0.  1.
         -2   -1    0    0    0  501 -0.00000000000E+00 -0.00000000000E+00 -0.43060311073E+01  0.43060311073E+01  0.00000000000E+00 0. -1.
         21    1    1    2  502  501 -0.23030655675E+02 -0.22285070819E+02  0.61259711505E+02  0.69136008967E+02  0.00000000000E+00 0. -1.
         21    1    1    2  503  502  0.23030655675E+02  0.22285070819E+02  0.69756952142E+03  0.69830528617E+03  0.00000000000E+00 0.  1.
</event>
<event>
 4    1  0.5576842E+002  0.2048854E+02  0.7546771E-02  0.1526694E+00
          2   -1    0    0  503    0  0.00000000000E+00  0.00000000000E+00  0.40667336794E+03  0.40667336794E+03  0.00000000000E+00 0. -1.
         -2   -1    0    0    0  501 -0.00000000000E+00 -0.00000000000E+00 -0.11957507939E+01  0.11957507939E+01  0.00000000000E+00 0.  1.
         21    1    1    2  502  501  0.59972448301E+01 -0.19591155841E+02  0.12732387234E+03  0.12896181140E+03  0.00000000000E+00 0.  1.
         21    1    1    2  503  502 -0.59972448301E+01  0.19591155841E+02  0.27815374480E+03  0.27890730733E+03  0.00000000000E+00 0. -1.
</event>
<event>
 4    1  0.5576842E+002  0.2189203E+02  0.7546771E-02  0.1506900E+00
          2   -1    0    0  502    0  0.00000000000E+00  0.00000000000E+00  0.10423121256E+04  0.10423121256E+04  0.00000000000E+00 0. -1.
         -2   -1    0    0    0  501 -0.00000000000E+00 -0.00000000000E+00 -0.56984483101E+00  0.56984483101E+00  0.00000000000E+00 0.  1.
         21    1    1    2  502  503 -0.16474290729E+02  0.14417303762E+02  0.75001104301E+03  0.75033047755E+03  0.00000000000E+00 0. -1.
         21    1    1    2  503  501  0.16474290729E+02 -0.14417303762E+02  0.29173123777E+03  0.29255149289E+03  0.00000000000E+00 0.  1.
</event>
<event>
 4    1  0.5576842E+002  0.2440268E+02  0.7546771E-02  0.1475598E+00
          2   -1    0    0  503    0  0.00000000000E+00  0.00000000000E+00  0.90632434567E+01  0.90632434567E+01  0.00000000000E+00 0. -1.
         -2   -1    0    0    0  501 -0.00000000000E+00 -0.00000000000E+00 -0.11477559637E+03  0.11477559637E+03  0.00000000000E+00 0.  1.
         21    1    1    2  502  501  0.10679547869E+02 -0.21941701664E+02 -0.93343340385E+02  0.96480413602E+02  0.00000000000E+00 0.  1.
         21    1    1    2  503  502 -0.10679547869E+02  0.21941701664E+02 -0.12369012529E+02  0.27358426226E+02  0.00000000000E+00 0. -1.
</event>
<event>
 4    1  0.5576842E+002  0.6772251E+02  0.7546771E-02  0.1235634E+00
          2   -1    0    0  503    0  0.00000000000E+00  0.00000000000E+00  0.12531160139E+04  0.12531160139E+04  0.00000000000E+00 0.  1.
         -2   -1    0    0    0  501 -0.00000000000E+00 -0.00000000000E+00 -0.55804848232E+01  0.55804848232E+01  0.00000000000E+00 0. -1.
         21    1    1    2  502  501 -0.67563425498E+02  0.46392004182E+01  0.25456371613E+03  0.26341796487E+03  0.00000000000E+00 0. -1.
         21    1    1    2  503  502  0.67563425498E+02 -0.46392004182E+01  0.99297181294E+03  0.99527853385E+03  0.00000000000E+00 0.  1.
</event>
<event>
 4    1  0.5576842E+002  0.2099215E+02  0.7546771E-02  0.1519377E+00
          2   -1    0    0  502    0  0.00000000000E+00  0.00000000000E+00  0.19889331835E+01  0.19889331835E+01  0.00000000000E+00 0.  1.
         -2   -1    0    0    0  501 -0.00000000000E+00 -0.00000000000E+00 -0.47210844476E+03  0.47210844476E+03  0.00000000000E+00 0. -1.
         21    1    1    2  502  503  0.20755832018E+02  0.31409940161E+01 -0.62372019624E+02  0.65809871889E+02  0.00000000000E+00 0.  1.
         21    1    1    2  503  501 -0.20755832018E+02 -0.31409940161E+01 -0.40774749195E+03  0.40828750605E+03  0.00000000000E+00 0. -1.
</event>
<event>
 4    1  0.5576842E+002  0.2464115E+02  0.7546771E-02  0.1472858E+00
          2   -1    0    0  503    0  0.00000000000E+00  0.00000000000E+00  0.13603554116E+02  0.13603554116E+02  0.00000000000E+00 0.  1.
         -2   -1    0    0    0  501 -0.00000000000E+00 -0.00000000000E+00 -0.50670577394E+02  0.50670577394E+02  0.00000000000E+00 0. -1.
         21    1    1    2  502  501 -0.22695084838E+02 -0.95978782862E+01 -0.74415037148E+01  0.25740282068E+02  0.00000000000E+00 0.  1.
         21    1    1    2  503  502  0.22695084838E+02  0.95978782862E+01 -0.29625519564E+02  0.38533849442E+02  0.00000000000E+00 0. -1.
</event>
<event>
 4    1  0.5576842E+002  0.2222395E+02  0.7546771E-02  0.1502480E+00
          2   -1    0    0  502    0  0.00000000000E+00  0.00000000000E+00  0.81415097739E+03  0.81415097739E+03  0.00000000000E+00 0.  1.
         -2   -1    0    0    0  501 -0.00000000000E+00 -0.00000000000E+00 -0.77357212021E+00  0.77357212021E+00  0.00000000000E+00 0. -1.
         21    1    1    2  502  503 -0.56801010225E+01 -0.21485823617E+02  0.21741303449E+03  0.21854594879E+03  0.00000000000E+00 0. -1.
         21    1    1    2  503  501  0.56801010225E+01  0.21485823617E+02  0.59596437077E+03  0.59637860072E+03  0.00000000000E+00 0.  1.
</event>
<event>
 4    1  0.5576842E+002  0.4411978E+02  0.7546771E-02  0.1325900E+00
          2   -1    0    0  503    0  0.00000000000E+00  0.00000000000E+00  0.82846129477E+03  0.82846129477E+03  0.00000000000E+00 0. -1.
         -2   -1    0    0    0  501 -0.00000000000E+00 -0.00000000000E+00 -0.60073831484E+01  0.60073831484E+01  0.00000000000E+00 0.  1.
         21    1    1    2  502  501  0.18079840813E+02 -0.40245182656E+02  0.85655620112E+02  0.96350613012E+02  0.00000000000E+00 0.  1.
         21    1    1    2  503  502 -0.18079840813E+02  0.40245182656E+02  0.73679829151E+03  0.73811806491E+03  0.00000000000E+00 0. -1.
</event>
<event>
 4    1  0.5576842E+002  0.2117825E+02  0.7546771E-02  0.1516735E+00
          2   -1    0    0  503    0  0.00000000000E+00  0.00000000000E+00  0.57711296416E+02  0.57711296416E+02  0.00000000000E+00 0. -1.
         -2   -1    0    0    0  501 -0.00000000000E+00 -0.00000000000E+00 -0.95505854272E+01  0.95505854272E+01  0.00000000000E+00 0.  1.
         21    1    1    2  502  501 -0.17846182089E+02 -0.11403165207E+02  0.95662395986E+01  0.23238574224E+02  0.00000000000E+00 0.  1.
         21    1    1    2  503  502  0.17846182089E+02  0.11403165207E+02  0.38594471391E+02  0.44023307620E+02  0.00000000000E+00 0. -1.
</event>
<event>
 4    1  0.5576842E+002  0.2383997E+02  0.7546771E-02  0.1482212E+00
          2   -1    0    0  502    0  0.00000000000E+00  0.00000000000E+00  0.81304413669E+01  0.81304413669E+01  0.00000000000E+00 0. -1.
         -2   -1    0    0    0  501 -0.00000000000E+00 -0.00000000000E+00 -0.89323128130E+02  0.89323128130E+02  0.00000000000E+00 0.  1.
         21    1    1    2  502  503  0.39250620939E+01 -0.23514634411E+02 -0.63316390325E+02  0.67655815920E+02  0.00000000000E+00 0.  1.
         21    1    1    2  503  501 -0.39250620939E+01  0.23514634411E+02 -0.17876296438E+02  0.29797753577E+02  0.00000000000E+00 0. -1.
</event>
<event>
 4    1  0.5576842E+002  0.2710241E+02  0.7546771E-02  0.1446582E+00
          2   -1    0    0  503    0  0.00000000000E+00  0.00000000000E+00  0.17144534801E+02  0.17144534801E+02  0.00000000000E+00 0. -1.
         -2   -1    0    0    0  501 -0.00000000000E+00 -0.00000000000E+00 -0.17040229026E+03  0.17040229026E+03  0.00000000000E+00 0.  1.
         21    1    1    2  502  501 -0.26356955714E+02 -0.63128176253E+01 -0.15776165055E+03  0.16007273086E+03  0.00000000000E+00 0.  1.
         21    1    1    2  503  502  0.26356955714E+02  0.63128176253E+01  0.45038950951E+01  0.27474094197E+02  0.00000000000E+00 0. -1.
</event>
<event>
 4    1  0.5576842E+002  0.3089982E+02  0.7546771E-02  0.1411935E+00
          2   -1    0    0  502    0  0.00000000000E+00  0.00000000000E+00  0.52170755926E+03  0.52170755926E+03  0.00000000000E+00 0.  1.
         -2   -1    0    0    0  501 -0.00000000000E+00 -0.00000000000E+00 -0.37236097506E+01  0.37236097506E+01  0.00000000000E+00 0. -1.
         21    1    1    2  502  503 -0.30114745543E+02 -0.69210481663E+01  0.44633293291E+03  0.44740125817E+03  0.00000000000E+00 0.  1.
         21    1    1    2  503  501  0.30114745543E+02  0.69210481663E+01  0.71651016592E+02  0.78029910839E+02  0.00000000000E+00 0. -1.
</event>
<event>
 4    1  0.5576842E+002  0.2211645E+02  0.7546771E-02  0.1503901E+00
          2   -1    0    0  502    0  0.00000000000E+00  0.00000000000E+00  0.79117721513E+03  0.79117721513E+03  0.00000000000E+00 0.  1.
         -2   -1    0    0    0  501 -0.00000000000E+00 -0.00000000000E+00 -0.91280362544E+01  0.91280362544E+01  0.00000000000E+00 0. -1.
         21    1    1    2  502  503  0.19128803237E+02 -0.11100738846E+02  0.77738851517E+03  0.77770305454E+03  0.00000000000E+00 0.  1.
         21    1    1    2  503  501 -0.19128803237E+02  0.11100738846E+02  0.46606637052E+01  0.22602196848E+02  0.00000000000E+00 0. -1.
</event>
<event>
 4    1  0.5576842E+002  0.4765995E+02  0.7546771E-02  0.1308650E+00
          2   -1    0    0  503    0  0.00000000000E+00  0.00000000000E+00  0.13292216907E+04  0.13292216907E+04  0.00000000000E+00 0.  1.
         -2   -1    0    0    0  501 -0.00000000000E+00 -0.00000000000E+00 -0.29497504244E+01  0.29497504244E+01  0.00000000000E+00 0. -1.
         21    1    1    2  502  501 -0.34156141773E+02  0.33238963332E+02  0.23111783729E+03  0.23598077340E+03  0.00000000000E+00 0. -1.
         21    1    1    2  503  502  0.34156141773E+02 -0.33238963332E+02  0.10951541030E+04  0.10961906678E+04  0.00000000000E+00 0.  1.
</event>
<event>
 4    1  0.5576842E+002  0.3130137E+02  0.7546771E-02  0.1408615E+00
          2   -1    0    0  502    0  0.00000000000E+00  0.00000000000E+00  0.40016941541E+01  0.40016941541E+01  0.00000000000E+00 0. -1.
         -2   -1    0    0    0  501 -0.00000000000E+00 -0.00000000000E+00 -0.29107487741E+03  0.29107487741E+03  0.00000000000E+00 0.  1.
         21    1    1    2  502  503  0.26244583460E+02  0.17058651616E+02 -0.84735403570E+02  0.90331967620E+02  0.00000000000E+00 0. -1.
         21    1    1    2  503  501 -0.26244583460E+02 -0.17058651616E+02 -0.20233777968E+03  0.20474460394E+03  0.00000000000E+00 0.  1.
</event>
<event>
 4    1  0.5576842E+002  0.4493491E+02  0.7546771E-02  0.1321765E+00
          2   -1    0    0  502    0  0.00000000000E+00  0.00000000000E+00  0.12743212497E+04  0.12743212497E+04  0.00000000000E+00 0. -1.
         -2   -1    0    0    0  501 -0.00000000000E+00 -0.00000000000E+00 -0.16169365535E+01  0.16169365535E+01  0.00000000000E+00 0.  1.
         21    1    1    2  502  503 -0.44763524826E+02  0.39208753353E+01  0.54597629540E+03  0.54782229012E+03  0.00000000000E+00 0.  1.
         21    1    1    2  503  501  0.44763524826E+02 -0.39208753353E+01  0.72672801775E+03  0.72811589613E+03  0.00000000000E+00 0. -1.
</event>
<event>
 4    1  0.5576842E+002  0.2351905E+02  0.7546771E-02  0.1486081E+00
          2   -1    0    0  503    0  0.00000000000E+00  0.00000000000E+00  0.21166470134E+04  0.21166470134E+04  0.00000000000E+00 0. -1.
         -2   -1    0    0    0  501 -0.00000000000E+00 -0.00000000000E+00 -0.27493624041E+00  0.27493624041E+00  0.00000000000E+00 0.  1.
         21    1    1    2  502  501  0.20230448611E+02  0.11994784731E+02  0.82273060609E+03  0.82306670210E+03  0.00000000000E+00 0. -1.
         21    1    1    2  503  502 -0.20230448611E+02 -0.11994784731E+02  0.12936414711E+04  0.12938552476E+04  0.00000000000E+00 0.  1.
</event>
<event>
 4    1  0.5576842E+002  0.5160337E+02  0.7546771E-02  0.1291367E+00
          2   -1    0    0  502    0  0.00000000000E+00  0.00000000000E+00  0.50984344189E+02  0.50984344189E+02  0.00000000000E+00 0.  1.
         -2   -1    0    0    0  501 -0.00000000000E+00 -0.00000000000E+00 -0.11339900518E+03  0.11339900518E+03  0.00000000000E+00 0. -1.
         21    1    1    2  502  503 -0.27805254926E+02  0.43471548379E+02  0.29158229598E+02  0.59271494610E+02  0.00000000000E+00 0.  1.
         21    1    1    2  503  501  0.27805254926E+02 -0.43471548379E+02 -0.91572890589E+02  0.10511185476E+03  0.00000000000E+00 0. -1.
</event>
<event>
 4    1  0.5576842E+002  0.3648587E+02  0.7546771E-02  0.1370408E+00
          2   -1    0    0  503    0  0.00000000000E+00  0.00000000000E+00  0.55966408990E+03  0.55966408990E+03  0.00000000000E+00 0.  1.
         -2   -1    0    0    0  501 -0.00000000000E+00 -0.00000000000E+00 -0.25802941081E+01  0.25802941081E+01  0.00000000000E+00 0. -1.
         21    1    1    2  502  501  0.20181903827E+01 -0.36430012574E+02  0.19994535070E+03  0.20324704715E+03  0.00000000000E+00 0. -1.
         21    1    1    2  503  502 -0.20181903827E+01  0.36430012574E+02  0.35713844510E+03  0.35899733687E+03  0.00000000000E+00 0.  1.
</event>
<event>
 4    1  0.5576842E+002  0.2642633E+02  0.7546771E-02  0.1453457E+00
          2   -1    0    0  503    0  0.00000000000E+00  0.00000000000E+00  0.32544255196E+01  0.32544255196E+01  0.00000000000E+00 0. -1.
         -2   -1    0    0    0  501 -0.00000000000E+00 -0.00000000000E+00 -0.27279948075E+03  0.27279948075E+03  0.00000000000E+00 0.  1.
         21    1    1    2  502  501  0.44528252780E+01  0.26048474707E+02 -0.19853393424E+03  0.20028498130E+03  0.00000000000E+00 0.  1.
         21    1    1    2  503  502 -0.44528252780E+01 -0.26048474707E+02 -0.71011120994E+02  0.75768924978E+02  0.00000000000E+00 0. -1.
</event>
<event>
 4    1  0.5576842E+002  0.2189297E+02  0.7546771E-02  0.1506888E+00
          2   -1    0    0  503    0  0.00000000000E+00  0.00000000000E+00  0.76969334832E+01  0.76969334832E+01  0.00000000000E+00 0. -1.
         -2   -1    0    0    0  501 -0.00000000000E+00 -0.00000000000E+00 -0.27539424416E+03  0.27539424416E+03  0.00000000000E+00 0.  1.
         21    1    1    2  502  501  0.26636972584E+01 -0.21730319651E+02 -0.25836704085E+03  0.25929294220E+03  0.00000000000E+00 0.  1.
         21    1    1    2  503  502 -0.26636972584E+01  0.21730319651E+02 -0.93302698222E+01  0.23798235442E+02  0.00000000000E+00 0. -1.
</event>
<event>
 4    1  0.5576842E+002  0.2481904E+02  0.7546771E-02  0.1470838E+00
          2   -1    0    0  502    0  0.00000000000E+00  0.00000000000E+00  0.58662220974E+03  0.58662220974E+03  0.00000000000E+00 0.  1.
         -2   -1    0    0    0  501 -0.00000000000E+00 -0.00000000000E+00 -0.18560124181E+01  0.18560124181E+01  0.00000000000E+00 0. -1.
         21    1    1    2  502  503  0.21183881974E+02 -0.12931664460E+02  0.48627799117E+03  0.48691094617E+03  0.00000000000E+00 0.  1.
         21    1    1    2  503  501 -0.21183881974E+02  0.12931664460E+02  0.98488206154E+02  0.10156727599E+03  0.00000000000E+00 0. -1.
</event>
<event>
 4    1  0.5576842E+002  0.3220396E+02  0.7546771E-02  0.1401363E+00
          2   -1    0    0  502    0  0.00000000000E+00  0.00000000000E+00  0.14109181823E+03  0.14109181823E+03  0.00000000000E+00 0. -1.
         -2   -1    0    0    0  501 -0.00000000000E+00 -0.00000000000E+00 -0.82537593310E+01  0.82537593310E+01  0.00000000000E+00 0.  1.
         21    1    1    2  502  503 -0.28524326381E+02  0.14948507362E+02  0.91121664464E+02  0.96644983328E+02  0.00000000000E+00 0.  1.
         21    1    1    2  503  501  0.28524326381E+02 -0.14948507362E+02  0.41716394434E+02  0.52700594232E+02  0.00000000000E+00 0. -1.
</event>
<event>
 4    1  0.5576842E+002  0.2488017E+02  0.7546771E-02  0.1470148E+00
          2   -1    0    0  503    0  0.00000000000E+00  0.00000000000E+00  0.14782534175E+04  0.14782534175E+04  0.00000000000E+00 0.  1.
         -2   -1    0    0    0  501 -0.00000000000E+00 -0.00000000000E+00 -0.42108259560E+00  0.42108259560E+00  0.00000000000E+00 0. -1.
         21    1    1    2  502  501  0.18992608469E+02  0.16071830056E+02  0.79390937080E+03  0.79429913254E+03  0.00000000000E+00 0. -1.
         21    1    1    2  503  502 -0.18992608469E+02 -0.16071830056E+02  0.68392296412E+03  0.68437536757E+03  0.00000000000E+00 0.  1.
</event>
<event>
 4    1  0.5576842E+002  0.2224108E+02  0.7546771E-02  0.1502254E+00
          2   -1    0    0  502    0  0.00000000000E+00  0.00000000000E+00  0.30774672510E+03  0.30774672510E+03  0.00000000000E+00 0. -1.
         -2   -1    0    0    0  501 -0.00000000000E+00 -0.00000000000E+00 -0.46173814517E+01  0.46173814517E+01  0.00000000000E+00 0.  1.
         21    1    1    2  502  503  0.17654401186E+02 -0.13527298804E+02  0.27766512842E+03  0.27855446367E+03  0.00000000000E+00 0. -1.
         21    1    1    2  503  501 -0.17654401186E+02  0.13527298804E+02  0.25464215235E+02  0.33809642881E+02  0.00000000000E+00 0.  1.
</event>
<event>
 4    1  0.5576842E+002  0.2709820E+02  0.7546771E-02  0.1446624E+00
          2   -1    0    0  503    0  0.00000000000E+00  0.00000000000E+00  0.84114882426E+01  0.84114882426E+01  0.00000000000E+00 0.  1.
         -2   -1    0    0    0  501 -0.00000000000E+00 -0.00000000000E+00 -0.64011091330E+03  0.64011091330E+03  0.00000000000E+00 0. -1.
         21    1    1    2  502  501 -0.27011227521E+02  0.21693989749E+01 -0.61718927411E+03  0.61778387223E+03  0.00000000000E+00 0. -1.
         21    1    1    2  503  502  0.27011227521E+02 -0.21693989749E+01 -0.14510150947E+02  0.30738529318E+02  0.00000000000E+00 0.  1.
</event>
<event>
 4    1  0.5576842E+002  0.2204844E+02  0.7546771E-02  0.1504806E+00
          2   -1    0    0  503    0  0.00000000000E+00  0.00000000000E+00  0.11782469726E+04  0.11782469726E+04  0.00000000000E+00 0.  1.
         -2   -1    0    0    0  501 -0.00000000000E+00 -0.00000000000E+00 -0.85813308218E+00  0.85813308218E+00  0.00000000000E+00 0. -1.
         21    1    1    2  502  501  0.20468937802E+02  0.81948963182E+01  0.16388932739E+03  0.16536579263E+03  0.00000000000E+00 0. -1.
         21    1    1    2  503  502 -0.20468937802E+02 -0.81948963182E+01  0.10134995121E+04  0.10137393130E+04  0.00000000000E+00 0.  1.
</event>
<event>
 4    1  0.5576842E+002  0.2078668E+02  0.7546771E-02  0.1522332E+00
          2   -1    0    0  503    0  0.00000000000E+00  0.00000000000E+00  0.20047289365E+03  0.20047289365E+03  0.00000000000E+00 0. -1.
         -2   -1    0    0    0  501 -0.00000000000E+00 -0.00000000000E+00 -0.21556596811E+01  0.21556596811E+01  0.00000000000E+00 0.  1.
         21    1    1    2  502  501  0.13439606980E+02  0.15857585608E+02  0.97913436170E+02  0.10009558951E+03  0.00000000000E+00 0.  1.
         21    1    1    2  503  502 -0.13439606980E+02 -0.15857585608E+02  0.10040379780E+03  0.10253296382E+03  0.00000000000E+00 0. -1.
</event>
<event>
 4    1  0.5576842E+002  0.2068367E+02  0.7546771E-02  0.1523830E+00
          2   -1    0    0  503    0  0.00000000000E+00  0.00000000000E+00  0.32646420436E+02  0.32646420436E+02  0.00000000000E+00 0. -1.
         -2   -1    0    0    0  501 -0.00000000000E+00 -0.00000000000E+00 -0.13147881266E+02  0.13147881266E+02  0.00000000000E+00 0.  1.
         21    1    1    2  502  501 -0.20344214938E+02 -0.37318976474E+01  0.11064914842E+02  0.23457333224E+02  0.00000000000E+00 0.  1.
         21    1    1    2  503  502  0.20344214938E+02  0.37318976474E+01  0.84336243280E+01  0.22336968479E+02  0.00000000000E+00 0. -1.
</event>
<event>
 4    1  0.5576842E+002  0.2639524E+02  0.7546771E-02  0.1453779E+00
          2   -1    0    0  502    0  0.00000000000E+00  0.00000000000E+00  0.47388215947E+02  0.47388215947E+02  0.00000000000E+00 0. -1.
         -2   -1    0    0    0  501 -0.00000000000E+00 -0.00000000000E+00 -0.25637980223E+02  0.25637980223E+02  0.00000000000E+00 0.  1.
         21    1    1    2  502  503  0.21815152742E+02  0.14859604020E+02  0.34722056460E+02  0.43615707327E+02  0.00000000000E+00 0. -1.
         21    1    1    2  503  501 -0.21815152742E+02 -0.14859604020E+02 -0.12971820736E+02  0.29410488844E+02  0.00000000000E+00 0.  1.
</event>
<event>
 4    1  0.5576842E+002  0.2107433E+02  0.7546771E-02  0.1518206E+00
          2   -1    0    0  502    0  0.00000000000E+00  0.00000000000E+00  0.90086587754E+03  0.90086587754E+03  0.00000000000E+00 0.  1.
         -2   -1    0    0    0  501 -0.00000000000E+00 -0.00000000000E+00 -0.65401352318E+00  0.65401352318E+00  0.00000000000E+00 0. -1.
         21    1    1    2  502  503 -0.60000670152E+01 -0.20202142219E+02  0.67376289134E+03  0.67409239805E+03  0.00000000000E+00 0.  1.
         21    1    1    2  503  501  0.60000670152E+01  0.20202142219E+02  0.22644897267E+03  0.22742749301E+03  0.00000000000E+00 0. -1.
</event>
<event>
 4    1  0.5576842E+002  0.4469036E+02  0.7546771E-02  0.1322995E+00
          2   -1    0    0  502    0  0.00000000000E+00  0.00000000000E+00  0.25814281156E+03  0.25814281156E+03  0.00000000000E+00 0. -1.
         -2   -1    0    0    0  501 -0.00000000000E+00 -0.00000000000E+00 -0.36492708283E+02  0.36492708283E+02  0.00000000000E+00 0.  1.
         21    1    1    2  502  503  0.49180071529E+01  0.44418935418E+02  0.24159704571E+03  0.24569566768E+03  0.00000000000E+00 0. -1.
         21    1    1    2  503  501 -0.49180071529E+01 -0.44418935418E+02 -0.19946942432E+02  0.48939852170E+02  0.00000000000E+00 0.  1.
</event>
<event>
 4    1  0.5576842E+002  0.2510758E+02  0.7546771E-02  0.1467603E+00
          2   -1    0    0  502    0  0.00000000000E+00  0.00000000000E+00  0.29381839002E+03  0.29381839002E+03  0.00000000000E+00 0.  1.
         -2   -1    0    0    0  501 -0.00000000000E+00 -0.00000000000E+00 -0.24383796179E+01  0.24383796179E+01  0.00000000000E+00 0. -1.
         21    1    1    2  502  503 -0.13976926333E+01 -0.25068650343E+02  0.19702618823E+03  0.19861950968E+03  0.00000000000E+00 0.  1.
         21    1    1    2  503  501  0.13976926333E+01  0.25068650343E+02  0.94353822168E+02  0.97637259960E+02  0.00000000000E+00 0. -1.
</event>
<event>
 4    1  0.5576842E+002  0.2033011E+02  0.7546771E-02  0.1529048E+00
          2   -1    0    0  503    0  0.00000000000E+00  0.00000000000E+00  0.20304465579E+04  0.20304465579E+04  0.00000000000E+00 0.  1.
         -2   -1    0    0    0  501 -0.00000000000E+00 -0.00000000000E+00 -0.22542497304E+00  0.22542497304E+00  0.00000000000E+00 0. -1.
         21    1    1    2  502  501  0.20210176400E+02 -0.22050092736E+01  0.69887931458E+03  0.69917494924E+03  0.00000000000E+00 0.  1.
         21    1    1    2  503  502 -0.20210176400E+02  0.22050092736E+01  0.13313418183E+04  0.13314970336E+04  0.00000000000E+00 0. -1.
</event>
<event>
 4    1  0.5576842E+002  0.2197164E+02  0.7546771E-02  0.1505831E+00
          2   -1    0    0  502    0  0.00000000000E+00  0.00000000000E+00  0.75970451169E+03  0.75970451169E+03  0.00000000000E+00 0. -1.
         -2   -1    0    0    0  501 -0.00000000000E+00 -0.00000000000E+00 -0.11194304861E+01  0.11194304861E+01  0.00000000000E+00 0.  1.
         21    1    1    2  502  503 -0.21503420024E+02 -0.45117642896E+01  0.62942509050E+03  0.62980846108E+03  0.00000000000E+00 0. -1.
         21    1    1    2  503  501  0.21503420024E+02  0.45117642896E+01  0.12915999070E+03  0.13101548109E+03  0.00000000000E+00 0.  1.
</event>
<event>
 4    1  0.5576842E+002  0.6649517E+02  0.7546771E-02  0.1239230E+00
          2   -1    0    0  502    0  0.00000000000E+00  0.00000000000E+00  0.94559231136E+02  0.94559231136E+02  0.00000000000E+00 0. -1.
         -2   -1    0    0    0  501 -0.00000000000E+00 -0.00000000000E+00 -0.61838719115E+02  0.61838719115E+02  0.00000000000E+00 0.  1.
         21    1    1    2  502  503 -0.66155080062E+02  0.67165746675E+01  0.54974754840E+02  0.86277637097E+02  0.00000000000E+00 0. -1.
         21    1    1    2  503  501  0.66155080062E+02 -0.67165746675E+01 -0.22254242819E+02  0.70120313154E+02  0.00000000000E+00 0.  1.
</event>
<event>
 4    1  0.5576842E+002  0.2237698E+02  0.7546771E-02  0.1500473E+00
          2   -1    0    0  502    0  0.00000000000E+00  0.00000000000E+00  0.69744209084E+02  0.69744209084E+02  0.00000000000E+00 0.  1.
         -2   -1    0    0    0  501 -0.00000000000E+00 -0.00000000000E+00 -0.72548914658E+01  0.72548914658E+01  0.00000000000E+00 0. -1.
         21    1    1    2  502  503  0.13826375605E+02  0.17594332451E+02  0.35169070324E+02  0.41684441992E+02  0.00000000000E+00 0.  1.
         21    1    1    2  503  501 -0.13826375605E+02 -0.17594332451E+02  0.27320247294E+02  0.35314658557E+02  0.00000000000E+00 0. -1.
</event>
<event>
 4    1  0.5576842E+002  0.2439929E+02  0.7546771E-02  0.1475637E+00
          2   -1    0    0  502    0  0.00000000000E+00  0.00000000000E+00  0.29513139126E+03  0.29513139126E+03  0.00000000000E+00 0. -1.
         -2   -1    0    0    0  501 -0.00000000000E+00 -0.00000000000E+00 -0.22648152658E+01  0.22648152658E+01  0.00000000000E+00 0.  1.
         21    1    1    2  502  503  0.47818869359E+01 -0.23926115463E+02  0.19560531917E+03  0.19712119706E+03  0.00000000000E+00 0. -1.
         21    1    1    2  503  501 -0.47818869359E+01  0.23926115463E+02  0.97261256821E+02  0.10027500946E+03  0.00000000000E+00 0.  1.
</event>
<event>
 4    1  0.5576842E+002  0.6678469E+02  0.7546771E-02  0.1238374E+00
          2   -1    0    0  502    0  0.00000000000E+00  0.00000000000E+00  0.18643344905E+03  0.18643344905E+03  0.00000000000E+00 0. -1.
         -2   -1    0    0    0  501 -0.00000000000E+00 -0.00000000000E+00 -0.23953425970E+02  0.23953425970E+02  0.00000000000E+00 0.  1.
         21    1    1    2  502  503  0.22876914501E+02 -0.62744253934E+02  0.84940141460E+02  0.10805101689E+03  0.00000000000E+00 0. -1.
         21    1    1    2  503  501 -0.22876914501E+02  0.62744253934E+02  0.77539881624E+02  0.10233585814E+03  0.00000000000E+00 0.  1.
</event>
<event>
 4    1  0.5576842E+002  0.5625524E+02  0.7546771E-02  0.1273116E+00
          2   -1    0    0  502    0  0.00000000000E+00  0.00000000000E+00  0.70672265718E+03  0.70672265718E+03  0.00000000000E+00 0.  1.
         -2   -1    0    0    0  501 -0.00000000000E+00 -0.00000000000E+00 -0.50306371296E+01  0.50306371296E+01  0.00000000000E+00 0. -1.
         21    1    1    2  502  503 -0.55917859113E+02  0.61518088374E+01  0.46880665062E+03  0.47216980779E+03  0.00000000000E+00 0.  1.
         21    1    1    2  503  501  0.55917859113E+02 -0.61518088374E+01  0.23288536943E+03  0.23958348653E+03  0.00000000000E+00 0. -1.
</event>
<event>
 4    1  0.5576842E+002  0.3097081E+02  0.7546771E-02  0.1411343E+00
          2   -1    0    0  503    0  0.00000000000E+00  0.00000000000E+00  0.11135850667E+03  0.11135850667E+03  0.00000000000E+00 0. -1.
         -2   -1    0    0    0  501 -0.00000000000E+00 -0.00000000000E+00 -0.10118696190E+02  0.10118696190E+02  0.00000000000E+00 0.  1.
         21    1    1    2  502  501 -0.22620348634E+02 -0.21154453474E+02  0.27194175154E+02  0.41215461133E+02  0.00000000000E+00 0.  1.
         21    1    1    2  503  502  0.22620348634E+02  0.21154453474E+02  0.74045635328E+02  0.80261741728E+02  0.00000000000E+00 0. -1.
</event>
<event>
 4    1  0.5576842E+002  0.2350180E+02  0.7546771E-02  0.1486291E+00
          2   -1    0    0  502    0  0.00000000000E+00  0.00000000000E+00  0.10810607812E+02  0.10810607812E+02  0.00000000000E+00 0. -1.
         -2   -1    0    0    0  501 -0.00000000000E+00 -0.00000000000E+00 -0.98777210431E+02  0.98777210431E+02  0.00000000000E+00 0.  1.
         21    1    1    2  502  503 -0.18165178068E+02  0.14911770114E+02 -0.59121354743E+01  0.24234024182E+02  0.00000000000E+00 0. -1.
         21    1    1    2  503  501  0.18165178068E+02 -0.14911770114E+02 -0.82054467145E+02  0.85353794061E+02  0.00000000000E+00 0.  1.
</event>
<event>
 4    1  0.5576842E+002  0.2108085E+02  0.7546771E-02  0.1518114E+00
          2   -1    0    0  502    0  0.00000000000E+00  0.00000000000E+00  0.92561936752E+03  0.92561936752E+03  0.00000000000E+00 0. -1.
         -2   -1    0    0    0  501 -0.00000000000E+00 -0.00000000000E+00 -0.44202150471E+01  0.44202150471E+01  0.00000000000E+00 0.  1.
         21    1    1    2  502  503 -0.20545202597E+02  0.47219395636E+01  0.89963894206E+03  0.89988589729E+03  0.00000000000E+00 0. -1.
         21    1    1    2  503  501  0.20545202597E+02 -0.47219395636E+01  0.21560210414E+02  0.30153685282E+02  0.00000000000E+00 0.  1.
</event>
<event>
 4    1  0.5576842E+002  0.2823563E+02  0.7546771E-02  0.1435576E+00
          2   -1    0    0  503    0  0.00000000000E+00  0.00000000000E+00  0.31735586407E+03  0.31735586407E+03  0.00000000000E+00 0.  1.
         -2   -1    0    0    0  501 -0.00000000000E+00 -0.00000000000E+00 -0.39869594495E+01  0.39869594495E+01  0.00000000000E+00 0. -1.
         21    1    1    2  502  501 -0.19838088136E+02  0.20092308686E+02  0.58964487593E+02  0.65376306154E+02  0.00000000000E+00 0. -1.
         21    1    1    2  503  502  0.19838088136E+02 -0.20092308686E+02  0.25440441703E+03  0.25596651736E+03  0.00000000000E+00 0.  1.
</event>
<event>
 4    1  0.5576842E+002  0.2927408E+02  0.7546771E-02  0.1426011E+00
          2   -1    0    0  503    0  0.00000000000E+00  0.00000000000E+00  0.34887314397E+01  0.34887314397E+01  0.00000000000E+00 0. -1.
         -2   -1    0    0    0  501 -0.00000000000E+00 -0.00000000000E+00 -0.25060200473E+03  0.25060200473E+03  0.00000000000E+00 0.  1.
         21    1    1    2  502  501  0.24840924647E+02 -0.15488715120E+02 -0.14143373902E+03  0.14443155600E+03  0.00000000000E+00 0.  1.
         21    1    1    2  503  502 -0.24840924647E+02  0.15488715120E+02 -0.10567953426E+03  0.10965918017E+03  0.00000000000E+00 0. -1.
</event>
<event>
 4    1  0.5576842E+002  0.2381155E+02  0.7546771E-02  0.1482551E+00
          2   -1    0    0  502    0  0.00000000000E+00  0.00000000000E+00  0.50766278748E+02  0.50766278748E+02  0.00000000000E+00 0.  1.
         -2   -1    0    0    0  501 -0.00000000000E+00 -0.00000000000E+00 -0.15643512609E+02  0.15643512609E+02  0.00000000000E+00 0. -1.
         21    1    1    2  502  503 -0.15212302365E+02  0.18318723938E+02  0.35320681259E+02  0.42597421455E+02  0.00000000000E+00 0.  1.
         21    1    1    2  503  501  0.15212302365E+02 -0.18318723938E+02 -0.19791511975E+00  0.23812369902E+02  0.00000000000E+00 0. -1.
</event>
<event>
 4    1  0.5576842E+002  0.2372637E+02  0.7546771E-02  0.1483573E+00
          2   -1    0    0  502    0  0.00000000000E+00  0.00000000000E+00  0.14357748043E+04  0.14357748043E+04  0.00000000000E+00 0.  1.
         -2   -1    0    0    0  501 -0.00000000000E+00 -0.00000000000E+00 -0.50061695194E+00  0.50061695194E+00  0.00000000000E+00 0. -1.
         21    1    1    2  502  503  0.22821839203E+02 -0.64887745236E+01  0.38325651539E+03  0.38399023051E+03  0.00000000000E+00 0. -1.
         21    1    1    2  503  501 -0.22821839203E+02  0.64887745236E+01  0.10520176719E+04  0.10522851907E+04  0.00000000000E+00 0.  1.
</event>
<event>
 4    1  0.5576842E+002  0.2965431E+02  0.7546771E-02  0.1422625E+00
          2   -1    0    0  502    0  0.00000000000E+00  0.00000000000E+00  0.90568066231E+03  0.90568066231E+03  0.00000000000E+00 0.  1.
         -2   -1    0    0    0  501 -0.00000000000E+00 -0.00000000000E+00 -0.11354983689E+01  0.11354983689E+01  0.00000000000E+00 0. -1.
         21    1    1    2  502  503  0.89686116787E+00 -0.29640745345E+02  0.62486902950E+03  0.62557228373E+03  0.00000000000E+00 0.  1.
         21    1    1    2  503  501 -0.89686116787E+00  0.29640745345E+02  0.27967613444E+03  0.28124387695E+03  0.00000000000E+00 0. -1.
</event>
<event>
 4    1  0.5576842E+002  0.2311304E+02  0.7546771E-02  0.1491083E+00
          2   -1    0    0  502    0  0.00000000000E+00  0.00000000000E+00  0.15705654130E+03  0.15705654130E+03  0.00000000000E+00 0.  1.
         -2   -1    0    0    0  501 -0.00000000000E+00 -0.00000000000E+00 -0.37541394814E+01  0.37541394814E+01  0.00000000000E+00 0. -1.
         21    1    1    2  502  503 -0.76413517971E+01  0.21813357664E+02  0.10129762656E+03  0.10390102009E+03  0.00000000000E+00 0.  1.
         21    1    1    2  503  501  0.76413517971E+01 -0.21813357664E+02  0.52004775256E+02  0.56909660685E+02  0.00000000000E+00 0. -1.
</event>
<event>
 4    1  0.5576842E+002  0.2616578E+02  0.7546771E-02  0.1456173E+00
          2   -1    0    0  502    0  0.00000000000E+00  0.00000000000E+00  0.10814535431E+02  0.10814535431E+02  0.00000000000E+00 0. -1.
         -2   -1    0    0    0  501 -0.00000000000E+00 -0.00000000000E+00 -0.12937868879E+03  0.12937868879E+03  0.00000000000E+00 0.  1.
         21    1    1    2  502  503 -0.24427270447E+02 -0.93785176201E+01 -0.91899339609E+01  0.27732706692E+02  0.00000000000E+00 0.  1.
         21    1    1    2  503  501  0.24427270447E+02  0.93785176201E+01 -0.10937421940E+03  0.11246051753E+03  0.00000000000E+00 0. -1.
</event>
<event>
 4    1  0.5576842E+002  0.4943107E+02  0.7546771E-02  0.1300658E+00
          2   -1    0    0  503    0  0.00000000000E+00  0.00000000000E+00  0.21785529630E+02  0.21785529630E+02  0.00000000000E+00 0. -1.
         -2   -1    0    0    0  501 -0.00000000000E+00 -0.00000000000E+00 -0.12115912156E+03  0.12115912156E+03  0.00000000000E+00 0.  1.
         21    1    1    2  502  501  0.42667826568E+02 -0.24957711634E+02 -0.69167192905E+02  0.85014889098E+02  0.00000000000E+00 0. -1.
         21    1    1    2  503  502 -0.42667826568E+02  0.24957711634E+02 -0.30206399024E+02  0.57929762092E+02  0.00000000000E+00 0.  1.
</event>
<event>
 4    1  0.5576842E+002  0.2317764E+02  0.7546771E-02  0.1490279E+00
          2   -1    0    0  502    0  0.00000000000E+00  0.00000000000E+00  0.47015331888E+03  0.47015331888E+03  0.00000000000E+00 0. -1.
         -2   -1    0    0    0  501 -0.00000000000E+00 -0.00000000000E+00 -0.32351842934E+01  0.32351842934E+01  0.00000000000E+00 0.  1.
         21    1    1    2  502  503 -0.60907878845E+01  0.22363032690E+02  0.42382025699E+03  0.42445354653E+03  0.00000000000E+00 0.  1.
         21    1    1    2  503  501  0.60907878845E+01 -0.22363032690E+02  0.43097877590E+02  0.48934956636E+02  0.00000000000E+00 0. -1.
</event>
<event>
 4    1  0.5576842E+002  0.4065358E+02  0.7546771E-02  0.1344698E+00
          2   -1    0    0  503    0  0.00000000000E+00  0.00000000000E+00  0.23795478420E+03  0.23795478420E+03  0.00000000000E+00 0. -1.
         -2   -1    0    0    0  501 -0.00000000000E+00 -0.00000000000E+00 -0.14748659893E+02  0.14748659893E+02  0.00000000000E+00 0.  1.
         21    1    1    2  502  501  0.22150072348E+02 -0.34089412367E+02  0.19697820824E+02  0.45174305592E+02  0.00000000000E+00 0.  1.
         21    1    1    2  503  502 -0.22150072348E+02  0.34089412367E+02  0.20350830348E+03  0.20752913850E+03  0.00000000000E+00 0. -1.
</event>
<event>
 4    1  0.5576842E+002  0.3578963E+02  0.7546771E-02  0.1375095E+00
          2   -1    0    0  502    0  0.00000000000E+00  0.00000000000E+00  0.47836910774E+03  0.47836910774E+03  0.00000000000E+00 0.  1.
         -2   -1    0    0    0  501 -0.00000000000E+00 -0.00000000000E+00 -0.27440147642E+01  0.27440147642E+01  0.00000000000E+00 0. -1.
         21    1    1    2  502  503  0.43083360390E+01  0.35529366184E+02  0.20039773922E+03  0.20356854252E+03  0.00000000000E+00 0. -1.
         21    1    1    2  503  501 -0.43083360390E+01 -0.35529366184E+02  0.27522735376E+03  0.27754457998E+03  0.00000000000E+00 0.  1.
</event>
<event>
 4    1  0.5576842E+002  0.3234675E+02  0.7546771E-02  0.1400242E+00
          2   -1    0    0  503    0  0.00000000000E+00  0.00000000000E+00  0.20408126087E+04  0.20408126087E+04  0.00000000000E+00 0. -1.
         -2   -1    0    0    0  501 -0.00000000000E+00 -0.00000000000E+00 -0.94653005086E+00  0.94653005086E+00  0.00000000000E+00 0.  1.
         21    1    1    2  502  501 -0.31879577206E+02  0.54776482469E+01  0.32878639567E+03  0.33037373693E+03  0.00000000000E+00 0.  1.
         21    1    1    2  503  502  0.31879577206E+02 -0.54776482469E+01  0.17110796830E+04  0.17113854018E+04  0.00000000000E+00 0. -1.
</event>
<event>
 4    1  0.5576842E+002  0.2906702E+02  0.7546771E-02  0.1427881E+00
          2   -1    0    0  502    0  0.00000000000E+00  0.00000000000E+00  0.74170821722E+03  0.74170821722E+03  0.00000000000E+00 0. -1.
         -2   -1    0    0    0  501 -0.00000000000E+00 -0.00000000000E+00 -0.11677595617E+02  0.11677595617E+02  0.00000000000E+00 0.  1.
         21    1    1    2  502  503  0.27157777088E+02 -0.10360826112E+02  0.72286422958E+03  0.72344839897E+03  0.00000000000E+00 0. -1.
         21    1    1    2  503  501 -0.27157777088E+02  0.10360826112E+02  0.71663920243E+01  0.29937413862E+02  0.00000000000E+00 0.  1.
</event>
<event>
 4    1  0.5576842E+002  0.2009562E+02  0.7546771E-02  0.1532579E+00
          2   -1    0    0  503    0  0.00000000000E+00  0.00000000000E+00  0.76865479209E+03  0.76865479209E+03  0.00000000000E+00 0.  1.
         -2   -1    0    0    0  501 -0.00000000000E+00 -0.00000000000E+00 -0.15707990797E+01  0.15707990797E+01  0.00000000000E+00 0. -1.
         21    1    1    2  502  501 -0.17525554552E+02  0.98330599557E+01  0.69365779237E+02  0.72218041095E+02  0.00000000000E+00 0. -1.
         21    1    1    2  503  502  0.17525554552E+02 -0.98330599557E+01  0.69771821377E+03  0.69800755008E+03  0.00000000000E+00 0.  1.
</event>
<event>
 4    1  0.5576842E+002  0.2150179E+02  0.7546771E-02  0.1512220E+00
          2   -1    0    0  502    0  0.00000000000E+00  0.00000000000E+00  0.50597749575E+03  0.50597749575E+03  0.00000000000E+00 0. -1.
         -2   -1    0    0    0  501 -0.00000000000E+00 -0.00000000000E+00 -0.16005679850E+01  0.16005679850E+01  0.00000000000E+00 0.  1.
         21    1    1    2  502  503  0.21343040575E+02  0.26080255352E+01  0.41843886941E+03  0.41899094812E+03  0.00000000000E+00 0. -1.
         21    1    1    2  503  501 -0.21343040575E+02 -0.26080255352E+01  0.85938058363E+02  0.88587115617E+02  0.00000000000E+00 0.  1.
</event>
<event>
 4    1  0.5576842E+002  0.2172535E+02  0.7546771E-02  0.1509156E+00
          2   -1    0    0  503    0  0.00000000000E+00  0.00000000000E+00  0.94878192055E+03  0.94878192055E+03  0.00000000000E+00 0. -1.
         -2   -1    0    0    0  501 -0.00000000000E+00 -0.00000000000E+00 -0.16579632454E+01  0.16579632454E+01  0.00000000000E+00 0.  1.
         21    1    1    2  502  501 -0.16243139181E+02  0.14427443245E+02  0.75978355528E+02  0.79023421830E+02  0.00000000000E+00 0.  1.
         21    1    1    2  503  502  0.16243139181E+02 -0.14427443245E+02  0.87114560178E+03  0.87141646197E+03  0.00000000000E+00 0. -1.
</event>
<event>
 4    1  0.5576842E+002  0.2624369E+02  0.7546771E-02  0.1455357E+00
          2   -1    0    0  503    0  0.00000000000E+00  0.00000000000E+00  0.16097136790E+04  0.16097136790E+04  0.00000000000E+00 0. -1.
         -2   -1    0    0    0  501 -0.00000000000E+00 -0.00000000000E+00 -0.10198732301E+01  0.10198732301E+01  0.00000000000E+00 0.  1.
         21    1    1    2  502  501  0.94586285595E+01 -0.24479897619E+02  0.19074519533E+03  0.19254210081E+03  0.00000000000E+00 0.  1.
         21    1    1    2  503  502 -0.94586285595E+01  0.24479897619E+02  0.14179486104E+04  0.14181914514E+04  0.00000000000E+00 0. -1.
</event>
<event>
 4    1  0.5576842E+002  0.2355022E+02  0.7546771E-02  0.1485702E+00
          2   -1    0    0  503    0  0.00000000000E+00  0.00000000000E+00  0.38964523731E+03  0.38964523731E+03  0.00000000000E+00 0.  1.
         -2   -1    0    0    0  501 -0.00000000000E+00 -0.00000000000E+00 -0.14822588789E+01  0.14822588789E+01  0.00000000000E+00 0. -1.
         21    1    1    2  502  501 -0.21061647682E+02  0.10536595430E+02  0.23305861353E+03  0.23424544859E+03  0.00000000000E+00 0. -1.
         21    1    1    2  503  502  0.21061647682E+02 -0.10536595430E+02  0.15510436490E+03  0.15688204760E+03  0.00000000000E+00 0.  1.
</event>
<event>
 4    1  0.5576842E+002  0.3629230E+02  0.7546771E-02  0.1371699E+00
          2   -1    0    0  503    0  0.00000000000E+00  0.00000000000E+00  0.76171784100E+03  0.76171784100E+03  0.00000000000E+00 0.  1.
         -2   -1    0    0    0  501 -0.00000000000E+00 -0.00000000000E+00 -0.13683260644E+02  0.13683260644E+02  0.00000000000E+00 0. -1.
         21    1    1    2  502  501 -0.16840260396E+02 -0.32148665560E+02  0.11640732715E+02  0.38113484826E+02  0.00000000000E+00 0. -1.
         21    1    1    2  503  502  0.16840260396E+02  0.32148665560E+02  0.73639384764E+03  0.73728761682E+03  0.00000000000E+00 0.  1.
</event>
<event>
 4    1  0.5576842E+002  0.2336814E+02  0.7546771E-02  0.1487926E+00
          2   -1    0    0  503    0  0.00000000000E+00  0.00000000000E+00  0.21802767580E+03  0.21802767580E+03  0.00000000000E+00 0.  1.
         -2   -1    0    0    0  501 -0.00000000000E+00 -0.00000000000E+00 -0.25867175417E+02  0.25867175417E+02  0.00000000000E+00 0. -1.
         21    1    1    2  502  501  0.16329755054E+01  0.23311012349E+02 -0.19813117981E+02  0.30637061704E+02  0.00000000000E+00 0. -1.
         21    1    1    2  503  502 -0.16329755054E+01 -0.23311012349E+02  0.21197361836E+03  0.21325778951E+03  0.00000000000E+00 0.  1.
</event>
<event>
 4    1  0.5576842E+002  0.2511079E+02  0.7546771E-02  0.1467568E+00
          2   -1    0    0  502    0  0.00000000000E+00  0.00000000000E+00  0.20591770145E+01  0.20591770145E+01  0.00000000000E+00 0. -1.
         -2   -1    0    0    0  501 -0.00000000000E+00 -0.00000000000E+00 -0.49096202927E+03  0.49096202927E+03  0.00000000000E+00 0.  1.
         21    1    1    2  502  503 -0.23909643532E+02 -0.76733725679E+01 -0.93234668887E+02  0.96557004835E+02  0.00000000000E+00 0. -1.
         21    1    1    2  503  501  0.23909643532E+02  0.76733725679E+01 -0.39566818337E+03  0.39646420145E+03  0.00000000000E+00 0.  1.
</event>
<event>
 4    1  0.5576842E+002  0.2867300E+02  0.7546771E-02  0.1431489E+00
          2   -1    0    0  502    0  0.00000000000E+00  0.00000000000E+00  0.52135711602E+03  0.52135711602E+03  0.00000000000E+00 0. -1.
         -2   -1    0    0    0  501 -0.00000000000E+00 -0.00000000000E+00 -0.16896890669E+01  0.16896890669E+01  0.00000000000E+00 0.  1.
         21    1    1    2  502  503 -0.97258558007E+01  0.26973114539E+02  0.32739409982E+03  0.32864728476E+03  0.00000000000E+00 0.  1.
         21    1    1    2  503  501  0.97258558007E+01 -0.26973114539E+02  0.19227332713E+03  0.19439952033E+03  0.00000000000E+00 0. -1.
</event>
<event>
 4    1  0.5576842E+002  0.2871234E+02  0.7546771E-02  0.1431126E+00
          2   -1    0    0  502    0  0.00000000000E+00  0.00000000000E+00  0.11370777887E+03  0.11370777887E+03  0.00000000000E+00 0. -1.
         -2   -1    0    0    0  501 -0.00000000000E+00 -0.00000000000E+00 -0.93267696980E+01  0.93267696980E+01  0.00000000000E+00 0.  1.
         21    1    1    2  502  503 -0.26345241434E+02 -0.11416071772E+02  0.81218025965E+02  0.86143869095E+02  0.00000000000E+00 0. -1.
         21    1    1    2  503  501  0.26345241434E+02  0.11416071772E+02  0.23162983206E+02  0.36890679472E+02  0.00000000000E+00 0.  1.
</event>
<event>
 4    1  0.5576842E+002  0.2284896E+02  0.7546771E-02  0.1494404E+00
          2   -1    0    0  502    0  0.00000000000E+00  0.00000000000E+00  0.17619832661E+03  0.17619832661E+03  0.00000000000E+00 0.  1.
         -2   -1    0    0    0  501 -0.00000000000E+00 -0.00000000000E+00 -0.62912355255E+01  0.62912355255E+01  0.00000000000E+00 0. -1.
         21    1    1    2  502  503  0.18704037187E+02 -0.13123788473E+02  0.15131981218E+03  0.15303516063E+03  0.00000000000E+00 0.  1.
         21    1    1    2  503  501 -0.18704037187E+02  0.13123788473E+02  0.18587278906E+02  0.29454401507E+02  0.00000000000E+00 0. -1.
</event>
<event>
 4    1  0.5576842E+002  0.2020443E+02  0.7546771E-02  0.1530933E+00
          2   -1    0    0  503    0  0.00000000000E+00  0.00000000000E+00  0.45603257013E+02  0.45603257013E+02  0.00000000000E+00 0. -1.
         -2   -1    0    0    0  501 -0.00000000000E+00 -0.00000000000E+00 -0.10510219100E+02  0.10510219100E+02  0.00000000000E+00 0.  1.
         21    1    1    2  502  501  0.10831496821E+02  0.17055719276E+02  0.67418575003E+01  0.21299566333E+02  0.00000000000E+00 0.  1.
         21    1    1    2  503  502 -0.10831496821E+02 -0.17055719276E+02  0.28351180412E+02  0.34813909780E+02  0.00000000000E+00 0. -1.
</event>
<event>
 4    1  0.5576842E+002  0.4556567E+02  0.7546771E-02  0.1318635E+00
          2   -1    0    0  502    0  0.00000000000E+00  0.00000000000E+00  0.10797351512E+04  0.10797351512E+04  0.00000000000E+00 0.  1.
         -2   -1    0    0    0  501 -0.00000000000E+00 -0.00000000000E+00 -0.50849160408E+01  0.50849160408E+01  0.00000000000E+00 0. -1.
         21    1    1    2  502  503  0.37445712332E+02  0.25962445435E+02  0.96505283720E+03  0.96612794626E+03  0.00000000000E+00 0.  1.
         21    1    1    2  503  501 -0.37445712332E+02 -0.25962445435E+02  0.10959739796E+03  0.11869212099E+03  0.00000000000E+00 0. -1.
</event>
<event>
 4    1  0.5576842E+002  0.2238077E+02  0.7546771E-02  0.1500424E+00
          2   -1    0    0  503    0  0.00000000000E+00  0.00000000000E+00  0.45022359549E+03  0.45022359549E+03  0.00000000000E+00 0.  1.
         -2   -1    0    0    0  501 -0.00000000000E+00 -0.00000000000E+00 -0.25584346201E+01  0.25584346201E+01  0.00000000000E+00 0. -1.
         21    1    1    2  502  501  0.12834587969E+02  0.18335004880E+02  0.53641061969E+02  0.58122823241E+02  0.00000000000E+00 0. -1.
         21    1    1    2  503  502 -0.12834587969E+02 -0.18335004880E+02  0.39402409890E+03  0.39465920687E+03  0.00000000000E+00 0.  1.
</event>
<event>
 4    1  0.5576842E+002  0.2386424E+02  0.7546771E-02  0.1481922E+00
          2   -1    0    0  503    0  0.00000000000E+00  0.00000000000E+00  0.30008587031E+03  0.30008587031E+03  0.00000000000E+00 0.  1.
         -2   -1    0    0    0  501 -0.00000000000E+00 -0.00000000000E+00 -0.66602733120E+01  0.66602733120E+01  0.00000000000E+00 0. -1.
         21    1    1    2  502  501 -0.18889894700E+02  0.14583339717E+02  0.17018905504E+02  0.29311176429E+02  0.00000000000E+00 0. -1.
         21    1    1    2  503  502  0.18889894700E+02 -0.14583339717E+02  0.27640669149E+03  0.27743496719E+03  0.00000000000E+00 0.  1.
</event>
<event>
 4    1  0.5576842E+002  0.2402228E+02  0.7546771E-02  0.1480045E+00
          2   -1    0    0  502    0  0.00000000000E+00  0.00000000000E+00  0.49711626739E+01  0.49711626739E+01  0.00000000000E+00 0.  1.
         -2   -1    0    0    0  501 -0.00000000000E+00 -0.00000000000E+00 -0.16229263274E+03  0.16229263274E+03  0.00000000000E+00 0. -1.
         21    1    1    2  502  503 -0.23849926046E+02  0.28724428089E+01 -0.12328658658E+03  0.12560514452E+03  0.00000000000E+00 0. -1.
         21    1    1    2  503  501  0.23849926046E+02 -0.28724428089E+01 -0.34034883484E+02  0.41658650889E+02  0.00000000000E+00 0.  1.
</event>
<event>
 4    1  0.5576842E+002  0.2607141E+02  0.7546771E-02  0.1457166E+00
          2   -1    0    0  503    0  0.00000000000E+00  0.00000000000E+00  0.74779861659E+01  0.74779861659E+01  0.00000000000E+00 0.  1.
         -2   -1    0    0    0  501 -0.00000000000E+00 -0.00000000000E+00 -0.11621748171E+03  0.11621748171E+03  0.00000000000E+00 0. -1.
         21    1    1    2  502  501 -0.23168307709E+02 -0.11956077477E+02 -0.83238864109E+02  0.87226296315E+02  0.00000000000E+00 0.  1.
         21    1    1    2  503  502  0.23168307709E+02  0.11956077477E+02 -0.25500631436E+02  0.36469171561E+02  0.00000000000E+00 0. -1.
</event>
<event>
 4    1  0.5576842E+002  0.3914404E+02  0.7546771E-02  0.1353576E+00
          2   -1    0    0  503    0  0.00000000000E+00  0.00000000000E+00  0.16730038401E+03  0.16730038401E+03  0.00000000000E+00 0.  1.
         -2   -1    0    0    0  501 -0.00000000000E+00 -0.00000000000E+00 -0.97047983926E+01  0.97047983926E+01  0.00000000000E+00 0. -1.
         21    1    1    2  502  501  0.14186351565E+02  0.36482915192E+02  0.57803837537E+02  0.69810739185E+02  0.00000000000E+00 0.  1.
         21    1    1    2  503  502 -0.14186351565E+02 -0.36482915192E+02  0.99791748083E+02  0.10719444322E+03  0.00000000000E+00 0. -1.
</event>
<event>
 4    1  0.5576842E+002  0.6626856E+02  0.7546771E-02  0.1239903E+00
          2   -1    0    0  503    0  0.00000000000E+00  0.00000000000E+00  0.95969764330E+03  0.95969764330E+03  0.00000000000E+00 0. -1.
         -2   -1    0    0    0  501 -0.00000000000E+00 -0.00000000000E+00 -0.47772758449E+01  0.47772758449E+01  0.00000000000E+00 0.  1.
         21    1    1    2  502  501  0.54590683675E+02 -0.37568333008E+02  0.57645839297E+03  0.58025494502E+03  0.00000000000E+00 0.  1.
         21    1    1    2  503  502 -0.54590683675E+02  0.37568333008E+02  0.37846197448E+03  0.38421997413E+03  0.00000000000E+00 0. -1.
</event>
<event>
 4    1  0.5576842E+002  0.2331856E+02  0.7546771E-02  0.1488536E+00
          2   -1    0    0  503    0  0.00000000000E+00  0.00000000000E+00  0.69360913943E+03  0.69360913943E+03  0.00000000000E+00 0. -1.
         -2   -1    0    0    0  501 -0.00000000000E+00 -0.00000000000E+00 -0.95762893458E+00  0.95762893458E+00  0.00000000000E+00 0.  1.
         21    1    1    2  502  501  0.15521055608E+02 -0.17402643847E+02  0.19842907826E+03  0.19979453016E+03  0.00000000000E+00 0. -1.
         21    1    1    2  503  502 -0.15521055608E+02  0.17402643847E+02  0.49422243223E+03  0.49477223820E+03  0.00000000000E+00 0.  1.
</event>
<event>
 4    1  0.5576842E+002  0.2095258E+02  0.7546771E-02  0.1519943E+00
          2   -1    0    0  503    0  0.00000000000E+00  0.00000000000E+00  0.66773138101E+01  0.66773138101E+01  0.00000000000E+00 0. -1.
         -2   -1    0    0    0  501 -0.00000000000E+00 -0.00000000000E+00 -0.15410635770E+03  0.15410635770E+03  0.00000000000E+00 0.  1.
         21    1    1    2  502  501  0.18116429062E+02 -0.10526421269E+02 -0.13458812039E+03  0.13620929740E+03  0.00000000000E+00 0.  1.
         21    1    1    2  503  502 -0.18116429062E+02  0.10526421269E+02 -0.12840923495E+02  0.24574374110E+02  0.00000000000E+00 0. -1.
</event>
<event>
 4    1  0.5576842E+002  0.2766856E+02  0.7546771E-02  0.1441005E+00
          2   -1    0    0  502    0  0.00000000000E+00  0.00000000000E+00  0.29039940034E+04  0.29039940034E+04  0.00000000000E+00 0. -1.
         -2   -1    0    0    0  501 -0.00000000000E+00 -0.00000000000E+00 -0.28358226392E+00  0.28358226392E+00  0.00000000000E+00 0.  1.
         21    1    1    2  502  503  0.25027259260E+02 -0.11797698328E+02  0.18371375810E+04  0.18373459230E+04  0.00000000000E+00 0.  1.
         21    1    1    2  503  501 -0.25027259260E+02  0.11797698328E+02  0.10665728402E+04  0.10669316627E+04  0.00000000000E+00 0. -1.
</event>
<event>
 4    1  0.5576842E+002  0.2228171E+02  0.7546771E-02  0.1501720E+00
          2   -1    0    0  503    0  0.00000000000E+00  0.00000000000E+00  0.28019835554E+03  0.28019835554E+03  0.00000000000E+00 0.  1.
         -2   -1    0    0    0  501 -0.00000000000E+00 -0.00000000000E+00 -0.42308296589E+01  0.42308296589E+01  0.00000000000E+00 0. -1.
         21    1    1    2  502  501 -0.21261534305E+02 -0.66649584577E+01  0.29564296403E+02  0.37020563665E+02  0.00000000000E+00 0. -1.
         21    1    1    2  503  502  0.21261534305E+02  0.66649584577E+01  0.24640322948E+03  0.24740862153E+03  0.00000000000E+00 0.  1.
</event>
<event>
 4    1  0.5576842E+002  0.3220244E+02  0.7546771E-02  0.1401375E+00
          2   -1    0    0  503    0  0.00000000000E+00  0.00000000000E+00  0.47032800685E+03  0.47032800685E+03  0.00000000000E+00 0.  1.
         -2   -1    0    0    0  501 -0.00000000000E+00 -0.00000000000E+00 -0.28812287043E+01  0.28812287043E+01  0.00000000000E+00 0. -1.
         21    1    1    2  502  501 -0.26946848194E+02  0.17631357459E+02  0.11908424390E+03  0.12336147916E+03  0.00000000000E+00 0. -1.
         21    1    1    2  503  502  0.26946848194E+02 -0.17631357459E+02  0.34836253424E+03  0.34984775640E+03  0.00000000000E+00 0.  1.
</event>
<event>
 4    1  0.5576842E+002  0.2213461E+02  0.7546771E-02  0.1503660E+00
          2   -1    0    0  503    0  0.00000000000E+00  0.00000000000E+00  0.32184332605E+03  0.32184332605E+03  0.00000000000E+00 0. -1.
         -2   -1    0    0    0  501 -0.00000000000E+00 -0.00000000000E+00 -0.31048466641E+02  0.31048466641E+02  0.00000000000E+00 0.  1.
         21    1    1    2  502  501  0.66902659010E+01 -0.21099319141E+02 -0.26668562750E+02  0.34657656661E+02  0.00000000000E+00 0.  1.
         21    1    1    2  503  502 -0.66902659010E+01  0.21099319141E+02  0.31746342216E+03  0.31823413603E+03  0.00000000000E+00 0. -1.
</event>
<event>
 4    1  0.5576842E+002  0.2657284E+02  0.7546771E-02  0.1451947E+00
          2   -1    0    0  503    0  0.00000000000E+00  0.00000000000E+00  0.18997937623E+03  0.18997937623E+03  0.00000000000E+00 0.  1.
         -2   -1    0    0    0  501 -0.00000000000E+00 -0.00000000000E+00 -0.25561045799E+02  0.25561045799E+02  0.00000000000E+00 0. -1.
         21    1    1    2  502  501  0.25801329254E+02 -0.63566578670E+01 -0.17418036743E+02  0.31772687870E+02  0.00000000000E+00 0. -1.
         21    1    1    2  503  502 -0.25801329254E+02  0.63566578670E+01  0.18183636718E+03  0.18376773416E+03  0.00000000000E+00 0.  1.
</event>
<event>
 4    1  0.5576842E+002  0.2721011E+02  0.7546771E-02  0.1445509E+00
          2   -1    0    0  502    0  0.00000000000E+00  0.00000000000E+00  0.14202355380E+02  0.14202355380E+02  0.00000000000E+00 0. -1.
         -2   -1    0    0    0  501 -0.00000000000E+00 -0.00000000000E+00 -0.59759416398E+02  0.59759416398E+02  0.00000000000E+00 0.  1.
         21    1    1    2  502  503  0.55651437182E+01  0.26634926084E+02 -0.95662722644E+01  0.28842740458E+02  0.00000000000E+00 0. -1.
         21    1    1    2  503  501 -0.55651437182E+01 -0.26634926084E+02 -0.35990788753E+02  0.45119031320E+02  0.00000000000E+00 0.  1.
</event>
<event>
 4    1  0.5576842E+002  0.2043984E+02  0.7546771E-02  0.1527415E+00
          2   -1    0    0  502    0  0.00000000000E+00  0.00000000000E+00  0.19329074028E+02  0.19329074028E+02  0.00000000000E+00 0.  1.
         -2   -1    0    0    0  501 -0.00000000000E+00 -0.00000000000E+00 -0.26405430333E+03  0.26405430333E+03  0.00000000000E+00 0. -1.
         21    1    1    2  502  503  0.63392884920E+01  0.19431948496E+02  0.13406117516E+02  0.24444041969E+02  0.00000000000E+00 0.  1.
         21    1    1    2  503  501 -0.63392884920E+01 -0.19431948496E+02 -0.25813134682E+03  0.25893933539E+03  0.00000000000E+00 0. -1.
</event>
<event>
 4    1  0.5576842E+002  0.2115029E+02  0.7546771E-02  0.1517130E+00
          2   -1    0    0  502    0  0.00000000000E+00  0.00000000000E+00  0.78882597255E+01  0.78882597255E+01  0.00000000000E+00 0. -1.
         -2   -1    0    0    0  501 -0.00000000000E+00 -0.00000000000E+00 -0.17899536791E+03  0.17899536791E+03  0.00000000000E+00 0.  1.
         21    1    1    2  502  503  0.68795914418E+00 -0.21139096021E+02 -0.83193752059E+01  0.22727663149E+02  0.00000000000E+00 0. -1.
         21    1    1    2  503  501 -0.68795914418E+00  0.21139096021E+02 -0.16278773298E+03  0.16415596449E+03  0.00000000000E+00 0.  1.
</event>
<event>
 4    1  0.5576842E+002  0.2500421E+02  0.7546771E-02  0.1468756E+00
          2   -1    0    0  503    0  0.00000000000E+00  0.00000000000E+00  0.13031172323E+03  0.13031172323E+03  0.00000000000E+00 0.  1.
         -2   -1    0    0    0  501 -0.00000000000E+00 -0.00000000000E+00 -0.52362266205E+02  0.52362266205E+02  0.00000000000E+00 0. -1.
         21    1    1    2  502  501  0.54115467129E+01  0.24411588522E+02 -0.48077277331E+02  0.54190728797E+02  0.00000000000E+00 0. -1.
         21    1    1    2  503  502 -0.54115467129E+01 -0.24411588522E+02  0.12602673436E+03  0.12848326064E+03  0.00000000000E+00 0.  1.
</event>
<event>
 4    1  0.5576842E+002  0.2349518E+02  0.7546771E-02  0.1486372E+00
          2   -1    0    0  502    0  0.00000000000E+00  0.00000000000E+00  0.51683414731E+01  0.51683414731E+01  0.00000000000E+00 0.  1.
         -2   -1    0    0    0  501 -0.00000000000E+00 -0.00000000000E+00 -0.12318809051E+03  0.12318809051E+03  0.00000000000E+00 0. -1.
         21    1    1    2  502  503 -0.23120502431E+02 -0.41792067237E+01 -0.35607859343E+02  0.42660790528E+02  0.00000000000E+00 0.  1.
         21    1    1    2  503  501  0.23120502431E+02  0.41792067237E+01 -0.82411889697E+02  0.85695641458E+02  0.00000000000E+00 0. -1.
</event>
<event>
 4    1  0.5576842E+002  0.2020812E+02  0.7546771E-02  0.1530878E+00
          2   -1    0    0  502    0  0.00000000000E+00  0.00000000000E+00  0.17280644910E+03  0.17280644910E+03  0.00000000000E+00 0.  1.
         -2   -1    0    0    0  501 -0.00000000000E+00 -0.00000000000E+00 -0.24685837886E+02  0.24685837886E+02  0.00000000000E+00 0. -1.
         21    1    1    2  502  503  0.11295978499E+02  0.16756158843E+02  0.16796113460E+03  0.16917242898E+03  0.00000000000E+00 0.  1.
         21    1    1    2  503  501 -0.11295978499E+02 -0.16756158843E+02 -0.19840523387E+02  0.28319858010E+02  0.00000000000E+00 0. -1.
</event>
<event>
 4    1  0.5576842E+002  0.2102463E+02  0.7546771E-02  0.1518913E+00
          2   -1    0    0  503    0  0.00000000000E+00  0.00000000000E+00  0.11323646730E+04  0.11323646730E+04  0.00000000000E+00 0.  1.
         -2   -1    0    0    0  501 -0.00000000000E+00 -0.00000000000E+00 -0.54722013351E+00  0.54722013351E+00  0.00000000000E+00 0. -1.
         21    1    1    2  502  501  0.62796816294E+01  0.20064906807E+02  0.26263466434E+03  0.26347485990E+03  0.00000000000E+00 0. -1.
         21    1    1    2  503  502 -0.62796816294E+01 -0.20064906807E+02  0.86918278848E+03  0.86943703318E+03  0.00000000000E+00 0.  1.
</event>
<event>
 4    1  0.5576842E+002  0.2415386E+02  0.7546771E-02  0.1478496E+00
          2   -1    0    0  503    0  0.00000000000E+00  0.00000000000E+00  0.88092769661E+03  0.88092769661E+03  0.00000000000E+00 0.  1.
         -2   -1    0    0    0  501 -0.00000000000E+00 -0.00000000000E+00 -0.36576072092E+01  0.36576072092E+01  0.00000000000E+00 0. -1.
         21    1    1    2  502  501  0.12553888919E+02 -0.20635133162E+02  0.38382307270E+02  0.45349866140E+02  0.00000000000E+00 0. -1.
         21    1    1    2  503  502 -0.12553888919E+02  0.20635133162E+02  0.83888778213E+03  0.83923543768E+03  0.00000000000E+00 0.  1.
</event>
<event>
 4    1  0.5576842E+002  0.2956663E+02  0.7546771E-02  0.1423400E+00
          2   -1    0    0  502    0  0.00000000000E+00  0.00000000000E+00  0.70460163213E+02  0.70460163213E+02  0.00000000000E+00 0.  1.
         -2   -1    0    0    0  501 -0.00000000000E+00 -0.00000000000E+00 -0.22020613244E+02  0.22020613244E+02  0.00000000000E+00 0. -1.
         21    1    1    2  502  503  0.29327412528E+02 -0.37534412012E+01  0.54772820965E+02  0.62243452370E+02  0.00000000000E+00 0.  1.
         21    1    1    2  503  501 -0.29327412528E+02  0.37534412012E+01 -0.63332709958E+01  0.30237324087E+02  0.00000000000E+00 0. -1.
</event>
<event>
 4    1  0.5576842E+002  0.3735777E+02  0.7546771E-02  0.1364706E+00
          2   -1    0    0  503    0  0.00000000000E+00  0.00000000000E+00  0.89429228690E+01  0.89429228690E+01  0.00000000000E+00 0.  1.
         -2   -1    0    0    0  501 -0.00000000000E+00 -0.00000000000E+00 -0.17169932754E+03  0.17169932754E+03  0.00000000000E+00 0. -1.
         21    1    1    2  502  501  0.17995186041E+02  0.32737990801E+02 -0.10864036545E+03  0.11488399265E+03  0.00000000000E+00 0. -1.
         21    1    1    2  503  502 -0.17995186041E+02 -0.32737990801E+02 -0.54116039220E+02  0.65758257757E+02  0.00000000000E+00 0.  1.
</event>
<event>
 4    1  0.5576842E+002  0.2197838E+02  0.7546771E-02  0.1505741E+00
          2   -1    0    0  503    0  0.00000000000E+00  0.00000000000E+00  0.10367548028E+04  0.10367548028E+04  0.00000000000E+00 0.  1.
         -2   -1    0    0    0  501 -0.00000000000E+00 -0.00000000000E+00 -0.47917939167E+00  0.47917939167E+00  0.00000000000E+00 0. -1.
         21    1    1    2  502  501  0.10146703413E+02 -0.19495987070E+02  0.43188138292E+03  0.43244025947E+03  0.00000000000E+00 0. -1.
         21    1    1    2  503  502 -0.10146703413E+02  0.19495987070E+02  0.60439424054E+03  0.60479372277E+03  0.00000000000E+00 0.  1.
</event>
<event>
 4    1  0.5576842E+002  0.3781754E+02  0.7546771E-02  0.1361772E+00
          2   -1    0    0  503    0  0.00000000000E+00  0.00000000000E+00  0.47638795937E+02  0.47638795937E+02  0.00000000000E+00 0.  1.
         -2   -1    0    0    0  501 -0.00000000000E+00 -0.00000000000E+00 -0.13186433410E+03  0.13186433410E+03  0.00000000000E+00 0. -1.
         21    1    1    2  502  501  0.37386029897E+02  0.56966170278E+01 -0.12098871033E+03  0.12676132968E+03  0.00000000000E+00 0. -1.
         21    1    1    2  503  502 -0.37386029897E+02 -0.56966170278E+01  0.36763172162E+02  0.52741800353E+02  0.00000000000E+00 0.  1.
</event>
<event>
 4    1  0.5576842E+002  0.3552045E+02  0.7546771E-02  0.1376941E+00
          2   -1    0    0  502    0  0.00000000000E+00  0.00000000000E+00  0.65814805276E+01  0.65814805276E+01  0.00000000000E+00 0.  1.
         -2   -1    0    0    0  501 -0.00000000000E+00 -0.00000000000E+00 -0.19268930827E+03  0.19268930827E+03  0.00000000000E+00 0. -1.
         21    1    1    2  502  503  0.81814584768E+01  0.34565393800E+02 -0.85932752194E+02  0.92984625670E+02  0.00000000000E+00 0. -1.
         21    1    1    2  503  501 -0.81814584768E+01 -0.34565393800E+02 -0.10017507555E+03  0.10628616313E+03  0.00000000000E+00 0.  1.
</event>
<event>
 4    1  0.5576842E+002  0.2632590E+02  0.7546771E-02  0.1454500E+00
          2   -1    0    0  503    0  0.00000000000E+00  0.00000000000E+00  0.12312229419E+04  0.12312229419E+04  0.00000000000E+00 0. -1.
         -2   -1    0    0    0  501 -0.00000000000E+00 -0.00000000000E+00 -0.63720731627E+00  0.63720731627E+00  0.00000000000E+00 0.  1.
         21    1    1    2  502  501 -0.18298678188E+02  0.18926479868E+02  0.40495770643E+03  0.40581251491E+03  0.00000000000E+00 0. -1.
         21    1    1    2  503  502  0.18298678188E+02 -0.18926479868E+02  0.82562802814E+03  0.82604763428E+03  0.00000000000E+00 0.  1.
</event>
<event>
 4    1  0.5576842E+002  0.2140290E+02  0.7546771E-02  0.1513590E+00
          2   -1    0    0  502    0  0.00000000000E+00  0.00000000000E+00  0.12748256120E+02  0.12748256120E+02  0.00000000000E+00 0. -1.
         -2   -1    0    0    0  501 -0.00000000000E+00 -0.00000000000E+00 -0.64249086579E+02  0.64249086579E+02  0.00000000000E+00 0.  1.
         21    1    1    2  502  503  0.10273262479E+02 -0.18776155473E+02 -0.19232684432E+00  0.21403759621E+02  0.00000000000E+00 0. -1.
         21    1    1    2  503  501 -0.10273262479E+02  0.18776155473E+02 -0.51308503614E+02  0.55593583078E+02  0.00000000000E+00 0.  1.
</event>
<event>
 4    1  0.5576842E+002  0.2276788E+02  0.7546771E-02  0.1495434E+00
          2   -1    0    0  503    0  0.00000000000E+00  0.00000000000E+00  0.51379376107E+03  0.51379376107E+03  0.00000000000E+00 0. -1.
         -2   -1    0    0    0  501 -0.00000000000E+00 -0.00000000000E+00 -0.19206011695E+01  0.19206011695E+01  0.00000000000E+00 0.  1.
         21    1    1    2  502  501  0.22127337161E+02 -0.53625814121E+01  0.78279570428E+02  0.81523416732E+02  0.00000000000E+00 0.  1.
         21    1    1    2  503  502 -0.22127337161E+02  0.53625814121E+01  0.43359358947E+03  0.43419094551E+03  0.00000000000E+00 0. -1.
</event>
<event>
 4    1  0.5576842E+002  0.2254520E+02  0.7546771E-02  0.1498289E+00
          2   -1    0    0  503    0  0.00000000000E+00  0.00000000000E+00  0.91541615184E+03  0.91541615184E+03  0.00000000000E+00 0. -1.
         -2   -1    0    0    0  501 -0.00000000000E+00 -0.00000000000E+00 -0.11796143570E+01  0.11796143570E+01  0.00000000000E+00 0.  1.
         21    1    1    2  502  501 -0.51475898015E+00  0.22539323959E+02  0.12369462735E+03  0.12573244187E+03  0.00000000000E+00 0.  1.
         21    1    1    2  503  502  0.51475898015E+00 -0.22539323959E+02  0.79054191013E+03  0.79086332433E+03  0.00000000000E+00 0. -1.
</event>
<event>
 4    1  0.5576842E+002  0.3323202E+02  0.7546771E-02  0.1393438E+00
          2   -1    0    0  502    0  0.00000000000E+00  0.00000000000E+00  0.41643386993E+03  0.41643386993E+03  0.00000000000E+00 0.  1.
         -2   -1    0    0    0  501 -0.00000000000E+00 -0.00000000000E+00 -0.26519740112E+01  0.26519740112E+01  0.00000000000E+00 0. -1.
         21    1    1    2  502  503  0.12585949324E+02 -0.30756482700E+02  0.20731166590E+03  0.20995831531E+03  0.00000000000E+00 0.  1.
         21    1    1    2  503  501 -0.12585949324E+02  0.30756482700E+02  0.20647023001E+03  0.20912752863E+03  0.00000000000E+00 0. -1.
</event>
<event>
 4    1  0.5576842E+002  0.2848758E+02  0.7546771E-02  0.1433211E+00
          2   -1    0    0  503    0  0.00000000000E+00  0.00000000000E+00  0.39071205295E+02  0.39071205295E+02  0.00000000000E+00 0. -1.
         -2   -1    0    0    0  501 -0.00000000000E+00 -0.00000000000E+00 -0.33178378201E+02  0.33178378201E+02  0.00000000000E+00 0.  1.
         21    1    1    2  502  501  0.23957118988E+02  0.15414234467E+02 -0.19144841901E+02  0.34322982764E+02  0.00000000000E+00 0.  1.
         21    1    1    2  503  502 -0.23957118988E+02 -0.15414234467E+02  0.25037668995E+02  0.37926600732E+02  0.00000000000E+00 0. -1.
</event>
<event>
 4    1  0.5576842E+002  0.3503456E+02  0.7546771E-02  0.1380320E+00
          2   -1    0    0  503    0  0.00000000000E+00  0.00000000000E+00  0.32047094017E+03  0.32047094017E+03  0.00000000000E+00 0. -1.
         -2   -1    0    0    0  501 -0.00000000000E+00 -0.00000000000E+00 -0.98491917352E+01  0.98491917352E+01  0.00000000000E+00 0.  1.
         21    1    1    2  502  501  0.81152467758E+01  0.34081713397E+02  0.26197283725E+02  0.43746063742E+02  0.00000000000E+00 0.  1.
         21    1    1    2  503  502 -0.81152467758E+01 -0.34081713397E+02  0.28442446471E+03  0.28657406816E+03  0.00000000000E+00 0. -1.
</event>
<event>
 4    1  0.5576842E+002  0.2390795E+02  0.7546771E-02  0.1481401E+00
          2   -1    0    0  502    0  0.00000000000E+00  0.00000000000E+00  0.26901936404E+03  0.26901936404E+03  0.00000000000E+00 0. -1.
         -2   -1    0    0    0  501 -0.00000000000E+00 -0.00000000000E+00 -0.24570908437E+01  0.24570908437E+01  0.00000000000E+00 0.  1.
         21    1    1    2  502  503  0.23484021174E+02  0.44822732907E+01  0.18320462988E+03  0.18475802130E+03  0.00000000000E+00 0.  1.
         21    1    1    2  503  501 -0.23484021174E+02 -0.44822732907E+01  0.83357643314E+02  0.86718433584E+02  0.00000000000E+00 0. -1.
</event>
<event>
 4    1  0.5576842E+002  0.2114853E+02  0.7546771E-02  0.1517155E+00
          2   -1    0    0  502    0  0.00000000000E+00  0.00000000000E+00  0.73702551661E+01  0.73702551661E+01  0.00000000000E+00 0.  1.
         -2   -1    0    0    0  501 -0.00000000000E+00 -0.00000000000E+00 -0.71791028468E+02  0.71791028468E+02  0.00000000000E+00 0. -1.
         21    1    1    2  502  503 -0.19327373383E+02 -0.85856184926E+01 -0.16642236005E+02  0.26911414418E+02  0.00000000000E+00 0.  1.
         21    1    1    2  503  501  0.19327373383E+02  0.85856184926E+01 -0.47778537297E+02  0.52249869216E+02  0.00000000000E+00 0. -1.
</event>
<event>
 4    1  0.5576842E+002  0.2814594E+02  0.7546771E-02  0.1436424E+00
          2   -1    0    0  502    0  0.00000000000E+00  0.00000000000E+00  0.11826230399E+02  0.11826230399E+02  0.00000000000E+00 0. -1.
         -2   -1    0    0    0  501 -0.00000000000E+00 -0.00000000000E+00 -0.13953303472E+04  0.13953303472E+04  0.00000000000E+00 0.  1.
         21    1    1    2  502  503 -0.28145643586E+02  0.12921041974E+00 -0.52699596189E+01  0.28635055834E+02  0.00000000000E+00 0. -1.
         21    1    1    2  503  501  0.28145643586E+02 -0.12921041974E+00 -0.13782341572E+04  0.13785215218E+04  0.00000000000E+00 0.  1.
</event>
<event>
 4    1  0.5576842E+002  0.4544535E+02  0.7546771E-02  0.1319227E+00
          2   -1    0    0  502    0  0.00000000000E+00  0.00000000000E+00  0.18311518867E+04  0.18311518867E+04  0.00000000000E+00 0. -1.
         -2   -1    0    0    0  501 -0.00000000000E+00 -0.00000000000E+00 -0.14757969349E+01  0.14757969349E+01  0.00000000000E+00 0.  1.
         21    1    1    2  502  503  0.41193446355E+02 -0.19193223752E+02  0.13597583952E+04  0.13605176122E+04  0.00000000000E+00 0. -1.
         21    1    1    2  503  501 -0.41193446355E+02  0.19193223752E+02  0.46991769464E+03  0.47211007149E+03  0.00000000000E+00 0.  1.
</event>
<event>
 4    1  0.5576842E+002  0.2989373E+02  0.7546771E-02  0.1420522E+00
          2   -1    0    0  503    0  0.00000000000E+00  0.00000000000E+00  0.61843425723E+03  0.61843425723E+03  0.00000000000E+00 0.  1.
         -2   -1    0    0    0  501 -0.00000000000E+00 -0.00000000000E+00 -0.15164191450E+01  0.15164191450E+01  0.00000000000E+00 0. -1.
         21    1    1    2  502  501  0.28553768902E+02 -0.88497045077E+01  0.24118647711E+03  0.24303199734E+03  0.00000000000E+00 0. -1.
         21    1    1    2  503  502 -0.28553768902E+02  0.88497045077E+01  0.37573136097E+03  0.37691867904E+03  0.00000000000E+00 0.  1.
</event>
<event>
 4    1  0.5576842E+002  0.2145720E+02  0.7546771E-02  0.1512836E+00
          2   -1    0    0  503    0  0.00000000000E+00  0.00000000000E+00  0.19316115033E+01  0.19316115033E+01  0.00000000000E+00 0. -1.
         -2   -1    0    0    0  501 -0.00000000000E+00 -0.00000000000E+00 -0.23851378892E+03  0.23851378892E+03  0.00000000000E+00 0.  1.
         21    1    1    2  502  501  0.20793299325E+02 -0.52962288235E+01 -0.12138255553E+03  0.12326449660E+03  0.00000000000E+00 0. -1.
         21    1    1    2  503  502 -0.20793299325E+02  0.52962288235E+01 -0.11519962189E+03  0.11718090382E+03  0.00000000000E+00 0.  1.
</event>
<event>
 4    1  0.5576842E+002  0.2120860E+02  0.7546771E-02  0.1516307E+00
          2   -1    0    0  503    0  0.00000000000E+00  0.00000000000E+00  0.13398247562E+04  0.13398247562E+04  0.00000000000E+00 0.  1.
         -2   -1    0    0    0  501 -0.00000000000E+00 -0.00000000000E+00 -0.78044237047E+00  0.78044237047E+00  0.00000000000E+00 0. -1.
         21    1    1    2  502  501  0.57176795269E+00  0.21200894154E+02  0.16352813529E+03  0.16489771333E+03  0.00000000000E+00 0. -1.
         21    1    1    2  503  502 -0.57176795269E+00 -0.21200894154E+02  0.11755161785E+04  0.11757074852E+04  0.00000000000E+00 0.  1.
</event>
<event>
 4    1  0.5576842E+002  0.2585953E+02  0.7546771E-02  0.1459413E+00
          2   -1    0    0  502    0  0.00000000000E+00  0.00000000000E+00  0.24435278045E+03  0.24435278045E+03  0.00000000000E+00 0. -1.
         -2   -1    0    0    0  501 -0.00000000000E+00 -0.00000000000E+00 -0.38127617382E+01  0.38127617382E+01  0.00000000000E+00 0.  1.
         21    1    1    2  502  503  0.11851071150E+02  0.22984071290E+02  0.18618955982E+03  0.18797677412E+03  0.00000000000E+00 0. -1.
         21    1    1    2  503  501 -0.11851071150E+02 -0.22984071290E+02  0.54350458887E+02  0.60188768069E+02  0.00000000000E+00 0.  1.
</event>
<event>
 4    1  0.5576842E+002  0.6435449E+02  0.7546771E-02  0.1245714E+00
          2   -1    0    0  503    0  0.00000000000E+00  0.00000000000E+00  0.83291095689E+03  0.83291095689E+03  0.00000000000E+00 0.  1.
         -2   -1    0    0    0  501 -0.00000000000E+00 -0.00000000000E+00 -0.27857508398E+02  0.27857508398E+02  0.00000000000E+00 0. -1.
         21    1    1    2  502  501 -0.44014806463E+02 -0.46948872303E+02  0.12438838505E+02  0.65545591017E+02  0.00000000000E+00 0. -1.
         21    1    1    2  503  502  0.44014806463E+02  0.46948872303E+02  0.79261460999E+03  0.79522287428E+03  0.00000000000E+00 0.  1.
</event>
<event>
 4    1  0.5576842E+002  0.4314110E+02  0.7546771E-02  0.1331001E+00
          2   -1    0    0  502    0  0.00000000000E+00  0.00000000000E+00  0.11773514635E+03  0.11773514635E+03  0.00000000000E+00 0.  1.
         -2   -1    0    0    0  501 -0.00000000000E+00 -0.00000000000E+00 -0.47484191060E+02  0.47484191060E+02  0.00000000000E+00 0. -1.
         21    1    1    2  502  503  0.27911458940E+02 -0.32895361687E+02  0.10259738704E+03  0.11129859922E+03  0.00000000000E+00 0.  1.
         21    1    1    2  503  501 -0.27911458940E+02  0.32895361687E+02 -0.32346431747E+02  0.53920738194E+02  0.00000000000E+00 0. -1.
</event>
<event>
 4    1  0.5576842E+002  0.2756659E+02  0.7546771E-02  0.1441998E+00
          2   -1    0    0  502    0  0.00000000000E+00  0.00000000000E+00  0.13552586232E+02  0.13552586232E+02  0.00000000000E+00 0. -1.
         -2   -1    0    0    0  501 -0.00000000000E+00 -0.00000000000E+00 -0.59229516754E+02  0.59229516754E+02  0.00000000000E+00 0.  1.
         21    1    1    2  502  503 -0.20001261682E+02 -0.18970151150E+02 -0.14435817459E+02  0.31117678725E+02  0.00000000000E+00 0. -1.
         21    1    1    2  503  501  0.20001261682E+02  0.18970151150E+02 -0.31241113063E+02  0.41664424260E+02  0.00000000000E+00 0.  1.
</event>
<event>
 4    1  0.5576842E+002  0.2003823E+02  0.7546771E-02  0.1533452E+00
          2   -1    0    0  503    0  0.00000000000E+00  0.00000000000E+00  0.30442418609E+03  0.30442418609E+03  0.00000000000E+00 0.  1.
         -2   -1    0    0    0  501 -0.00000000000E+00 -0.00000000000E+00 -0.46883957102E+01  0.46883957102E+01  0.00000000000E+00 0. -1.
         21    1    1    2  502  501  0.19306956107E+02  0.53639624160E+01  0.18843671899E+02  0.27506628611E+02  0.00000000000E+00 0. -1.
         21    1    1    2  503  502 -0.19306956107E+02 -0.53639624160E+01  0.28089211848E+03  0.28160595319E+03  0.00000000000E+00 0.  1.
</event>
<event>
 4    1  0.5576842E+002  0.2326282E+02  0.7546771E-02  0.1489224E+00
          2   -1    0    0  503    0  0.00000000000E+00  0.00000000000E+00  0.35882745916E+03  0.35882745916E+03  0.00000000000E+00 0.  1.
         -2   -1    0    0    0  501 -0.00000000000E+00 -0.00000000000E+00 -0.23465372659E+01  0.23465372659E+01  0.00000000000E+00 0. -1.
         21    1    1    2  502  501  0.15590966942E+02  0.17265013350E+02  0.70296109517E+02  0.74045269595E+02  0.00000000000E+00 0. -1.
         21    1    1    2  503  502 -0.15590966942E+02 -0.17265013350E+02  0.28618481237E+03  0.28712872683E+03  0.00000000000E+00 0.  1.
</event>
<event>
 4    1  0.5576842E+002  0.2152442E+02  0.7546771E-02  0.1511908E+00
          2   -1    0    0  502    0  0.00000000000E+00  0.00000000000E+00  0.71256095944E+03  0.71256095944E+03  0.00000000000E+00 0. -1.
         -2   -1    0    0    0  501 -0.00000000000E+00 -0.00000000000E+00 -0.13818316242E+01  0.13818316242E+01  0.00000000000E+00 0.  1.
         21    1    1    2  502  503 -0.19923206464E+02 -0.81465505660E+01  0.61533915708E+03  0.61571550141E+03  0.00000000000E+00 0. -1.
         21    1    1    2  503  501  0.19923206464E+02  0.81465505660E+01  0.95839970729E+02  0.98227289646E+02  0.00000000000E+00 0.  1.
</event>
<event>
 4    1  0.5576842E+002  0.2700053E+02  0.7546771E-02  0.1447603E+00
          2   -1    0    0  503    0  0.00000000000E+00  0.00000000000E+00  0.12520932148E+04  0.12520932148E+04  0.00000000000E+00 0.  1.
         -2   -1    0    0    0  501 -0.00000000000E+00 -0.00000000000E+00 -0.59890942840E+00  0.59890942840E+00  0.00000000000E+00 0. -1.
         21    1    1    2  502  501 -0.11938631085E+02  0.24217710092E+02  0.52127662127E+03  0.52197542497E+03  0.00000000000E+00 0. -1.
         21    1    1    2  503  502  0.11938631085E+02 -0.24217710092E+02  0.73021768406E+03  0.73071669921E+03  0.00000000000E+00 0.  1.
</event>
<event>
 4    1  0.5576842E+002  0.3370822E+02  0.7546771E-02  0.1389879E+00
          2   -1    0    0  502    0  0.00000000000E+00  0.00000000000E+00  0.33535768422E+02  0.33535768422E+02  0.00000000000E+00 0. -1.
         -2   -1    0    0    0  501 -0.00000000000E+00 -0.00000000000E+00 -0.45275833057E+02  0.45275833057E+02  0.00000000000E+00 0.  1.
         21    1    1    2  502  503  0.52481668360E+01 -0.33297159583E+02  0.13898311082E+02  0.36461035948E+02  0.00000000000E+00 0. -1.
         21    1    1    2  503  501 -0.52481668360E+01  0.33297159583E+02 -0.25638375717E+02  0.42350565531E+02  0.00000000000E+00 0.  1.
</event>
<event>
 4    1  0.5576842E+002  0.2031390E+02  0.7546771E-02  0.1529290E+00
          2   -1    0    0  502    0  0.00000000000E+00  0.00000000000E+00  0.24191220250E+04  0.24191220250E+04  0.00000000000E+00 0. -1.
         -2   -1    0    0    0  501 -0.00000000000E+00 -0.00000000000E+00 -0.17081906760E+00  0.17081906760E+00  0.00000000000E+00 0.  1.
         21    1    1    2  502  503 -0.10095832828E+02  0.17627494035E+02  0.11642438422E+04  0.11644210487E+04  0.00000000000E+00 0.  1.
         21    1    1    2  503  501  0.10095832828E+02 -0.17627494035E+02  0.12547073637E+04  0.12548717954E+04  0.00000000000E+00 0. -1.
</event>
<event>
 4    1  0.5576842E+002  0.3759055E+02  0.7546771E-02  0.1363214E+00
          2   -1    0    0  503    0  0.00000000000E+00  0.00000000000E+00  0.43982544206E+03  0.43982544206E+03  0.00000000000E+00 0. -1.
         -2   -1    0    0    0  501 -0.00000000000E+00 -0.00000000000E+00 -0.53399129287E+01  0.53399129287E+01  0.00000000000E+00 0.  1.
         21    1    1    2  502  501  0.37192535218E+02  0.54557184744E+01  0.76759506456E+02  0.85469710256E+02  0.00000000000E+00 0.  1.
         21    1    1    2  503  502 -0.37192535218E+02 -0.54557184744E+01  0.35772602267E+03  0.35969564473E+03  0.00000000000E+00 0. -1.
</event>
<event>
 4    1  0.5576842E+002  0.6549995E+02  0.7546771E-02  0.1242210E+00
          2   -1    0    0  502    0  0.00000000000E+00  0.00000000000E+00  0.79330964949E+03  0.79330964949E+03  0.00000000000E+00 0.  1.
         -2   -1    0    0    0  501 -0.00000000000E+00 -0.00000000000E+00 -0.25449701698E+02  0.25449701698E+02  0.00000000000E+00 0. -1.
         21    1    1    2  502  503 -0.45272699865E+02  0.47335256472E+02  0.74721866691E+03  0.75008398199E+03  0.00000000000E+00 0.  1.
         21    1    1    2  503  501  0.45272699865E+02 -0.47335256472E+02  0.20641280883E+02  0.68675369200E+02  0.00000000000E+00 0. -1.
</event>
<event>
 4    1  0.5576842E+002  0.3380507E+02  0.7546771E-02  0.1389164E+00
          2   -1    0    0  503    0  0.00000000000E+00  0.00000000000E+00  0.17524702709E+03  0.17524702709E+03  0.00000000000E+00 0. -1.
         -2   -1    0    0    0  501 -0.00000000000E+00 -0.00000000000E+00 -0.66626996020E+01  0.66626996020E+01  0.00000000000E+00 0.  1.
         21    1    1    2  502  501  0.25640033181E+02  0.22031153926E+02  0.97557240653E+02  0.10324823606E+03  0.00000000000E+00 0.  1.
         21    1    1    2  503  502 -0.25640033181E+02 -0.22031153926E+02  0.71027086837E+02  0.78661490638E+02  0.00000000000E+00 0. -1.
</event>
<event>
 4    1  0.5576842E+002  0.3707907E+02  0.7546771E-02  0.1366508E+00
          2   -1    0    0  502    0  0.00000000000E+00  0.00000000000E+00  0.18446637031E+04  0.18446637031E+04  0.00000000000E+00 0. -1.
         -2   -1    0    0    0  501 -0.00000000000E+00 -0.00000000000E+00 -0.91666353445E+00  0.91666353445E+00  0.00000000000E+00 0.  1.
         21    1    1    2  502  503  0.37004564684E+02 -0.23494555764E+01  0.52290680971E+03  0.52421979111E+03  0.00000000000E+00 0. -1.
         21    1    1    2  503  501 -0.37004564684E+02  0.23494555764E+01  0.13208402298E+04  0.13213605755E+04  0.00000000000E+00 0.  1.
</event>
<event>
 4    1  0.5576842E+002  0.2247892E+02  0.7546771E-02  0.1499147E+00
          2   -1    0    0  502    0  0.00000000000E+00  0.00000000000E+00  0.12044483002E+04  0.12044483002E+04  0.00000000000E+00 0. -1.
         -2   -1    0    0    0  501 -0.00000000000E+00 -0.00000000000E+00 -0.43488210287E+00  0.43488210287E+00  0.00000000000E+00 0.  1.
         21    1    1    2  502  503  0.14895538031E+02 -0.16835223316E+02  0.71519924486E+03  0.71555241712E+03  0.00000000000E+00 0. -1.
         21    1    1    2  503  501 -0.14895538031E+02  0.16835223316E+02  0.48881417320E+03  0.48933076514E+03  0.00000000000E+00 0.  1.
</event>
<event>
 4    1  0.5576842E+002  0.2184974E+02  0.7546771E-02  0.1507470E+00
          2   -1    0    0  503    0  0.00000000000E+00  0.00000000000E+00  0.37460087864E+02  0.37460087864E+02  0.00000000000E+00 0. -1.
         -2   -1    0    0    0  501 -0.00000000000E+00 -0.00000000000E+00 -0.18868235269E+02  0.18868235269E+02  0.00000000000E+00 0.  1.
         21    1    1    2  502  501  0.21637247900E+02  0.30398192604E+01 -0.67490296836E+01  0.22868327431E+02  0.00000000000E+00 0.  1.
         21    1    1    2  503  502 -0.21637247900E+02 -0.30398192604E+01  0.25340882278E+02  0.33459995703E+02  0.00000000000E+00 0. -1.
</event>
<event>
 4    1  0.5576842E+002  0.3882553E+02  0.7546771E-02  0.1355509E+00
          2   -1    0    0  502    0  0.00000000000E+00  0.00000000000E+00  0.88690249668E+03  0.88690249668E+03  0.00000000000E+00 0.  1.
         -2   -1    0    0    0  501 -0.00000000000E+00 -0.00000000000E+00 -0.22021421632E+01  0.22021421632E+01  0.00000000000E+00 0. -1.
         21    1    1    2  502  503 -0.67777008883E+01 -0.38229372135E+02  0.65470673737E+03  0.65585694636E+03  0.00000000000E+00 0.  1.
         21    1    1    2  503  501  0.67777008883E+01  0.38229372135E+02  0.22999361714E+03  0.23324769249E+03  0.00000000000E+00 0. -1.
</event>
<event>
 4    1  0.5576842E+002  0.2240015E+02  0.7546771E-02  0.1500171E+00
          2   -1    0    0  502    0  0.00000000000E+00  0.00000000000E+00  0.10836703234E+03  0.10836703234E+03  0.00000000000E+00 0. -1.
         -2   -1    0    0    0  501 -0.00000000000E+00 -0.00000000000E+00 -0.76165187345E+02  0.76165187345E+02  0.00000000000E+00 0.  1.
         21    1    1    2  502  503 -0.18961595871E+02 -0.11925793565E+02  0.10551853035E+03  0.10786995373E+03  0.00000000000E+00 0. -1.
         21    1    1    2  503  501  0.18961595871E+02  0.11925793565E+02 -0.73316685355E+02  0.76662265957E+02  0.00000000000E+00 0.  1.
</event>
<event>
 4    1  0.5576842E+002  0.2782518E+02  0.7546771E-02  0.1439491E+00
          2   -1    0    0  503    0  0.00000000000E+00  0.00000000000E+00  0.38657009649E+04  0.38657009649E+04  0.00000000000E+00 0.  1.
         -2   -1    0    0    0  501 -0.00000000000E+00 -0.00000000000E+00 -0.20067181943E+00  0.20067181943E+00  0.00000000000E+00 0. -1.
         21    1    1    2  502  501 -0.55134995560E+01  0.27273466025E+02  0.20176523966E+04  0.20178442542E+04  0.00000000000E+00 0.  1.
         21    1    1    2  503  502  0.55134995560E+01 -0.27273466025E+02  0.18478478965E+04  0.18480573826E+04  0.00000000000E+00 0. -1.
</event>
<event>
 4    1  0.5576842E+002  0.2969931E+02  0.7546771E-02  0.1422228E+00
          2   -1    0    0  502    0  0.00000000000E+00  0.00000000000E+00  0.22191603022E+03  0.22191603022E+03  0.00000000000E+00 0. -1.
         -2   -1    0    0    0  501 -0.00000000000E+00 -0.00000000000E+00 -0.55926430266E+01  0.55926430266E+01  0.00000000000E+00 0.  1.
         21    1    1    2  502  503 -0.10997932477E+02 -0.27587940901E+02  0.16934619337E+03  0.17193074830E+03  0.00000000000E+00 0. -1.
         21    1    1    2  503  501  0.10997932477E+02  0.27587940901E+02  0.46977193826E+02  0.55577924950E+02  0.00000000000E+00 0.  1.
</event>
<event>
 4    1  0.5576842E+002  0.2172453E+02  0.7546771E-02  0.1509167E+00
          2   -1    0    0  502    0  0.00000000000E+00  0.00000000000E+00  0.13045316993E+04  0.13045316993E+04  0.00000000000E+00 0.  1.
         -2   -1    0    0    0  501 -0.00000000000E+00 -0.00000000000E+00 -0.36685885038E+00  0.36685885038E+00  0.00000000000E+00 0. -1.
         21    1    1    2  502  503 -0.18422582814E+01  0.21646276074E+02  0.72884049401E+03  0.72916419337E+03  0.00000000000E+00 0. -1.
         21    1    1    2  503  501  0.18422582814E+01 -0.21646276074E+02  0.57532434639E+03  0.57573436473E+03  0.00000000000E+00 0.  1.
</event>
<event>
 4    1  0.5576842E+002  0.2408967E+02  0.7546771E-02  0.1479250E+00
          2   -1    0    0  503    0  0.00000000000E+00  0.00000000000E+00  0.16608543724E+04  0.16608543724E+04  0.00000000000E+00 0. -1.
         -2   -1    0    0    0  501 -0.00000000000E+00 -0.00000000000E+00 -0.36746014692E+00  0.36746014692E+00  0.00000000000E+00 0.  1.
         21    1    1    2  502  501  0.13022071433E+02  0.20266673814E+02  0.64613170353E+03  0.64658061425E+03  0.00000000000E+00 0. -1.
         21    1    1    2  503  502 -0.13022071433E+02 -0.20266673814E+02  0.10143552087E+04  0.10146412183E+04  0.00000000000E+00 0.  1.
</event>
<event>
 4    1  0.5576842E+002  0.2388308E+02  0.7546771E-02  0.1481697E+00
          2   -1    0    0  502    0  0.00000000000E+00  0.00000000000E+00  0.37341958395E+02  0.37341958395E+02  0.00000000000E+00 0. -1.
         -2   -1    0    0    0  501 -0.00000000000E+00 -0.00000000000E+00 -0.16457482307E+02  0.16457482307E+02  0.00000000000E+00 0.  1.
         21    1    1    2  502  503  0.12896124485E+02  0.20102022199E+02  0.17652467530E+02  0.29698668878E+02  0.00000000000E+00 0.  1.
         21    1    1    2  503  501 -0.12896124485E+02 -0.20102022199E+02  0.32320085584E+01  0.24100771824E+02  0.00000000000E+00 0. -1.
</event>
<event>
 4    1  0.5576842E+002  0.2121347E+02  0.7546771E-02  0.1516239E+00
          2   -1    0    0  502    0  0.00000000000E+00  0.00000000000E+00  0.85064026136E+03  0.85064026136E+03  0.00000000000E+00 0. -1.
         -2   -1    0    0    0  501 -0.00000000000E+00 -0.00000000000E+00 -0.11575500954E+02  0.11575500954E+02  0.00000000000E+00 0.  1.
         21    1    1    2  502  503 -0.17059254702E+02  0.12609242894E+02  0.84067375692E+03  0.84094136344E+03  0.00000000000E+00 0. -1.
         21    1    1    2  503  501  0.17059254702E+02 -0.12609242894E+02 -0.16089965183E+01  0.21274398867E+02  0.00000000000E+00 0.  1.
</event>
<event>
 4    1  0.5576842E+002  0.2086983E+02  0.7546771E-02  0.1521131E+00
          2   -1    0    0  502    0  0.00000000000E+00  0.00000000000E+00  0.35051990530E+02  0.35051990530E+02  0.00000000000E+00 0.  1.
         -2   -1    0    0    0  501 -0.00000000000E+00 -0.00000000000E+00 -0.14083699140E+02  0.14083699140E+02  0.00000000000E+00 0. -1.
         21    1    1    2  502  503  0.18910954497E+02 -0.88275548605E+01  0.18913307255E+02  0.28164927057E+02  0.00000000000E+00 0.  1.
         21    1    1    2  503  501 -0.18910954497E+02  0.88275548605E+01  0.20549841352E+01  0.20970762613E+02  0.00000000000E+00 0. -1.
</event>
<event>
 4    1  0.5576842E+002  0.2412743E+02  0.7546771E-02  0.1478806E+00
          2   -1    0    0  503    0  0.00000000000E+00  0.00000000000E+00  0.11328718246E+02  0.11328718246E+02  0.00000000000E+00 0.  1.
         -2   -1    0    0    0  501 -0.00000000000E+00 -0.00000000000E+00 -0.14484054070E+03  0.14484054070E+03  0.00000000000E+00 0. -1.
         21    1    1    2  502  501  0.12345822976E+02 -0.20729529197E+02 -0.12947816731E+03  0.13170697983E+03  0.00000000000E+00 0. -1.
         21    1    1    2  503  502 -0.12345822976E+02  0.20729529197E+02 -0.40336551429E+01  0.24462279115E+02  0.00000000000E+00 0.  1.
</event>
<event>
 4    1  0.5576842E+002  0.5602777E+02  0.7546771E-02  0.1273961E+00
          2   -1    0    0  503    0  0.00000000000E+00  0.00000000000E+00  0.21646233739E+04  0.21646233739E+04  0.00000000000E+00 0. -1.
         -2   -1    0    0    0  501 -0.00000000000E+00 -0.00000000000E+00 -0.57198903754E+01  0.57198903754E+01  0.00000000000E+00 0.  1.
         21    1    1    2  502  501 -0.14948365024E+02 -0.53996823323E+02  0.14188242080E+03  0.15254419648E+03  0.00000000000E+00 0.  1.
         21    1    1    2  503  502  0.14948365024E+02  0.53996823323E+02  0.20170210627E+04  0.20177990678E+04  0.00000000000E+00 0. -1.
</event>
<event>
 4    1  0.5576842E+002  0.2980566E+02  0.7546771E-02  0.1421293E+00
          2   -1    0    0  502    0  0.00000000000E+00  0.00000000000E+00  0.68737408985E+01  0.68737408985E+01  0.00000000000E+00 0. -1.
         -2   -1    0    0    0  501 -0.00000000000E+00 -0.00000000000E+00 -0.35450855546E+03  0.35450855546E+03  0.00000000000E+00 0.  1.
         21    1    1    2  502  503  0.10355162263E+02 -0.27949029702E+02 -0.29781209510E+02  0.42134286355E+02  0.00000000000E+00 0. -1.
         21    1    1    2  503  501 -0.10355162263E+02  0.27949029702E+02 -0.31785360505E+03  0.31924801000E+03  0.00000000000E+00 0.  1.
</event>
<event>
 4    1  0.5576842E+002  0.2589744E+02  0.7546771E-02  0.1459009E+00
          2   -1    0    0  503    0  0.00000000000E+00  0.00000000000E+00  0.62851433181E+00  0.62851433181E+00  0.00000000000E+00 0. -1.
         -2   -1    0    0    0  501 -0.00000000000E+00 -0.00000000000E+00 -0.10682019997E+04  0.10682019997E+04  0.00000000000E+00 0.  1.
         21    1    1    2  502  501  0.25804599313E+02  0.21909562495E+01 -0.51649820599E+03  0.51714705300E+03  0.00000000000E+00 0. -1.
         21    1    1    2  503  502 -0.25804599313E+02 -0.21909562495E+01 -0.55107527934E+03  0.55168346100E+03  0.00000000000E+00 0.  1.
</event>
<event>
 4    1  0.5576842E+002  0.2487192E+02  0.7546771E-02  0.1470241E+00
          2   -1    0    0  503    0  0.00000000000E+00  0.00000000000E+00  0.98314322354E+02  0.98314322354E+02  0.00000000000E+00 0.  1.
         -2   -1    0    0    0  501 -0.00000000000E+00 -0.00000000000E+00 -0.92135360777E+02  0.92135360777E+02  0.00000000000E+00 0. -1.
         21    1    1    2  502  501  0.16270965095E+02 -0.18811377830E+02 -0.88826276088E+02  0.92242720930E+02  0.00000000000E+00 0. -1.
         21    1    1    2  503  502 -0.16270965095E+02  0.18811377830E+02  0.95005237665E+02  0.98206962201E+02  0.00000000000E+00 0.  1.
</event>
<event>
 4    1  0.5576842E+002  0.2161907E+02  0.7546771E-02  0.1510607E+00
          2   -1    0    0  503    0  0.00000000000E+00  0.00000000000E+00  0.73840658478E+01  0.73840658478E+01  0.00000000000E+00 0. -1.
         -2   -1    0    0    0  501 -0.00000000000E+00 -0.00000000000E+00 -0.10433168320E+03  0.10433168320E+03  0.00000000000E+00 0.  1.
         21    1    1    2  502  501  0.55389286461E+01 -0.20897479818E+02 -0.83505031523E+02  0.86258186180E+02  0.00000000000E+00 0.  1.
         21    1    1    2  503  502 -0.55389286461E+01  0.20897479818E+02 -0.13442585824E+02  0.25457562863E+02  0.00000000000E+00 0. -1.
</event>
<event>
 4    1  0.5576842E+002  0.2504920E+02  0.7546771E-02  0.1468254E+00
          2   -1    0    0  503    0  0.00000000000E+00  0.00000000000E+00  0.15014305986E+03  0.15014305986E+03  0.00000000000E+00 0. -1.
         -2   -1    0    0    0  501 -0.00000000000E+00 -0.00000000000E+00 -0.63818915687E+01  0.63818915687E+01  0.00000000000E+00 0.  1.
         21    1    1    2  502  501  0.24915560323E+02  0.25840051694E+01  0.25900899367E+02  0.36032191398E+02  0.00000000000E+00 0.  1.
         21    1    1    2  503  502 -0.24915560323E+02 -0.25840051694E+01  0.11786026892E+03  0.12049276003E+03  0.00000000000E+00 0. -1.
</event>
<event>
 4    1  0.5576842E+002  0.3754577E+02  0.7546771E-02  0.1363500E+00
          2   -1    0    0  503    0  0.00000000000E+00  0.00000000000E+00  0.10666857870E+03  0.10666857870E+03  0.00000000000E+00 0. -1.
         -2   -1    0    0    0  501 -0.00000000000E+00 -0.00000000000E+00 -0.18140646049E+02  0.18140646049E+02  0.00000000000E+00 0.  1.
         21    1    1    2  502  501  0.34669872943E+01 -0.37385354041E+02  0.11747948557E+02  0.39340805698E+02  0.00000000000E+00 0.  1.
         21    1    1    2  503  502 -0.34669872943E+01  0.37385354041E+02  0.76779984093E+02  0.85468419050E+02  0.00000000000E+00 0. -1.
</event>
<event>
 4    1  0.5576842E+002  0.2158043E+02  0.7546771E-02  0.1511137E+00
          2   -1    0    0  502    0  0.00000000000E+00  0.00000000000E+00  0.32837611838E+03  0.32837611838E+03  0.00000000000E+00 0. -1.
         -2   -1    0    0    0  501 -0.00000000000E+00 -0.00000000000E+00 -0.23155897600E+01  0.23155897600E+01  0.00000000000E+00 0.  1.
         21    1    1    2  502  503  0.15081393075E+02  0.15435879304E+02  0.26596083405E+03  0.26683493031E+03  0.00000000000E+00 0. -1.
         21    1    1    2  503  501 -0.15081393075E+02 -0.15435879304E+02  0.60099694574E+02  0.63856777830E+02  0.00000000000E+00 0.  1.
</event>
<event>
 4    1  0.5576842E+002  0.2180390E+02  0.7546771E-02  0.1508090E+00
          2   -1    0    0  502    0  0.00000000000E+00  0.00000000000E+00  0.50653196461E+03  0.50653196461E+03  0.00000000000E+00 0.  1.
         -2   -1    0    0    0  501 -0.00000000000E+00 -0.00000000000E+00 -0.89881689872E+01  0.89881689872E+01  0.00000000000E+00 0. -1.
         21    1    1    2  502  503 -0.12758874181E+02 -0.17681094860E+02  0.49270315182E+03  0.49318536657E+03  0.00000000000E+00 0.  1.
         21    1    1    2  503  501  0.12758874181E+02  0.17681094860E+02  0.48406438053E+01  0.22334767029E+02  0.00000000000E+00 0. -1.
</event>
<event>
 4    1  0.5576842E+002  0.2665456E+02  0.7546771E-02  0.1451109E+00
          2   -1    0    0  502    0  0.00000000000E+00  0.00000000000E+00  0.72794324723E+03  0.72794324723E+03  0.00000000000E+00 0. -1.
         -2   -1    0    0    0  501 -0.00000000000E+00 -0.00000000000E+00 -0.15335466454E+01  0.15335466454E+01  0.00000000000E+00 0.  1.
         21    1    1    2  502  503  0.81068366617E+01  0.25391825409E+02  0.58313123975E+03  0.58374010345E+03  0.00000000000E+00 0. -1.
         21    1    1    2  503  501 -0.81068366617E+01 -0.25391825409E+02  0.14327846084E+03  0.14573669043E+03  0.00000000000E+00 0.  1.
</event>
<event>
 4    1  0.5576842E+002  0.5565267E+02  0.7546771E-02  0.1275364E+00
          2   -1    0    0  503    0  0.00000000000E+00  0.00000000000E+00  0.23358107584E+02  0.23358107584E+02  0.00000000000E+00 0.  1.
         -2   -1    0    0    0  501 -0.00000000000E+00 -0.00000000000E+00 -0.17399827487E+03  0.17399827487E+03  0.00000000000E+00 0. -1.
         21    1    1    2  502  501 -0.55636287209E+02  0.13502583570E+01 -0.12345436806E+03  0.13541861262E+03  0.00000000000E+00 0. -1.
         21    1    1    2  503  502  0.55636287209E+02 -0.13502583570E+01 -0.27185799227E+02  0.61937769831E+02  0.00000000000E+00 0.  1.
</event>
<event>
 4    1  0.5576842E+002  0.2468080E+02  0.7546771E-02  0.1472406E+00
          2   -1    0    0  502    0  0.00000000000E+00  0.00000000000E+00  0.61857296196E+02  0.61857296196E+02  0.00000000000E+00 0. -1.
         -2   -1    0    0    0  501 -0.00000000000E+00 -0.00000000000E+00 -0.13624080676E+02  0.13624080676E+02  0.00000000000E+00 0.  1.
         21    1    1    2  502  503 -0.13793425093E+02 -0.20466632994E+02  0.43986879911E+02  0.50437954422E+02  0.00000000000E+00 0. -1.
         21    1    1    2  503  501  0.13793425093E+02  0.20466632994E+02  0.42463356086E+01  0.25043422450E+02  0.00000000000E+00 0.  1.
</event>
<event>
 4    1  0.5576842E+002  0.5897281E+02  0.7546771E-02  0.1263363E+00
          2   -1    0    0  503    0  0.00000000000E+00  0.00000000000E+00  0.33465994525E+04  0.33465994525E+04  0.00000000000E+00 0.  1.
         -2   -1    0    0    0  501 -0.00000000000E+00 -0.00000000000E+00 -0.13319211281E+02  0.13319211281E+02  0.00000000000E+00 0. -1.
         21    1    1    2  502  501  0.58633832552E+02  0.63139889121E+01  0.53549142032E+02  0.79657412638E+02  0.00000000000E+00 0. -1.
         21    1    1    2  503  502 -0.58633832552E+02 -0.63139889121E+01  0.32797310991E+04  0.32802612511E+04  0.00000000000E+00 0.  1.
</event>
<event>
 4    1  0.5576842E+002  0.2189816E+02  0.7546771E-02  0.1506818E+00
          2   -1    0    0  502    0  0.00000000000E+00  0.00000000000E+00  0.34166356924E+03  0.34166356924E+03  0.00000000000E+00 0.  1.
         -2   -1    0    0    0  501 -0.00000000000E+00 -0.00000000000E+00 -0.14125525807E+01  0.14125525807E+01  0.00000000000E+00 0. -1.
         21    1    1    2  502  503 -0.21410300262E+02 -0.45965897205E+01  0.15640377762E+03  0.15792932359E+03  0.00000000000E+00 0. -1.
         21    1    1    2  503  501  0.21410300262E+02  0.45965897205E+01  0.18384723904E+03  0.18514679823E+03  0.00000000000E+00 0.  1.
</event>
<event>
 4    1  0.5576842E+002  0.2080704E+02  0.7546771E-02  0.1522038E+00
          2   -1    0    0  503    0  0.00000000000E+00  0.00000000000E+00  0.45673968045E+02  0.45673968045E+02  0.00000000000E+00 0. -1.
         -2   -1    0    0    0  501 -0.00000000000E+00 -0.00000000000E+00 -0.10735549231E+02  0.10735549231E+02  0.00000000000E+00 0.  1.
         21    1    1    2  502  501 -0.20050017226E+02  0.55614682537E+01  0.78189399093E+01  0.22227661623E+02  0.00000000000E+00 0.  1.
         21    1    1    2  503  502  0.20050017226E+02 -0.55614682537E+01  0.27119478904E+02  0.34181855653E+02  0.00000000000E+00 0. -1.
</event>
<event>
 4    1  0.5576842E+002  0.2690831E+02  0.7546771E-02  0.1448531E+00
          2   -1    0    0  502    0  0.00000000000E+00  0.00000000000E+00  0.49120733419E+02  0.49120733419E+02  0.00000000000E+00 0.  1.
         -2   -1    0    0    0  501 -0.00000000000E+00 -0.00000000000E+00 -0.16687629219E+02  0.16687629219E+02  0.00000000000E+00 0. -1.
         21    1    1    2  502  503  0.13865585086E+02  0.23060848021E+02  0.27456571735E+02  0.38443731513E+02  0.00000000000E+00 0.  1.
         21    1    1    2  503  501 -0.13865585086E+02 -0.23060848021E+02  0.49765324640E+01  0.27364631124E+02  0.00000000000E+00 0. -1.
</event>
<event>
 4    1  0.5576842E+002  0.2118467E+02  0.7546771E-02  0.1516645E+00
          2   -1    0    0  503    0  0.00000000000E+00  0.00000000000E+00  0.15118687516E+04  0.15118687516E+04  0.00000000000E+00 0. -1.
         -2   -1    0    0    0  501 -0.00000000000E+00 -0.00000000000E+00 -0.10911938378E+01  0.10911938378E+01  0.00000000000E+00 0.  1.
         21    1    1    2  502  501 -0.13311426734E+02  0.16480171844E+02  0.10995422614E+03  0.11197643499E+03  0.00000000000E+00 0.  1.
         21    1    1    2  503  502  0.13311426734E+02 -0.16480171844E+02  0.14008233316E+04  0.14009835104E+04  0.00000000000E+00 0. -1.
</event>
<event>
 4    1  0.5576842E+002  0.4106023E+02  0.7546771E-02  0.1342382E+00
          2   -1    0    0  502    0  0.00000000000E+00  0.00000000000E+00  0.71948982848E+03  0.71948982848E+03  0.00000000000E+00 0.  1.
         -2   -1    0    0    0  501 -0.00000000000E+00 -0.00000000000E+00 -0.10599023194E+02  0.10599023194E+02  0.00000000000E+00 0. -1.
         21    1    1    2  502  503 -0.36645466437E+02  0.18521673567E+02  0.67662033610E+03  0.67786504691E+03  0.00000000000E+00 0.  1.
         21    1    1    2  503  501  0.36645466437E+02 -0.18521673567E+02  0.32270469186E+02  0.52223804760E+02  0.00000000000E+00 0. -1.
</event>
<event>
 4    1  0.5576842E+002  0.3237987E+02  0.7546771E-02  0.1399983E+00
          2   -1    0    0  503    0  0.00000000000E+00  0.00000000000E+00  0.24203339152E+04  0.24203339152E+04  0.00000000000E+00 0. -1.
         -2   -1    0    0    0  501 -0.00000000000E+00 -0.00000000000E+00 -0.66722346643E+00  0.66722346643E+00  0.00000000000E+00 0.  1.
         21    1    1    2  502  501  0.24871606540E+02  0.20733044063E+02  0.49291186854E+03  0.49397425649E+03  0.00000000000E+00 0.  1.
         21    1    1    2  503  502 -0.24871606540E+02 -0.20733044063E+02  0.19267548232E+04  0.19270268821E+04  0.00000000000E+00 0. -1.
</event>
<event>
 4    1  0.5576842E+002  0.2657770E+02  0.7546771E-02  0.1451897E+00
          2   -1    0    0  503    0  0.00000000000E+00  0.00000000000E+00  0.53007979511E+02  0.53007979511E+02  0.00000000000E+00 0.  1.
         -2   -1    0    0    0  501 -0.00000000000E+00 -0.00000000000E+00 -0.24255449553E+02  0.24255449553E+02  0.00000000000E+00 0. -1.
         21    1    1    2  502  501 -0.15227487805E+02  0.21782975067E+02 -0.11556104000E+02  0.28981337569E+02  0.00000000000E+00 0. -1.
         21    1    1    2  503  502  0.15227487805E+02 -0.21782975067E+02  0.40308633958E+02  0.48282091495E+02  0.00000000000E+00 0.  1.
</event>
<event>
 4    1  0.5576842E+002  0.2557578E+02  0.7546771E-02  0.1462464E+00
          2   -1    0    0  503    0  0.00000000000E+00  0.00000000000E+00  0.76642316737E+01  0.76642316737E+01  0.00000000000E+00 0.  1.
         -2   -1    0    0    0  501 -0.00000000000E+00 -0.00000000000E+00 -0.12254391312E+03  0.12254391312E+03  0.00000000000E+00 0. -1.
         21    1    1    2  502  501 -0.67142319249E+01 -0.24678731529E+02 -0.93308453120E+02  0.96750132423E+02  0.00000000000E+00 0. -1.
         21    1    1    2  503  502  0.67142319249E+01  0.24678731529E+02 -0.21571228324E+02  0.33458012369E+02  0.00000000000E+00 0.  1.
</event>
<event>
 4    1  0.5576842E+002  0.2164969E+02  0.7546771E-02  0.1510188E+00
          2   -1    0    0  503    0  0.00000000000E+00  0.00000000000E+00  0.10148034420E+04  0.10148034420E+04  0.00000000000E+00 0. -1.
         -2   -1    0    0    0  501 -0.00000000000E+00 -0.00000000000E+00 -0.46288212051E+00  0.46288212051E+00  0.00000000000E+00 0.  1.
         21    1    1    2  502  501  0.17803891058E+02 -0.12317903012E+02  0.48345619097E+03  0.48394069663E+03  0.00000000000E+00 0.  1.
         21    1    1    2  503  502 -0.17803891058E+02  0.12317903012E+02  0.53088436887E+03  0.53132562745E+03  0.00000000000E+00 0. -1.
</event>
<event>
 4    1  0.5576842E+002  0.2151442E+02  0.7546771E-02  0.1512045E+00
          2   -1    0    0  503    0  0.00000000000E+00  0.00000000000E+00  0.25406762381E+03  0.25406762381E+03  0.00000000000E+00 0. -1.
         -2   -1    0    0    0  501 -0.00000000000E+00 -0.00000000000E+00 -0.11847407968E+02  0.11847407968E+02  0.00000000000E+00 0.  1.
         21    1    1    2  502  501  0.11671941313E+02  0.18073079267E+02 -0.11981347447E+01  0.21547759398E+02  0.00000000000E+00 0.  1.
         21    1    1    2  503  502 -0.11671941313E+02 -0.18073079267E+02  0.24341835059E+03  0.24436727238E+03  0.00000000000E+00 0. -1.
</event>
<event>
 4    1  0.5576842E+002  0.2268389E+02  0.7546771E-02  0.1496506E+00
          2   -1    0    0  502    0  0.00000000000E+00  0.00000000000E+00  0.17573399249E+01  0.17573399249E+01  0.00000000000E+00 0.  1.
         -2   -1    0    0    0  501 -0.00000000000E+00 -0.00000000000E+00 -0.11976505737E+04  0.11976505737E+04  0.00000000000E+00 0. -1.
         21    1    1    2  502  503  0.16908709988E+02 -0.15121316039E+02 -0.11192121154E+04  0.11194419672E+04  0.00000000000E+00 0. -1.
         21    1    1    2  503  501 -0.16908709988E+02  0.15121316039E+02 -0.76681118370E+02  0.79965946419E+02  0.00000000000E+00 0.  1.
</event>
<event>
 4    1  0.5576842E+002  0.4886682E+02  0.7546771E-02  0.1303162E+00
          2   -1    0    0  503    0  0.00000000000E+00  0.00000000000E+00  0.10971604123E+03  0.10971604123E+03  0.00000000000E+00 0. -1.
         -2   -1    0    0    0  501 -0.00000000000E+00 -0.00000000000E+00 -0.16343759375E+03  0.16343759375E+03  0.00000000000E+00 0.  1.
         21    1    1    2  502  501  0.87739493411E+01 -0.48072697441E+02 -0.15401886048E+03  0.16158519675E+03  0.00000000000E+00 0.  1.
         21    1    1    2  503  502 -0.87739493411E+01  0.48072697441E+02  0.10029730796E+03  0.11156843823E+03  0.00000000000E+00 0. -1.
</event>
<event>
 4    1  0.5576842E+002  0.3473299E+02  0.7546771E-02  0.1382450E+00
          2   -1    0    0  502    0  0.00000000000E+00  0.00000000000E+00  0.51842820560E+02  0.51842820560E+02  0.00000000000E+00 0.  1.
         -2   -1    0    0    0  501 -0.00000000000E+00 -0.00000000000E+00 -0.23670624866E+02  0.23670624866E+02  0.00000000000E+00 0. -1.
         21    1    1    2  502  503 -0.34728869581E+02  0.53518971587E+00  0.18998290128E+02  0.39589339957E+02  0.00000000000E+00 0.  1.
         21    1    1    2  503  501  0.34728869581E+02 -0.53518971587E+00  0.91739055662E+01  0.35924105469E+02  0.00000000000E+00 0. -1.
</event>
<event>
 4    1  0.5576842E+002  0.2227891E+02  0.7546771E-02  0.1501757E+00
          2   -1    0    0  503    0  0.00000000000E+00  0.00000000000E+00  0.41251624386E+03  0.41251624386E+03  0.00000000000E+00 0.  1.
         -2   -1    0    0    0  501 -0.00000000000E+00 -0.00000000000E+00 -0.12049784430E+01  0.12049784430E+01  0.00000000000E+00 0. -1.
         21    1    1    2  502  501  0.64132269703E+01  0.21335888943E+02  0.19776339553E+03  0.19901434684E+03  0.00000000000E+00 0.  1.
         21    1    1    2  503  502 -0.64132269703E+01 -0.21335888943E+02  0.21354786989E+03  0.21470687546E+03  0.00000000000E+00 0. -1.
</event>
