<event>
 4    1  0.2243475E+005  0.2315431E+02  0.7546771E-02  0.1490569E+00
          2   -1    0    0  502    0  0.00000000000E+00  0.00000000000E+00  0.26625737734E+03  0.26625737734E+03  0.00000000000E+00 0.  1.
         21   -1    0    0  503  502 -0.00000000000E+00 -0.00000000000E+00 -0.30504916609E+01  0.30504916609E+01  0.00000000000E+00 0.  1.
          2    1    1    2  501    0 -0.65286867509E+01 -0.22214826513E+02  0.21011100725E+03  0.21138296440E+03  0.00000000000E+00 0.  1.
         21    1    1    2  503  501  0.65286867509E+01  0.22214826513E+02  0.53095878426E+02  0.57924904605E+02  0.00000000000E+00 0.  1.
</event>
<event>
 4    1  0.2243475E+005  0.3765638E+02  0.7546771E-02  0.1362795E+00
          2   -1    0    0  502    0  0.00000000000E+00  0.00000000000E+00  0.18591561934E+02  0.18591561934E+02  0.00000000000E+00 0.  1.
         21   -1    0    0  503  502 -0.00000000000E+00 -0.00000000000E+00 -0.41198542381E+03  0.41198542381E+03  0.00000000000E+00 0.  1.
          2    1    1    2  501    0  0.20811416817E+02 -0.31382923650E+02 -0.23558179282E+01  0.37729999270E+02  0.00000000000E+00 0.  1.
         21    1    1    2  503  501 -0.20811416817E+02  0.31382923650E+02 -0.39103804395E+03  0.39284698647E+03  0.00000000000E+00 0.  1.
</event>
<event>
 4    1  0.2243475E+005  0.2689262E+02  0.7546771E-02  0.1448690E+00
          2   -1    0    0  502    0  0.00000000000E+00  0.00000000000E+00  0.50607227873E+03  0.50607227873E+03  0.00000000000E+00 0. -1.
         21   -1    0    0  503  502 -0.00000000000E+00 -0.00000000000E+00 -0.61327517363E+01  0.61327517363E+01  0.00000000000E+00 0. -1.
          2    1    1    2  501    0 -0.18410281831E+01  0.26829529153E+02  0.47425727267E+03  0.47501912982E+03  0.00000000000E+00 0. -1.
         21    1    1    2  503  501  0.18410281831E+01 -0.26829529153E+02  0.25682254323E+02  0.37185900641E+02  0.00000000000E+00 0. -1.
</event>
<event>
 4    1  0.2243475E+005  0.2153172E+02  0.7546771E-02  0.1511807E+00
          2   -1    0    0  503    0  0.00000000000E+00  0.00000000000E+00  0.16298400331E+04  0.16298400331E+04  0.00000000000E+00 0.  1.
         21   -1    0    0  501  502 -0.00000000000E+00 -0.00000000000E+00 -0.37810127028E+00  0.37810127028E+00  0.00000000000E+00 0. -1.
          2    1    1    2  501    0 -0.17948894875E+02 -0.11893357175E+02  0.12203878533E+04  0.12205777842E+04  0.00000000000E+00 0.  1.
         21    1    1    2  503  502  0.17948894875E+02  0.11893357175E+02  0.40907407849E+03  0.40964035015E+03  0.00000000000E+00 0. -1.
</event>
<event>
 4    1  0.2243475E+005  0.3123105E+02  0.7546771E-02  0.1409192E+00
          2   -1    0    0  502    0  0.00000000000E+00  0.00000000000E+00  0.14312417919E+04  0.14312417919E+04  0.00000000000E+00 0.  1.
         21   -1    0    0  503  502 -0.00000000000E+00 -0.00000000000E+00 -0.71556082915E+02  0.71556082915E+02  0.00000000000E+00 0.  1.
          2    1    1    2  501    0 -0.86190104514E+01  0.30018180584E+02  0.14276551175E+04  0.14279966782E+04  0.00000000000E+00 0.  1.
         21    1    1    2  503  501  0.86190104514E+01 -0.30018180584E+02 -0.67969408550E+02  0.74801196551E+02  0.00000000000E+00 0.  1.
</event>
<event>
 4    1  0.2243475E+005  0.2305904E+02  0.7546771E-02  0.1491758E+00
          2   -1    0    0  502    0  0.00000000000E+00  0.00000000000E+00  0.12107403617E+04  0.12107403617E+04  0.00000000000E+00 0. -1.
         21   -1    0    0  503  502 -0.00000000000E+00 -0.00000000000E+00 -0.49299297770E+00  0.49299297770E+00  0.00000000000E+00 0. -1.
          2    1    1    2  501    0 -0.10078046294E+02 -0.20740114365E+02  0.80523251952E+03  0.80556261697E+03  0.00000000000E+00 0. -1.
         21    1    1    2  503  501  0.10078046294E+02  0.20740114365E+02  0.40501484921E+03  0.40567073772E+03  0.00000000000E+00 0. -1.
</event>
<event>
 4    1  0.2243475E+005  0.2595754E+02  0.7546771E-02  0.1458370E+00
          2   -1    0    0  502    0  0.00000000000E+00  0.00000000000E+00  0.12233505572E+04  0.12233505572E+04  0.00000000000E+00 0. -1.
         21   -1    0    0  503  502 -0.00000000000E+00 -0.00000000000E+00 -0.54282009172E+01  0.54282009172E+01  0.00000000000E+00 0. -1.
          2    1    1    2  501    0 -0.14711613301E+02 -0.21386034893E+02  0.11913472346E+04  0.11916299877E+04  0.00000000000E+00 0. -1.
         21    1    1    2  503  501  0.14711613301E+02  0.21386034893E+02  0.26575121630E+02  0.37148770424E+02  0.00000000000E+00 0. -1.
</event>
<event>
 4    1  0.2243475E+005  0.3003236E+02  0.7546771E-02  0.1419315E+00
          2   -1    0    0  503    0  0.00000000000E+00  0.00000000000E+00  0.24002505408E+03  0.24002505408E+03  0.00000000000E+00 0.  1.
         21   -1    0    0  501  502 -0.00000000000E+00 -0.00000000000E+00 -0.40288182264E+01  0.40288182264E+01  0.00000000000E+00 0.  1.
          2    1    1    2  501    0  0.19590312670E+02  0.22763179709E+02  0.86342967973E+02  0.91416906639E+02  0.00000000000E+00 0.  1.
         21    1    1    2  503  502 -0.19590312670E+02 -0.22763179709E+02  0.14965326788E+03  0.15263696567E+03  0.00000000000E+00 0.  1.
</event>
<event>
 4    1  0.2243475E+005  0.3475806E+02  0.7546771E-02  0.1382272E+00
          2   -1    0    0  502    0  0.00000000000E+00  0.00000000000E+00  0.18140604575E+04  0.18140604575E+04  0.00000000000E+00 0.  1.
         21   -1    0    0  503  502 -0.00000000000E+00 -0.00000000000E+00 -0.94183785771E+00  0.94183785771E+00  0.00000000000E+00 0.  1.
          2    1    1    2  501    0  0.25938048224E+02 -0.23137420861E+02  0.13976979816E+04  0.13981300978E+04  0.00000000000E+00 0.  1.
         21    1    1    2  503  501 -0.25938048224E+02  0.23137420861E+02  0.41542063800E+03  0.41687219752E+03  0.00000000000E+00 0.  1.
</event>
<event>
 4    1  0.2243475E+005  0.2790791E+02  0.7546771E-02  0.1438695E+00
          2   -1    0    0  502    0  0.00000000000E+00  0.00000000000E+00  0.13416898299E+04  0.13416898299E+04  0.00000000000E+00 0. -1.
         21   -1    0    0  503  502 -0.00000000000E+00 -0.00000000000E+00 -0.22118915697E+01  0.22118915697E+01  0.00000000000E+00 0.  1.
          2    1    1    2  501    0 -0.24765315723E+02  0.12865876080E+02  0.12468171272E+04  0.12471294240E+04  0.00000000000E+00 0. -1.
         21    1    1    2  503  501  0.24765315723E+02 -0.12865876080E+02  0.92660811118E+02  0.96772297417E+02  0.00000000000E+00 0.  1.
</event>
<event>
 4    1  0.2243475E+005  0.3163053E+02  0.7546771E-02  0.1405937E+00
          2   -1    0    0  503    0  0.00000000000E+00  0.00000000000E+00  0.67221723837E+02  0.67221723837E+02  0.00000000000E+00 0.  1.
         21   -1    0    0  501  502 -0.00000000000E+00 -0.00000000000E+00 -0.79459384124E+02  0.79459384124E+02  0.00000000000E+00 0.  1.
          2    1    1    2  501    0 -0.13652672918E+02 -0.28532347652E+02  0.59997231921E+02  0.67824465928E+02  0.00000000000E+00 0.  1.
         21    1    1    2  503  502  0.13652672918E+02  0.28532347652E+02 -0.72234892207E+02  0.78856642032E+02  0.00000000000E+00 0.  1.
</event>
<event>
 4    1  0.2243475E+005  0.3808858E+02  0.7546771E-02  0.1360066E+00
          2   -1    0    0  502    0  0.00000000000E+00  0.00000000000E+00  0.47591160861E+03  0.47591160861E+03  0.00000000000E+00 0. -1.
         21   -1    0    0  503  502 -0.00000000000E+00 -0.00000000000E+00 -0.90002068576E+01  0.90002068576E+01  0.00000000000E+00 0. -1.
          2    1    1    2  501    0 -0.33779187309E+02 -0.17598470021E+02  0.43062222778E+03  0.43230341509E+03  0.00000000000E+00 0. -1.
         21    1    1    2  503  501  0.33779187309E+02  0.17598470021E+02  0.36289173969E+02  0.52608400372E+02  0.00000000000E+00 0. -1.
</event>
<event>
 4    1  0.2243475E+005  0.3011029E+02  0.7546771E-02  0.1418640E+00
          2   -1    0    0  502    0  0.00000000000E+00  0.00000000000E+00  0.23815876679E+03  0.23815876679E+03  0.00000000000E+00 0. -1.
         21   -1    0    0  503  502 -0.00000000000E+00 -0.00000000000E+00 -0.78724626490E+01  0.78724626490E+01  0.00000000000E+00 0. -1.
          2    1    1    2  501    0  0.17155870525E+02  0.24744807239E+02  0.20354658496E+03  0.20576161359E+03  0.00000000000E+00 0. -1.
         21    1    1    2  503  501 -0.17155870525E+02 -0.24744807239E+02  0.26739719187E+02  0.40269615853E+02  0.00000000000E+00 0. -1.
</event>
<event>
 4    1  0.2243475E+005  0.2547129E+02  0.7546771E-02  0.1463600E+00
          2   -1    0    0  502    0  0.00000000000E+00  0.00000000000E+00  0.44864858159E+03  0.44864858159E+03  0.00000000000E+00 0.  1.
         21   -1    0    0  503  502 -0.00000000000E+00 -0.00000000000E+00 -0.27622210371E+03  0.27622210371E+03  0.00000000000E+00 0.  1.
          2    1    1    2  501    0 -0.22994865731E+02 -0.10955485364E+02  0.44769861757E+03  0.44842261170E+03  0.00000000000E+00 0.  1.
         21    1    1    2  503  501  0.22994865731E+02  0.10955485364E+02 -0.27527213969E+03  0.27644807360E+03  0.00000000000E+00 0.  1.
</event>
<event>
 4    1  0.2243475E+005  0.2859203E+02  0.7546771E-02  0.1432240E+00
          2   -1    0    0  502    0  0.00000000000E+00  0.00000000000E+00  0.24620795913E+02  0.24620795913E+02  0.00000000000E+00 0. -1.
         21   -1    0    0  503  502 -0.00000000000E+00 -0.00000000000E+00 -0.16488174720E+03  0.16488174720E+03  0.00000000000E+00 0. -1.
          2    1    1    2  501    0 -0.24737626162E+02  0.14337157034E+02  0.14544535862E+02  0.32078774032E+02  0.00000000000E+00 0. -1.
         21    1    1    2  503  501  0.24737626162E+02 -0.14337157034E+02 -0.15480548715E+03  0.15742376908E+03  0.00000000000E+00 0. -1.
</event>
<event>
 4    1  0.2243475E+005  0.2854080E+02  0.7546771E-02  0.1432716E+00
          2   -1    0    0  502    0  0.00000000000E+00  0.00000000000E+00  0.12955788510E+03  0.12955788510E+03  0.00000000000E+00 0. -1.
         21   -1    0    0  503  502 -0.00000000000E+00 -0.00000000000E+00 -0.96480823804E+01  0.96480823804E+01  0.00000000000E+00 0. -1.
          2    1    1    2  501    0  0.59219395654E+01 -0.27919672010E+02  0.10103424359E+03  0.10498807471E+03  0.00000000000E+00 0. -1.
         21    1    1    2  503  501 -0.59219395654E+01  0.27919672010E+02  0.18875559132E+02  0.34217892774E+02  0.00000000000E+00 0. -1.
</event>
<event>
 4    1  0.2243475E+005  0.4608558E+02  0.7546771E-02  0.1316099E+00
          2   -1    0    0  502    0  0.00000000000E+00  0.00000000000E+00  0.17183253658E+04  0.17183253658E+04  0.00000000000E+00 0.  1.
         21   -1    0    0  503  502 -0.00000000000E+00 -0.00000000000E+00 -0.29845614450E+02  0.29845614450E+02  0.00000000000E+00 0.  1.
          2    1    1    2  501    0 -0.33546240390E+01  0.45963323924E+02  0.17000344261E+04  0.17006589695E+04  0.00000000000E+00 0.  1.
         21    1    1    2  503  501  0.33546240390E+01 -0.45963323924E+02 -0.11554674814E+02  0.47512010677E+02  0.00000000000E+00 0.  1.
</event>
<event>
 4    1  0.2243475E+005  0.5801889E+02  0.7546771E-02  0.1266716E+00
          2   -1    0    0  503    0  0.00000000000E+00  0.00000000000E+00  0.10221048163E+03  0.10221048163E+03  0.00000000000E+00 0.  1.
         21   -1    0    0  501  502 -0.00000000000E+00 -0.00000000000E+00 -0.33894918114E+02  0.33894918114E+02  0.00000000000E+00 0.  1.
          2    1    1    2  501    0  0.33617457763E+02 -0.47286974485E+02  0.45616610350E+02  0.73804244879E+02  0.00000000000E+00 0.  1.
         21    1    1    2  503  502 -0.33617457763E+02  0.47286974485E+02  0.22698953162E+02  0.62301154861E+02  0.00000000000E+00 0.  1.
</event>
<event>
 4    1  0.2243475E+005  0.4427434E+02  0.7546771E-02  0.1325108E+00
          2   -1    0    0  503    0  0.00000000000E+00  0.00000000000E+00  0.50574931570E+03  0.50574931570E+03  0.00000000000E+00 0.  1.
         21   -1    0    0  501  502 -0.00000000000E+00 -0.00000000000E+00 -0.68322783923E+02  0.68322783923E+02  0.00000000000E+00 0. -1.
          2    1    1    2  501    0 -0.44041773206E+02  0.45320128150E+01  0.49748885460E+03  0.49945508044E+03  0.00000000000E+00 0.  1.
         21    1    1    2  503  502  0.44041773206E+02 -0.45320128150E+01 -0.60062322829E+02  0.74617019177E+02  0.00000000000E+00 0. -1.
</event>
<event>
 4    1  0.2243475E+005  0.2880802E+02  0.7546771E-02  0.1430245E+00
          2   -1    0    0  502    0  0.00000000000E+00  0.00000000000E+00  0.58614586935E+02  0.58614586935E+02  0.00000000000E+00 0.  1.
         21   -1    0    0  503  502 -0.00000000000E+00 -0.00000000000E+00 -0.47381492655E+03  0.47381492655E+03  0.00000000000E+00 0.  1.
          2    1    1    2  501    0  0.28694838976E+02 -0.25511676254E+01  0.54606879505E+02  0.61739886049E+02  0.00000000000E+00 0.  1.
         21    1    1    2  503  501 -0.28694838976E+02  0.25511676254E+01 -0.46980721912E+03  0.47068962743E+03  0.00000000000E+00 0.  1.
</event>
<event>
 4    1  0.2243475E+005  0.2146758E+02  0.7546771E-02  0.1512693E+00
          2   -1    0    0  503    0  0.00000000000E+00  0.00000000000E+00  0.10740250633E+02  0.10740250633E+02  0.00000000000E+00 0.  1.
         21   -1    0    0  501  502 -0.00000000000E+00 -0.00000000000E+00 -0.45052625025E+03  0.45052625025E+03  0.00000000000E+00 0. -1.
          2    1    1    2  501    0 -0.33741432991E+01  0.21200762324E+02 -0.51758201743E+00  0.21473822605E+02  0.00000000000E+00 0.  1.
         21    1    1    2  503  502  0.33741432991E+01 -0.21200762324E+02 -0.43926841760E+03  0.43979267828E+03  0.00000000000E+00 0. -1.
</event>
<event>
 4    1  0.2243475E+005  0.3259546E+02  0.7546771E-02  0.1398305E+00
          2   -1    0    0  502    0  0.00000000000E+00  0.00000000000E+00  0.23461155230E+04  0.23461155230E+04  0.00000000000E+00 0. -1.
         21   -1    0    0  503  502 -0.00000000000E+00 -0.00000000000E+00 -0.67982767875E+00  0.67982767875E+00  0.00000000000E+00 0. -1.
          2    1    1    2  501    0  0.26007389174E+02  0.19648909782E+02  0.18507135882E+04  0.18510006076E+04  0.00000000000E+00 0. -1.
         21    1    1    2  503  501 -0.26007389174E+02 -0.19648909782E+02  0.49472210715E+03  0.49579474307E+03  0.00000000000E+00 0. -1.
</event>
<event>
 4    1  0.2243475E+005  0.2715829E+02  0.7546771E-02  0.1446025E+00
          2   -1    0    0  502    0  0.00000000000E+00  0.00000000000E+00  0.12294003815E+03  0.12294003815E+03  0.00000000000E+00 0.  1.
         21   -1    0    0  503  502 -0.00000000000E+00 -0.00000000000E+00 -0.29426978235E+03  0.29426978235E+03  0.00000000000E+00 0. -1.
          2    1    1    2  501    0  0.27098432751E+02  0.18021320552E+01  0.12080261235E+03  0.12381778502E+03  0.00000000000E+00 0.  1.
         21    1    1    2  503  501 -0.27098432751E+02 -0.18021320552E+01 -0.29213235655E+03  0.29339203548E+03  0.00000000000E+00 0. -1.
</event>
<event>
 4    1  0.2243475E+005  0.2053413E+02  0.7546771E-02  0.1526021E+00
          2   -1    0    0  502    0  0.00000000000E+00  0.00000000000E+00  0.66706210637E+02  0.66706210637E+02  0.00000000000E+00 0.  1.
         21   -1    0    0  503  502 -0.00000000000E+00 -0.00000000000E+00 -0.51895971384E+02  0.51895971384E+02  0.00000000000E+00 0. -1.
          2    1    1    2  501    0 -0.19709123072E+02 -0.57620387263E+01  0.62977502041E+02  0.66240594698E+02  0.00000000000E+00 0.  1.
         21    1    1    2  503  501  0.19709123072E+02  0.57620387263E+01 -0.48167262788E+02  0.52361587323E+02  0.00000000000E+00 0. -1.
</event>
<event>
 4    1  0.2243475E+005  0.2027350E+02  0.7546771E-02  0.1529895E+00
          2   -1    0    0  502    0  0.00000000000E+00  0.00000000000E+00  0.60912075028E+03  0.60912075028E+03  0.00000000000E+00 0. -1.
         21   -1    0    0  503  502 -0.00000000000E+00 -0.00000000000E+00 -0.21767349037E+02  0.21767349037E+02  0.00000000000E+00 0. -1.
          2    1    1    2  501    0 -0.20265933615E+02  0.55380858677E+00  0.60419302681E+03  0.60453306643E+03  0.00000000000E+00 0. -1.
         21    1    1    2  503  501  0.20265933615E+02 -0.55380858677E+00 -0.16839625563E+02  0.26355032884E+02  0.00000000000E+00 0. -1.
</event>
<event>
 4    1  0.2243475E+005  0.2041225E+02  0.7546771E-02  0.1527824E+00
          2   -1    0    0  502    0  0.00000000000E+00  0.00000000000E+00  0.60440555863E+02  0.60440555863E+02  0.00000000000E+00 0.  1.
         21   -1    0    0  503  502 -0.00000000000E+00 -0.00000000000E+00 -0.11862369707E+02  0.11862369707E+02  0.00000000000E+00 0.  1.
          2    1    1    2  501    0 -0.18764580339E+02 -0.80343288282E+01  0.47686061705E+02  0.51871190424E+02  0.00000000000E+00 0.  1.
         21    1    1    2  503  501  0.18764580339E+02  0.80343288282E+01  0.89212445094E+00  0.20431735146E+02  0.00000000000E+00 0.  1.
</event>
<event>
 4    1  0.2243475E+005  0.2437831E+02  0.7546771E-02  0.1475880E+00
          2   -1    0    0  503    0  0.00000000000E+00  0.00000000000E+00  0.11842190660E+04  0.11842190660E+04  0.00000000000E+00 0. -1.
         21   -1    0    0  501  502 -0.00000000000E+00 -0.00000000000E+00 -0.18438400361E+01  0.18438400361E+01  0.00000000000E+00 0.  1.
          2    1    1    2  501    0  0.12962392390E+02 -0.20646513167E+02  0.10971177027E+04  0.10973885163E+04  0.00000000000E+00 0. -1.
         21    1    1    2  503  502 -0.12962392390E+02  0.20646513167E+02  0.85257523248E+02  0.88674389723E+02  0.00000000000E+00 0.  1.
</event>
<event>
 4    1  0.2243475E+005  0.4710057E+02  0.7546771E-02  0.1311258E+00
          2   -1    0    0  503    0  0.00000000000E+00  0.00000000000E+00  0.38616846782E+03  0.38616846782E+03  0.00000000000E+00 0.  1.
         21   -1    0    0  501  502 -0.00000000000E+00 -0.00000000000E+00 -0.97087853105E+01  0.97087853105E+01  0.00000000000E+00 0. -1.
          2    1    1    2  501    0 -0.34592597845E+02 -0.31965856577E+02  0.31470745646E+03  0.31821258141E+03  0.00000000000E+00 0.  1.
         21    1    1    2  503  502  0.34592597845E+02  0.31965856577E+02  0.61752226053E+02  0.77664671729E+02  0.00000000000E+00 0. -1.
</event>
<event>
 4    1  0.2243475E+005  0.2460729E+02  0.7546771E-02  0.1473245E+00
          2   -1    0    0  503    0  0.00000000000E+00  0.00000000000E+00  0.17693606606E+04  0.17693606606E+04  0.00000000000E+00 0.  1.
         21   -1    0    0  501  502 -0.00000000000E+00 -0.00000000000E+00 -0.67189842915E+00  0.67189842915E+00  0.00000000000E+00 0.  1.
          2    1    1    2  501    0  0.21127871550E+02 -0.12614751079E+02  0.15042729122E+04  0.15044741651E+04  0.00000000000E+00 0.  1.
         21    1    1    2  503  502 -0.21127871550E+02  0.12614751079E+02  0.26441584994E+03  0.26555839396E+03  0.00000000000E+00 0.  1.
</event>
<event>
 4    1  0.2243475E+005  0.2200219E+02  0.7546771E-02  0.1505423E+00
          2   -1    0    0  503    0  0.00000000000E+00  0.00000000000E+00  0.20101348627E+03  0.20101348627E+03  0.00000000000E+00 0. -1.
         21   -1    0    0  501  502 -0.00000000000E+00 -0.00000000000E+00 -0.13975126856E+02  0.13975126856E+02  0.00000000000E+00 0. -1.
          2    1    1    2  501    0 -0.30258449744E+01  0.21793137095E+02  0.19131382914E+03  0.19257486280E+03  0.00000000000E+00 0. -1.
         21    1    1    2  503  502  0.30258449744E+01 -0.21793137095E+02 -0.42754697280E+01  0.22413750325E+02  0.00000000000E+00 0. -1.
</event>
<event>
 4    1  0.2243475E+005  0.3715511E+02  0.7546771E-02  0.1366015E+00
          2   -1    0    0  503    0  0.00000000000E+00  0.00000000000E+00  0.17839062195E+04  0.17839062195E+04  0.00000000000E+00 0. -1.
         21   -1    0    0  501  502 -0.00000000000E+00 -0.00000000000E+00 -0.81077960559E+00  0.81077960559E+00  0.00000000000E+00 0. -1.
          2    1    1    2  501    0 -0.34619404802E+02  0.13490692815E+02  0.70113802012E+03  0.70212180229E+03  0.00000000000E+00 0. -1.
         21    1    1    2  503  502  0.34619404802E+02 -0.13490692815E+02  0.10819574198E+04  0.10825951969E+04  0.00000000000E+00 0. -1.
</event>
<event>
 4    1  0.2243475E+005  0.2236087E+02  0.7546771E-02  0.1500684E+00
          2   -1    0    0  503    0  0.00000000000E+00  0.00000000000E+00  0.12926482892E+04  0.12926482892E+04  0.00000000000E+00 0. -1.
         21   -1    0    0  501  502 -0.00000000000E+00 -0.00000000000E+00 -0.99774270386E+02  0.99774270386E+02  0.00000000000E+00 0.  1.
          2    1    1    2  501    0  0.22113361167E+02 -0.33177976894E+01  0.12912974270E+04  0.12914910195E+04  0.00000000000E+00 0. -1.
         21    1    1    2  503  502 -0.22113361167E+02  0.33177976894E+01 -0.98423408129E+02  0.10093154012E+03  0.00000000000E+00 0.  1.
</event>
<event>
 4    1  0.2243475E+005  0.3022323E+02  0.7546771E-02  0.1417666E+00
          2   -1    0    0  503    0  0.00000000000E+00  0.00000000000E+00  0.43915114813E+02  0.43915114813E+02  0.00000000000E+00 0. -1.
         21   -1    0    0  501  502 -0.00000000000E+00 -0.00000000000E+00 -0.30430054809E+02  0.30430054809E+02  0.00000000000E+00 0.  1.
          2    1    1    2  501    0  0.29610111425E+02  0.60568330535E+01  0.27653822468E+02  0.40965568741E+02  0.00000000000E+00 0. -1.
         21    1    1    2  503  502 -0.29610111425E+02 -0.60568330535E+01 -0.14168762463E+02  0.33379600881E+02  0.00000000000E+00 0.  1.
</event>
<event>
 4    1  0.2243475E+005  0.2651026E+02  0.7546771E-02  0.1452591E+00
          2   -1    0    0  503    0  0.00000000000E+00  0.00000000000E+00  0.65533915666E+03  0.65533915666E+03  0.00000000000E+00 0. -1.
         21   -1    0    0  501  502 -0.00000000000E+00 -0.00000000000E+00 -0.10437692139E+02  0.10437692139E+02  0.00000000000E+00 0.  1.
          2    1    1    2  501    0  0.22314825208E+02  0.14312315332E+02  0.63777458963E+03  0.63832532534E+03  0.00000000000E+00 0. -1.
         21    1    1    2  503  502 -0.22314825208E+02 -0.14312315332E+02  0.71268748847E+01  0.27451523452E+02  0.00000000000E+00 0.  1.
</event>
<event>
 4    1  0.2243475E+005  0.2199998E+02  0.7546771E-02  0.1505452E+00
          2   -1    0    0  502    0  0.00000000000E+00  0.00000000000E+00  0.76357483593E+03  0.76357483593E+03  0.00000000000E+00 0.  1.
         21   -1    0    0  503  502 -0.00000000000E+00 -0.00000000000E+00 -0.26042448243E+02  0.26042448243E+02  0.00000000000E+00 0.  1.
          2    1    1    2  501    0  0.34140370586E+01  0.21733469215E+02  0.75874051945E+03  0.75905940162E+03  0.00000000000E+00 0.  1.
         21    1    1    2  503  501 -0.34140370586E+01 -0.21733469215E+02 -0.21208131763E+02  0.30557882552E+02  0.00000000000E+00 0.  1.
</event>
<event>
 4    1  0.2243475E+005  0.2909600E+02  0.7546771E-02  0.1427618E+00
          2   -1    0    0  503    0  0.00000000000E+00  0.00000000000E+00  0.77936315481E+03  0.77936315481E+03  0.00000000000E+00 0.  1.
         21   -1    0    0  501  502 -0.00000000000E+00 -0.00000000000E+00 -0.38005025782E+02  0.38005025782E+02  0.00000000000E+00 0. -1.
          2    1    1    2  501    0 -0.29095121411E+02 -0.22577053321E+00  0.77348040565E+03  0.77402746397E+03  0.00000000000E+00 0.  1.
         21    1    1    2  503  502  0.29095121411E+02  0.22577053321E+00 -0.32122276618E+02  0.43340716623E+02  0.00000000000E+00 0. -1.
</event>
<event>
 4    1  0.2243475E+005  0.2493105E+02  0.7546771E-02  0.1469576E+00
          2   -1    0    0  503    0  0.00000000000E+00  0.00000000000E+00  0.42831231430E+03  0.42831231430E+03  0.00000000000E+00 0. -1.
         21   -1    0    0  501  502 -0.00000000000E+00 -0.00000000000E+00 -0.18329281729E+02  0.18329281729E+02  0.00000000000E+00 0.  1.
          2    1    1    2  501    0 -0.15798083103E+02 -0.19286728851E+02  0.41928959415E+03  0.42003014309E+03  0.00000000000E+00 0. -1.
         21    1    1    2  503  502  0.15798083103E+02  0.19286728851E+02 -0.93065615760E+01  0.26611452945E+02  0.00000000000E+00 0.  1.
</event>
<event>
 4    1  0.2243475E+005  0.2163548E+02  0.7546771E-02  0.1510382E+00
          2   -1    0    0  503    0  0.00000000000E+00  0.00000000000E+00  0.96007693236E+01  0.96007693236E+01  0.00000000000E+00 0. -1.
         21   -1    0    0  501  502 -0.00000000000E+00 -0.00000000000E+00 -0.18132944699E+03  0.18132944699E+03  0.00000000000E+00 0. -1.
          2    1    1    2  501    0 -0.20201700023E+02 -0.77450136976E+01 -0.42363723898E+01  0.22046332394E+02  0.00000000000E+00 0. -1.
         21    1    1    2  503  502  0.20201700023E+02  0.77450136976E+01 -0.16749230528E+03  0.16888388392E+03  0.00000000000E+00 0. -1.
</event>
<event>
 4    1  0.2243475E+005  0.3278542E+02  0.7546771E-02  0.1396839E+00
          2   -1    0    0  503    0  0.00000000000E+00  0.00000000000E+00  0.63478736060E+03  0.63478736060E+03  0.00000000000E+00 0.  1.
         21   -1    0    0  501  502 -0.00000000000E+00 -0.00000000000E+00 -0.27967543266E+02  0.27967543266E+02  0.00000000000E+00 0.  1.
          2    1    1    2  501    0 -0.30000401441E+02  0.13223460909E+02  0.62459909991E+03  0.62545896717E+03  0.00000000000E+00 0.  1.
         21    1    1    2  503  502  0.30000401441E+02 -0.13223460909E+02 -0.17779282577E+02  0.37295936695E+02  0.00000000000E+00 0.  1.
</event>
<event>
 4    1  0.2243475E+005  0.2509665E+02  0.7546771E-02  0.1467725E+00
          2   -1    0    0  502    0  0.00000000000E+00  0.00000000000E+00  0.60550898689E+02  0.60550898689E+02  0.00000000000E+00 0. -1.
         21   -1    0    0  503  502 -0.00000000000E+00 -0.00000000000E+00 -0.81962546614E+02  0.81962546614E+02  0.00000000000E+00 0. -1.
          2    1    1    2  501    0  0.92670382356E+01  0.23323037229E+02  0.55875950720E+02  0.61253276909E+02  0.00000000000E+00 0. -1.
         21    1    1    2  503  501 -0.92670382356E+01 -0.23323037229E+02 -0.77287598645E+02  0.81260168395E+02  0.00000000000E+00 0. -1.
</event>
<event>
 4    1  0.2243475E+005  0.2409755E+02  0.7546771E-02  0.1479158E+00
          2   -1    0    0  503    0  0.00000000000E+00  0.00000000000E+00  0.56261961256E+03  0.56261961256E+03  0.00000000000E+00 0. -1.
         21   -1    0    0  501  502 -0.00000000000E+00 -0.00000000000E+00 -0.25887373369E+02  0.25887373369E+02  0.00000000000E+00 0.  1.
          2    1    1    2  501    0 -0.47032811209E+01 -0.23634104748E+02  0.55669405217E+03  0.55721536185E+03  0.00000000000E+00 0. -1.
         21    1    1    2  503  502  0.47032811209E+01  0.23634104748E+02 -0.19961812975E+02  0.31291624083E+02  0.00000000000E+00 0.  1.
</event>
<event>
 4    1  0.2243475E+005  0.4926997E+02  0.7546771E-02  0.1301369E+00
          2   -1    0    0  502    0  0.00000000000E+00  0.00000000000E+00  0.71890074340E+03  0.71890074340E+03  0.00000000000E+00 0.  1.
         21   -1    0    0  503  502 -0.00000000000E+00 -0.00000000000E+00 -0.11348149537E+02  0.11348149537E+02  0.00000000000E+00 0. -1.
          2    1    1    2  501    0  0.10203389183E+02 -0.48201870418E+02  0.65979388003E+03  0.66163093458E+03  0.00000000000E+00 0.  1.
         21    1    1    2  503  501 -0.10203389183E+02  0.48201870418E+02  0.47758713829E+02  0.68617958358E+02  0.00000000000E+00 0. -1.
</event>
<event>
 4    1  0.2243475E+005  0.3819548E+02  0.7546771E-02  0.1359397E+00
          2   -1    0    0  503    0  0.00000000000E+00  0.00000000000E+00  0.20498094365E+04  0.20498094365E+04  0.00000000000E+00 0. -1.
         21   -1    0    0  501  502 -0.00000000000E+00 -0.00000000000E+00 -0.82329202156E+00  0.82329202156E+00  0.00000000000E+00 0. -1.
          2    1    1    2  501    0  0.23183492658E+02 -0.30354905801E+02  0.64704732526E+03  0.64817369259E+03  0.00000000000E+00 0. -1.
         21    1    1    2  503  502 -0.23183492658E+02  0.30354905801E+02  0.14019388193E+04  0.14024590360E+04  0.00000000000E+00 0. -1.
</event>
<event>
 4    1  0.2243475E+005  0.2140973E+02  0.7546771E-02  0.1513495E+00
          2   -1    0    0  503    0  0.00000000000E+00  0.00000000000E+00  0.46378146688E+03  0.46378146688E+03  0.00000000000E+00 0. -1.
         21   -1    0    0  501  502 -0.00000000000E+00 -0.00000000000E+00 -0.14391557257E+01  0.14391557257E+01  0.00000000000E+00 0.  1.
          2    1    1    2  501    0 -0.97859051378E+01  0.19042388319E+02  0.36135940101E+03  0.36199308445E+03  0.00000000000E+00 0. -1.
         21    1    1    2  503  502  0.97859051378E+01 -0.19042388319E+02  0.10098291015E+03  0.10322753816E+03  0.00000000000E+00 0.  1.
</event>
<event>
 4    1  0.2243475E+005  0.3547929E+02  0.7546771E-02  0.1377225E+00
          2   -1    0    0  503    0  0.00000000000E+00  0.00000000000E+00  0.29418508265E+03  0.29418508265E+03  0.00000000000E+00 0. -1.
         21   -1    0    0  501  502 -0.00000000000E+00 -0.00000000000E+00 -0.15421110365E+02  0.15421110365E+02  0.00000000000E+00 0. -1.
          2    1    1    2  501    0  0.29802786703E+02 -0.19250301239E+02  0.27096749110E+03  0.27328037146E+03  0.00000000000E+00 0. -1.
         21    1    1    2  503  502 -0.29802786703E+02  0.19250301239E+02  0.77964811914E+01  0.36325821560E+02  0.00000000000E+00 0. -1.
</event>
<event>
 4    1  0.2243475E+005  0.2311530E+02  0.7546771E-02  0.1491055E+00
          2   -1    0    0  502    0  0.00000000000E+00  0.00000000000E+00  0.13201292990E+04  0.13201292990E+04  0.00000000000E+00 0. -1.
         21   -1    0    0  503  502 -0.00000000000E+00 -0.00000000000E+00 -0.56539502786E+01  0.56539502786E+01  0.00000000000E+00 0.  1.
          2    1    1    2  501    0 -0.99254904637E+01  0.20875866745E+02  0.12959617299E+04  0.12961678605E+04  0.00000000000E+00 0. -1.
         21    1    1    2  503  501  0.99254904637E+01 -0.20875866745E+02  0.18513618885E+02  0.29615388864E+02  0.00000000000E+00 0.  1.
</event>
<event>
 4    1  0.2243475E+005  0.4532233E+02  0.7546771E-02  0.1319835E+00
          2   -1    0    0  502    0  0.00000000000E+00  0.00000000000E+00  0.30915630934E+03  0.30915630934E+03  0.00000000000E+00 0.  1.
         21   -1    0    0  503  502 -0.00000000000E+00 -0.00000000000E+00 -0.23771425692E+02  0.23771425692E+02  0.00000000000E+00 0. -1.
          2    1    1    2  501    0 -0.38723663614E+02 -0.23549758992E+02  0.28399017099E+03  0.28758395381E+03  0.00000000000E+00 0.  1.
         21    1    1    2  503  501  0.38723663614E+02  0.23549758992E+02  0.13947126650E+01  0.45343781224E+02  0.00000000000E+00 0. -1.
</event>
<event>
 4    1  0.2243475E+005  0.3690321E+02  0.7546771E-02  0.1367655E+00
          2   -1    0    0  502    0  0.00000000000E+00  0.00000000000E+00  0.31431932087E+03  0.31431932087E+03  0.00000000000E+00 0. -1.
         21   -1    0    0  503  502 -0.00000000000E+00 -0.00000000000E+00 -0.53273384787E+01  0.53273384787E+01  0.00000000000E+00 0. -1.
          2    1    1    2  501    0  0.24952960546E+02  0.27188169069E+02  0.85436907257E+02  0.93066169465E+02  0.00000000000E+00 0. -1.
         21    1    1    2  503  501 -0.24952960546E+02 -0.27188169069E+02  0.22355507513E+03  0.22658048988E+03  0.00000000000E+00 0. -1.
</event>
<event>
 4    1  0.2243475E+005  0.3968916E+02  0.7546771E-02  0.1350317E+00
          2   -1    0    0  503    0  0.00000000000E+00  0.00000000000E+00  0.38212314112E+03  0.38212314112E+03  0.00000000000E+00 0.  1.
         21   -1    0    0  501  502 -0.00000000000E+00 -0.00000000000E+00 -0.85853713323E+02  0.85853713323E+02  0.00000000000E+00 0. -1.
          2    1    1    2  501    0  0.26098116995E+02  0.29901804323E+02  0.37643650423E+03  0.37852301295E+03  0.00000000000E+00 0.  1.
         21    1    1    2  503  502 -0.26098116995E+02 -0.29901804323E+02 -0.80167076440E+02  0.89453841490E+02  0.00000000000E+00 0. -1.
</event>
<event>
 4    1  0.2243475E+005  0.2130792E+02  0.7546771E-02  0.1514914E+00
          2   -1    0    0  502    0  0.00000000000E+00  0.00000000000E+00  0.14829966012E+03  0.14829966012E+03  0.00000000000E+00 0.  1.
         21   -1    0    0  503  502 -0.00000000000E+00 -0.00000000000E+00 -0.11910076758E+03  0.11910076758E+03  0.00000000000E+00 0. -1.
          2    1    1    2  501    0 -0.21138806718E+02  0.26792295554E+01  0.14657005201E+03  0.14811079490E+03  0.00000000000E+00 0.  1.
         21    1    1    2  503  501  0.21138806718E+02 -0.26792295554E+01 -0.11737115946E+03  0.11928963280E+03  0.00000000000E+00 0. -1.
</event>
<event>
 4    1  0.2243475E+005  0.3187338E+02  0.7546771E-02  0.1403986E+00
          2   -1    0    0  503    0  0.00000000000E+00  0.00000000000E+00  0.19709021445E+04  0.19709021445E+04  0.00000000000E+00 0. -1.
         21   -1    0    0  501  502 -0.00000000000E+00 -0.00000000000E+00 -0.10451505833E+02  0.10451505833E+02  0.00000000000E+00 0.  1.
          2    1    1    2  501    0 -0.16791641996E+01  0.31829113528E+02  0.19461637934E+04  0.19464247797E+04  0.00000000000E+00 0. -1.
         21    1    1    2  503  502  0.16791641996E+01 -0.31829113528E+02  0.14286845273E+02  0.34928870699E+02  0.00000000000E+00 0.  1.
</event>
<event>
 4    1  0.2243475E+005  0.2919855E+02  0.7546771E-02  0.1426691E+00
          2   -1    0    0  503    0  0.00000000000E+00  0.00000000000E+00  0.29199900373E+03  0.29199900373E+03  0.00000000000E+00 0. -1.
         21   -1    0    0  501  502 -0.00000000000E+00 -0.00000000000E+00 -0.16006960500E+02  0.16006960500E+02  0.00000000000E+00 0. -1.
          2    1    1    2  501    0  0.68212459909E+00 -0.29190585527E+02  0.27724714956E+03  0.27878044679E+03  0.00000000000E+00 0. -1.
         21    1    1    2  503  502 -0.68212459909E+00  0.29190585527E+02 -0.12551063293E+01  0.29225517433E+02  0.00000000000E+00 0. -1.
</event>
<event>
 4    1  0.2243475E+005  0.3366930E+02  0.7546771E-02  0.1390168E+00
          2   -1    0    0  502    0  0.00000000000E+00  0.00000000000E+00  0.61703785733E+03  0.61703785733E+03  0.00000000000E+00 0.  1.
         21   -1    0    0  503  502 -0.00000000000E+00 -0.00000000000E+00 -0.57235945401E+03  0.57235945401E+03  0.00000000000E+00 0.  1.
          2    1    1    2  501    0 -0.53498579722E+01  0.33241553784E+02  0.61608263726E+03  0.61700197554E+03  0.00000000000E+00 0.  1.
         21    1    1    2  503  501  0.53498579722E+01 -0.33241553784E+02 -0.57140423394E+03  0.57239533580E+03  0.00000000000E+00 0.  1.
</event>
<event>
 4    1  0.2243475E+005  0.2548078E+02  0.7546771E-02  0.1463496E+00
          2   -1    0    0  503    0  0.00000000000E+00  0.00000000000E+00  0.18159094203E+03  0.18159094203E+03  0.00000000000E+00 0.  1.
         21   -1    0    0  501  502 -0.00000000000E+00 -0.00000000000E+00 -0.56542814263E+02  0.56542814263E+02  0.00000000000E+00 0.  1.
          2    1    1    2  501    0 -0.11168924946E+02  0.22902511309E+02  0.17776490642E+03  0.17958182498E+03  0.00000000000E+00 0.  1.
         21    1    1    2  503  502  0.11168924946E+02 -0.22902511309E+02 -0.52716778654E+02  0.58551931312E+02  0.00000000000E+00 0.  1.
</event>
<event>
 4    1  0.2243475E+005  0.2860507E+02  0.7546771E-02  0.1432119E+00
          2   -1    0    0  502    0  0.00000000000E+00  0.00000000000E+00  0.87071778998E+03  0.87071778998E+03  0.00000000000E+00 0.  1.
         21   -1    0    0  503  502 -0.00000000000E+00 -0.00000000000E+00 -0.94315812546E+00  0.94315812546E+00  0.00000000000E+00 0.  1.
          2    1    1    2  501    0  0.15027847406E+02 -0.24339555928E+02  0.40865813540E+03  0.40965805474E+03  0.00000000000E+00 0.  1.
         21    1    1    2  503  501 -0.15027847406E+02  0.24339555928E+02  0.46111649645E+03  0.46200289337E+03  0.00000000000E+00 0.  1.
</event>
<event>
 4    1  0.2243475E+005  0.3925330E+02  0.7546771E-02  0.1352918E+00
          2   -1    0    0  503    0  0.00000000000E+00  0.00000000000E+00  0.54823670142E+03  0.54823670142E+03  0.00000000000E+00 0.  1.
         21   -1    0    0  501  502 -0.00000000000E+00 -0.00000000000E+00 -0.10271785608E+02  0.10271785608E+02  0.00000000000E+00 0. -1.
          2    1    1    2  501    0  0.17667392312E+02  0.35052606203E+02  0.50698604189E+03  0.50850336147E+03  0.00000000000E+00 0.  1.
         21    1    1    2  503  502 -0.17667392312E+02 -0.35052606203E+02  0.30978873920E+02  0.50005125558E+02  0.00000000000E+00 0. -1.
</event>
<event>
 4    1  0.2243475E+005  0.2796909E+02  0.7546771E-02  0.1438109E+00
          2   -1    0    0  502    0  0.00000000000E+00  0.00000000000E+00  0.49742863784E+02  0.49742863784E+02  0.00000000000E+00 0. -1.
         21   -1    0    0  503  502 -0.00000000000E+00 -0.00000000000E+00 -0.88324360109E+02  0.88324360109E+02  0.00000000000E+00 0. -1.
          2    1    1    2  501    0 -0.25074353562E+02 -0.12391394693E+02  0.43296078930E+02  0.51544352937E+02  0.00000000000E+00 0. -1.
         21    1    1    2  503  501  0.25074353562E+02  0.12391394693E+02 -0.81877575255E+02  0.86522870957E+02  0.00000000000E+00 0. -1.
</event>
<event>
 4    1  0.2243475E+005  0.3336741E+02  0.7546771E-02  0.1392419E+00
          2   -1    0    0  503    0  0.00000000000E+00  0.00000000000E+00  0.23855863832E+04  0.23855863832E+04  0.00000000000E+00 0. -1.
         21   -1    0    0  501  502 -0.00000000000E+00 -0.00000000000E+00 -0.63318177074E+01  0.63318177074E+01  0.00000000000E+00 0.  1.
          2    1    1    2  501    0  0.32725256582E+02 -0.65147411504E+01  0.23406662058E+04  0.23409040286E+04  0.00000000000E+00 0. -1.
         21    1    1    2  503  502 -0.32725256582E+02  0.65147411504E+01  0.38588359732E+02  0.51014172319E+02  0.00000000000E+00 0.  1.
</event>
<event>
 4    1  0.2243475E+005  0.2670312E+02  0.7546771E-02  0.1450613E+00
          2   -1    0    0  503    0  0.00000000000E+00  0.00000000000E+00  0.27677382594E+03  0.27677382594E+03  0.00000000000E+00 0. -1.
         21   -1    0    0  501  502 -0.00000000000E+00 -0.00000000000E+00 -0.92315368414E+01  0.92315368414E+01  0.00000000000E+00 0.  1.
          2    1    1    2  501    0  0.17651651121E+02  0.20036865588E+02  0.25519063911E+03  0.25658394155E+03  0.00000000000E+00 0. -1.
         21    1    1    2  503  502 -0.17651651121E+02 -0.20036865588E+02  0.12351649983E+02  0.29421421230E+02  0.00000000000E+00 0.  1.
</event>
<event>
 4    1  0.2243475E+005  0.2227205E+02  0.7546771E-02  0.1501847E+00
          2   -1    0    0  502    0  0.00000000000E+00  0.00000000000E+00  0.16103201409E+03  0.16103201409E+03  0.00000000000E+00 0.  1.
         21   -1    0    0  503  502 -0.00000000000E+00 -0.00000000000E+00 -0.63022651268E+01  0.63022651268E+01  0.00000000000E+00 0.  1.
          2    1    1    2  501    0 -0.70103922833E+01  0.21139972036E+02  0.13718672536E+03  0.13898288252E+03  0.00000000000E+00 0.  1.
         21    1    1    2  503  501  0.70103922833E+01 -0.21139972036E+02  0.17543023601E+02  0.28351396698E+02  0.00000000000E+00 0.  1.
</event>
<event>
 4    1  0.2243475E+005  0.2993263E+02  0.7546771E-02  0.1420183E+00
          2   -1    0    0  503    0  0.00000000000E+00  0.00000000000E+00  0.16477157402E+03  0.16477157402E+03  0.00000000000E+00 0.  1.
         21   -1    0    0  501  502 -0.00000000000E+00 -0.00000000000E+00 -0.16891611448E+02  0.16891611448E+02  0.00000000000E+00 0.  1.
          2    1    1    2  501    0  0.26428915879E+02 -0.14052570430E+02  0.14873628671E+03  0.15171830909E+03  0.00000000000E+00 0.  1.
         21    1    1    2  503  502 -0.26428915879E+02  0.14052570430E+02 -0.85632413412E+00  0.29944876378E+02  0.00000000000E+00 0.  1.
</event>
<event>
 4    1  0.2243475E+005  0.2076274E+02  0.7546771E-02  0.1522679E+00
          2   -1    0    0  502    0  0.00000000000E+00  0.00000000000E+00  0.76734722585E+03  0.76734722585E+03  0.00000000000E+00 0.  1.
         21   -1    0    0  503  502 -0.00000000000E+00 -0.00000000000E+00 -0.27762637224E+01  0.27762637224E+01  0.00000000000E+00 0.  1.
          2    1    1    2  501    0  0.18903654608E+02 -0.85873892062E+01  0.72618759448E+03  0.72648435206E+03  0.00000000000E+00 0.  1.
         21    1    1    2  503  501 -0.18903654608E+02  0.85873892062E+01  0.38383367650E+02  0.43639137515E+02  0.00000000000E+00 0.  1.
</event>
<event>
 4    1  0.2243475E+005  0.3594410E+02  0.7546771E-02  0.1374045E+00
          2   -1    0    0  502    0  0.00000000000E+00  0.00000000000E+00  0.17701010073E+04  0.17701010073E+04  0.00000000000E+00 0. -1.
         21   -1    0    0  503  502 -0.00000000000E+00 -0.00000000000E+00 -0.27161884851E+02  0.27161884851E+02  0.00000000000E+00 0.  1.
          2    1    1    2  501    0 -0.12518671798E+02 -0.33693640652E+02  0.17579448478E+04  0.17583122778E+04  0.00000000000E+00 0. -1.
         21    1    1    2  503  501  0.12518671798E+02  0.33693640652E+02 -0.15005725318E+02  0.38950614325E+02  0.00000000000E+00 0.  1.
</event>
<event>
 4    1  0.2243475E+005  0.2110955E+02  0.7546771E-02  0.1517706E+00
          2   -1    0    0  503    0  0.00000000000E+00  0.00000000000E+00  0.10118471767E+02  0.10118471767E+02  0.00000000000E+00 0.  1.
         21   -1    0    0  501  502 -0.00000000000E+00 -0.00000000000E+00 -0.70006777390E+02  0.70006777390E+02  0.00000000000E+00 0.  1.
          2    1    1    2  501    0  0.17005506762E+02  0.12507027955E+02 -0.55445874141E+01  0.21825568906E+02  0.00000000000E+00 0.  1.
         21    1    1    2  503  502 -0.17005506762E+02 -0.12507027955E+02 -0.54343718209E+02  0.58299680250E+02  0.00000000000E+00 0.  1.
</event>
<event>
 4    1  0.2243475E+005  0.2123250E+02  0.7546771E-02  0.1515971E+00
          2   -1    0    0  503    0  0.00000000000E+00  0.00000000000E+00  0.37413922011E+03  0.37413922011E+03  0.00000000000E+00 0. -1.
         21   -1    0    0  501  502 -0.00000000000E+00 -0.00000000000E+00 -0.15654135880E+01  0.15654135880E+01  0.00000000000E+00 0. -1.
          2    1    1    2  501    0  0.44062724443E+00  0.21227925087E+02  0.27643008096E+03  0.27724431214E+03  0.00000000000E+00 0. -1.
         21    1    1    2  503  502 -0.44062724443E+00 -0.21227925087E+02  0.96143725560E+02  0.98460321554E+02  0.00000000000E+00 0. -1.
</event>
<event>
 4    1  0.2243475E+005  0.2574728E+02  0.7546771E-02  0.1460615E+00
          2   -1    0    0  502    0  0.00000000000E+00  0.00000000000E+00  0.16358674886E+04  0.16358674886E+04  0.00000000000E+00 0.  1.
         21   -1    0    0  503  502 -0.00000000000E+00 -0.00000000000E+00 -0.20271051842E+01  0.20271051842E+01  0.00000000000E+00 0. -1.
          2    1    1    2  501    0  0.12175428196E+02 -0.22686590557E+02  0.15494493232E+04  0.15496632304E+04  0.00000000000E+00 0.  1.
         21    1    1    2  503  501 -0.12175428196E+02  0.22686590557E+02  0.84391060206E+02  0.88231363389E+02  0.00000000000E+00 0. -1.
</event>
<event>
 4    1  0.2243475E+005  0.4583262E+02  0.7546771E-02  0.1317328E+00
          2   -1    0    0  502    0  0.00000000000E+00  0.00000000000E+00  0.13025458180E+02  0.13025458180E+02  0.00000000000E+00 0.  1.
         21   -1    0    0  503  502 -0.00000000000E+00 -0.00000000000E+00 -0.93811155589E+03  0.93811155589E+03  0.00000000000E+00 0. -1.
          2    1    1    2  501    0 -0.36211314554E+02 -0.28095717811E+02 -0.29778387892E+02  0.54656939600E+02  0.00000000000E+00 0.  1.
         21    1    1    2  503  501  0.36211314554E+02  0.28095717811E+02 -0.89530770982E+03  0.89648007447E+03  0.00000000000E+00 0. -1.
</event>
<event>
 4    1  0.2243475E+005  0.2609391E+02  0.7546771E-02  0.1456929E+00
          2   -1    0    0  502    0  0.00000000000E+00  0.00000000000E+00  0.17111721589E+04  0.17111721589E+04  0.00000000000E+00 0.  1.
         21   -1    0    0  503  502 -0.00000000000E+00 -0.00000000000E+00 -0.25958393740E+02  0.25958393740E+02  0.00000000000E+00 0.  1.
          2    1    1    2  501    0  0.17762116329E+01 -0.26033383329E+02  0.17044894413E+04  0.17046891644E+04  0.00000000000E+00 0.  1.
         21    1    1    2  503  501 -0.17762116329E+01  0.26033383329E+02 -0.19275676142E+02  0.32441388164E+02  0.00000000000E+00 0.  1.
</event>
<event>
 4    1  0.2243475E+005  0.2444122E+02  0.7546771E-02  0.1475152E+00
          2   -1    0    0  502    0  0.00000000000E+00  0.00000000000E+00  0.36932667098E+03  0.36932667098E+03  0.00000000000E+00 0. -1.
         21   -1    0    0  503  502 -0.00000000000E+00 -0.00000000000E+00 -0.17497348920E+02  0.17497348920E+02  0.00000000000E+00 0. -1.
          2    1    1    2  501    0 -0.55785682306E+01  0.23796068798E+02  0.36017037335E+03  0.36099871351E+03  0.00000000000E+00 0. -1.
         21    1    1    2  503  501  0.55785682306E+01 -0.23796068798E+02 -0.83410512892E+01  0.25825306394E+02  0.00000000000E+00 0. -1.
</event>
<event>
 4    1  0.2243475E+005  0.8222095E+02  0.7546771E-02  0.1198783E+00
          2   -1    0    0  503    0  0.00000000000E+00  0.00000000000E+00  0.14652131878E+03  0.14652131878E+03  0.00000000000E+00 0.  1.
         21   -1    0    0  501  502 -0.00000000000E+00 -0.00000000000E+00 -0.54231993324E+03  0.54231993324E+03  0.00000000000E+00 0. -1.
          2    1    1    2  501    0  0.55731031085E+02 -0.60451115831E+02  0.13154468242E+03  0.15512668598E+03  0.00000000000E+00 0.  1.
         21    1    1    2  503  502 -0.55731031085E+02  0.60451115831E+02 -0.52734329688E+03  0.53371456603E+03  0.00000000000E+00 0. -1.
</event>
<event>
 4    1  0.2243475E+005  0.2034244E+02  0.7546771E-02  0.1528864E+00
          2   -1    0    0  503    0  0.00000000000E+00  0.00000000000E+00  0.50179074892E+02  0.50179074892E+02  0.00000000000E+00 0. -1.
         21   -1    0    0  501  502 -0.00000000000E+00 -0.00000000000E+00 -0.82490956096E+02  0.82490956096E+02  0.00000000000E+00 0. -1.
          2    1    1    2  501    0 -0.27687135612E+00  0.20340559902E+02  0.46775968465E+02  0.51007903904E+02  0.00000000000E+00 0. -1.
         21    1    1    2  503  502  0.27687135612E+00 -0.20340559902E+02 -0.79087849668E+02  0.81662127085E+02  0.00000000000E+00 0. -1.
</event>
<event>
 4    1  0.2243475E+005  0.3130142E+02  0.7546771E-02  0.1408614E+00
          2   -1    0    0  502    0  0.00000000000E+00  0.00000000000E+00  0.37663930573E+03  0.37663930573E+03  0.00000000000E+00 0.  1.
         21   -1    0    0  503  502 -0.00000000000E+00 -0.00000000000E+00 -0.50221593590E+01  0.50221593590E+01  0.00000000000E+00 0. -1.
          2    1    1    2  501    0  0.29098446672E+02 -0.11535128769E+02  0.31829806364E+03  0.31983345059E+03  0.00000000000E+00 0.  1.
         21    1    1    2  503  501 -0.29098446672E+02  0.11535128769E+02  0.53319082724E+02  0.61828014500E+02  0.00000000000E+00 0. -1.
</event>
<event>
 4    1  0.2243475E+005  0.4037559E+02  0.7546771E-02  0.1346299E+00
          2   -1    0    0  502    0  0.00000000000E+00  0.00000000000E+00  0.26924651143E+04  0.26924651143E+04  0.00000000000E+00 0. -1.
         21   -1    0    0  503  502 -0.00000000000E+00 -0.00000000000E+00 -0.15821021459E+01  0.15821021459E+01  0.00000000000E+00 0.  1.
          2    1    1    2  501    0  0.31753566001E+02 -0.24937912165E+02  0.24037809379E+04  0.24041200024E+04  0.00000000000E+00 0. -1.
         21    1    1    2  503  501 -0.31753566001E+02  0.24937912165E+02  0.28710207426E+03  0.28992721408E+03  0.00000000000E+00 0.  1.
</event>
<event>
 4    1  0.2243475E+005  0.2197720E+02  0.7546771E-02  0.1505757E+00
          2   -1    0    0  502    0  0.00000000000E+00  0.00000000000E+00  0.15950037004E+03  0.15950037004E+03  0.00000000000E+00 0.  1.
         21   -1    0    0  503  502 -0.00000000000E+00 -0.00000000000E+00 -0.60658961260E+01  0.60658961260E+01  0.00000000000E+00 0. -1.
          2    1    1    2  501    0  0.15410964319E+02  0.15668420640E+02  0.13529966155E+03  0.13707295737E+03  0.00000000000E+00 0.  1.
         21    1    1    2  503  501 -0.15410964319E+02 -0.15668420640E+02  0.18134812360E+02  0.28493308792E+02  0.00000000000E+00 0. -1.
</event>
<event>
 4    1  0.2243475E+005  0.2460035E+02  0.7546771E-02  0.1473324E+00
          2   -1    0    0  502    0  0.00000000000E+00  0.00000000000E+00  0.42333916929E+03  0.42333916929E+03  0.00000000000E+00 0.  1.
         21   -1    0    0  503  502 -0.00000000000E+00 -0.00000000000E+00 -0.20168794799E+01  0.20168794799E+01  0.00000000000E+00 0.  1.
          2    1    1    2  501    0  0.13969015017E+02  0.20249533813E+02  0.32543159947E+03  0.32636008171E+03  0.00000000000E+00 0.  1.
         21    1    1    2  503  501 -0.13969015017E+02 -0.20249533813E+02  0.95890690340E+02  0.98995967060E+02  0.00000000000E+00 0.  1.
</event>
<event>
 4    1  0.2243475E+005  0.2972465E+02  0.7546771E-02  0.1422005E+00
          2   -1    0    0  502    0  0.00000000000E+00  0.00000000000E+00  0.12218170582E+04  0.12218170582E+04  0.00000000000E+00 0. -1.
         21   -1    0    0  503  502 -0.00000000000E+00 -0.00000000000E+00 -0.35358655463E+01  0.35358655463E+01  0.00000000000E+00 0. -1.
          2    1    1    2  501    0 -0.97675774319E+00 -0.29708599511E+02  0.11555854772E+04  0.11559677115E+04  0.00000000000E+00 0. -1.
         21    1    1    2  503  501  0.97675774319E+00  0.29708599511E+02  0.62695715450E+02  0.69385212231E+02  0.00000000000E+00 0. -1.
</event>
<event>
 4    1  0.2243475E+005  0.2421111E+02  0.7546771E-02  0.1477826E+00
          2   -1    0    0  502    0  0.00000000000E+00  0.00000000000E+00  0.22240396696E+03  0.22240396696E+03  0.00000000000E+00 0. -1.
         21   -1    0    0  503  502 -0.00000000000E+00 -0.00000000000E+00 -0.55093101603E+01  0.55093101603E+01  0.00000000000E+00 0. -1.
          2    1    1    2  501    0 -0.85172993989E+01  0.22663478323E+02  0.19074910119E+03  0.19227947692E+03  0.00000000000E+00 0. -1.
         21    1    1    2  503  501  0.85172993989E+01 -0.22663478323E+02  0.26145555609E+02  0.35633800202E+02  0.00000000000E+00 0. -1.
</event>
<event>
 4    1  0.2243475E+005  0.2135969E+02  0.7546771E-02  0.1514191E+00
          2   -1    0    0  503    0  0.00000000000E+00  0.00000000000E+00  0.22857221590E+02  0.22857221590E+02  0.00000000000E+00 0.  1.
         21   -1    0    0  501  502 -0.00000000000E+00 -0.00000000000E+00 -0.20046788515E+02  0.20046788515E+02  0.00000000000E+00 0.  1.
          2    1    1    2  501    0  0.44594009157E+01  0.20888992882E+02  0.28145175751E+01  0.21544321511E+02  0.00000000000E+00 0.  1.
         21    1    1    2  503  502 -0.44594009157E+01 -0.20888992882E+02 -0.40844999142E-02  0.21359688594E+02  0.00000000000E+00 0.  1.
</event>
<event>
 4    1  0.2243475E+005  0.2303891E+02  0.7546771E-02  0.1492010E+00
          2   -1    0    0  502    0  0.00000000000E+00  0.00000000000E+00  0.28135471110E+03  0.28135471110E+03  0.00000000000E+00 0. -1.
         21   -1    0    0  503  502 -0.00000000000E+00 -0.00000000000E+00 -0.19068812578E+01  0.19068812578E+01  0.00000000000E+00 0. -1.
          2    1    1    2  501    0 -0.20343327644E+02 -0.10813897207E+02  0.12510159079E+03  0.12720534333E+03  0.00000000000E+00 0. -1.
         21    1    1    2  503  501  0.20343327644E+02  0.10813897207E+02  0.15434623905E+03  0.15605624903E+03  0.00000000000E+00 0. -1.
</event>
<event>
 4    1  0.2243475E+005  0.2656071E+02  0.7546771E-02  0.1452071E+00
          2   -1    0    0  503    0  0.00000000000E+00  0.00000000000E+00  0.65759077308E+03  0.65759077308E+03  0.00000000000E+00 0.  1.
         21   -1    0    0  501  502 -0.00000000000E+00 -0.00000000000E+00 -0.16712193047E+01  0.16712193047E+01  0.00000000000E+00 0. -1.
          2    1    1    2  501    0 -0.16755372901E+02  0.20608949795E+02  0.52520647006E+03  0.52587765452E+03  0.00000000000E+00 0.  1.
         21    1    1    2  503  502  0.16755372901E+02 -0.20608949795E+02  0.13071308372E+03  0.13338433787E+03  0.00000000000E+00 0. -1.
</event>
<event>
 4    1  0.2243475E+005  0.3556866E+02  0.7546771E-02  0.1376609E+00
          2   -1    0    0  502    0  0.00000000000E+00  0.00000000000E+00  0.34346998254E+03  0.34346998254E+03  0.00000000000E+00 0. -1.
         21   -1    0    0  503  502 -0.00000000000E+00 -0.00000000000E+00 -0.30343168256E+02  0.30343168256E+02  0.00000000000E+00 0.  1.
          2    1    1    2  501    0  0.20015215843E+02 -0.29402729611E+02  0.33175872335E+03  0.33365997646E+03  0.00000000000E+00 0. -1.
         21    1    1    2  503  501 -0.20015215843E+02  0.29402729611E+02 -0.18631909064E+02  0.40153174335E+02  0.00000000000E+00 0.  1.
</event>
<event>
 4    1  0.2243475E+005  0.2484373E+02  0.7546771E-02  0.1470559E+00
          2   -1    0    0  503    0  0.00000000000E+00  0.00000000000E+00  0.54808103598E+03  0.54808103598E+03  0.00000000000E+00 0.  1.
         21   -1    0    0  501  502 -0.00000000000E+00 -0.00000000000E+00 -0.13343087017E+02  0.13343087017E+02  0.00000000000E+00 0.  1.
          2    1    1    2  501    0 -0.23981669139E+02  0.64877163019E+01  0.53597417926E+03  0.53654965451E+03  0.00000000000E+00 0.  1.
         21    1    1    2  503  502  0.23981669139E+02 -0.64877163019E+01 -0.12362302935E+01  0.24874468494E+02  0.00000000000E+00 0.  1.
</event>
<event>
 4    1  0.2243475E+005  0.2279323E+02  0.7546771E-02  0.1495111E+00
          2   -1    0    0  502    0  0.00000000000E+00  0.00000000000E+00  0.24916862786E+03  0.24916862786E+03  0.00000000000E+00 0. -1.
         21   -1    0    0  503  502 -0.00000000000E+00 -0.00000000000E+00 -0.47404211084E+01  0.47404211084E+01  0.00000000000E+00 0.  1.
          2    1    1    2  501    0 -0.10569908138E+00  0.22792984839E+02  0.21723116266E+03  0.21842369231E+03  0.00000000000E+00 0. -1.
         21    1    1    2  503  501  0.10569908138E+00 -0.22792984839E+02  0.27197044096E+02  0.35485356666E+02  0.00000000000E+00 0.  1.
</event>
<event>
 4    1  0.2243475E+005  0.2913132E+02  0.7546771E-02  0.1427298E+00
          2   -1    0    0  503    0  0.00000000000E+00  0.00000000000E+00  0.16938383915E+03  0.16938383915E+03  0.00000000000E+00 0.  1.
         21   -1    0    0  501  502 -0.00000000000E+00 -0.00000000000E+00 -0.65391865472E+02  0.65391865472E+02  0.00000000000E+00 0. -1.
          2    1    1    2  501    0 -0.13818357060E+02  0.25645399924E+02  0.16479729119E+03  0.16735226533E+03  0.00000000000E+00 0.  1.
         21    1    1    2  503  502  0.13818357060E+02 -0.25645399924E+02 -0.60805317506E+02  0.67423439293E+02  0.00000000000E+00 0. -1.
</event>
<event>
 4    1  0.2243475E+005  0.2560701E+02  0.7546771E-02  0.1462126E+00
          2   -1    0    0  502    0  0.00000000000E+00  0.00000000000E+00  0.16516008210E+03  0.16516008210E+03  0.00000000000E+00 0.  1.
         21   -1    0    0  503  502 -0.00000000000E+00 -0.00000000000E+00 -0.47717052355E+01  0.47717052355E+01  0.00000000000E+00 0. -1.
          2    1    1    2  501    0 -0.24975612311E+01 -0.25484920426E+02  0.11501671778E+03  0.11783278130E+03  0.00000000000E+00 0.  1.
         21    1    1    2  503  501  0.24975612311E+01  0.25484920426E+02  0.45371659082E+02  0.52099006028E+02  0.00000000000E+00 0. -1.
</event>
<event>
 4    1  0.2243475E+005  0.2496113E+02  0.7546771E-02  0.1469239E+00
          2   -1    0    0  503    0  0.00000000000E+00  0.00000000000E+00  0.58514621464E+02  0.58514621464E+02  0.00000000000E+00 0.  1.
         21   -1    0    0  501  502 -0.00000000000E+00 -0.00000000000E+00 -0.12450439588E+02  0.12450439588E+02  0.00000000000E+00 0.  1.
          2    1    1    2  501    0  0.52926851439E+01  0.24393558148E+02  0.95311538753E+01  0.26718927549E+02  0.00000000000E+00 0.  1.
         21    1    1    2  503  502 -0.52926851439E+01 -0.24393558148E+02  0.36533028001E+02  0.44246133504E+02  0.00000000000E+00 0.  1.
</event>
<event>
 4    1  0.2243475E+005  0.2433844E+02  0.7546771E-02  0.1476342E+00
          2   -1    0    0  503    0  0.00000000000E+00  0.00000000000E+00  0.20322386491E+02  0.20322386491E+02  0.00000000000E+00 0. -1.
         21   -1    0    0  501  502 -0.00000000000E+00 -0.00000000000E+00 -0.31504902399E+02  0.31504902399E+02  0.00000000000E+00 0.  1.
          2    1    1    2  501    0 -0.17247179173E+02  0.17172491305E+02  0.14963203281E+01  0.24384392991E+02  0.00000000000E+00 0. -1.
         21    1    1    2  503  502  0.17247179173E+02 -0.17172491305E+02 -0.12678836236E+02  0.27442895899E+02  0.00000000000E+00 0.  1.
</event>
<event>
 4    1  0.2243475E+005  0.2448770E+02  0.7546771E-02  0.1474617E+00
          2   -1    0    0  503    0  0.00000000000E+00  0.00000000000E+00  0.94427755147E+03  0.94427755147E+03  0.00000000000E+00 0.  1.
         21   -1    0    0  501  502 -0.00000000000E+00 -0.00000000000E+00 -0.27581259309E+02  0.27581259309E+02  0.00000000000E+00 0. -1.
          2    1    1    2  501    0 -0.23568165152E+02  0.66474945665E+01  0.93865093654E+03  0.93897030212E+03  0.00000000000E+00 0.  1.
         21    1    1    2  503  502  0.23568165152E+02 -0.66474945665E+01 -0.21954644374E+02  0.32888508666E+02  0.00000000000E+00 0. -1.
</event>
<event>
 4    1  0.2243475E+005  0.2065330E+02  0.7546771E-02  0.1524273E+00
          2   -1    0    0  502    0  0.00000000000E+00  0.00000000000E+00  0.33179546966E+03  0.33179546966E+03  0.00000000000E+00 0. -1.
         21   -1    0    0  503  502 -0.00000000000E+00 -0.00000000000E+00 -0.74887254565E+03  0.74887254565E+03  0.00000000000E+00 0. -1.
          2    1    1    2  501    0  0.11111157893E+02 -0.17409796735E+02  0.33133146813E+03  0.33197454816E+03  0.00000000000E+00 0. -1.
         21    1    1    2  503  501 -0.11111157893E+02  0.17409796735E+02 -0.74840854412E+03  0.74869346716E+03  0.00000000000E+00 0. -1.
</event>
<event>
 4    1  0.2243475E+005  0.2812811E+02  0.7546771E-02  0.1436594E+00
          2   -1    0    0  503    0  0.00000000000E+00  0.00000000000E+00  0.55366179734E+02  0.55366179734E+02  0.00000000000E+00 0.  1.
         21   -1    0    0  501  502 -0.00000000000E+00 -0.00000000000E+00 -0.30291213391E+02  0.30291213391E+02  0.00000000000E+00 0.  1.
          2    1    1    2  501    0  0.24932174297E+02 -0.13022181403E+02  0.43665472224E+02  0.51940966378E+02  0.00000000000E+00 0.  1.
         21    1    1    2  503  502 -0.24932174297E+02  0.13022181403E+02 -0.18590505881E+02  0.33716426747E+02  0.00000000000E+00 0.  1.
</event>
<event>
 4    1  0.2243475E+005  0.2601451E+02  0.7546771E-02  0.1457767E+00
          2   -1    0    0  503    0  0.00000000000E+00  0.00000000000E+00  0.23471956467E+02  0.23471956467E+02  0.00000000000E+00 0. -1.
         21   -1    0    0  501  502 -0.00000000000E+00 -0.00000000000E+00 -0.40265595393E+02  0.40265595393E+02  0.00000000000E+00 0.  1.
          2    1    1    2  501    0  0.28292434120E+01  0.25860200286E+02  0.85848633715E+01  0.27394423817E+02  0.00000000000E+00 0. -1.
         21    1    1    2  503  502 -0.28292434120E+01 -0.25860200286E+02 -0.25378502298E+02  0.36343128044E+02  0.00000000000E+00 0.  1.
</event>
<event>
 4    1  0.2243475E+005  0.2221072E+02  0.7546771E-02  0.1502654E+00
          2   -1    0    0  503    0  0.00000000000E+00  0.00000000000E+00  0.35116814277E+02  0.35116814277E+02  0.00000000000E+00 0.  1.
         21   -1    0    0  501  502 -0.00000000000E+00 -0.00000000000E+00 -0.16535721777E+02  0.16535721777E+02  0.00000000000E+00 0.  1.
          2    1    1    2  501    0  0.10773574193E+02  0.19422823965E+02  0.19308140690E+02  0.29429921655E+02  0.00000000000E+00 0.  1.
         21    1    1    2  503  502 -0.10773574193E+02 -0.19422823965E+02 -0.72704819012E+00  0.22222614400E+02  0.00000000000E+00 0.  1.
</event>
<event>
 4    1  0.2243475E+005  0.3063478E+02  0.7546771E-02  0.1414159E+00
          2   -1    0    0  502    0  0.00000000000E+00  0.00000000000E+00  0.18261915946E+03  0.18261915946E+03  0.00000000000E+00 0. -1.
         21   -1    0    0  503  502 -0.00000000000E+00 -0.00000000000E+00 -0.20386270173E+02  0.20386270173E+02  0.00000000000E+00 0.  1.
          2    1    1    2  501    0  0.20052863910E+02 -0.23159709038E+02  0.16889816109E+03  0.17165394925E+03  0.00000000000E+00 0. -1.
         21    1    1    2  503  501 -0.20052863910E+02  0.23159709038E+02 -0.66652718060E+01  0.31351480379E+02  0.00000000000E+00 0.  1.
</event>
<event>
 4    1  0.2243475E+005  0.4236478E+02  0.7546771E-02  0.1335159E+00
          2   -1    0    0  503    0  0.00000000000E+00  0.00000000000E+00  0.52055066451E+03  0.52055066451E+03  0.00000000000E+00 0.  1.
         21   -1    0    0  501  502 -0.00000000000E+00 -0.00000000000E+00 -0.52053848078E+03  0.52053848078E+03  0.00000000000E+00 0. -1.
          2    1    1    2  501    0 -0.18468546025E+02  0.38127253242E+02  0.51882386091E+03  0.52055064430E+03  0.00000000000E+00 0.  1.
         21    1    1    2  503  502  0.18468546025E+02 -0.38127253242E+02 -0.51881167718E+03  0.52053850099E+03  0.00000000000E+00 0. -1.
</event>
<event>
 4    1  0.2243475E+005  0.2015247E+02  0.7546771E-02  0.1531718E+00
          2   -1    0    0  503    0  0.00000000000E+00  0.00000000000E+00  0.19681158485E+04  0.19681158485E+04  0.00000000000E+00 0.  1.
         21   -1    0    0  501  502 -0.00000000000E+00 -0.00000000000E+00 -0.20949769851E+00  0.20949769851E+00  0.00000000000E+00 0.  1.
          2    1    1    2  501    0  0.11945583522E+02  0.16230372051E+02  0.86333008446E+03  0.86356525908E+03  0.00000000000E+00 0.  1.
         21    1    1    2  503  502 -0.11945583522E+02 -0.16230372051E+02  0.11045762663E+04  0.11047600871E+04  0.00000000000E+00 0.  1.
</event>
<event>
 4    1  0.2243475E+005  0.2224259E+02  0.7546771E-02  0.1502234E+00
          2   -1    0    0  503    0  0.00000000000E+00  0.00000000000E+00  0.11784146545E+03  0.11784146545E+03  0.00000000000E+00 0.  1.
         21   -1    0    0  501  502 -0.00000000000E+00 -0.00000000000E+00 -0.43017499975E+01  0.43017499975E+01  0.00000000000E+00 0.  1.
          2    1    1    2  501    0 -0.11716576783E+02 -0.18906465219E+02  0.66241032389E+02  0.69875653633E+02  0.00000000000E+00 0.  1.
         21    1    1    2  503  502  0.11716576783E+02  0.18906465219E+02  0.47298683064E+02  0.52267561815E+02  0.00000000000E+00 0.  1.
</event>
<event>
 4    1  0.2243475E+005  0.2655873E+02  0.7546771E-02  0.1452092E+00
          2   -1    0    0  503    0  0.00000000000E+00  0.00000000000E+00  0.11703513078E+02  0.11703513078E+02  0.00000000000E+00 0.  1.
         21   -1    0    0  501  502 -0.00000000000E+00 -0.00000000000E+00 -0.10894814290E+03  0.10894814290E+03  0.00000000000E+00 0. -1.
          2    1    1    2  501    0 -0.16219536904E+02 -0.21030754562E+02 -0.82984478196E+01  0.27824993280E+02  0.00000000000E+00 0.  1.
         21    1    1    2  503  502  0.16219536904E+02  0.21030754562E+02 -0.88946181998E+02  0.92826662694E+02  0.00000000000E+00 0. -1.
</event>
<event>
 4    1  0.2243475E+005  0.3379698E+02  0.7546771E-02  0.1389224E+00
          2   -1    0    0  502    0  0.00000000000E+00  0.00000000000E+00  0.20101547938E+03  0.20101547938E+03  0.00000000000E+00 0.  1.
         21   -1    0    0  503  502 -0.00000000000E+00 -0.00000000000E+00 -0.19613595380E+03  0.19613595380E+03  0.00000000000E+00 0.  1.
          2    1    1    2  501    0 -0.94934127961E+01  0.32436262027E+02  0.19811783205E+03  0.20097987799E+03  0.00000000000E+00 0.  1.
         21    1    1    2  503  501  0.94934127961E+01 -0.32436262027E+02 -0.19323830647E+03  0.19617155520E+03  0.00000000000E+00 0.  1.
</event>
<event>
 4    1  0.2336924E+005  0.2408930E+02  0.7546771E-02  0.1479255E+00
          2   -1    0    0  503    0  0.00000000000E+00  0.00000000000E+00  0.75710865161E+03  0.75710865161E+03  0.00000000000E+00 0. -1.
         21   -1    0    0  501  502 -0.00000000000E+00 -0.00000000000E+00 -0.26337284605E+03  0.26337284605E+03  0.00000000000E+00 0.  1.
          2    1    1    2  501    0  0.19344818490E+02 -0.14355225336E+02  0.75636566548E+03  0.75674917537E+03  0.00000000000E+00 0. -1.
         21    1    1    2  503  502 -0.19344818490E+02  0.14355225336E+02 -0.26262985992E+03  0.26373232229E+03  0.00000000000E+00 0.  1.
</event>
<event>
 4    1  0.2243475E+005  0.2193791E+02  0.7546771E-02  0.1506284E+00
          2   -1    0    0  502    0  0.00000000000E+00  0.00000000000E+00  0.95441026925E+02  0.95441026925E+02  0.00000000000E+00 0.  1.
         21   -1    0    0  503  502 -0.00000000000E+00 -0.00000000000E+00 -0.54886342443E+03  0.54886342443E+03  0.00000000000E+00 0. -1.
          2    1    1    2  501    0 -0.41811942813E+01 -0.21535773664E+02  0.93957746583E+02  0.96484869673E+02  0.00000000000E+00 0.  1.
         21    1    1    2  503  501  0.41811942813E+01  0.21535773664E+02 -0.54738014408E+03  0.54781958168E+03  0.00000000000E+00 0. -1.
</event>
<event>
 4    1  0.2243475E+005  0.2035967E+02  0.7546771E-02  0.1528607E+00
          2   -1    0    0  502    0  0.00000000000E+00  0.00000000000E+00  0.11970694083E+03  0.11970694083E+03  0.00000000000E+00 0.  1.
         21   -1    0    0  503  502 -0.00000000000E+00 -0.00000000000E+00 -0.24820655332E+02  0.24820655332E+02  0.00000000000E+00 0. -1.
          2    1    1    2  501    0 -0.14847324470E+02 -0.13931005625E+02  0.11447687903E+03  0.11627326346E+03  0.00000000000E+00 0.  1.
         21    1    1    2  503  501  0.14847324470E+02  0.13931005625E+02 -0.19590593535E+02  0.28254332707E+02  0.00000000000E+00 0. -1.
</event>
<event>
 4    1  0.2243475E+005  0.4636558E+02  0.7546771E-02  0.1314749E+00
          2   -1    0    0  503    0  0.00000000000E+00  0.00000000000E+00  0.18931859673E+03  0.18931859673E+03  0.00000000000E+00 0. -1.
         21   -1    0    0  501  502 -0.00000000000E+00 -0.00000000000E+00 -0.30469724653E+02  0.30469724653E+02  0.00000000000E+00 0. -1.
          2    1    1    2  501    0 -0.24770513938E+02  0.39194239295E+02  0.16646488634E+03  0.17280140375E+03  0.00000000000E+00 0. -1.
         21    1    1    2  503  502  0.24770513938E+02 -0.39194239295E+02 -0.76160142672E+01  0.46986917626E+02  0.00000000000E+00 0. -1.
</event>
<event>
 4    1  0.2243475E+005  0.2113833E+02  0.7546771E-02  0.1517299E+00
          2   -1    0    0  503    0  0.00000000000E+00  0.00000000000E+00  0.49017716427E+02  0.49017716427E+02  0.00000000000E+00 0. -1.
         21   -1    0    0  501  502 -0.00000000000E+00 -0.00000000000E+00 -0.93034257953E+01  0.93034257953E+01  0.00000000000E+00 0. -1.
          2    1    1    2  501    0 -0.18772639279E+02  0.97168349030E+01  0.15714458233E+02  0.26339572199E+02  0.00000000000E+00 0. -1.
         21    1    1    2  503  502  0.18772639279E+02 -0.97168349030E+01  0.23999832398E+02  0.31981570024E+02  0.00000000000E+00 0. -1.
</event>
<event>
 4    1  0.2243475E+005  0.2540289E+02  0.7546771E-02  0.1464346E+00
          2   -1    0    0  503    0  0.00000000000E+00  0.00000000000E+00  0.33937064585E+02  0.33937064585E+02  0.00000000000E+00 0. -1.
         21   -1    0    0  501  502 -0.00000000000E+00 -0.00000000000E+00 -0.66940738199E+02  0.66940738199E+02  0.00000000000E+00 0.  1.
          2    1    1    2  501    0  0.92454066174E+01 -0.23660714885E+02  0.26176316393E+02  0.36476108788E+02  0.00000000000E+00 0. -1.
         21    1    1    2  503  502 -0.92454066174E+01  0.23660714885E+02 -0.59179990007E+02  0.64401693996E+02  0.00000000000E+00 0.  1.
</event>
<event>
 4    1  0.2243475E+005  0.3194954E+02  0.7546771E-02  0.1403379E+00
          2   -1    0    0  502    0  0.00000000000E+00  0.00000000000E+00  0.10341622778E+02  0.10341622778E+02  0.00000000000E+00 0.  1.
         21   -1    0    0  503  502 -0.00000000000E+00 -0.00000000000E+00 -0.18047376006E+03  0.18047376006E+03  0.00000000000E+00 0. -1.
          2    1    1    2  501    0 -0.58897122719E+01 -0.31401978817E+02 -0.20846222313E+02  0.38148892107E+02  0.00000000000E+00 0.  1.
         21    1    1    2  503  501  0.58897122719E+01  0.31401978817E+02 -0.14928591497E+03  0.15266649073E+03  0.00000000000E+00 0. -1.
</event>
<event>
 4    1  0.2243475E+005  0.4331397E+02  0.7546771E-02  0.1330089E+00
          2   -1    0    0  502    0  0.00000000000E+00  0.00000000000E+00  0.59589819682E+03  0.59589819682E+03  0.00000000000E+00 0. -1.
         21   -1    0    0  503  502 -0.00000000000E+00 -0.00000000000E+00 -0.36680411144E+01  0.36680411144E+01  0.00000000000E+00 0. -1.
          2    1    1    2  501    0 -0.32736850779E+02 -0.28361927497E+02  0.40895421258E+03  0.41124159361E+03  0.00000000000E+00 0. -1.
         21    1    1    2  503  501  0.32736850779E+02  0.28361927497E+02  0.18327594313E+03  0.18832464432E+03  0.00000000000E+00 0. -1.
</event>
<event>
 4    1  0.2243475E+005  0.3094031E+02  0.7546771E-02  0.1411597E+00
          2   -1    0    0  503    0  0.00000000000E+00  0.00000000000E+00  0.69074800395E+03  0.69074800395E+03  0.00000000000E+00 0. -1.
         21   -1    0    0  501  502 -0.00000000000E+00 -0.00000000000E+00 -0.15469905523E+01  0.15469905523E+01  0.00000000000E+00 0. -1.
          2    1    1    2  501    0  0.10973219900E+01 -0.30920848490E+02  0.45630265278E+03  0.45735042792E+03  0.00000000000E+00 0. -1.
         21    1    1    2  503  502 -0.10973219900E+01  0.30920848490E+02  0.23289836062E+03  0.23494456658E+03  0.00000000000E+00 0. -1.
</event>
<event>
 4    1  0.2243475E+005  0.2309376E+02  0.7546771E-02  0.1491324E+00
          2   -1    0    0  502    0  0.00000000000E+00  0.00000000000E+00  0.10821644831E+03  0.10821644831E+03  0.00000000000E+00 0.  1.
         21   -1    0    0  503  502 -0.00000000000E+00 -0.00000000000E+00 -0.29476404557E+02  0.29476404557E+02  0.00000000000E+00 0.  1.
          2    1    1    2  501    0  0.19141311245E+02 -0.12920208996E+02  0.10219802479E+03  0.10477479595E+03  0.00000000000E+00 0.  1.
         21    1    1    2  503  501 -0.19141311245E+02  0.12920208996E+02 -0.23457981035E+02  0.32918056913E+02  0.00000000000E+00 0.  1.
</event>
<event>
 4    1  0.2243475E+005  0.2114503E+02  0.7546771E-02  0.1517204E+00
          2   -1    0    0  503    0  0.00000000000E+00  0.00000000000E+00  0.79790276097E+03  0.79790276097E+03  0.00000000000E+00 0. -1.
         21   -1    0    0  501  502 -0.00000000000E+00 -0.00000000000E+00 -0.60392108933E+00  0.60392108933E+00  0.00000000000E+00 0.  1.
          2    1    1    2  501    0 -0.21142848649E+02 -0.30406191853E+00  0.50587777148E+03  0.50631949615E+03  0.00000000000E+00 0. -1.
         21    1    1    2  503  502  0.21142848649E+02  0.30406191853E+00  0.29142106840E+03  0.29218718591E+03  0.00000000000E+00 0.  1.
</event>
<event>
 4    1  0.2243475E+005  0.2612756E+02  0.7546771E-02  0.1456574E+00
          2   -1    0    0  503    0  0.00000000000E+00  0.00000000000E+00  0.45033286748E+03  0.45033286748E+03  0.00000000000E+00 0.  1.
         21   -1    0    0  501  502 -0.00000000000E+00 -0.00000000000E+00 -0.14220827397E+03  0.14220827397E+03  0.00000000000E+00 0. -1.
          2    1    1    2  501    0 -0.20901781070E+02 -0.15676894558E+02  0.44874958003E+03  0.44950954946E+03  0.00000000000E+00 0.  1.
         21    1    1    2  503  502  0.20901781070E+02  0.15676894558E+02 -0.14062498652E+03  0.14303159200E+03  0.00000000000E+00 0. -1.
</event>
<event>
 4    1  0.2243475E+005  0.3346022E+02  0.7546771E-02  0.1391724E+00
          2   -1    0    0  503    0  0.00000000000E+00  0.00000000000E+00  0.16726325080E+04  0.16726325080E+04  0.00000000000E+00 0.  1.
         21   -1    0    0  501  502 -0.00000000000E+00 -0.00000000000E+00 -0.20490505717E+01  0.20490505717E+01  0.00000000000E+00 0.  1.
          2    1    1    2  501    0 -0.10421936844E+01 -0.33443988612E+02  0.15223876768E+04  0.15227553399E+04  0.00000000000E+00 0.  1.
         21    1    1    2  503  502  0.10421936844E+01  0.33443988612E+02  0.14819578066E+03  0.15192621876E+03  0.00000000000E+00 0.  1.
</event>
<event>
 4    1  0.2243475E+005  0.2619807E+02  0.7546771E-02  0.1455834E+00
          2   -1    0    0  503    0  0.00000000000E+00  0.00000000000E+00  0.10681410360E+04  0.10681410360E+04  0.00000000000E+00 0.  1.
         21   -1    0    0  501  502 -0.00000000000E+00 -0.00000000000E+00 -0.13216072837E+01  0.13216072837E+01  0.00000000000E+00 0. -1.
          2    1    1    2  501    0 -0.20335661691E+02 -0.16516650851E+02  0.91670736737E+03  0.91708164101E+03  0.00000000000E+00 0.  1.
         21    1    1    2  503  502  0.20335661691E+02  0.16516650851E+02  0.15011206139E+03  0.15238100231E+03  0.00000000000E+00 0. -1.
</event>
<event>
 4    1  0.2243475E+005  0.2633640E+02  0.7546771E-02  0.1454390E+00
          2   -1    0    0  503    0  0.00000000000E+00  0.00000000000E+00  0.52471322453E+03  0.52471322453E+03  0.00000000000E+00 0.  1.
         21   -1    0    0  501  502 -0.00000000000E+00 -0.00000000000E+00 -0.71878159018E+02  0.71878159018E+02  0.00000000000E+00 0. -1.
          2    1    1    2  501    0  0.47885645444E+01  0.25897402986E+02  0.52195759137E+03  0.52262159639E+03  0.00000000000E+00 0.  1.
         21    1    1    2  503  502 -0.47885645444E+01 -0.25897402986E+02 -0.69122525852E+02  0.73969787157E+02  0.00000000000E+00 0. -1.
</event>
<event>
 4    1  0.2243475E+005  0.4389646E+02  0.7546771E-02  0.1327050E+00
          2   -1    0    0  502    0  0.00000000000E+00  0.00000000000E+00  0.12925527370E+03  0.12925527370E+03  0.00000000000E+00 0. -1.
         21   -1    0    0  503  502 -0.00000000000E+00 -0.00000000000E+00 -0.20636872518E+02  0.20636872518E+02  0.00000000000E+00 0. -1.
          2    1    1    2  501    0  0.20820755106E+02  0.38644476425E+02  0.93797890738E+02  0.10356130411E+03  0.00000000000E+00 0. -1.
         21    1    1    2  503  501 -0.20820755106E+02 -0.38644476425E+02  0.14820510448E+02  0.46330842117E+02  0.00000000000E+00 0. -1.
</event>
<event>
 4    1  0.2243475E+005  0.2394778E+02  0.7546771E-02  0.1480928E+00
          2   -1    0    0  503    0  0.00000000000E+00  0.00000000000E+00  0.18991546859E+03  0.18991546859E+03  0.00000000000E+00 0.  1.
         21   -1    0    0  501  502 -0.00000000000E+00 -0.00000000000E+00 -0.11525000793E+02  0.11525000793E+02  0.00000000000E+00 0. -1.
          2    1    1    2  501    0  0.17758691122E+02 -0.16066274709E+02  0.17571990077E+03  0.17734424101E+03  0.00000000000E+00 0.  1.
         21    1    1    2  503  502 -0.17758691122E+02  0.16066274709E+02  0.26705670248E+01  0.24096228369E+02  0.00000000000E+00 0. -1.
</event>
<event>
 4    1  0.2243475E+005  0.2335740E+02  0.7546771E-02  0.1488058E+00
          2   -1    0    0  503    0  0.00000000000E+00  0.00000000000E+00  0.11474252464E+04  0.11474252464E+04  0.00000000000E+00 0. -1.
         21   -1    0    0  501  502 -0.00000000000E+00 -0.00000000000E+00 -0.65975389329E+00  0.65975389329E+00  0.00000000000E+00 0. -1.
          2    1    1    2  501    0  0.18526459090E+02 -0.14224575007E+02  0.26999728490E+03  0.27100572332E+03  0.00000000000E+00 0. -1.
         21    1    1    2  503  502 -0.18526459090E+02  0.14224575007E+02  0.87676820758E+03  0.87707927695E+03  0.00000000000E+00 0. -1.
</event>
<event>
 4    1  0.2243475E+005  0.2397602E+02  0.7546771E-02  0.1480593E+00
          2   -1    0    0  503    0  0.00000000000E+00  0.00000000000E+00  0.11947794208E+04  0.11947794208E+04  0.00000000000E+00 0.  1.
         21   -1    0    0  501  502 -0.00000000000E+00 -0.00000000000E+00 -0.86208592016E+00  0.86208592016E+00  0.00000000000E+00 0.  1.
          2    1    1    2  501    0 -0.20539674475E+02  0.12368158505E+02  0.99436110144E+03  0.99465011418E+03  0.00000000000E+00 0.  1.
         21    1    1    2  503  502  0.20539674475E+02 -0.12368158505E+02  0.19955623344E+03  0.20099139254E+03  0.00000000000E+00 0.  1.
</event>
<event>
 4    1  0.2243475E+005  0.2178209E+02  0.7546771E-02  0.1508385E+00
          2   -1    0    0  502    0  0.00000000000E+00  0.00000000000E+00  0.13022550371E+04  0.13022550371E+04  0.00000000000E+00 0.  1.
         21   -1    0    0  503  502 -0.00000000000E+00 -0.00000000000E+00 -0.18218988372E+01  0.18218988372E+01  0.00000000000E+00 0. -1.
          2    1    1    2  501    0 -0.21216519015E+02  0.49314128923E+01  0.12334260885E+04  0.12336184075E+04  0.00000000000E+00 0.  1.
         21    1    1    2  503  501  0.21216519015E+02 -0.49314128923E+01  0.67007049702E+02  0.70458528384E+02  0.00000000000E+00 0. -1.
</event>
<event>
 4    1  0.2243475E+005  0.2750554E+02  0.7546771E-02  0.1442595E+00
          2   -1    0    0  503    0  0.00000000000E+00  0.00000000000E+00  0.65850858099E+01  0.65850858099E+01  0.00000000000E+00 0.  1.
         21   -1    0    0  501  502 -0.00000000000E+00 -0.00000000000E+00 -0.25358011698E+03  0.25358011698E+03  0.00000000000E+00 0. -1.
          2    1    1    2  501    0  0.91555156023E+01  0.25937060012E+02 -0.27295141674E+02  0.38750216864E+02  0.00000000000E+00 0.  1.
         21    1    1    2  503  502 -0.91555156023E+01 -0.25937060012E+02 -0.21969988950E+03  0.22141498593E+03  0.00000000000E+00 0. -1.
</event>
<event>
 4    1  0.2243475E+005  0.2700282E+02  0.7546771E-02  0.1447580E+00
          2   -1    0    0  503    0  0.00000000000E+00  0.00000000000E+00  0.10181939034E+03  0.10181939034E+03  0.00000000000E+00 0.  1.
         21   -1    0    0  501  502 -0.00000000000E+00 -0.00000000000E+00 -0.81014466796E+01  0.81014466796E+01  0.00000000000E+00 0.  1.
          2    1    1    2  501    0  0.23252621993E+02 -0.13728350670E+02  0.65582288742E+02  0.70923822784E+02  0.00000000000E+00 0.  1.
         21    1    1    2  503  502 -0.23252621993E+02  0.13728350670E+02  0.28135654921E+02  0.38997014238E+02  0.00000000000E+00 0.  1.
</event>
<event>
 4    1  0.2243475E+005  0.2116256E+02  0.7546771E-02  0.1516956E+00
          2   -1    0    0  503    0  0.00000000000E+00  0.00000000000E+00  0.69421240107E+02  0.69421240107E+02  0.00000000000E+00 0. -1.
         21   -1    0    0  501  502 -0.00000000000E+00 -0.00000000000E+00 -0.17478193579E+03  0.17478193579E+03  0.00000000000E+00 0. -1.
          2    1    1    2  501    0  0.14227021191E+02  0.15666710371E+02  0.67146651143E+02  0.70402604395E+02  0.00000000000E+00 0. -1.
         21    1    1    2  503  502 -0.14227021191E+02 -0.15666710371E+02 -0.17250734682E+03  0.17380057150E+03  0.00000000000E+00 0. -1.
</event>
<event>
 4    1  0.2243475E+005  0.2083858E+02  0.7546771E-02  0.1521582E+00
          2   -1    0    0  502    0  0.00000000000E+00  0.00000000000E+00  0.73942104392E+03  0.73942104392E+03  0.00000000000E+00 0. -1.
         21   -1    0    0  503  502 -0.00000000000E+00 -0.00000000000E+00 -0.23279502417E+01  0.23279502417E+01  0.00000000000E+00 0.  1.
          2    1    1    2  501    0 -0.80157075198E+01  0.19235251792E+02  0.68924620444E+03  0.68956114799E+03  0.00000000000E+00 0. -1.
         21    1    1    2  503  501  0.80157075198E+01 -0.19235251792E+02  0.47846889237E+02  0.52187846173E+02  0.00000000000E+00 0.  1.
</event>
<event>
 4    1  0.2243475E+005  0.3964330E+02  0.7546771E-02  0.1350589E+00
          2   -1    0    0  503    0  0.00000000000E+00  0.00000000000E+00  0.65241866329E+03  0.65241866329E+03  0.00000000000E+00 0.  1.
         21   -1    0    0  501  502 -0.00000000000E+00 -0.00000000000E+00 -0.38677037427E+01  0.38677037427E+01  0.00000000000E+00 0. -1.
          2    1    1    2  501    0  0.14814020243E+02  0.36771401511E+02  0.52580553283E+03  0.52729787551E+03  0.00000000000E+00 0.  1.
         21    1    1    2  503  502 -0.14814020243E+02 -0.36771401511E+02  0.12274542672E+03  0.12898849152E+03  0.00000000000E+00 0. -1.
</event>
<event>
 4    1  0.2243475E+005  0.4673368E+02  0.7546771E-02  0.1312991E+00
          2   -1    0    0  502    0  0.00000000000E+00  0.00000000000E+00  0.52855095120E+03  0.52855095120E+03  0.00000000000E+00 0. -1.
         21   -1    0    0  503  502 -0.00000000000E+00 -0.00000000000E+00 -0.41324757562E+01  0.41324757562E+01  0.00000000000E+00 0. -1.
          2    1    1    2  501    0  0.31879573123E+02  0.34172062767E+02  0.25974526134E+03  0.26391596739E+03  0.00000000000E+00 0. -1.
         21    1    1    2  503  501 -0.31879573123E+02 -0.34172062767E+02  0.26467321411E+03  0.26876745957E+03  0.00000000000E+00 0. -1.
</event>
<event>
 4    1  0.2243475E+005  0.2114928E+02  0.7546771E-02  0.1517144E+00
          2   -1    0    0  503    0  0.00000000000E+00  0.00000000000E+00  0.99223971217E+02  0.99223971217E+02  0.00000000000E+00 0.  1.
         21   -1    0    0  501  502 -0.00000000000E+00 -0.00000000000E+00 -0.71597513124E+02  0.71597513124E+02  0.00000000000E+00 0.  1.
          2    1    1    2  501    0  0.16919169231E+02  0.12689914840E+02  0.96491456024E+02  0.98782049542E+02  0.00000000000E+00 0.  1.
         21    1    1    2  503  502 -0.16919169231E+02 -0.12689914840E+02 -0.68864997931E+02  0.72039434799E+02  0.00000000000E+00 0.  1.
</event>
<event>
 4    1  0.2243475E+005  0.2182391E+02  0.7546771E-02  0.1507819E+00
          2   -1    0    0  503    0  0.00000000000E+00  0.00000000000E+00  0.36327780911E+03  0.36327780911E+03  0.00000000000E+00 0. -1.
         21   -1    0    0  501  502 -0.00000000000E+00 -0.00000000000E+00 -0.43853626502E+01  0.43853626502E+01  0.00000000000E+00 0. -1.
          2    1    1    2  501    0  0.19406572837E+02 -0.99833822950E+01  0.33336440046E+03  0.33407799462E+03  0.00000000000E+00 0. -1.
         21    1    1    2  503  502 -0.19406572837E+02  0.99833822950E+01  0.25528045998E+02  0.33585177144E+02  0.00000000000E+00 0. -1.
</event>
<event>
 4    1  0.2243475E+005  0.2049161E+02  0.7546771E-02  0.1526649E+00
          2   -1    0    0  502    0  0.00000000000E+00  0.00000000000E+00  0.26508624258E+03  0.26508624258E+03  0.00000000000E+00 0.  1.
         21   -1    0    0  503  502 -0.00000000000E+00 -0.00000000000E+00 -0.37242354962E+01  0.37242354962E+01  0.00000000000E+00 0.  1.
          2    1    1    2  501    0  0.18359731572E+02 -0.91008885212E+01  0.23256942860E+03  0.23347043717E+03  0.00000000000E+00 0.  1.
         21    1    1    2  503  501 -0.18359731572E+02  0.91008885212E+01  0.28792578492E+02  0.35340040909E+02  0.00000000000E+00 0.  1.
</event>
<event>
 4    1  0.2243475E+005  0.3318846E+02  0.7546771E-02  0.1393767E+00
          2   -1    0    0  502    0  0.00000000000E+00  0.00000000000E+00  0.42145020213E+02  0.42145020213E+02  0.00000000000E+00 0.  1.
         21   -1    0    0  503  502 -0.00000000000E+00 -0.00000000000E+00 -0.31860919288E+02  0.31860919288E+02  0.00000000000E+00 0.  1.
          2    1    1    2  501    0  0.10761203784E+02  0.31395384870E+02  0.20828252596E+02  0.39182774330E+02  0.00000000000E+00 0.  1.
         21    1    1    2  503  501 -0.10761203784E+02 -0.31395384870E+02 -0.10544151671E+02  0.34823165170E+02  0.00000000000E+00 0.  1.
</event>
<event>
 4    1  0.2243475E+005  0.8807864E+02  0.7546771E-02  0.1186241E+00
          2   -1    0    0  503    0  0.00000000000E+00  0.00000000000E+00  0.39008396610E+04  0.39008396610E+04  0.00000000000E+00 0. -1.
         21   -1    0    0  501  502 -0.00000000000E+00 -0.00000000000E+00 -0.86110559834E+01  0.86110559834E+01  0.00000000000E+00 0.  1.
          2    1    1    2  501    0  0.79406803375E+02 -0.38110443849E+02  0.36603152456E+04  0.36613748161E+04  0.00000000000E+00 0. -1.
         21    1    1    2  503  502 -0.79406803375E+02  0.38110443849E+02  0.23191335939E+03  0.24807590092E+03  0.00000000000E+00 0.  1.
</event>
<event>
 4    1  0.2243475E+005  0.2516562E+02  0.7546771E-02  0.1466959E+00
          2   -1    0    0  503    0  0.00000000000E+00  0.00000000000E+00  0.24202250586E+03  0.24202250586E+03  0.00000000000E+00 0.  1.
         21   -1    0    0  501  502 -0.00000000000E+00 -0.00000000000E+00 -0.80101176429E+01  0.80101176429E+01  0.00000000000E+00 0. -1.
          2    1    1    2  501    0  0.23187826385E+02  0.97792308575E+01  0.21958977863E+03  0.22102710134E+03  0.00000000000E+00 0.  1.
         21    1    1    2  503  502 -0.23187826385E+02 -0.97792308575E+01  0.14422609590E+02  0.29005522164E+02  0.00000000000E+00 0. -1.
</event>
<event>
 4    1  0.2243475E+005  0.2817609E+02  0.7546771E-02  0.1436139E+00
          2   -1    0    0  503    0  0.00000000000E+00  0.00000000000E+00  0.11571383012E+03  0.11571383012E+03  0.00000000000E+00 0. -1.
         21   -1    0    0  501  502 -0.00000000000E+00 -0.00000000000E+00 -0.20690863704E+03  0.20690863704E+03  0.00000000000E+00 0.  1.
          2    1    1    2  501    0 -0.28170519847E+02  0.56044996297E+00  0.11301684790E+03  0.11647617868E+03  0.00000000000E+00 0. -1.
         21    1    1    2  503  502  0.28170519847E+02 -0.56044996297E+00 -0.20421165482E+03  0.20614628848E+03  0.00000000000E+00 0.  1.
</event>
<event>
 4    1  0.2243475E+005  0.2508572E+02  0.7546771E-02  0.1467847E+00
          2   -1    0    0  503    0  0.00000000000E+00  0.00000000000E+00  0.11020855233E+04  0.11020855233E+04  0.00000000000E+00 0.  1.
         21   -1    0    0  501  502 -0.00000000000E+00 -0.00000000000E+00 -0.64594173764E+00  0.64594173764E+00  0.00000000000E+00 0.  1.
          2    1    1    2  501    0  0.12698673323E+02 -0.21634164333E+02  0.73852096665E+03  0.73894689359E+03  0.00000000000E+00 0.  1.
         21    1    1    2  503  502 -0.12698673323E+02  0.21634164333E+02  0.36291861491E+03  0.36378457144E+03  0.00000000000E+00 0.  1.
</event>
<event>
 4    1  0.2243475E+005  0.3586270E+02  0.7546771E-02  0.1374598E+00
          2   -1    0    0  502    0  0.00000000000E+00  0.00000000000E+00  0.76514469128E+02  0.76514469128E+02  0.00000000000E+00 0.  1.
         21   -1    0    0  503  502 -0.00000000000E+00 -0.00000000000E+00 -0.21801455852E+02  0.21801455852E+02  0.00000000000E+00 0.  1.
          2    1    1    2  501    0  0.32227939765E+02 -0.15731920593E+02  0.38327180691E+01  0.36066926052E+02  0.00000000000E+00 0.  1.
         21    1    1    2  503  501 -0.32227939765E+02  0.15731920593E+02  0.50880295207E+02  0.62248998927E+02  0.00000000000E+00 0.  1.
</event>
<event>
 4    1  0.2243475E+005  0.5776300E+02  0.7546771E-02  0.1267629E+00
          2   -1    0    0  502    0  0.00000000000E+00  0.00000000000E+00  0.52867390217E+03  0.52867390217E+03  0.00000000000E+00 0. -1.
         21   -1    0    0  503  502 -0.00000000000E+00 -0.00000000000E+00 -0.52004824145E+02  0.52004824145E+02  0.00000000000E+00 0. -1.
          2    1    1    2  501    0  0.27517851501E+02 -0.50787125803E+02  0.51048678842E+03  0.51374441646E+03  0.00000000000E+00 0. -1.
         21    1    1    2  503  501 -0.27517851501E+02  0.50787125803E+02 -0.33817710395E+02  0.66934309849E+02  0.00000000000E+00 0. -1.
</event>
<event>
 4    1  0.2243475E+005  0.2218392E+02  0.7546771E-02  0.1503008E+00
          2   -1    0    0  503    0  0.00000000000E+00  0.00000000000E+00  0.28920002088E+03  0.28920002088E+03  0.00000000000E+00 0.  1.
         21   -1    0    0  501  502 -0.00000000000E+00 -0.00000000000E+00 -0.85423385300E+01  0.85423385300E+01  0.00000000000E+00 0. -1.
          2    1    1    2  501    0  0.21820672587E+02  0.39980792434E+01  0.27354936654E+03  0.27444741268E+03  0.00000000000E+00 0.  1.
         21    1    1    2  503  502 -0.21820672587E+02 -0.39980792434E+01  0.71083158118E+01  0.23294946737E+02  0.00000000000E+00 0. -1.
</event>
<event>
 4    1  0.2243475E+005  0.2235363E+02  0.7546771E-02  0.1500778E+00
          2   -1    0    0  502    0  0.00000000000E+00  0.00000000000E+00  0.10634697932E+04  0.10634697932E+04  0.00000000000E+00 0. -1.
         21   -1    0    0  503  502 -0.00000000000E+00 -0.00000000000E+00 -0.59300431266E+00  0.59300431266E+00  0.00000000000E+00 0.  1.
          2    1    1    2  501    0  0.19005544999E+02 -0.11767501912E+02  0.77388196279E+03  0.77420473854E+03  0.00000000000E+00 0. -1.
         21    1    1    2  503  501 -0.19005544999E+02  0.11767501912E+02  0.28899482613E+03  0.28985805901E+03  0.00000000000E+00 0.  1.
</event>
<event>
 4    1  0.2243475E+005  0.3111037E+02  0.7546771E-02  0.1410186E+00
          2   -1    0    0  503    0  0.00000000000E+00  0.00000000000E+00  0.37084867539E+02  0.37084867539E+02  0.00000000000E+00 0.  1.
         21   -1    0    0  501  502 -0.00000000000E+00 -0.00000000000E+00 -0.21217345000E+03  0.21217345000E+03  0.00000000000E+00 0.  1.
          2    1    1    2  501    0 -0.31009517289E+02  0.25029950717E+01  0.29168440558E+02  0.42645668847E+02  0.00000000000E+00 0.  1.
         21    1    1    2  503  502  0.31009517289E+02 -0.25029950717E+01 -0.20425702302E+03  0.20661264870E+03  0.00000000000E+00 0.  1.
</event>
<event>
 4    1  0.2243475E+005  0.2793461E+02  0.7546771E-02  0.1438439E+00
          2   -1    0    0  502    0  0.00000000000E+00  0.00000000000E+00  0.32177547698E+03  0.32177547698E+03  0.00000000000E+00 0. -1.
         21   -1    0    0  503  502 -0.00000000000E+00 -0.00000000000E+00 -0.29329375989E+02  0.29329375989E+02  0.00000000000E+00 0. -1.
          2    1    1    2  501    0  0.93882133173E+01  0.26309769166E+02  0.31436108241E+03  0.31559979822E+03  0.00000000000E+00 0. -1.
         21    1    1    2  503  501 -0.93882133173E+01 -0.26309769166E+02 -0.21914981412E+02  0.35505054755E+02  0.00000000000E+00 0. -1.
</event>
<event>
 4    1  0.2243475E+005  0.5443653E+02  0.7546771E-02  0.1280004E+00
          2   -1    0    0  502    0  0.00000000000E+00  0.00000000000E+00  0.11428489902E+04  0.11428489902E+04  0.00000000000E+00 0.  1.
         21   -1    0    0  503  502 -0.00000000000E+00 -0.00000000000E+00 -0.18688911424E+02  0.18688911424E+02  0.00000000000E+00 0.  1.
          2    1    1    2  501    0 -0.49221864721E+02 -0.23249589599E+02  0.11010567808E+04  0.11024016373E+04  0.00000000000E+00 0.  1.
         21    1    1    2  503  501  0.49221864721E+02  0.23249589599E+02  0.23103298013E+02  0.59136264358E+02  0.00000000000E+00 0.  1.
</event>
<event>
 4    1  0.2243475E+005  0.2217950E+02  0.7546771E-02  0.1503066E+00
          2   -1    0    0  503    0  0.00000000000E+00  0.00000000000E+00  0.26408117723E+02  0.26408117723E+02  0.00000000000E+00 0. -1.
         21   -1    0    0  501  502 -0.00000000000E+00 -0.00000000000E+00 -0.19344441544E+02  0.19344441544E+02  0.00000000000E+00 0. -1.
          2    1    1    2  501    0  0.21088729568E+02  0.68698987108E+01 -0.87069064489E+00  0.22196579135E+02  0.00000000000E+00 0. -1.
         21    1    1    2  503  502 -0.21088729568E+02 -0.68698987108E+01  0.79343668245E+01  0.23555980132E+02  0.00000000000E+00 0. -1.
</event>
<event>
 4    1  0.2243475E+005  0.2853764E+02  0.7546771E-02  0.1432745E+00
          2   -1    0    0  502    0  0.00000000000E+00  0.00000000000E+00  0.23772020121E+02  0.23772020121E+02  0.00000000000E+00 0.  1.
         21   -1    0    0  503  502 -0.00000000000E+00 -0.00000000000E+00 -0.76587585061E+02  0.76587585061E+02  0.00000000000E+00 0.  1.
          2    1    1    2  501    0  0.52906596806E+01 -0.28042927739E+02  0.10897344886E+02  0.30547487648E+02  0.00000000000E+00 0.  1.
         21    1    1    2  503  501 -0.52906596806E+01  0.28042927739E+02 -0.63712909826E+02  0.69812117534E+02  0.00000000000E+00 0.  1.
</event>
<event>
 4    1  0.2243475E+005  0.3092810E+02  0.7546771E-02  0.1411699E+00
          2   -1    0    0  502    0  0.00000000000E+00  0.00000000000E+00  0.17808272829E+03  0.17808272829E+03  0.00000000000E+00 0.  1.
         21   -1    0    0  503  502 -0.00000000000E+00 -0.00000000000E+00 -0.98023682266E+01  0.98023682266E+01  0.00000000000E+00 0. -1.
          2    1    1    2  501    0 -0.21623365719E+02  0.22112829325E+02  0.14730102183E+03  0.15051291704E+03  0.00000000000E+00 0.  1.
         21    1    1    2  503  501  0.21623365719E+02 -0.22112829325E+02  0.20979338239E+02  0.37372179475E+02  0.00000000000E+00 0. -1.
</event>
<event>
 4    1  0.2243475E+005  0.2453916E+02  0.7546771E-02  0.1474025E+00
          2   -1    0    0  502    0  0.00000000000E+00  0.00000000000E+00  0.16919199891E+03  0.16919199891E+03  0.00000000000E+00 0. -1.
         21   -1    0    0  503  502 -0.00000000000E+00 -0.00000000000E+00 -0.66914986307E+02  0.66914986307E+02  0.00000000000E+00 0.  1.
          2    1    1    2  501    0 -0.13789014417E+02  0.20298605680E+02  0.16600957136E+03  0.16781343240E+03  0.00000000000E+00 0. -1.
         21    1    1    2  503  501  0.13789014417E+02 -0.20298605680E+02 -0.63732558755E+02  0.68293552818E+02  0.00000000000E+00 0.  1.
</event>
<event>
 4    1  0.2243475E+005  0.2967585E+02  0.7546771E-02  0.1422435E+00
          2   -1    0    0  502    0  0.00000000000E+00  0.00000000000E+00  0.14474911662E+04  0.14474911662E+04  0.00000000000E+00 0.  1.
         21   -1    0    0  503  502 -0.00000000000E+00 -0.00000000000E+00 -0.10246500220E+01  0.10246500220E+01  0.00000000000E+00 0. -1.
          2    1    1    2  501    0  0.28426015542E+02  0.85215928474E+01  0.11848502456E+04  0.11852218191E+04  0.00000000000E+00 0.  1.
         21    1    1    2  503  501 -0.28426015542E+02 -0.85215928474E+01  0.26161627052E+03  0.26329399709E+03  0.00000000000E+00 0. -1.
</event>
<event>
 4    1  0.2243475E+005  0.2386314E+02  0.7546771E-02  0.1481935E+00
          2   -1    0    0  503    0  0.00000000000E+00  0.00000000000E+00  0.13027785112E+04  0.13027785112E+04  0.00000000000E+00 0.  1.
         21   -1    0    0  501  502 -0.00000000000E+00 -0.00000000000E+00 -0.14524924142E+01  0.14524924142E+01  0.00000000000E+00 0. -1.
          2    1    1    2  501    0  0.29566750885E+01 -0.23679264676E+02  0.11958980033E+04  0.11961360641E+04  0.00000000000E+00 0.  1.
         21    1    1    2  503  502 -0.29566750885E+01  0.23679264676E+02  0.10542801553E+03  0.10809493958E+03  0.00000000000E+00 0. -1.
</event>
<event>
 4    1  0.2243475E+005  0.2488270E+02  0.7546771E-02  0.1470120E+00
          2   -1    0    0  502    0  0.00000000000E+00  0.00000000000E+00  0.33940516796E+03  0.33940516796E+03  0.00000000000E+00 0.  1.
         21   -1    0    0  503  502 -0.00000000000E+00 -0.00000000000E+00 -0.20738813476E+01  0.20738813476E+01  0.00000000000E+00 0.  1.
          2    1    1    2  501    0  0.85433924714E+01 -0.23370052185E+02  0.22790629456E+03  0.22926061151E+03  0.00000000000E+00 0.  1.
         21    1    1    2  503  501 -0.85433924714E+01  0.23370052185E+02  0.10942499206E+03  0.11221843780E+03  0.00000000000E+00 0.  1.
</event>
<event>
 4    1  0.2243475E+005  0.2149755E+02  0.7546771E-02  0.1512278E+00
          2   -1    0    0  503    0  0.00000000000E+00  0.00000000000E+00  0.26575703995E+03  0.26575703995E+03  0.00000000000E+00 0.  1.
         21   -1    0    0  501  502 -0.00000000000E+00 -0.00000000000E+00 -0.15837616001E+02  0.15837616001E+02  0.00000000000E+00 0. -1.
          2    1    1    2  501    0 -0.37680838418E+01  0.21164738551E+02  0.25780255090E+03  0.25869731321E+03  0.00000000000E+00 0.  1.
         21    1    1    2  503  502  0.37680838418E+01 -0.21164738551E+02 -0.78831269526E+01  0.22897342734E+02  0.00000000000E+00 0. -1.
</event>
<event>
 4    1  0.2243475E+005  0.2965162E+02  0.7546771E-02  0.1422648E+00
          2   -1    0    0  503    0  0.00000000000E+00  0.00000000000E+00  0.45308550805E+03  0.45308550805E+03  0.00000000000E+00 0. -1.
         21   -1    0    0  501  502 -0.00000000000E+00 -0.00000000000E+00 -0.24633490181E+01  0.24633490181E+01  0.00000000000E+00 0. -1.
          2    1    1    2  501    0  0.27774911370E+02  0.10381376801E+02  0.33024705490E+03  0.33157553582E+03  0.00000000000E+00 0. -1.
         21    1    1    2  503  502 -0.27774911370E+02 -0.10381376801E+02  0.12037510414E+03  0.12397332126E+03  0.00000000000E+00 0. -1.
</event>
<event>
 4    1  0.2243475E+005  0.2817836E+02  0.7546771E-02  0.1436117E+00
          2   -1    0    0  503    0  0.00000000000E+00  0.00000000000E+00  0.31624101713E+03  0.31624101713E+03  0.00000000000E+00 0. -1.
         21   -1    0    0  501  502 -0.00000000000E+00 -0.00000000000E+00 -0.31146128036E+02  0.31146128036E+02  0.00000000000E+00 0. -1.
          2    1    1    2  501    0 -0.28167983339E+02  0.76451406314E+00  0.30909288725E+03  0.31037466507E+03  0.00000000000E+00 0. -1.
         21    1    1    2  503  502  0.28167983339E+02 -0.76451406314E+00 -0.23997998159E+02  0.37012480095E+02  0.00000000000E+00 0. -1.
</event>
<event>
 4    1  0.2243475E+005  0.3793886E+02  0.7546771E-02  0.1361006E+00
          2   -1    0    0  503    0  0.00000000000E+00  0.00000000000E+00  0.79407827717E+03  0.79407827717E+03  0.00000000000E+00 0.  1.
         21   -1    0    0  501  502 -0.00000000000E+00 -0.00000000000E+00 -0.20619182348E+01  0.20619182348E+01  0.00000000000E+00 0.  1.
          2    1    1    2  501    0  0.37014539961E+02  0.83235237392E+01  0.53442499959E+03  0.53576994821E+03  0.00000000000E+00 0.  1.
         21    1    1    2  503  502 -0.37014539961E+02 -0.83235237392E+01  0.25759135934E+03  0.26037024720E+03  0.00000000000E+00 0.  1.
</event>
<event>
 4    1  0.2243475E+005  0.2023502E+02  0.7546771E-02  0.1530473E+00
          2   -1    0    0  503    0  0.00000000000E+00  0.00000000000E+00  0.15953496812E+01  0.15953496812E+01  0.00000000000E+00 0.  1.
         21   -1    0    0  501  502 -0.00000000000E+00 -0.00000000000E+00 -0.32615071053E+03  0.32615071053E+03  0.00000000000E+00 0.  1.
          2    1    1    2  501    0 -0.17766993008E+02 -0.96845335675E+01 -0.86633786811E+02  0.88965550907E+02  0.00000000000E+00 0.  1.
         21    1    1    2  503  502  0.17766993008E+02  0.96845335675E+01 -0.23792157404E+03  0.23878050931E+03  0.00000000000E+00 0.  1.
</event>
<event>
 4    1  0.2243475E+005  0.2966185E+02  0.7546771E-02  0.1422558E+00
          2   -1    0    0  503    0  0.00000000000E+00  0.00000000000E+00  0.68377980154E+03  0.68377980154E+03  0.00000000000E+00 0. -1.
         21   -1    0    0  501  502 -0.00000000000E+00 -0.00000000000E+00 -0.57607114529E+01  0.57607114529E+01  0.00000000000E+00 0.  1.
          2    1    1    2  501    0  0.28212384640E+02  0.91589537763E+01  0.64284599859E+03  0.64352995500E+03  0.00000000000E+00 0. -1.
         21    1    1    2  503  502 -0.28212384640E+02 -0.91589537763E+01  0.35173091504E+02  0.46010557998E+02  0.00000000000E+00 0.  1.
</event>
<event>
 4    1  0.2243475E+005  0.2210077E+02  0.7546771E-02  0.1504109E+00
          2   -1    0    0  503    0  0.00000000000E+00  0.00000000000E+00  0.23081215625E+03  0.23081215625E+03  0.00000000000E+00 0.  1.
         21   -1    0    0  501  502 -0.00000000000E+00 -0.00000000000E+00 -0.81519892654E+01  0.81519892654E+01  0.00000000000E+00 0. -1.
          2    1    1    2  501    0  0.58926971173E+01  0.21300703089E+02  0.21414073605E+03  0.21527818902E+03  0.00000000000E+00 0.  1.
         21    1    1    2  503  502 -0.58926971173E+01 -0.21300703089E+02  0.85194309258E+01  0.23685956487E+02  0.00000000000E+00 0. -1.
</event>
<event>
 4    1  0.2243475E+005  0.2279018E+02  0.7546771E-02  0.1495150E+00
          2   -1    0    0  503    0  0.00000000000E+00  0.00000000000E+00  0.52588749754E+01  0.52588749754E+01  0.00000000000E+00 0. -1.
         21   -1    0    0  501  502 -0.00000000000E+00 -0.00000000000E+00 -0.10954425052E+04  0.10954425052E+04  0.00000000000E+00 0. -1.
          2    1    1    2  501    0  0.50193133858E+01  0.22230584486E+02 -0.20136828225E+02  0.30411909582E+02  0.00000000000E+00 0. -1.
         21    1    1    2  503  502 -0.50193133858E+01 -0.22230584486E+02 -0.10700468020E+04  0.10702894706E+04  0.00000000000E+00 0. -1.
</event>
<event>
 4    1  0.2243475E+005  0.3019157E+02  0.7546771E-02  0.1417939E+00
          2   -1    0    0  503    0  0.00000000000E+00  0.00000000000E+00  0.14629513252E+03  0.14629513252E+03  0.00000000000E+00 0.  1.
         21   -1    0    0  501  502 -0.00000000000E+00 -0.00000000000E+00 -0.17646766433E+02  0.17646766433E+02  0.00000000000E+00 0.  1.
          2    1    1    2  501    0  0.30190118497E+02  0.29575982848E+00  0.13025438200E+03  0.13370764660E+03  0.00000000000E+00 0.  1.
         21    1    1    2  503  502 -0.30190118497E+02 -0.29575982848E+00 -0.16060159052E+01  0.30234252361E+02  0.00000000000E+00 0.  1.
</event>
<event>
 4    1  0.2243475E+005  0.3045665E+02  0.7546771E-02  0.1415669E+00
          2   -1    0    0  502    0  0.00000000000E+00  0.00000000000E+00  0.22569736569E+03  0.22569736569E+03  0.00000000000E+00 0.  1.
         21   -1    0    0  503  502 -0.00000000000E+00 -0.00000000000E+00 -0.10349463895E+02  0.10349463895E+02  0.00000000000E+00 0. -1.
          2    1    1    2  501    0 -0.29877715073E+02  0.59101077761E+01  0.19931377898E+03  0.20162735361E+03  0.00000000000E+00 0.  1.
         21    1    1    2  503  501  0.29877715073E+02 -0.59101077761E+01  0.16034122810E+02  0.34419475972E+02  0.00000000000E+00 0. -1.
</event>
<event>
 4    1  0.2243475E+005  0.2601554E+02  0.7546771E-02  0.1457756E+00
          2   -1    0    0  503    0  0.00000000000E+00  0.00000000000E+00  0.15659200075E+03  0.15659200075E+03  0.00000000000E+00 0. -1.
         21   -1    0    0  501  502 -0.00000000000E+00 -0.00000000000E+00 -0.87134049170E+02  0.87134049170E+02  0.00000000000E+00 0.  1.
          2    1    1    2  501    0  0.16068527521E+02  0.20459983514E+02  0.15353117287E+03  0.15571971470E+03  0.00000000000E+00 0. -1.
         21    1    1    2  503  502 -0.16068527521E+02 -0.20459983514E+02 -0.84073221288E+02  0.88006335226E+02  0.00000000000E+00 0.  1.
</event>
<event>
 4    1  0.2243475E+005  0.2023454E+02  0.7546771E-02  0.1530480E+00
          2   -1    0    0  502    0  0.00000000000E+00  0.00000000000E+00  0.12400767238E+04  0.12400767238E+04  0.00000000000E+00 0. -1.
         21   -1    0    0  503  502 -0.00000000000E+00 -0.00000000000E+00 -0.47742261409E+02  0.47742261409E+02  0.00000000000E+00 0. -1.
          2    1    1    2  501    0 -0.88927674884E+01  0.18175683131E+02  0.12378463228E+04  0.12380116944E+04  0.00000000000E+00 0. -1.
         21    1    1    2  503  501  0.88927674884E+01 -0.18175683131E+02 -0.45511860420E+02  0.49807290729E+02  0.00000000000E+00 0. -1.
</event>
<event>
 4    1  0.2243475E+005  0.2324624E+02  0.7546771E-02  0.1489429E+00
          2   -1    0    0  502    0  0.00000000000E+00  0.00000000000E+00  0.43989098985E+03  0.43989098985E+03  0.00000000000E+00 0.  1.
         21   -1    0    0  503  502 -0.00000000000E+00 -0.00000000000E+00 -0.36124640751E+02  0.36124640751E+02  0.00000000000E+00 0.  1.
          2    1    1    2  501    0 -0.69571722341E+01 -0.22180748090E+02  0.43580912764E+03  0.43642866951E+03  0.00000000000E+00 0.  1.
         21    1    1    2  503  501  0.69571722341E+01  0.22180748090E+02 -0.32042778547E+02  0.39586961090E+02  0.00000000000E+00 0.  1.
</event>
<event>
 4    1  0.2243475E+005  0.2261579E+02  0.7546771E-02  0.1497380E+00
          2   -1    0    0  502    0  0.00000000000E+00  0.00000000000E+00  0.79875581399E+03  0.79875581399E+03  0.00000000000E+00 0.  1.
         21   -1    0    0  503  502 -0.00000000000E+00 -0.00000000000E+00 -0.23471549651E+01  0.23471549651E+01  0.00000000000E+00 0. -1.
          2    1    1    2  501    0  0.78731470672E+01  0.21201118276E+02  0.73977526851E+03  0.74012088321E+03  0.00000000000E+00 0.  1.
         21    1    1    2  503  501 -0.78731470672E+01 -0.21201118276E+02  0.56633390514E+02  0.60982085747E+02  0.00000000000E+00 0. -1.
</event>
<event>
 4    1  0.2243475E+005  0.2381124E+02  0.7546771E-02  0.1482555E+00
          2   -1    0    0  502    0  0.00000000000E+00  0.00000000000E+00  0.62849637720E+03  0.62849637720E+03  0.00000000000E+00 0.  1.
         21   -1    0    0  503  502 -0.00000000000E+00 -0.00000000000E+00 -0.22907040611E+01  0.22907040611E+01  0.00000000000E+00 0. -1.
          2    1    1    2  501    0 -0.52461635372E+00  0.23805463014E+02  0.55866155046E+03  0.55916876098E+03  0.00000000000E+00 0.  1.
         21    1    1    2  503  501  0.52461635372E+00 -0.23805463014E+02  0.67544122678E+02  0.71618320282E+02  0.00000000000E+00 0. -1.
</event>
<event>
 4    1  0.2243475E+005  0.2443767E+02  0.7546771E-02  0.1475193E+00
          2   -1    0    0  503    0  0.00000000000E+00  0.00000000000E+00  0.75779672684E+03  0.75779672684E+03  0.00000000000E+00 0. -1.
         21   -1    0    0  501  502 -0.00000000000E+00 -0.00000000000E+00 -0.14326421991E+01  0.14326421991E+01  0.00000000000E+00 0. -1.
          2    1    1    2  501    0 -0.21192930279E+02  0.12167971594E+02  0.63281147548E+03  0.63328316204E+03  0.00000000000E+00 0. -1.
         21    1    1    2  503  502  0.21192930279E+02 -0.12167971594E+02  0.12355260916E+03  0.12594620700E+03  0.00000000000E+00 0. -1.
</event>
<event>
 4    1  0.2243475E+005  0.2033250E+02  0.7546771E-02  0.1529012E+00
          2   -1    0    0  503    0  0.00000000000E+00  0.00000000000E+00  0.63102597307E+03  0.63102597307E+03  0.00000000000E+00 0.  1.
         21   -1    0    0  501  502 -0.00000000000E+00 -0.00000000000E+00 -0.38040730344E+02  0.38040730344E+02  0.00000000000E+00 0. -1.
          2    1    1    2  501    0 -0.66593855010E+01 -0.19211016493E+02  0.62813278292E+03  0.62846177573E+03  0.00000000000E+00 0.  1.
         21    1    1    2  503  502  0.66593855010E+01  0.19211016493E+02 -0.35147540200E+02  0.40604927682E+02  0.00000000000E+00 0. -1.
</event>
<event>
 4    1  0.2243475E+005  0.2156813E+02  0.7546771E-02  0.1511306E+00
          2   -1    0    0  503    0  0.00000000000E+00  0.00000000000E+00  0.12415435004E+04  0.12415435004E+04  0.00000000000E+00 0.  1.
         21   -1    0    0  501  502 -0.00000000000E+00 -0.00000000000E+00 -0.37716693474E+00  0.37716693474E+00  0.00000000000E+00 0.  1.
          2    1    1    2  501    0  0.18498507303E+02 -0.11090052115E+02  0.57018059722E+03  0.57058837832E+03  0.00000000000E+00 0.  1.
         21    1    1    2  503  502 -0.18498507303E+02  0.11090052115E+02  0.67098573620E+03  0.67133228897E+03  0.00000000000E+00 0.  1.
</event>
<event>
 4    1  0.2243475E+005  0.2001415E+02  0.7546771E-02  0.1533819E+00
          2   -1    0    0  502    0  0.00000000000E+00  0.00000000000E+00  0.50565206294E+03  0.50565206294E+03  0.00000000000E+00 0.  1.
         21   -1    0    0  503  502 -0.00000000000E+00 -0.00000000000E+00 -0.50935490871E+01  0.50935490871E+01  0.00000000000E+00 0.  1.
          2    1    1    2  501    0  0.17682170259E+02  0.93758838662E+01  0.48495481860E+03  0.48536763636E+03  0.00000000000E+00 0.  1.
         21    1    1    2  503  501 -0.17682170259E+02 -0.93758838662E+01  0.15603695252E+02  0.25377975665E+02  0.00000000000E+00 0.  1.
</event>
<event>
 4    1  0.2243475E+005  0.2812218E+02  0.7546771E-02  0.1436650E+00
          2   -1    0    0  503    0  0.00000000000E+00  0.00000000000E+00  0.13368334797E+03  0.13368334797E+03  0.00000000000E+00 0. -1.
         21   -1    0    0  501  502 -0.00000000000E+00 -0.00000000000E+00 -0.62744866580E+01  0.62744866580E+01  0.00000000000E+00 0. -1.
          2    1    1    2  501    0  0.11039519518E+02 -0.25864763741E+02  0.80433687491E+02  0.85208186684E+02  0.00000000000E+00 0. -1.
         21    1    1    2  503  502 -0.11039519518E+02  0.25864763741E+02  0.46975173824E+02  0.54749647948E+02  0.00000000000E+00 0. -1.
</event>
<event>
 4    1  0.2243475E+005  0.2935136E+02  0.7546771E-02  0.1425318E+00
          2   -1    0    0  502    0  0.00000000000E+00  0.00000000000E+00  0.99180034710E+03  0.99180034710E+03  0.00000000000E+00 0.  1.
         21   -1    0    0  503  502 -0.00000000000E+00 -0.00000000000E+00 -0.89285354075E+00  0.89285354075E+00  0.00000000000E+00 0. -1.
          2    1    1    2  501    0  0.26245896928E+02  0.13139829477E+02  0.41368981802E+03  0.41472975268E+03  0.00000000000E+00 0.  1.
         21    1    1    2  503  501 -0.26245896928E+02 -0.13139829477E+02  0.57721767554E+03  0.57796344796E+03  0.00000000000E+00 0. -1.
</event>
<event>
 4    1  0.2243475E+005  0.2446094E+02  0.7546771E-02  0.1474925E+00
          2   -1    0    0  503    0  0.00000000000E+00  0.00000000000E+00  0.90001194797E+03  0.90001194797E+03  0.00000000000E+00 0.  1.
         21   -1    0    0  501  502 -0.00000000000E+00 -0.00000000000E+00 -0.33707697780E+01  0.33707697780E+01  0.00000000000E+00 0.  1.
          2    1    1    2  501    0 -0.18059397489E+02 -0.16498359810E+02  0.85302490540E+03  0.85337554860E+03  0.00000000000E+00 0.  1.
         21    1    1    2  503  502  0.18059397489E+02  0.16498359810E+02  0.43616272798E+02  0.50007169155E+02  0.00000000000E+00 0.  1.
</event>
<event>
 4    1  0.2243475E+005  0.2032664E+02  0.7546771E-02  0.1529100E+00
          2   -1    0    0  502    0  0.00000000000E+00  0.00000000000E+00  0.10727476162E+04  0.10727476162E+04  0.00000000000E+00 0. -1.
         21   -1    0    0  503  502 -0.00000000000E+00 -0.00000000000E+00 -0.51318291314E+01  0.51318291314E+01  0.00000000000E+00 0. -1.
          2    1    1    2  501    0  0.19751823454E+02 -0.47997617789E+01  0.10521289940E+04  0.10523253262E+04  0.00000000000E+00 0. -1.
         21    1    1    2  503  501 -0.19751823454E+02  0.47997617789E+01  0.15486793080E+02  0.25554119097E+02  0.00000000000E+00 0. -1.
</event>
<event>
 4    1  0.2243475E+005  0.2135396E+02  0.7546771E-02  0.1514271E+00
          2   -1    0    0  503    0  0.00000000000E+00  0.00000000000E+00  0.47637841943E+03  0.47637841943E+03  0.00000000000E+00 0. -1.
         21   -1    0    0  501  502 -0.00000000000E+00 -0.00000000000E+00 -0.12568521393E+01  0.12568521393E+01  0.00000000000E+00 0. -1.
          2    1    1    2  501    0  0.23246317393E+01  0.21227053662E+02  0.35416909270E+03  0.35481225732E+03  0.00000000000E+00 0. -1.
         21    1    1    2  503  502 -0.23246317393E+01 -0.21227053662E+02  0.12095247459E+03  0.12282301425E+03  0.00000000000E+00 0. -1.
</event>
<event>
 4    1  0.2243475E+005  0.2891413E+02  0.7546771E-02  0.1429273E+00
          2   -1    0    0  502    0  0.00000000000E+00  0.00000000000E+00  0.82861253462E+02  0.82861253462E+02  0.00000000000E+00 0. -1.
         21   -1    0    0  503  502 -0.00000000000E+00 -0.00000000000E+00 -0.17341735296E+02  0.17341735296E+02  0.00000000000E+00 0.  1.
          2    1    1    2  501    0  0.22457580694E+02  0.18212197601E+02  0.65159452791E+02  0.71286614172E+02  0.00000000000E+00 0. -1.
         21    1    1    2  503  501 -0.22457580694E+02 -0.18212197601E+02  0.36006537432E+00  0.28916374585E+02  0.00000000000E+00 0.  1.
</event>
<event>
 4    1  0.2243475E+005  0.2516911E+02  0.7546771E-02  0.1466920E+00
          2   -1    0    0  502    0  0.00000000000E+00  0.00000000000E+00  0.49756856673E+03  0.49756856673E+03  0.00000000000E+00 0.  1.
         21   -1    0    0  503  502 -0.00000000000E+00 -0.00000000000E+00 -0.17809729655E+02  0.17809729655E+02  0.00000000000E+00 0.  1.
          2    1    1    2  501    0 -0.21089709954E+02 -0.13737102601E+02  0.48818712184E+03  0.48883550381E+03  0.00000000000E+00 0.  1.
         21    1    1    2  503  501  0.21089709954E+02  0.13737102601E+02 -0.84282847620E+01  0.26542792578E+02  0.00000000000E+00 0.  1.
</event>
<event>
 4    1  0.2243475E+005  0.3156596E+02  0.7546771E-02  0.1406459E+00
          2   -1    0    0  503    0  0.00000000000E+00  0.00000000000E+00  0.62844393031E+02  0.62844393031E+02  0.00000000000E+00 0. -1.
         21   -1    0    0  501  502 -0.00000000000E+00 -0.00000000000E+00 -0.37405015885E+02  0.37405015885E+02  0.00000000000E+00 0.  1.
          2    1    1    2  501    0 -0.59830131967E+01 -0.30993765494E+02  0.50765667343E+02  0.59779285101E+02  0.00000000000E+00 0. -1.
         21    1    1    2  503  502  0.59830131967E+01  0.30993765494E+02 -0.25326290198E+02  0.40470123815E+02  0.00000000000E+00 0.  1.
</event>
<event>
 4    1  0.2243475E+005  0.2499822E+02  0.7546771E-02  0.1468823E+00
          2   -1    0    0  503    0  0.00000000000E+00  0.00000000000E+00  0.20118975386E+03  0.20118975386E+03  0.00000000000E+00 0.  1.
         21   -1    0    0  501  502 -0.00000000000E+00 -0.00000000000E+00 -0.17974289975E+03  0.17974289975E+03  0.00000000000E+00 0. -1.
          2    1    1    2  501    0  0.44811531751E+01  0.24593296186E+02  0.19953688939E+03  0.20109669609E+03  0.00000000000E+00 0.  1.
         21    1    1    2  503  502 -0.44811531751E+01 -0.24593296186E+02 -0.17809003528E+03  0.17983595752E+03  0.00000000000E+00 0. -1.
</event>
<event>
 4    1  0.2243475E+005  0.2393136E+02  0.7546771E-02  0.1481123E+00
          2   -1    0    0  502    0  0.00000000000E+00  0.00000000000E+00  0.73140991678E+02  0.73140991678E+02  0.00000000000E+00 0.  1.
         21   -1    0    0  503  502 -0.00000000000E+00 -0.00000000000E+00 -0.13459243056E+03  0.13459243056E+03  0.00000000000E+00 0.  1.
          2    1    1    2  501    0 -0.22202312191E+02  0.89312663616E+01  0.70074380144E+02  0.74048152833E+02  0.00000000000E+00 0.  1.
         21    1    1    2  503  501  0.22202312191E+02 -0.89312663616E+01 -0.13152581902E+03  0.13368526940E+03  0.00000000000E+00 0.  1.
</event>
<event>
 4    1  0.2243475E+005  0.2255565E+02  0.7546771E-02  0.1498155E+00
          2   -1    0    0  502    0  0.00000000000E+00  0.00000000000E+00  0.16324036173E+03  0.16324036173E+03  0.00000000000E+00 0.  1.
         21   -1    0    0  503  502 -0.00000000000E+00 -0.00000000000E+00 -0.67296751296E+01  0.67296751296E+01  0.00000000000E+00 0.  1.
          2    1    1    2  501    0  0.18286363956E+02  0.13204779026E+02  0.14052592769E+03  0.14232460661E+03  0.00000000000E+00 0.  1.
         21    1    1    2  503  501 -0.18286363956E+02 -0.13204779026E+02  0.15984758912E+02  0.27645430243E+02  0.00000000000E+00 0.  1.
</event>
<event>
 4    1  0.2243475E+005  0.2985378E+02  0.7546771E-02  0.1420872E+00
          2   -1    0    0  503    0  0.00000000000E+00  0.00000000000E+00  0.86285920214E+03  0.86285920214E+03  0.00000000000E+00 0. -1.
         21   -1    0    0  501  502 -0.00000000000E+00 -0.00000000000E+00 -0.13137882406E+01  0.13137882406E+01  0.00000000000E+00 0. -1.
          2    1    1    2  501    0 -0.27816654418E+02  0.10838899837E+02  0.63056287905E+03  0.63126919174E+03  0.00000000000E+00 0. -1.
         21    1    1    2  503  502  0.27816654418E+02 -0.10838899837E+02  0.23098253486E+03  0.23290379864E+03  0.00000000000E+00 0. -1.
</event>
<event>
 4    1  0.2243475E+005  0.2945987E+02  0.7546771E-02  0.1424349E+00
          2   -1    0    0  502    0  0.00000000000E+00  0.00000000000E+00  0.83869085426E+03  0.83869085426E+03  0.00000000000E+00 0.  1.
         21   -1    0    0  503  502 -0.00000000000E+00 -0.00000000000E+00 -0.31840631406E+01  0.31840631406E+01  0.00000000000E+00 0.  1.
          2    1    1    2  501    0  0.29458696386E+02  0.26289847815E+00  0.76358982438E+03  0.76415790502E+03  0.00000000000E+00 0.  1.
         21    1    1    2  503  501 -0.29458696386E+02 -0.26289847815E+00  0.71916966743E+02  0.77717012383E+02  0.00000000000E+00 0.  1.
</event>
<event>
 4    1  0.2243475E+005  0.3537432E+02  0.7546771E-02  0.1377951E+00
          2   -1    0    0  503    0  0.00000000000E+00  0.00000000000E+00  0.10250716663E+03  0.10250716663E+03  0.00000000000E+00 0. -1.
         21   -1    0    0  501  502 -0.00000000000E+00 -0.00000000000E+00 -0.12629928179E+02  0.12629928179E+02  0.00000000000E+00 0. -1.
          2    1    1    2  501    0 -0.50453684155E+01  0.35012661162E+02  0.55468700651E+02  0.65788440748E+02  0.00000000000E+00 0. -1.
         21    1    1    2  503  502  0.50453684155E+01 -0.35012661162E+02  0.34408537795E+02  0.49348654058E+02  0.00000000000E+00 0. -1.
</event>
<event>
 4    1  0.2243475E+005  0.2212631E+02  0.7546771E-02  0.1503771E+00
          2   -1    0    0  502    0  0.00000000000E+00  0.00000000000E+00  0.80042963364E+03  0.80042963364E+03  0.00000000000E+00 0.  1.
         21   -1    0    0  503  502 -0.00000000000E+00 -0.00000000000E+00 -0.76003891366E+00  0.76003891366E+00  0.00000000000E+00 0. -1.
          2    1    1    2  501    0  0.11049863858E+02 -0.19169609860E+02  0.57684783593E+03  0.57727203228E+03  0.00000000000E+00 0.  1.
         21    1    1    2  503  501 -0.11049863858E+02  0.19169609860E+02  0.22282175880E+03  0.22391764028E+03  0.00000000000E+00 0. -1.
</event>
<event>
 4    1  0.2243475E+005  0.2481553E+02  0.7546771E-02  0.1470878E+00
          2   -1    0    0  502    0  0.00000000000E+00  0.00000000000E+00  0.14549765153E+04  0.14549765153E+04  0.00000000000E+00 0.  1.
         21   -1    0    0  503  502 -0.00000000000E+00 -0.00000000000E+00 -0.27982423297E+02  0.27982423297E+02  0.00000000000E+00 0.  1.
          2    1    1    2  501    0  0.24433210263E+02  0.43391961377E+01  0.14493475775E+04  0.14495600060E+04  0.00000000000E+00 0.  1.
         21    1    1    2  503  501 -0.24433210263E+02 -0.43391961377E+01 -0.22353485520E+02  0.33398932644E+02  0.00000000000E+00 0.  1.
</event>
<event>
 4    1  0.2243475E+005  0.2928823E+02  0.7546771E-02  0.1425884E+00
          2   -1    0    0  502    0  0.00000000000E+00  0.00000000000E+00  0.64835598059E+03  0.64835598059E+03  0.00000000000E+00 0.  1.
         21   -1    0    0  503  502 -0.00000000000E+00 -0.00000000000E+00 -0.29180606720E+02  0.29180606720E+02  0.00000000000E+00 0.  1.
          2    1    1    2  501    0 -0.29274862439E+02 -0.88486725705E+00  0.64058707556E+03  0.64125626854E+03  0.00000000000E+00 0.  1.
         21    1    1    2  503  501  0.29274862439E+02  0.88486725705E+00 -0.21411701692E+02  0.36280318773E+02  0.00000000000E+00 0.  1.
</event>
<event>
 4    1  0.2243475E+005  0.3566386E+02  0.7546771E-02  0.1375955E+00
          2   -1    0    0  503    0  0.00000000000E+00  0.00000000000E+00  0.22770697981E+03  0.22770697981E+03  0.00000000000E+00 0. -1.
         21   -1    0    0  501  502 -0.00000000000E+00 -0.00000000000E+00 -0.10852023570E+02  0.10852023570E+02  0.00000000000E+00 0.  1.
          2    1    1    2  501    0  0.13924653423E+02 -0.32833137322E+02  0.19152015926E+03  0.19481242846E+03  0.00000000000E+00 0. -1.
         21    1    1    2  503  502 -0.13924653423E+02  0.32833137322E+02  0.25334796983E+02  0.43746574923E+02  0.00000000000E+00 0.  1.
</event>
<event>
 4    1  0.2243475E+005  0.4759888E+02  0.7546771E-02  0.1308932E+00
          2   -1    0    0  503    0  0.00000000000E+00  0.00000000000E+00  0.63573057150E+03  0.63573057150E+03  0.00000000000E+00 0.  1.
         21   -1    0    0  501  502 -0.00000000000E+00 -0.00000000000E+00 -0.21043359824E+02  0.21043359824E+02  0.00000000000E+00 0.  1.
          2    1    1    2  501    0  0.17059824175E+01 -0.47568303083E+02  0.60663407611E+03  0.60849860816E+03  0.00000000000E+00 0.  1.
         21    1    1    2  503  502 -0.17059824175E+01  0.47568303083E+02  0.80531355657E+01  0.48275323164E+02  0.00000000000E+00 0.  1.
</event>
<event>
 4    1  0.2243475E+005  0.3823813E+02  0.7546771E-02  0.1359131E+00
          2   -1    0    0  503    0  0.00000000000E+00  0.00000000000E+00  0.65062805301E+03  0.65062805301E+03  0.00000000000E+00 0. -1.
         21   -1    0    0  501  502 -0.00000000000E+00 -0.00000000000E+00 -0.35975922137E+01  0.35975922137E+01  0.00000000000E+00 0. -1.
          2    1    1    2  501    0 -0.30827622105E+02 -0.22623270293E+02  0.52391901686E+03  0.52531256493E+03  0.00000000000E+00 0. -1.
         21    1    1    2  503  502  0.30827622105E+02  0.22623270293E+02  0.12311144394E+03  0.12891308030E+03  0.00000000000E+00 0. -1.
</event>
<event>
 4    1  0.2243475E+005  0.2075292E+02  0.7546771E-02  0.1522822E+00
          2   -1    0    0  503    0  0.00000000000E+00  0.00000000000E+00  0.13768682029E+01  0.13768682029E+01  0.00000000000E+00 0.  1.
         21   -1    0    0  501  502 -0.00000000000E+00 -0.00000000000E+00 -0.38822153847E+03  0.38822153847E+03  0.00000000000E+00 0. -1.
          2    1    1    2  501    0 -0.15422910010E+02  0.13885880555E+02 -0.10756128616E+03  0.10954503235E+03  0.00000000000E+00 0.  1.
         21    1    1    2  503  502  0.15422910010E+02 -0.13885880555E+02 -0.27928338411E+03  0.28005337432E+03  0.00000000000E+00 0. -1.
</event>
<event>
 4    1  0.2243475E+005  0.2017651E+02  0.7546771E-02  0.1531354E+00
          2   -1    0    0  503    0  0.00000000000E+00  0.00000000000E+00  0.12254192362E+03  0.12254192362E+03  0.00000000000E+00 0.  1.
         21   -1    0    0  501  502 -0.00000000000E+00 -0.00000000000E+00 -0.36704793192E+02  0.36704793192E+02  0.00000000000E+00 0. -1.
          2    1    1    2  501    0 -0.86060682850E+00  0.20158149737E+02  0.11885322393E+03  0.12055364152E+03  0.00000000000E+00 0.  1.
         21    1    1    2  503  502  0.86060682850E+00 -0.20158149737E+02 -0.33016093505E+02  0.38693075289E+02  0.00000000000E+00 0. -1.
</event>
<event>
 4    1  0.2243475E+005  0.2745089E+02  0.7546771E-02  0.1443131E+00
          2   -1    0    0  502    0  0.00000000000E+00  0.00000000000E+00  0.18587635681E+03  0.18587635681E+03  0.00000000000E+00 0.  1.
         21   -1    0    0  503  502 -0.00000000000E+00 -0.00000000000E+00 -0.15027717803E+02  0.15027717803E+02  0.00000000000E+00 0.  1.
          2    1    1    2  501    0 -0.22213906720E+02 -0.16127423498E+02  0.17126402175E+03  0.17345004060E+03  0.00000000000E+00 0.  1.
         21    1    1    2  503  501  0.22213906720E+02  0.16127423498E+02 -0.41538274106E+00  0.27454034007E+02  0.00000000000E+00 0.  1.
</event>
<event>
 4    1  0.2243475E+005  0.2653668E+02  0.7546771E-02  0.1452319E+00
          2   -1    0    0  502    0  0.00000000000E+00  0.00000000000E+00  0.20410907607E+03  0.20410907607E+03  0.00000000000E+00 0.  1.
         21   -1    0    0  503  502 -0.00000000000E+00 -0.00000000000E+00 -0.12650240416E+02  0.12650240416E+02  0.00000000000E+00 0. -1.
          2    1    1    2  501    0 -0.16156314094E+02  0.21051578582E+02  0.18815575941E+03  0.19001785507E+03  0.00000000000E+00 0.  1.
         21    1    1    2  503  501  0.16156314094E+02 -0.21051578582E+02  0.33030762406E+01  0.26741461414E+02  0.00000000000E+00 0. -1.
</event>
<event>
 4    1  0.2243475E+005  0.4324527E+02  0.7546771E-02  0.1330451E+00
          2   -1    0    0  502    0  0.00000000000E+00  0.00000000000E+00  0.90840392466E+03  0.90840392466E+03  0.00000000000E+00 0. -1.
         21   -1    0    0  503  502 -0.00000000000E+00 -0.00000000000E+00 -0.34158250843E+02  0.34158250843E+02  0.00000000000E+00 0.  1.
          2    1    1    2  501    0 -0.53057782898E+01  0.42918550958E+02  0.89398113046E+03  0.89502648839E+03  0.00000000000E+00 0. -1.
         21    1    1    2  503  501  0.53057782898E+01 -0.42918550958E+02 -0.19735456650E+02  0.47535687107E+02  0.00000000000E+00 0.  1.
</event>
<event>
 4    1  0.2243475E+005  0.2201404E+02  0.7546771E-02  0.1505264E+00
          2   -1    0    0  502    0  0.00000000000E+00  0.00000000000E+00  0.13022002455E+04  0.13022002455E+04  0.00000000000E+00 0. -1.
         21   -1    0    0  503  502 -0.00000000000E+00 -0.00000000000E+00 -0.10225787407E+01  0.10225787407E+01  0.00000000000E+00 0. -1.
          2    1    1    2  501    0  0.11821434404E+02 -0.18570714308E+02  0.11702726092E+04  0.11704796443E+04  0.00000000000E+00 0. -1.
         21    1    1    2  503  501 -0.11821434404E+02  0.18570714308E+02  0.13090505749E+03  0.13274317993E+03  0.00000000000E+00 0. -1.
</event>
<event>
 4    1  0.2243475E+005  0.2003729E+02  0.7546771E-02  0.1533466E+00
          2   -1    0    0  502    0  0.00000000000E+00  0.00000000000E+00  0.26895327958E+02  0.26895327958E+02  0.00000000000E+00 0.  1.
         21   -1    0    0  503  502 -0.00000000000E+00 -0.00000000000E+00 -0.46201295520E+02  0.46201295520E+02  0.00000000000E+00 0. -1.
          2    1    1    2  501    0  0.12479256668E+02  0.15676772393E+02  0.20416583304E+02  0.28606466287E+02  0.00000000000E+00 0.  1.
         21    1    1    2  503  501 -0.12479256668E+02 -0.15676772393E+02 -0.39722550866E+02  0.44490157191E+02  0.00000000000E+00 0. -1.
</event>
<event>
 4    1  0.2243475E+005  0.2100910E+02  0.7546771E-02  0.1519135E+00
          2   -1    0    0  502    0  0.00000000000E+00  0.00000000000E+00  0.20571675022E+03  0.20571675022E+03  0.00000000000E+00 0. -1.
         21   -1    0    0  503  502 -0.00000000000E+00 -0.00000000000E+00 -0.74409033404E+02  0.74409033404E+02  0.00000000000E+00 0.  1.
          2    1    1    2  501    0  0.44914393074E+01 -0.20523384867E+02  0.20368262415E+03  0.20476326266E+03  0.00000000000E+00 0. -1.
         21    1    1    2  503  501 -0.44914393074E+01  0.20523384867E+02 -0.72374907339E+02  0.75362520962E+02  0.00000000000E+00 0.  1.
</event>
<event>
 4    1  0.2243475E+005  0.2076767E+02  0.7546771E-02  0.1522608E+00
          2   -1    0    0  503    0  0.00000000000E+00  0.00000000000E+00  0.46767923204E+03  0.46767923204E+03  0.00000000000E+00 0.  1.
         21   -1    0    0  501  502 -0.00000000000E+00 -0.00000000000E+00 -0.11501753096E+02  0.11501753096E+02  0.00000000000E+00 0.  1.
          2    1    1    2  501    0  0.16401978012E+02 -0.12738576454E+02  0.45787344303E+03  0.45834417859E+03  0.00000000000E+00 0.  1.
         21    1    1    2  503  502 -0.16401978012E+02  0.12738576454E+02 -0.16959640898E+01  0.20836806545E+02  0.00000000000E+00 0.  1.
</event>
<event>
 4    1  0.2243475E+005  0.2990915E+02  0.7546771E-02  0.1420388E+00
          2   -1    0    0  502    0  0.00000000000E+00  0.00000000000E+00  0.77430461504E+01  0.77430461504E+01  0.00000000000E+00 0. -1.
         21   -1    0    0  503  502 -0.00000000000E+00 -0.00000000000E+00 -0.18358800257E+03  0.18358800257E+03  0.00000000000E+00 0. -1.
          2    1    1    2  501    0  0.45973306679E+01  0.29553712708E+02 -0.29675746307E+02  0.42133209028E+02  0.00000000000E+00 0. -1.
         21    1    1    2  503  501 -0.45973306679E+01 -0.29553712708E+02 -0.14616921011E+03  0.14919783969E+03  0.00000000000E+00 0. -1.
</event>
<event>
 4    1  0.2243475E+005  0.2108804E+02  0.7546771E-02  0.1518011E+00
          2   -1    0    0  503    0  0.00000000000E+00  0.00000000000E+00  0.14154714879E+04  0.14154714879E+04  0.00000000000E+00 0.  1.
         21   -1    0    0  501  502 -0.00000000000E+00 -0.00000000000E+00 -0.72989088711E+00  0.72989088711E+00  0.00000000000E+00 0. -1.
          2    1    1    2  501    0 -0.11699418402E+02 -0.17545062888E+02  0.12417682843E+04  0.12419473328E+04  0.00000000000E+00 0.  1.
         21    1    1    2  503  502  0.11699418402E+02  0.17545062888E+02  0.17297331275E+03  0.17425404600E+03  0.00000000000E+00 0. -1.
</event>
<event>
 4    1  0.2243475E+005  0.2081447E+02  0.7546771E-02  0.1521930E+00
          2   -1    0    0  503    0  0.00000000000E+00  0.00000000000E+00  0.66262229314E+03  0.66262229314E+03  0.00000000000E+00 0. -1.
         21   -1    0    0  501  502 -0.00000000000E+00 -0.00000000000E+00 -0.14188715781E+01  0.14188715781E+01  0.00000000000E+00 0.  1.
          2    1    1    2  501    0 -0.20467504706E+02  0.37846362595E+01  0.57440301819E+03  0.57478001838E+03  0.00000000000E+00 0. -1.
         21    1    1    2  503  502  0.20467504706E+02 -0.37846362595E+01  0.86800403373E+02  0.89261146341E+02  0.00000000000E+00 0.  1.
</event>
<event>
 4    1  0.2243475E+005  0.2256561E+02  0.7546771E-02  0.1498026E+00
          2   -1    0    0  502    0  0.00000000000E+00  0.00000000000E+00  0.45185265812E+03  0.45185265812E+03  0.00000000000E+00 0. -1.
         21   -1    0    0  503  502 -0.00000000000E+00 -0.00000000000E+00 -0.16771135145E+01  0.16771135145E+01  0.00000000000E+00 0.  1.
          2    1    1    2  501    0 -0.19649679681E+02  0.11094897550E+02  0.35496950080E+03  0.35568603172E+03  0.00000000000E+00 0. -1.
         21    1    1    2  503  501  0.19649679681E+02 -0.11094897550E+02  0.95206043811E+02  0.97843739919E+02  0.00000000000E+00 0.  1.
</event>
<event>
 4    1  0.2243475E+005  0.3998564E+02  0.7546771E-02  0.1348570E+00
          2   -1    0    0  502    0  0.00000000000E+00  0.00000000000E+00  0.79530282221E+03  0.79530282221E+03  0.00000000000E+00 0.  1.
         21   -1    0    0  503  502 -0.00000000000E+00 -0.00000000000E+00 -0.31578234666E+02  0.31578234666E+02  0.00000000000E+00 0.  1.
          2    1    1    2  501    0 -0.39404205760E+02  0.67941153961E+01  0.78192596677E+03  0.78294767958E+03  0.00000000000E+00 0.  1.
         21    1    1    2  503  501  0.39404205760E+02 -0.67941153961E+01 -0.18201379227E+02  0.43933377304E+02  0.00000000000E+00 0.  1.
</event>
<event>
 4    1  0.2243475E+005  0.2207970E+02  0.7546771E-02  0.1504389E+00
          2   -1    0    0  502    0  0.00000000000E+00  0.00000000000E+00  0.13195744101E+04  0.13195744101E+04  0.00000000000E+00 0.  1.
         21   -1    0    0  503  502 -0.00000000000E+00 -0.00000000000E+00 -0.67555363802E+00  0.67555363802E+00  0.00000000000E+00 0.  1.
          2    1    1    2  501    0 -0.78964158953E+01  0.20619398626E+02  0.11038069427E+04  0.11040277531E+04  0.00000000000E+00 0.  1.
         21    1    1    2  503  501  0.78964158953E+01 -0.20619398626E+02  0.21509191379E+03  0.21622221062E+03  0.00000000000E+00 0.  1.
</event>
<event>
 4    1  0.2243475E+005  0.2579233E+02  0.7546771E-02  0.1460132E+00
          2   -1    0    0  503    0  0.00000000000E+00  0.00000000000E+00  0.85474929938E+02  0.85474929938E+02  0.00000000000E+00 0. -1.
         21   -1    0    0  501  502 -0.00000000000E+00 -0.00000000000E+00 -0.77952739588E+01  0.77952739588E+01  0.00000000000E+00 0. -1.
          2    1    1    2  501    0 -0.63801443146E+01  0.24990758709E+02  0.40696596490E+02  0.48181502967E+02  0.00000000000E+00 0. -1.
         21    1    1    2  503  502  0.63801443146E+01 -0.24990758709E+02  0.36983059490E+02  0.45088700930E+02  0.00000000000E+00 0. -1.
</event>
<event>
 4    1  0.2243475E+005  0.2290572E+02  0.7546771E-02  0.1493685E+00
          2   -1    0    0  503    0  0.00000000000E+00  0.00000000000E+00  0.91031096332E+03  0.91031096332E+03  0.00000000000E+00 0.  1.
         21   -1    0    0  501  502 -0.00000000000E+00 -0.00000000000E+00 -0.46498626461E+01  0.46498626461E+01  0.00000000000E+00 0. -1.
          2    1    1    2  501    0 -0.14899909984E+02 -0.17397257213E+02  0.88102018310E+03  0.88131789662E+03  0.00000000000E+00 0.  1.
         21    1    1    2  503  502  0.14899909984E+02  0.17397257213E+02  0.24640917577E+02  0.33642929348E+02  0.00000000000E+00 0. -1.
</event>
<event>
 4    1  0.2243475E+005  0.6452485E+02  0.7546771E-02  0.1245188E+00
          2   -1    0    0  503    0  0.00000000000E+00  0.00000000000E+00  0.12297875789E+03  0.12297875789E+03  0.00000000000E+00 0.  1.
         21   -1    0    0  501  502 -0.00000000000E+00 -0.00000000000E+00 -0.34477237091E+02  0.34477237091E+02  0.00000000000E+00 0.  1.
          2    1    1    2  501    0  0.16925580213E+02 -0.62265410531E+02  0.54826490822E+02  0.84672313716E+02  0.00000000000E+00 0.  1.
         21    1    1    2  503  502 -0.16925580213E+02  0.62265410531E+02  0.33675029973E+02  0.72783681261E+02  0.00000000000E+00 0.  1.
</event>
<event>
 4    1  0.2243475E+005  0.2160616E+02  0.7546771E-02  0.1510784E+00
          2   -1    0    0  503    0  0.00000000000E+00  0.00000000000E+00  0.11821278546E+04  0.11821278546E+04  0.00000000000E+00 0. -1.
         21   -1    0    0  501  502 -0.00000000000E+00 -0.00000000000E+00 -0.14208994749E+01  0.14208994749E+01  0.00000000000E+00 0. -1.
          2    1    1    2  501    0  0.20366152260E+02  0.72142811276E+01  0.10932138159E+04  0.10934273059E+04  0.00000000000E+00 0. -1.
         21    1    1    2  503  502 -0.20366152260E+02 -0.72142811276E+01  0.87493139245E+02  0.90121448196E+02  0.00000000000E+00 0. -1.
</event>
<event>
 4    1  0.2243475E+005  0.2183998E+02  0.7546771E-02  0.1507602E+00
          2   -1    0    0  502    0  0.00000000000E+00  0.00000000000E+00  0.12334167379E+03  0.12334167379E+03  0.00000000000E+00 0.  1.
         21   -1    0    0  503  502 -0.00000000000E+00 -0.00000000000E+00 -0.13635391772E+02  0.13635391772E+02  0.00000000000E+00 0. -1.
          2    1    1    2  501    0 -0.17795354336E+02  0.12661353625E+02  0.11282157593E+03  0.11491602371E+03  0.00000000000E+00 0.  1.
         21    1    1    2  503  501  0.17795354336E+02 -0.12661353625E+02 -0.31152939032E+01  0.22061041854E+02  0.00000000000E+00 0. -1.
</event>
<event>
 4    1  0.2243475E+005  0.3088615E+02  0.7546771E-02  0.1412049E+00
          2   -1    0    0  502    0  0.00000000000E+00  0.00000000000E+00  0.10384640832E+04  0.10384640832E+04  0.00000000000E+00 0. -1.
         21   -1    0    0  503  502 -0.00000000000E+00 -0.00000000000E+00 -0.87674991707E+02  0.87674991707E+02  0.00000000000E+00 0.  1.
          2    1    1    2  501    0 -0.30237131850E+02 -0.62984013769E+01  0.10355065179E+04  0.10359670375E+04  0.00000000000E+00 0. -1.
         21    1    1    2  503  501  0.30237131850E+02  0.62984013769E+01 -0.84717426422E+02  0.90172037473E+02  0.00000000000E+00 0.  1.
</event>
<event>
 4    1  0.2243475E+005  0.2111751E+02  0.7546771E-02  0.1517594E+00
          2   -1    0    0  502    0  0.00000000000E+00  0.00000000000E+00  0.19681636080E+04  0.19681636080E+04  0.00000000000E+00 0. -1.
         21   -1    0    0  503  502 -0.00000000000E+00 -0.00000000000E+00 -0.31809497877E+00  0.31809497877E+00  0.00000000000E+00 0.  1.
          2    1    1    2  501    0  0.20735855770E+02  0.39966915493E+01  0.15118398922E+04  0.15119873707E+04  0.00000000000E+00 0. -1.
         21    1    1    2  503  501 -0.20735855770E+02 -0.39966915493E+01  0.45600562077E+03  0.45649433231E+03  0.00000000000E+00 0.  1.
</event>
<event>
 4    1  0.2243475E+005  0.2805242E+02  0.7546771E-02  0.1437313E+00
          2   -1    0    0  503    0  0.00000000000E+00  0.00000000000E+00  0.17184427667E+03  0.17184427667E+03  0.00000000000E+00 0.  1.
         21   -1    0    0  501  502 -0.00000000000E+00 -0.00000000000E+00 -0.71448469118E+01  0.71448469118E+01  0.00000000000E+00 0.  1.
          2    1    1    2  501    0 -0.20507704940E+02  0.19140848940E+02  0.13597683392E+03  0.13884033067E+03  0.00000000000E+00 0.  1.
         21    1    1    2  503  502  0.20507704940E+02 -0.19140848940E+02  0.28722595844E+02  0.40148792909E+02  0.00000000000E+00 0.  1.
</event>
<event>
 4    1  0.2243475E+005  0.5325618E+02  0.7546771E-02  0.1284640E+00
          2   -1    0    0  503    0  0.00000000000E+00  0.00000000000E+00  0.16940416932E+04  0.16940416932E+04  0.00000000000E+00 0.  1.
         21   -1    0    0  501  502 -0.00000000000E+00 -0.00000000000E+00 -0.21724103924E+01  0.21724103924E+01  0.00000000000E+00 0.  1.
          2    1    1    2  501    0  0.42867643472E+02 -0.31600413716E+02  0.12520707637E+04  0.12532028639E+04  0.00000000000E+00 0.  1.
         21    1    1    2  503  502 -0.42867643472E+02  0.31600413716E+02  0.43979851915E+03  0.44301123964E+03  0.00000000000E+00 0.  1.
</event>
<event>
 4    1  0.2243475E+005  0.3037047E+02  0.7546771E-02  0.1416404E+00
          2   -1    0    0  503    0  0.00000000000E+00  0.00000000000E+00  0.50657222293E+03  0.50657222293E+03  0.00000000000E+00 0. -1.
         21   -1    0    0  501  502 -0.00000000000E+00 -0.00000000000E+00 -0.62904924932E+01  0.62904924932E+01  0.00000000000E+00 0. -1.
          2    1    1    2  501    0 -0.21007412932E+02  0.21932942441E+02  0.46629709611E+03  0.46728508130E+03  0.00000000000E+00 0. -1.
         21    1    1    2  503  502  0.21007412932E+02 -0.21932942441E+02  0.33984634326E+02  0.45577634126E+02  0.00000000000E+00 0. -1.
</event>
<event>
 4    1  0.2243475E+005  0.2020654E+02  0.7546771E-02  0.1530902E+00
          2   -1    0    0  503    0  0.00000000000E+00  0.00000000000E+00  0.10910864473E+04  0.10910864473E+04  0.00000000000E+00 0. -1.
         21   -1    0    0  501  502 -0.00000000000E+00 -0.00000000000E+00 -0.42365442580E+02  0.42365442580E+02  0.00000000000E+00 0. -1.
          2    1    1    2  501    0 -0.19058464588E+02  0.67140894036E+01  0.10885779240E+04  0.10887654480E+04  0.00000000000E+00 0. -1.
         21    1    1    2  503  502  0.19058464588E+02 -0.67140894036E+01 -0.39856919323E+02  0.44686441869E+02  0.00000000000E+00 0. -1.
</event>
<event>
 4    1  0.2243475E+005  0.2416401E+02  0.7546771E-02  0.1478377E+00
          2   -1    0    0  503    0  0.00000000000E+00  0.00000000000E+00  0.24533877097E+03  0.24533877097E+03  0.00000000000E+00 0. -1.
         21   -1    0    0  501  502 -0.00000000000E+00 -0.00000000000E+00 -0.12238930771E+03  0.12238930771E+03  0.00000000000E+00 0. -1.
          2    1    1    2  501    0  0.98110057858E+01  0.22082648005E+02  0.24354229308E+03  0.24473812064E+03  0.00000000000E+00 0. -1.
         21    1    1    2  503  502 -0.98110057858E+01 -0.22082648005E+02 -0.12059282981E+03  0.12298995804E+03  0.00000000000E+00 0. -1.
</event>
<event>
 4    1  0.2243475E+005  0.3236705E+02  0.7546771E-02  0.1400083E+00
          2   -1    0    0  502    0  0.00000000000E+00  0.00000000000E+00  0.77458946239E+03  0.77458946239E+03  0.00000000000E+00 0. -1.
         21   -1    0    0  503  502 -0.00000000000E+00 -0.00000000000E+00 -0.11294491375E+03  0.11294491375E+03  0.00000000000E+00 0.  1.
          2    1    1    2  501    0 -0.13398892586E+02 -0.29463463126E+02  0.77192445011E+03  0.77260273276E+03  0.00000000000E+00 0. -1.
         21    1    1    2  503  501  0.13398892586E+02  0.29463463126E+02 -0.11027990147E+03  0.11493164338E+03  0.00000000000E+00 0.  1.
</event>
<event>
 4    1  0.2243475E+005  0.2065943E+02  0.7546771E-02  0.1524183E+00
          2   -1    0    0  503    0  0.00000000000E+00  0.00000000000E+00  0.50418102137E+01  0.50418102137E+01  0.00000000000E+00 0.  1.
         21   -1    0    0  501  502 -0.00000000000E+00 -0.00000000000E+00 -0.89613968107E+02  0.89613968107E+02  0.00000000000E+00 0.  1.
          2    1    1    2  501    0 -0.20228037835E+02  0.41998240950E+01 -0.31152216822E+02  0.37380110353E+02  0.00000000000E+00 0.  1.
         21    1    1    2  503  502  0.20228037835E+02 -0.41998240950E+01 -0.53419941072E+02  0.57275667968E+02  0.00000000000E+00 0.  1.
</event>
<event>
 4    1  0.2243475E+005  0.2728613E+02  0.7546771E-02  0.1444755E+00
          2   -1    0    0  503    0  0.00000000000E+00  0.00000000000E+00  0.20548261699E+03  0.20548261699E+03  0.00000000000E+00 0. -1.
         21   -1    0    0  501  502 -0.00000000000E+00 -0.00000000000E+00 -0.26554020826E+02  0.26554020826E+02  0.00000000000E+00 0. -1.
          2    1    1    2  501    0  0.20533906769E+02 -0.17969182847E+02  0.19727699785E+03  0.19915508214E+03  0.00000000000E+00 0. -1.
         21    1    1    2  503  502 -0.20533906769E+02  0.17969182847E+02 -0.18348401688E+02  0.32881555679E+02  0.00000000000E+00 0. -1.
</event>
<event>
 4    1  0.2243475E+005  0.2220022E+02  0.7546771E-02  0.1502793E+00
          2   -1    0    0  503    0  0.00000000000E+00  0.00000000000E+00  0.15693271650E+03  0.15693271650E+03  0.00000000000E+00 0.  1.
         21   -1    0    0  501  502 -0.00000000000E+00 -0.00000000000E+00 -0.13573843078E+03  0.13573843078E+03  0.00000000000E+00 0. -1.
          2    1    1    2  501    0 -0.87448968626E+01 -0.20405308836E+02  0.15522996086E+03  0.15680940851E+03  0.00000000000E+00 0.  1.
         21    1    1    2  503  502  0.87448968626E+01  0.20405308836E+02 -0.13403567514E+03  0.13586173877E+03  0.00000000000E+00 0. -1.
</event>
<event>
 4    1  0.2243475E+005  0.2297370E+02  0.7546771E-02  0.1492829E+00
          2   -1    0    0  503    0  0.00000000000E+00  0.00000000000E+00  0.66030656606E+03  0.66030656606E+03  0.00000000000E+00 0. -1.
         21   -1    0    0  501  502 -0.00000000000E+00 -0.00000000000E+00 -0.12703429086E+01  0.12703429086E+01  0.00000000000E+00 0. -1.
          2    1    1    2  501    0 -0.18889791498E+02 -0.13075428484E+02  0.53094363400E+03  0.53144043272E+03  0.00000000000E+00 0. -1.
         21    1    1    2  503  502  0.18889791498E+02  0.13075428484E+02  0.12809258915E+03  0.13013647624E+03  0.00000000000E+00 0. -1.
</event>
<event>
 4    1  0.2243475E+005  0.2413025E+02  0.7546771E-02  0.1478773E+00
          2   -1    0    0  503    0  0.00000000000E+00  0.00000000000E+00  0.14805124248E+03  0.14805124248E+03  0.00000000000E+00 0.  1.
         21   -1    0    0  501  502 -0.00000000000E+00 -0.00000000000E+00 -0.12767817480E+02  0.12767817480E+02  0.00000000000E+00 0.  1.
          2    1    1    2  501    0 -0.12265642508E+02 -0.20780346949E+02  0.13453010505E+03  0.13667705722E+03  0.00000000000E+00 0.  1.
         21    1    1    2  503  502  0.12265642508E+02  0.20780346949E+02  0.75331995184E+00  0.24142002742E+02  0.00000000000E+00 0.  1.
</event>
<event>
 4    1  0.2243475E+005  0.3001617E+02  0.7546771E-02  0.1419456E+00
          2   -1    0    0  503    0  0.00000000000E+00  0.00000000000E+00  0.40874625310E+03  0.40874625310E+03  0.00000000000E+00 0.  1.
         21   -1    0    0  501  502 -0.00000000000E+00 -0.00000000000E+00 -0.84176294072E+02  0.84176294072E+02  0.00000000000E+00 0.  1.
          2    1    1    2  501    0 -0.30015994011E+02  0.10305967569E+00  0.40549794577E+03  0.40660737147E+03  0.00000000000E+00 0.  1.
         21    1    1    2  503  502  0.30015994011E+02 -0.10305967569E+00 -0.80927986739E+02  0.86315175696E+02  0.00000000000E+00 0.  1.
</event>
<event>
 4    1  0.2243475E+005  0.2008109E+02  0.7546771E-02  0.1532800E+00
          2   -1    0    0  503    0  0.00000000000E+00  0.00000000000E+00  0.91265915390E+03  0.91265915390E+03  0.00000000000E+00 0.  1.
         21   -1    0    0  501  502 -0.00000000000E+00 -0.00000000000E+00 -0.49596168843E+00  0.49596168843E+00  0.00000000000E+00 0.  1.
          2    1    1    2  501    0 -0.61521126609E+01  0.19115481120E+02  0.60690637579E+03  0.60723850264E+03  0.00000000000E+00 0.  1.
         21    1    1    2  503  502  0.61521126609E+01 -0.19115481120E+02  0.30525681641E+03  0.30591661294E+03  0.00000000000E+00 0.  1.
</event>
<event>
 4    1  0.2243475E+005  0.2984664E+02  0.7546771E-02  0.1420934E+00
          2   -1    0    0  503    0  0.00000000000E+00  0.00000000000E+00  0.83613763868E+03  0.83613763868E+03  0.00000000000E+00 0.  1.
         21   -1    0    0  501  502 -0.00000000000E+00 -0.00000000000E+00 -0.41530558102E+01  0.41530558102E+01  0.00000000000E+00 0.  1.
          2    1    1    2  501    0  0.18477303844E+02 -0.23439518234E+02  0.77826035892E+03  0.77883246468E+03  0.00000000000E+00 0.  1.
         21    1    1    2  503  502 -0.18477303844E+02  0.23439518234E+02  0.53724223946E+02  0.61458229807E+02  0.00000000000E+00 0.  1.
</event>
<event>
 4    1  0.2243475E+005  0.2225237E+02  0.7546771E-02  0.1502106E+00
          2   -1    0    0  503    0  0.00000000000E+00  0.00000000000E+00  0.10865486113E+03  0.10865486113E+03  0.00000000000E+00 0.  1.
         21   -1    0    0  501  502 -0.00000000000E+00 -0.00000000000E+00 -0.46964826482E+01  0.46964826482E+01  0.00000000000E+00 0.  1.
          2    1    1    2  501    0  0.22182941128E+02  0.17564984355E+01  0.61737382259E+02  0.65625243100E+02  0.00000000000E+00 0.  1.
         21    1    1    2  503  502 -0.22182941128E+02 -0.17564984355E+01  0.42220996223E+02  0.47726100678E+02  0.00000000000E+00 0.  1.
</event>
<event>
 4    1  0.2243475E+005  0.2279838E+02  0.7546771E-02  0.1495046E+00
          2   -1    0    0  502    0  0.00000000000E+00  0.00000000000E+00  0.66516362855E+03  0.66516362855E+03  0.00000000000E+00 0.  1.
         21   -1    0    0  503  502 -0.00000000000E+00 -0.00000000000E+00 -0.83545409369E+01  0.83545409369E+01  0.00000000000E+00 0. -1.
          2    1    1    2  501    0 -0.31012236583E+01 -0.22586469702E+02  0.64902832229E+03  0.64942861759E+03  0.00000000000E+00 0.  1.
         21    1    1    2  503  501  0.31012236583E+01  0.22586469702E+02  0.77807653198E+01  0.24089551900E+02  0.00000000000E+00 0. -1.
</event>
<event>
 4    1  0.2243475E+005  0.2388238E+02  0.7546771E-02  0.1481706E+00
          2   -1    0    0  502    0  0.00000000000E+00  0.00000000000E+00  0.91009099179E+03  0.91009099179E+03  0.00000000000E+00 0. -1.
         21   -1    0    0  503  502 -0.00000000000E+00 -0.00000000000E+00 -0.66805297463E+00  0.66805297463E+00  0.00000000000E+00 0. -1.
          2    1    1    2  501    0 -0.43991298710E+01 -0.23473729042E+02  0.56798776767E+03  0.56848964152E+03  0.00000000000E+00 0. -1.
         21    1    1    2  503  501  0.43991298710E+01  0.23473729042E+02  0.34143517115E+03  0.34226940324E+03  0.00000000000E+00 0. -1.
</event>
<event>
 4    1  0.2243475E+005  0.3322408E+02  0.7546771E-02  0.1393497E+00
          2   -1    0    0  503    0  0.00000000000E+00  0.00000000000E+00  0.88220033240E+01  0.88220033240E+01  0.00000000000E+00 0. -1.
         21   -1    0    0  501  502 -0.00000000000E+00 -0.00000000000E+00 -0.16678888727E+03  0.16678888727E+03  0.00000000000E+00 0. -1.
          2    1    1    2  501    0  0.30610274858E+02  0.12917069994E+02 -0.35097463282E+02  0.48328785966E+02  0.00000000000E+00 0. -1.
         21    1    1    2  503  502 -0.30610274858E+02 -0.12917069994E+02 -0.12286942066E+03  0.12728210462E+03  0.00000000000E+00 0. -1.
</event>
<event>
 4    1  0.2243475E+005  0.2680912E+02  0.7546771E-02  0.1449535E+00
          2   -1    0    0  502    0  0.00000000000E+00  0.00000000000E+00  0.11306803716E+03  0.11306803716E+03  0.00000000000E+00 0.  1.
         21   -1    0    0  503  502 -0.00000000000E+00 -0.00000000000E+00 -0.72783750278E+01  0.72783750278E+01  0.00000000000E+00 0. -1.
          2    1    1    2  501    0  0.68425075007E+01 -0.25921205316E+02  0.74308808754E+02  0.78997011667E+02  0.00000000000E+00 0.  1.
         21    1    1    2  503  501 -0.68425075007E+01  0.25921205316E+02  0.31480853377E+02  0.41349400519E+02  0.00000000000E+00 0. -1.
</event>
<event>
 4    1  0.2243475E+005  0.4907795E+02  0.7546771E-02  0.1302220E+00
          2   -1    0    0  503    0  0.00000000000E+00  0.00000000000E+00  0.13314783789E+04  0.13314783789E+04  0.00000000000E+00 0. -1.
         21   -1    0    0  501  502 -0.00000000000E+00 -0.00000000000E+00 -0.89778689937E+01  0.89778689937E+01  0.00000000000E+00 0. -1.
          2    1    1    2  501    0  0.24521595716E+02 -0.42512781436E+02  0.12601599153E+04  0.12611152435E+04  0.00000000000E+00 0. -1.
         21    1    1    2  503  502 -0.24521595716E+02  0.42512781436E+02  0.62340594563E+02  0.79341004357E+02  0.00000000000E+00 0. -1.
</event>
<event>
 4    1  0.2243475E+005  0.7787826E+02  0.7546771E-02  0.1208861E+00
          2   -1    0    0  503    0  0.00000000000E+00  0.00000000000E+00  0.16411463820E+03  0.16411463820E+03  0.00000000000E+00 0. -1.
         21   -1    0    0  501  502 -0.00000000000E+00 -0.00000000000E+00 -0.37546961924E+02  0.37546961924E+02  0.00000000000E+00 0. -1.
          2    1    1    2  501    0  0.63996023007E+02  0.44379413652E+02  0.50634161883E+02  0.92891558639E+02  0.00000000000E+00 0. -1.
         21    1    1    2  503  502 -0.63996023007E+02 -0.44379413652E+02  0.75933514394E+02  0.10877004149E+03  0.00000000000E+00 0. -1.
</event>
<event>
 4    1  0.2243475E+005  0.2690293E+02  0.7546771E-02  0.1448586E+00
          2   -1    0    0  503    0  0.00000000000E+00  0.00000000000E+00  0.55998964699E+03  0.55998964699E+03  0.00000000000E+00 0. -1.
         21   -1    0    0  501  502 -0.00000000000E+00 -0.00000000000E+00 -0.13430614685E+01  0.13430614685E+01  0.00000000000E+00 0.  1.
          2    1    1    2  501    0  0.98479494672E+01 -0.25035680696E+02  0.33379857190E+03  0.33488095500E+03  0.00000000000E+00 0. -1.
         21    1    1    2  503  502 -0.98479494672E+01  0.25035680696E+02  0.22484801362E+03  0.22645175346E+03  0.00000000000E+00 0.  1.
</event>
<event>
 4    1  0.2243475E+005  0.4157833E+02  0.7546771E-02  0.1339477E+00
          2   -1    0    0  502    0  0.00000000000E+00  0.00000000000E+00  0.13043231147E+03  0.13043231147E+03  0.00000000000E+00 0.  1.
         21   -1    0    0  503  502 -0.00000000000E+00 -0.00000000000E+00 -0.65475438938E+02  0.65475438938E+02  0.00000000000E+00 0.  1.
          2    1    1    2  501    0  0.83809209631E+01  0.40724898914E+02  0.11995799727E+03  0.12695935703E+03  0.00000000000E+00 0.  1.
         21    1    1    2  503  501 -0.83809209631E+01 -0.40724898914E+02 -0.55001124736E+02  0.68948393382E+02  0.00000000000E+00 0.  1.
</event>
<event>
 4    1  0.2243475E+005  0.2277648E+02  0.7546771E-02  0.1495324E+00
          2   -1    0    0  503    0  0.00000000000E+00  0.00000000000E+00  0.16800331942E+04  0.16800331942E+04  0.00000000000E+00 0. -1.
         21   -1    0    0  501  502 -0.00000000000E+00 -0.00000000000E+00 -0.59086343337E+00  0.59086343337E+00  0.00000000000E+00 0. -1.
          2    1    1    2  501    0 -0.21142725589E+02 -0.84707319541E+01  0.14203283151E+04  0.14205109260E+04  0.00000000000E+00 0. -1.
         21    1    1    2  503  502  0.21142725589E+02  0.84707319541E+01  0.25911401565E+03  0.26011313164E+03  0.00000000000E+00 0. -1.
</event>
<event>
 4    1  0.2243475E+005  0.3165190E+02  0.7546771E-02  0.1405765E+00
          2   -1    0    0  503    0  0.00000000000E+00  0.00000000000E+00  0.11964123897E+03  0.11964123897E+03  0.00000000000E+00 0.  1.
         21   -1    0    0  501  502 -0.00000000000E+00 -0.00000000000E+00 -0.29464695059E+02  0.29464695059E+02  0.00000000000E+00 0. -1.
          2    1    1    2  501    0  0.70589509935E+01  0.30854724118E+02  0.10816399505E+03  0.11270001160E+03  0.00000000000E+00 0.  1.
         21    1    1    2  503  502 -0.70589509935E+01 -0.30854724118E+02 -0.17987451138E+02  0.36405922430E+02  0.00000000000E+00 0. -1.
</event>
<event>
 4    1  0.2243475E+005  0.4204740E+02  0.7546771E-02  0.1336888E+00
          2   -1    0    0  503    0  0.00000000000E+00  0.00000000000E+00  0.22108464132E+03  0.22108464132E+03  0.00000000000E+00 0.  1.
         21   -1    0    0  501  502 -0.00000000000E+00 -0.00000000000E+00 -0.99346691765E+02  0.99346691765E+02  0.00000000000E+00 0. -1.
          2    1    1    2  501    0 -0.37412522570E+02  0.19190796112E+02  0.21450113803E+03  0.21858344338E+03  0.00000000000E+00 0.  1.
         21    1    1    2  503  502  0.37412522570E+02 -0.19190796112E+02 -0.92763188481E+02  0.10184788971E+03  0.00000000000E+00 0. -1.
</event>
<event>
 4    1  0.2243475E+005  0.2012845E+02  0.7546771E-02  0.1532081E+00
          2   -1    0    0  503    0  0.00000000000E+00  0.00000000000E+00  0.62258895385E+03  0.62258895385E+03  0.00000000000E+00 0. -1.
         21   -1    0    0  501  502 -0.00000000000E+00 -0.00000000000E+00 -0.24571744917E+03  0.24571744917E+03  0.00000000000E+00 0. -1.
          2    1    1    2  501    0 -0.13203248636E+02  0.15193042898E+02  0.62201366770E+03  0.62233926209E+03  0.00000000000E+00 0. -1.
         21    1    1    2  503  502  0.13203248636E+02 -0.15193042898E+02 -0.24514216302E+03  0.24596714093E+03  0.00000000000E+00 0. -1.
</event>
<event>
 4    1  0.2243475E+005  0.2994745E+02  0.7546771E-02  0.1420054E+00
          2   -1    0    0  503    0  0.00000000000E+00  0.00000000000E+00  0.73933941936E+03  0.73933941936E+03  0.00000000000E+00 0.  1.
         21   -1    0    0  501  502 -0.00000000000E+00 -0.00000000000E+00 -0.29154382929E+01  0.29154382929E+01  0.00000000000E+00 0.  1.
          2    1    1    2  501    0 -0.26822640409E+02  0.13318995910E+02  0.65180888564E+03  0.65249649278E+03  0.00000000000E+00 0.  1.
         21    1    1    2  503  502  0.26822640409E+02 -0.13318995910E+02  0.84615095427E+02  0.89758364873E+02  0.00000000000E+00 0.  1.
</event>
<event>
 4    1  0.2243475E+005  0.3307487E+02  0.7546771E-02  0.1394627E+00
          2   -1    0    0  503    0  0.00000000000E+00  0.00000000000E+00  0.19935189193E+04  0.19935189193E+04  0.00000000000E+00 0.  1.
         21   -1    0    0  501  502 -0.00000000000E+00 -0.00000000000E+00 -0.12756053592E+02  0.12756053592E+02  0.00000000000E+00 0.  1.
          2    1    1    2  501    0 -0.79013535158E+01  0.32117212780E+02  0.19717047907E+04  0.19719821826E+04  0.00000000000E+00 0.  1.
         21    1    1    2  503  502  0.79013535158E+01 -0.32117212780E+02  0.90580750002E+01  0.34292790304E+02  0.00000000000E+00 0.  1.
</event>
<event>
 4    1  0.2243475E+005  0.2061431E+02  0.7546771E-02  0.1524843E+00
          2   -1    0    0  503    0  0.00000000000E+00  0.00000000000E+00  0.11941636237E+03  0.11941636237E+03  0.00000000000E+00 0. -1.
         21   -1    0    0  501  502 -0.00000000000E+00 -0.00000000000E+00 -0.35286758776E+02  0.35286758776E+02  0.00000000000E+00 0.  1.
          2    1    1    2  501    0 -0.20614178940E+02  0.73741631379E-01  0.11541240588E+03  0.11723895787E+03  0.00000000000E+00 0. -1.
         21    1    1    2  503  502  0.20614178940E+02 -0.73741631379E-01 -0.31282802286E+02  0.37464163277E+02  0.00000000000E+00 0.  1.
</event>
<event>
 4    1  0.2243475E+005  0.2131333E+02  0.7546771E-02  0.1514838E+00
          2   -1    0    0  502    0  0.00000000000E+00  0.00000000000E+00  0.14187140596E+04  0.14187140596E+04  0.00000000000E+00 0.  1.
         21   -1    0    0  503  502 -0.00000000000E+00 -0.00000000000E+00 -0.16378420887E+01  0.16378420887E+01  0.00000000000E+00 0. -1.
          2    1    1    2  501    0  0.62808029238E+01  0.20366872403E+02  0.13455247642E+04  0.13456935569E+04  0.00000000000E+00 0.  1.
         21    1    1    2  503  501 -0.62808029238E+01 -0.20366872403E+02  0.71551453240E+02  0.74658344729E+02  0.00000000000E+00 0. -1.
</event>
<event>
 4    1  0.2243475E+005  0.2085750E+02  0.7546771E-02  0.1521309E+00
          2   -1    0    0  503    0  0.00000000000E+00  0.00000000000E+00  0.60037452993E+03  0.60037452993E+03  0.00000000000E+00 0.  1.
         21   -1    0    0  501  502 -0.00000000000E+00 -0.00000000000E+00 -0.77445719691E+01  0.77445719691E+01  0.00000000000E+00 0.  1.
          2    1    1    2  501    0 -0.10201944342E+02 -0.18192184795E+02  0.58580088827E+03  0.58617208732E+03  0.00000000000E+00 0.  1.
         21    1    1    2  503  502  0.10201944342E+02  0.18192184795E+02  0.68290696883E+01  0.21947014576E+02  0.00000000000E+00 0.  1.
</event>
<event>
 4    1  0.2243475E+005  0.3392373E+02  0.7546771E-02  0.1388292E+00
          2   -1    0    0  502    0  0.00000000000E+00  0.00000000000E+00  0.21048213264E+04  0.21048213264E+04  0.00000000000E+00 0.  1.
         21   -1    0    0  503  502 -0.00000000000E+00 -0.00000000000E+00 -0.15276653093E+01  0.15276653093E+01  0.00000000000E+00 0.  1.
          2    1    1    2  501    0  0.21688787455E+02  0.26084784203E+02  0.18955664767E+04  0.18958700080E+04  0.00000000000E+00 0.  1.
         21    1    1    2  503  501 -0.21688787455E+02 -0.26084784203E+02  0.20772718441E+03  0.21047898377E+03  0.00000000000E+00 0.  1.
</event>
<event>
 4    1  0.2243475E+005  0.2291647E+02  0.7546771E-02  0.1493550E+00
          2   -1    0    0  503    0  0.00000000000E+00  0.00000000000E+00  0.38452606207E+03  0.38452606207E+03  0.00000000000E+00 0. -1.
         21   -1    0    0  501  502 -0.00000000000E+00 -0.00000000000E+00 -0.28209916575E+02  0.28209916575E+02  0.00000000000E+00 0. -1.
          2    1    1    2  501    0 -0.18346817827E+02 -0.13731670911E+02  0.37946857651E+03  0.38015992038E+03  0.00000000000E+00 0. -1.
         21    1    1    2  503  502  0.18346817827E+02  0.13731670911E+02 -0.23152431009E+02  0.32576058264E+02  0.00000000000E+00 0. -1.
</event>
<event>
 4    1  0.2243475E+005  0.2268684E+02  0.7546771E-02  0.1496468E+00
          2   -1    0    0  503    0  0.00000000000E+00  0.00000000000E+00  0.20486611691E+03  0.20486611691E+03  0.00000000000E+00 0. -1.
         21   -1    0    0  501  502 -0.00000000000E+00 -0.00000000000E+00 -0.34725954508E+02  0.34725954508E+02  0.00000000000E+00 0.  1.
          2    1    1    2  501    0 -0.89428150183E+01  0.20849908511E+02  0.20045129485E+03  0.20173104429E+03  0.00000000000E+00 0. -1.
         21    1    1    2  503  502  0.89428150183E+01 -0.20849908511E+02 -0.30311132442E+02  0.37861027129E+02  0.00000000000E+00 0.  1.
</event>
<event>
 4    1  0.2243475E+005  0.2018813E+02  0.7546771E-02  0.1531179E+00
          2   -1    0    0  503    0  0.00000000000E+00  0.00000000000E+00  0.31200147219E+03  0.31200147219E+03  0.00000000000E+00 0.  1.
         21   -1    0    0  501  502 -0.00000000000E+00 -0.00000000000E+00 -0.13085967777E+01  0.13085967777E+01  0.00000000000E+00 0.  1.
          2    1    1    2  501    0  0.82974750585E+01  0.18404141884E+02  0.16194135708E+03  0.16319486409E+03  0.00000000000E+00 0.  1.
         21    1    1    2  503  502 -0.82974750585E+01 -0.18404141884E+02  0.14875151833E+03  0.15011520488E+03  0.00000000000E+00 0.  1.
</event>
<event>
 4    1  0.2243475E+005  0.2200132E+02  0.7546771E-02  0.1505434E+00
          2   -1    0    0  503    0  0.00000000000E+00  0.00000000000E+00  0.28786955550E+03  0.28786955550E+03  0.00000000000E+00 0.  1.
         21   -1    0    0  501  502 -0.00000000000E+00 -0.00000000000E+00 -0.23186309181E+03  0.23186309181E+03  0.00000000000E+00 0.  1.
          2    1    1    2  501    0  0.14554431550E+02  0.16499286632E+02  0.28692553910E+03  0.28776782816E+03  0.00000000000E+00 0.  1.
         21    1    1    2  503  502 -0.14554431550E+02 -0.16499286632E+02 -0.23091907540E+03  0.23196481915E+03  0.00000000000E+00 0.  1.
</event>
<event>
 4    1  0.2243475E+005  0.2573100E+02  0.7546771E-02  0.1460789E+00
          2   -1    0    0  502    0  0.00000000000E+00  0.00000000000E+00  0.74502868397E+02  0.74502868397E+02  0.00000000000E+00 0. -1.
         21   -1    0    0  503  502 -0.00000000000E+00 -0.00000000000E+00 -0.26103169767E+02  0.26103169767E+02  0.00000000000E+00 0. -1.
          2    1    1    2  501    0  0.17646018523E+02 -0.18727056511E+02  0.65052428810E+02  0.69956437226E+02  0.00000000000E+00 0. -1.
         21    1    1    2  503  501 -0.17646018523E+02  0.18727056511E+02 -0.16652730180E+02  0.30649600939E+02  0.00000000000E+00 0. -1.
</event>
<event>
 4    1  0.2243475E+005  0.2555564E+02  0.7546771E-02  0.1462682E+00
          2   -1    0    0  502    0  0.00000000000E+00  0.00000000000E+00  0.18169323638E+02  0.18169323638E+02  0.00000000000E+00 0. -1.
         21   -1    0    0  503  502 -0.00000000000E+00 -0.00000000000E+00 -0.80732830033E+02  0.80732830033E+02  0.00000000000E+00 0.  1.
          2    1    1    2  501    0 -0.61872526896E+01  0.24795335786E+02  0.55508284849E+01  0.26151529008E+02  0.00000000000E+00 0. -1.
         21    1    1    2  503  501  0.61872526896E+01 -0.24795335786E+02 -0.68114334881E+02  0.72750624663E+02  0.00000000000E+00 0.  1.
</event>
<event>
 4    1  0.2243475E+005  0.2259680E+02  0.7546771E-02  0.1497624E+00
          2   -1    0    0  502    0  0.00000000000E+00  0.00000000000E+00  0.20479239583E+03  0.20479239583E+03  0.00000000000E+00 0.  1.
         21   -1    0    0  503  502 -0.00000000000E+00 -0.00000000000E+00 -0.97902269495E+01  0.97902269495E+01  0.00000000000E+00 0. -1.
          2    1    1    2  501    0  0.22438100982E+02  0.26733631662E+01  0.19012800974E+03  0.19146612059E+03  0.00000000000E+00 0.  1.
         21    1    1    2  503  501 -0.22438100982E+02 -0.26733631662E+01  0.48741591455E+01  0.23116502194E+02  0.00000000000E+00 0. -1.
</event>
<event>
 4    1  0.2243475E+005  0.4094767E+02  0.7546771E-02  0.1343020E+00
          2   -1    0    0  502    0  0.00000000000E+00  0.00000000000E+00  0.90986929904E+03  0.90986929904E+03  0.00000000000E+00 0.  1.
         21   -1    0    0  503  502 -0.00000000000E+00 -0.00000000000E+00 -0.94822606439E+02  0.94822606439E+02  0.00000000000E+00 0. -1.
          2    1    1    2  501    0  0.17956071778E+02 -0.36800695880E+02  0.90496399415E+03  0.90588991739E+03  0.00000000000E+00 0.  1.
         21    1    1    2  503  501 -0.17956071778E+02  0.36800695880E+02 -0.89917301550E+02  0.98801988082E+02  0.00000000000E+00 0. -1.
</event>
<event>
 4    1  0.2243475E+005  0.2232782E+02  0.7546771E-02  0.1501116E+00
          2   -1    0    0  503    0  0.00000000000E+00  0.00000000000E+00  0.12159781245E+04  0.12159781245E+04  0.00000000000E+00 0. -1.
         21   -1    0    0  501  502 -0.00000000000E+00 -0.00000000000E+00 -0.44668280173E+02  0.44668280173E+02  0.00000000000E+00 0.  1.
          2    1    1    2  501    0  0.18041995505E+02 -0.13153621508E+02  0.12130787737E+04  0.12132842381E+04  0.00000000000E+00 0. -1.
         21    1    1    2  503  502 -0.18041995505E+02  0.13153621508E+02 -0.41768929348E+02  0.47362166540E+02  0.00000000000E+00 0.  1.
</event>
<event>
 4    1  0.2243475E+005  0.3405829E+02  0.7546771E-02  0.1387307E+00
          2   -1    0    0  503    0  0.00000000000E+00  0.00000000000E+00  0.90375470045E+03  0.90375470045E+03  0.00000000000E+00 0. -1.
         21   -1    0    0  501  502 -0.00000000000E+00 -0.00000000000E+00 -0.34513211250E+01  0.34513211250E+01  0.00000000000E+00 0.  1.
          2    1    1    2  501    0 -0.14969557513E+02  0.30592150721E+02  0.80964860432E+03  0.81036462770E+03  0.00000000000E+00 0. -1.
         21    1    1    2  503  502  0.14969557513E+02 -0.30592150721E+02  0.90654775001E+02  0.96841393878E+02  0.00000000000E+00 0.  1.
</event>
<event>
 4    1  0.2243475E+005  0.2180452E+02  0.7546771E-02  0.1508081E+00
          2   -1    0    0  502    0  0.00000000000E+00  0.00000000000E+00  0.99822111012E+01  0.99822111012E+01  0.00000000000E+00 0.  1.
         21   -1    0    0  503  502 -0.00000000000E+00 -0.00000000000E+00 -0.25799136850E+03  0.25799136850E+03  0.00000000000E+00 0. -1.
          2    1    1    2  501    0  0.65725649334E+01  0.20790348783E+02 -0.30161070522E+01  0.22012135610E+02  0.00000000000E+00 0.  1.
         21    1    1    2  503  501 -0.65725649334E+01 -0.20790348783E+02 -0.24499305034E+03  0.24596144399E+03  0.00000000000E+00 0. -1.
</event>
<event>
 4    1  0.2243475E+005  0.2055959E+02  0.7546771E-02  0.1525647E+00
          2   -1    0    0  503    0  0.00000000000E+00  0.00000000000E+00  0.53763579887E+03  0.53763579887E+03  0.00000000000E+00 0. -1.
         21   -1    0    0  501  502 -0.00000000000E+00 -0.00000000000E+00 -0.11557077140E+01  0.11557077140E+01  0.00000000000E+00 0. -1.
          2    1    1    2  501    0 -0.89676247447E+00 -0.20540019669E+02  0.42056479985E+03  0.42106703441E+03  0.00000000000E+00 0. -1.
         21    1    1    2  503  502  0.89676247447E+00  0.20540019669E+02  0.11591529131E+03  0.11772447218E+03  0.00000000000E+00 0. -1.
</event>
<event>
 4    1  0.2243475E+005  0.2561240E+02  0.7546771E-02  0.1462068E+00
          2   -1    0    0  502    0  0.00000000000E+00  0.00000000000E+00  0.82277338869E+03  0.82277338869E+03  0.00000000000E+00 0.  1.
         21   -1    0    0  503  502 -0.00000000000E+00 -0.00000000000E+00 -0.30606154424E+01  0.30606154424E+01  0.00000000000E+00 0.  1.
          2    1    1    2  501    0 -0.54866714998E+01 -0.25017827148E+02  0.76494043078E+03  0.76536909911E+03  0.00000000000E+00 0.  1.
         21    1    1    2  503  501  0.54866714998E+01  0.25017827148E+02  0.54772342476E+02  0.60464905025E+02  0.00000000000E+00 0.  1.
</event>
<event>
 4    1  0.2243475E+005  0.2356532E+02  0.7546771E-02  0.1485519E+00
          2   -1    0    0  503    0  0.00000000000E+00  0.00000000000E+00  0.18135180202E+03  0.18135180202E+03  0.00000000000E+00 0.  1.
         21   -1    0    0  501  502 -0.00000000000E+00 -0.00000000000E+00 -0.13646659794E+02  0.13646659794E+02  0.00000000000E+00 0. -1.
          2    1    1    2  501    0 -0.51120357981E+01 -0.23004158633E+02  0.16971904531E+03  0.17134724557E+03  0.00000000000E+00 0.  1.
         21    1    1    2  503  502  0.51120357981E+01  0.23004158633E+02 -0.20139030773E+01  0.23651216248E+02  0.00000000000E+00 0. -1.
</event>
<event>
 4    1  0.2243475E+005  0.2699865E+02  0.7546771E-02  0.1447622E+00
          2   -1    0    0  503    0  0.00000000000E+00  0.00000000000E+00  0.98085690172E+03  0.98085690172E+03  0.00000000000E+00 0. -1.
         21   -1    0    0  501  502 -0.00000000000E+00 -0.00000000000E+00 -0.24825224300E+01  0.24825224300E+01  0.00000000000E+00 0. -1.
          2    1    1    2  501    0 -0.54238025743E+00  0.26993203946E+02  0.90073729729E+03  0.90114183454E+03  0.00000000000E+00 0. -1.
         21    1    1    2  503  502  0.54238025743E+00 -0.26993203946E+02  0.77637082002E+02  0.82197589609E+02  0.00000000000E+00 0. -1.
</event>
<event>
 4    1  0.2243475E+005  0.3304879E+02  0.7546771E-02  0.1394825E+00
          2   -1    0    0  502    0  0.00000000000E+00  0.00000000000E+00  0.16532432905E+04  0.16532432905E+04  0.00000000000E+00 0.  1.
         21   -1    0    0  503  502 -0.00000000000E+00 -0.00000000000E+00 -0.27809191367E+01  0.27809191367E+01  0.00000000000E+00 0. -1.
          2    1    1    2  501    0 -0.19572013469E+02 -0.26630030661E+02  0.15482299644E+04  0.15485826568E+04  0.00000000000E+00 0.  1.
         21    1    1    2  503  501  0.19572013469E+02  0.26630030661E+02  0.10223240692E+03  0.10744155281E+03  0.00000000000E+00 0. -1.
</event>
<event>
 4    1  0.2243475E+005  0.2326863E+02  0.7546771E-02  0.1489152E+00
          2   -1    0    0  503    0  0.00000000000E+00  0.00000000000E+00  0.35372956950E+01  0.35372956950E+01  0.00000000000E+00 0. -1.
         21   -1    0    0  501  502 -0.00000000000E+00 -0.00000000000E+00 -0.15641553728E+03  0.15641553728E+03  0.00000000000E+00 0. -1.
          2    1    1    2  501    0 -0.20824353006E+02 -0.10381503784E+02 -0.64730520108E+02  0.68785678250E+02  0.00000000000E+00 0. -1.
         21    1    1    2  503  502  0.20824353006E+02  0.10381503784E+02 -0.88147721474E+02  0.91167154721E+02  0.00000000000E+00 0. -1.
</event>
<event>
 4    1  0.2243475E+005  0.3069354E+02  0.7546771E-02  0.1413663E+00
          2   -1    0    0  502    0  0.00000000000E+00  0.00000000000E+00  0.24396410333E+04  0.24396410333E+04  0.00000000000E+00 0.  1.
         21   -1    0    0  503  502 -0.00000000000E+00 -0.00000000000E+00 -0.86614478792E+00  0.86614478792E+00  0.00000000000E+00 0.  1.
          2    1    1    2  501    0 -0.25193062087E+02  0.17532909612E+02  0.21277689871E+04  0.21279903561E+04  0.00000000000E+00 0.  1.
         21    1    1    2  503  501  0.25193062087E+02 -0.17532909612E+02  0.31100590147E+03  0.31251682203E+03  0.00000000000E+00 0.  1.
</event>
<event>
 4    1  0.2243475E+005  0.2460138E+02  0.7546771E-02  0.1473312E+00
          2   -1    0    0  502    0  0.00000000000E+00  0.00000000000E+00  0.44763938248E+01  0.44763938248E+01  0.00000000000E+00 0.  1.
         21   -1    0    0  503  502 -0.00000000000E+00 -0.00000000000E+00 -0.26737217163E+03  0.26737217163E+03  0.00000000000E+00 0.  1.
          2    1    1    2  501    0 -0.23211786592E+02  0.81511293410E+01 -0.35882242078E+02  0.43505898943E+02  0.00000000000E+00 0.  1.
         21    1    1    2  503  501  0.23211786592E+02 -0.81511293410E+01 -0.22701353572E+03  0.22834266651E+03  0.00000000000E+00 0.  1.
</event>
<event>
 4    1  0.2243475E+005  0.2237410E+02  0.7546771E-02  0.1500511E+00
          2   -1    0    0  503    0  0.00000000000E+00  0.00000000000E+00  0.41192177247E+02  0.41192177247E+02  0.00000000000E+00 0.  1.
         21   -1    0    0  501  502 -0.00000000000E+00 -0.00000000000E+00 -0.16992413410E+02  0.16992413410E+02  0.00000000000E+00 0.  1.
          2    1    1    2  501    0  0.22299599162E+02 -0.18243916609E+01  0.27625737190E+02  0.35549710027E+02  0.00000000000E+00 0.  1.
         21    1    1    2  503  502 -0.22299599162E+02  0.18243916609E+01 -0.34259733534E+01  0.22634880630E+02  0.00000000000E+00 0.  1.
</event>
<event>
 4    1  0.2243475E+005  0.3620229E+02  0.7546771E-02  0.1372302E+00
          2   -1    0    0  503    0  0.00000000000E+00  0.00000000000E+00  0.25484114872E+03  0.25484114872E+03  0.00000000000E+00 0. -1.
         21   -1    0    0  501  502 -0.00000000000E+00 -0.00000000000E+00 -0.47043074462E+02  0.47043074462E+02  0.00000000000E+00 0.  1.
          2    1    1    2  501    0  0.21291649982E+02 -0.29279197823E+02  0.24635178438E+03  0.24899760532E+03  0.00000000000E+00 0. -1.
         21    1    1    2  503  502 -0.21291649982E+02  0.29279197823E+02 -0.38553710130E+02  0.52886617862E+02  0.00000000000E+00 0.  1.
</event>
<event>
 4    1  0.2243475E+005  0.2054010E+02  0.7546771E-02  0.1525933E+00
          2   -1    0    0  502    0  0.00000000000E+00  0.00000000000E+00  0.15908231019E+04  0.15908231019E+04  0.00000000000E+00 0. -1.
         21   -1    0    0  503  502 -0.00000000000E+00 -0.00000000000E+00 -0.61118333431E+00  0.61118333431E+00  0.00000000000E+00 0.  1.
          2    1    1    2  501    0  0.14479945405E+02  0.14568012215E+02  0.13937887849E+04  0.13939401253E+04  0.00000000000E+00 0. -1.
         21    1    1    2  503  501 -0.14479945405E+02 -0.14568012215E+02  0.19642313368E+03  0.19749416003E+03  0.00000000000E+00 0.  1.
</event>
<event>
 4    1  0.2243475E+005  0.4739852E+02  0.7546771E-02  0.1309863E+00
          2   -1    0    0  502    0  0.00000000000E+00  0.00000000000E+00  0.14994444638E+02  0.14994444638E+02  0.00000000000E+00 0. -1.
         21   -1    0    0  503  502 -0.00000000000E+00 -0.00000000000E+00 -0.39428097568E+03  0.39428097568E+03  0.00000000000E+00 0. -1.
          2    1    1    2  501    0 -0.47381925637E+02 -0.12542559231E+01 -0.28512488330E+02  0.55313488642E+02  0.00000000000E+00 0. -1.
         21    1    1    2  503  501  0.47381925637E+02  0.12542559231E+01 -0.35077404272E+03  0.35396193168E+03  0.00000000000E+00 0. -1.
</event>
<event>
 4    1  0.2243475E+005  0.2079225E+02  0.7546771E-02  0.1522252E+00
          2   -1    0    0  502    0  0.00000000000E+00  0.00000000000E+00  0.12004829359E+04  0.12004829359E+04  0.00000000000E+00 0. -1.
         21   -1    0    0  503  502 -0.00000000000E+00 -0.00000000000E+00 -0.41293386784E+00  0.41293386784E+00  0.00000000000E+00 0. -1.
          2    1    1    2  501    0 -0.30786861272E+01  0.20563056407E+02  0.81477363144E+03  0.81503888746E+03  0.00000000000E+00 0. -1.
         21    1    1    2  503  501  0.30786861272E+01 -0.20563056407E+02  0.38529637055E+03  0.38585698225E+03  0.00000000000E+00 0. -1.
</event>
<event>
 4    1  0.2243475E+005  0.4050633E+02  0.7546771E-02  0.1345544E+00
          2   -1    0    0  503    0  0.00000000000E+00  0.00000000000E+00  0.21235549499E+04  0.21235549499E+04  0.00000000000E+00 0. -1.
         21   -1    0    0  501  502 -0.00000000000E+00 -0.00000000000E+00 -0.13041177477E+01  0.13041177477E+01  0.00000000000E+00 0. -1.
          2    1    1    2  501    0 -0.62982489565E+01 -0.40013685034E+02  0.17393609448E+04  0.17398325377E+04  0.00000000000E+00 0. -1.
         21    1    1    2  503  502  0.62982489565E+01  0.40013685034E+02  0.38288988732E+03  0.38502652992E+03  0.00000000000E+00 0. -1.
</event>
<event>
 4    1  0.2243475E+005  0.2103275E+02  0.7546771E-02  0.1518798E+00
          2   -1    0    0  503    0  0.00000000000E+00  0.00000000000E+00  0.42348558049E+03  0.42348558049E+03  0.00000000000E+00 0. -1.
         21   -1    0    0  501  502 -0.00000000000E+00 -0.00000000000E+00 -0.20139361206E+01  0.20139361206E+01  0.00000000000E+00 0.  1.
          2    1    1    2  501    0 -0.95787892094E+01  0.18724943126E+02  0.35833416846E+03  0.35895090609E+03  0.00000000000E+00 0. -1.
         21    1    1    2  503  502  0.95787892094E+01 -0.18724943126E+02  0.63137475902E+02  0.66548610512E+02  0.00000000000E+00 0.  1.
</event>
<event>
 4    1  0.2243475E+005  0.2864014E+02  0.7546771E-02  0.1431794E+00
          2   -1    0    0  502    0  0.00000000000E+00  0.00000000000E+00  0.95201590025E+03  0.95201590025E+03  0.00000000000E+00 0.  1.
         21   -1    0    0  503  502 -0.00000000000E+00 -0.00000000000E+00 -0.35639322621E+01  0.35639322621E+01  0.00000000000E+00 0.  1.
          2    1    1    2  501    0  0.78845326614E+01 -0.27533463078E+02  0.89027220950E+03  0.89073276826E+03  0.00000000000E+00 0.  1.
         21    1    1    2  503  501 -0.78845326614E+01  0.27533463078E+02  0.58179758484E+02  0.64847064248E+02  0.00000000000E+00 0.  1.
</event>
<event>
 4    1  0.2243475E+005  0.2135055E+02  0.7546771E-02  0.1514318E+00
          2   -1    0    0  502    0  0.00000000000E+00  0.00000000000E+00  0.80943010629E+02  0.80943010629E+02  0.00000000000E+00 0. -1.
         21   -1    0    0  503  502 -0.00000000000E+00 -0.00000000000E+00 -0.11795447254E+03  0.11795447254E+03  0.00000000000E+00 0. -1.
          2    1    1    2  501    0 -0.19287281954E+02  0.91567826116E+01  0.78539905595E+02  0.81390187884E+02  0.00000000000E+00 0. -1.
         21    1    1    2  503  501  0.19287281954E+02 -0.91567826116E+01 -0.11555136751E+03  0.11750729529E+03  0.00000000000E+00 0. -1.
</event>
<event>
 4    1  0.2243475E+005  0.2517817E+02  0.7546771E-02  0.1466820E+00
          2   -1    0    0  503    0  0.00000000000E+00  0.00000000000E+00  0.59306337338E+03  0.59306337338E+03  0.00000000000E+00 0. -1.
         21   -1    0    0  501  502 -0.00000000000E+00 -0.00000000000E+00 -0.17350444752E+03  0.17350444752E+03  0.00000000000E+00 0. -1.
          2    1    1    2  501    0 -0.14706256448E+00 -0.25177742722E+02  0.59188088269E+03  0.59241617099E+03  0.00000000000E+00 0. -1.
         21    1    1    2  503  502  0.14706256448E+00  0.25177742722E+02 -0.17232195683E+03  0.17415164990E+03  0.00000000000E+00 0. -1.
</event>
<event>
 4    1  0.2243475E+005  0.6248400E+02  0.7546771E-02  0.1251619E+00
          2   -1    0    0  503    0  0.00000000000E+00  0.00000000000E+00  0.19917775327E+04  0.19917775327E+04  0.00000000000E+00 0. -1.
         21   -1    0    0  501  502 -0.00000000000E+00 -0.00000000000E+00 -0.70423197771E+01  0.70423197771E+01  0.00000000000E+00 0. -1.
          2    1    1    2  501    0 -0.36997102572E+02  0.50353400025E+02  0.18413700081E+04  0.18424298513E+04  0.00000000000E+00 0. -1.
         21    1    1    2  503  502  0.36997102572E+02 -0.50353400025E+02  0.14336520485E+03  0.15639000114E+03  0.00000000000E+00 0. -1.
</event>
<event>
 4    1  0.2243475E+005  0.2045550E+02  0.7546771E-02  0.1527183E+00
          2   -1    0    0  502    0  0.00000000000E+00  0.00000000000E+00  0.42755509548E+03  0.42755509548E+03  0.00000000000E+00 0.  1.
         21   -1    0    0  503  502 -0.00000000000E+00 -0.00000000000E+00 -0.88875303479E+01  0.88875303479E+01  0.00000000000E+00 0.  1.
          2    1    1    2  501    0  0.20454457961E+02  0.20645456951E+00  0.41519004101E+03  0.41569363434E+03  0.00000000000E+00 0.  1.
         21    1    1    2  503  501 -0.20454457961E+02 -0.20645456951E+00  0.34775241246E+01  0.20748991494E+02  0.00000000000E+00 0.  1.
</event>
<event>
 4    1  0.2243475E+005  0.2779627E+02  0.7546771E-02  0.1439769E+00
          2   -1    0    0  503    0  0.00000000000E+00  0.00000000000E+00  0.14739915513E+04  0.14739915513E+04  0.00000000000E+00 0.  1.
         21   -1    0    0  501  502 -0.00000000000E+00 -0.00000000000E+00 -0.54893403235E+00  0.54893403235E+00  0.00000000000E+00 0.  1.
          2    1    1    2  501    0 -0.59432834115E+01 -0.27153452859E+02  0.89329364203E+03  0.89372600025E+03  0.00000000000E+00 0.  1.
         21    1    1    2  503  502  0.59432834115E+01  0.27153452859E+02  0.58014897528E+03  0.58081448513E+03  0.00000000000E+00 0.  1.
</event>
<event>
 4    1  0.2243475E+005  0.1377199E+03  0.7546771E-02  0.1110915E+00
          2   -1    0    0  503    0  0.00000000000E+00  0.00000000000E+00  0.48816782211E+03  0.48816782211E+03  0.00000000000E+00 0.  1.
         21   -1    0    0  501  502 -0.00000000000E+00 -0.00000000000E+00 -0.12945306598E+03  0.12945306598E+03  0.00000000000E+00 0.  1.
          2    1    1    2  501    0  0.10153561759E+02 -0.13734505980E+03  0.43770245198E+03  0.45885749066E+03  0.00000000000E+00 0.  1.
         21    1    1    2  503  502 -0.10153561759E+02  0.13734505980E+03 -0.78987695856E+02  0.15876339743E+03  0.00000000000E+00 0.  1.
</event>
<event>
 4    1  0.2243475E+005  0.2140548E+02  0.7546771E-02  0.1513554E+00
          2   -1    0    0  503    0  0.00000000000E+00  0.00000000000E+00  0.49449556157E+03  0.49449556157E+03  0.00000000000E+00 0. -1.
         21   -1    0    0  501  502 -0.00000000000E+00 -0.00000000000E+00 -0.10411293361E+02  0.10411293361E+02  0.00000000000E+00 0. -1.
          2    1    1    2  501    0  0.13262336594E+02  0.16801936595E+02  0.48299983216E+03  0.48347392123E+03  0.00000000000E+00 0. -1.
         21    1    1    2  503  502 -0.13262336594E+02 -0.16801936595E+02  0.10844360469E+01  0.21432933696E+02  0.00000000000E+00 0. -1.
</event>
<event>
 4    1  0.2243475E+005  0.2378260E+02  0.7546771E-02  0.1482898E+00
          2   -1    0    0  503    0  0.00000000000E+00  0.00000000000E+00  0.12427318496E+02  0.12427318496E+02  0.00000000000E+00 0. -1.
         21   -1    0    0  501  502 -0.00000000000E+00 -0.00000000000E+00 -0.10125375456E+03  0.10125375456E+03  0.00000000000E+00 0. -1.
          2    1    1    2  501    0 -0.35740263842E+01  0.23512520368E+02 -0.22400138531E+01  0.23887861786E+02  0.00000000000E+00 0. -1.
         21    1    1    2  503  502  0.35740263842E+01 -0.23512520368E+02 -0.86586422209E+02  0.89793211267E+02  0.00000000000E+00 0. -1.
</event>
<event>
 4    1  0.2243475E+005  0.2750514E+02  0.7546771E-02  0.1442599E+00
          2   -1    0    0  503    0  0.00000000000E+00  0.00000000000E+00  0.31368596489E+03  0.31368596489E+03  0.00000000000E+00 0. -1.
         21   -1    0    0  501  502 -0.00000000000E+00 -0.00000000000E+00 -0.24315085263E+01  0.24315085263E+01  0.00000000000E+00 0.  1.
          2    1    1    2  501    0 -0.22680040667E+01 -0.27411470587E+02  0.16987485704E+03  0.17208718609E+03  0.00000000000E+00 0. -1.
         21    1    1    2  503  502  0.22680040667E+01  0.27411470587E+02  0.14137959933E+03  0.14403028733E+03  0.00000000000E+00 0.  1.
</event>
<event>
 4    1  0.2243475E+005  0.3430195E+02  0.7546771E-02  0.1385538E+00
          2   -1    0    0  502    0  0.00000000000E+00  0.00000000000E+00  0.17394459741E+03  0.17394459741E+03  0.00000000000E+00 0. -1.
         21   -1    0    0  503  502 -0.00000000000E+00 -0.00000000000E+00 -0.12797494807E+03  0.12797494807E+03  0.00000000000E+00 0.  1.
          2    1    1    2  501    0 -0.19638865831E+02 -0.28123632948E+02  0.16990080333E+03  0.17332889763E+03  0.00000000000E+00 0. -1.
         21    1    1    2  503  501  0.19638865831E+02  0.28123632948E+02 -0.12393115400E+03  0.12859064784E+03  0.00000000000E+00 0.  1.
</event>
<event>
 4    1  0.2243475E+005  0.2230430E+02  0.7546771E-02  0.1501424E+00
          2   -1    0    0  503    0  0.00000000000E+00  0.00000000000E+00  0.13684835024E+04  0.13684835024E+04  0.00000000000E+00 0.  1.
         21   -1    0    0  501  502 -0.00000000000E+00 -0.00000000000E+00 -0.27843126181E+01  0.27843126181E+01  0.00000000000E+00 0.  1.
          2    1    1    2  501    0 -0.21753073205E+02 -0.49280306705E+01  0.13221594372E+04  0.13223475560E+04  0.00000000000E+00 0.  1.
         21    1    1    2  503  502  0.21753073205E+02  0.49280306705E+01  0.43539752581E+02  0.48920258942E+02  0.00000000000E+00 0.  1.
</event>
<event>
 4    1  0.2243475E+005  0.2384169E+02  0.7546771E-02  0.1482191E+00
          2   -1    0    0  503    0  0.00000000000E+00  0.00000000000E+00  0.11740928280E+04  0.11740928280E+04  0.00000000000E+00 0.  1.
         21   -1    0    0  501  502 -0.00000000000E+00 -0.00000000000E+00 -0.61309750187E+00  0.61309750187E+00  0.00000000000E+00 0.  1.
          2    1    1    2  501    0 -0.10822924565E+02  0.21243593571E+02  0.85611452974E+03  0.85644644549E+03  0.00000000000E+00 0.  1.
         21    1    1    2  503  502  0.10822924565E+02 -0.21243593571E+02  0.31736520079E+03  0.31825948004E+03  0.00000000000E+00 0.  1.
</event>
<event>
 4    1  0.2243475E+005  0.2918254E+02  0.7546771E-02  0.1426836E+00
          2   -1    0    0  503    0  0.00000000000E+00  0.00000000000E+00  0.57091014773E+01  0.57091014773E+01  0.00000000000E+00 0.  1.
         21   -1    0    0  501  502 -0.00000000000E+00 -0.00000000000E+00 -0.29536477972E+03  0.29536477972E+03  0.00000000000E+00 0. -1.
          2    1    1    2  501    0  0.76594835667E+01  0.28159417488E+02 -0.38919227761E+02  0.48644904885E+02  0.00000000000E+00 0.  1.
         21    1    1    2  503  502 -0.76594835667E+01 -0.28159417488E+02 -0.25073645048E+03  0.25242897631E+03  0.00000000000E+00 0. -1.
</event>
<event>
 4    1  0.2243475E+005  0.2159272E+02  0.7546771E-02  0.1510968E+00
          2   -1    0    0  503    0  0.00000000000E+00  0.00000000000E+00  0.30653022962E+03  0.30653022962E+03  0.00000000000E+00 0.  1.
         21   -1    0    0  501  502 -0.00000000000E+00 -0.00000000000E+00 -0.70721169799E+02  0.70721169799E+02  0.00000000000E+00 0. -1.
          2    1    1    2  501    0  0.21248648843E+02  0.38393406848E+01  0.30449076065E+03  0.30525541590E+03  0.00000000000E+00 0.  1.
         21    1    1    2  503  502 -0.21248648843E+02 -0.38393406848E+01 -0.68681700828E+02  0.71995983521E+02  0.00000000000E+00 0. -1.
</event>
<event>
 4    1  0.2243475E+005  0.2171001E+02  0.7546771E-02  0.1509365E+00
          2   -1    0    0  502    0  0.00000000000E+00  0.00000000000E+00  0.98119927852E+01  0.98119927852E+01  0.00000000000E+00 0.  1.
         21   -1    0    0  503  502 -0.00000000000E+00 -0.00000000000E+00 -0.11534801796E+03  0.11534801796E+03  0.00000000000E+00 0. -1.
          2    1    1    2  501    0  0.21698548750E+02  0.70531686653E+00 -0.49624670682E+01  0.22269947668E+02  0.00000000000E+00 0.  1.
         21    1    1    2  503  501 -0.21698548750E+02 -0.70531686653E+00 -0.10057355810E+03  0.10289006307E+03  0.00000000000E+00 0. -1.
</event>
<event>
 4    1  0.2243475E+005  0.2189320E+02  0.7546771E-02  0.1506884E+00
          2   -1    0    0  502    0  0.00000000000E+00  0.00000000000E+00  0.66650391405E+03  0.66650391405E+03  0.00000000000E+00 0. -1.
         21   -1    0    0  503  502 -0.00000000000E+00 -0.00000000000E+00 -0.12976607278E+03  0.12976607278E+03  0.00000000000E+00 0. -1.
          2    1    1    2  501    0  0.18647939752E+02  0.11470248687E+02  0.66539917939E+03  0.66575925093E+03  0.00000000000E+00 0. -1.
         21    1    1    2  503  501 -0.18647939752E+02 -0.11470248687E+02 -0.12866133811E+03  0.13051073591E+03  0.00000000000E+00 0. -1.
</event>
<event>
 4    1  0.2243475E+005  0.4372112E+02  0.7546771E-02  0.1327959E+00
          2   -1    0    0  503    0  0.00000000000E+00  0.00000000000E+00  0.29191019774E+02  0.29191019774E+02  0.00000000000E+00 0.  1.
         21   -1    0    0  501  502 -0.00000000000E+00 -0.00000000000E+00 -0.89221258989E+02  0.89221258989E+02  0.00000000000E+00 0.  1.
          2    1    1    2  501    0  0.28947326937E+02  0.32765661169E+02  0.52357731408E+00  0.43724254389E+02  0.00000000000E+00 0.  1.
         21    1    1    2  503  502 -0.28947326937E+02 -0.32765661169E+02 -0.60553816529E+02  0.74688024374E+02  0.00000000000E+00 0.  1.
</event>
<event>
 4    1  0.2243475E+005  0.3199971E+02  0.7546771E-02  0.1402979E+00
          2   -1    0    0  502    0  0.00000000000E+00  0.00000000000E+00  0.38347633880E+03  0.38347633880E+03  0.00000000000E+00 0. -1.
         21   -1    0    0  503  502 -0.00000000000E+00 -0.00000000000E+00 -0.31487036025E+02  0.31487036025E+02  0.00000000000E+00 0.  1.
          2    1    1    2  501    0  0.59953122878E+00  0.31994096103E+02  0.37448371115E+03  0.37584841564E+03  0.00000000000E+00 0. -1.
         21    1    1    2  503  501 -0.59953122878E+00 -0.31994096103E+02 -0.22494408380E+02  0.39114959178E+02  0.00000000000E+00 0.  1.
</event>
<event>
 4    1  0.2243475E+005  0.2627702E+02  0.7546771E-02  0.1455009E+00
          2   -1    0    0  503    0  0.00000000000E+00  0.00000000000E+00  0.13268914043E+04  0.13268914043E+04  0.00000000000E+00 0. -1.
         21   -1    0    0  501  502 -0.00000000000E+00 -0.00000000000E+00 -0.15472551624E+02  0.15472551624E+02  0.00000000000E+00 0.  1.
          2    1    1    2  501    0 -0.54650586991E+01  0.25702429927E+02  0.13155082221E+04  0.13157706351E+04  0.00000000000E+00 0. -1.
         21    1    1    2  503  502  0.54650586991E+01 -0.25702429927E+02 -0.40893694167E+01  0.26593320834E+02  0.00000000000E+00 0.  1.
</event>
<event>
 4    1  0.2243475E+005  0.2201476E+02  0.7546771E-02  0.1505255E+00
          2   -1    0    0  503    0  0.00000000000E+00  0.00000000000E+00  0.34023087197E+03  0.34023087197E+03  0.00000000000E+00 0.  1.
         21   -1    0    0  501  502 -0.00000000000E+00 -0.00000000000E+00 -0.19961478527E+01  0.19961478527E+01  0.00000000000E+00 0. -1.
          2    1    1    2  501    0 -0.44305869557E+01 -0.21564315378E+02  0.26068929274E+03  0.26161719582E+03  0.00000000000E+00 0.  1.
         21    1    1    2  503  502  0.44305869557E+01  0.21564315378E+02  0.77545431371E+02  0.80609823999E+02  0.00000000000E+00 0. -1.
</event>
<event>
 4    1  0.2243475E+005  0.2325557E+02  0.7546771E-02  0.1489314E+00
          2   -1    0    0  503    0  0.00000000000E+00  0.00000000000E+00  0.12431197507E+04  0.12431197507E+04  0.00000000000E+00 0.  1.
         21   -1    0    0  501  502 -0.00000000000E+00 -0.00000000000E+00 -0.44102503919E+00  0.44102503919E+00  0.00000000000E+00 0.  1.
          2    1    1    2  501    0 -0.16676796310E+02  0.16208202119E+02  0.69370198059E+03  0.69409167927E+03  0.00000000000E+00 0.  1.
         21    1    1    2  503  502  0.16676796310E+02 -0.16208202119E+02  0.54897674509E+03  0.54946909649E+03  0.00000000000E+00 0.  1.
</event>
<event>
 4    1  0.2243475E+005  0.2516956E+02  0.7546771E-02  0.1466915E+00
          2   -1    0    0  503    0  0.00000000000E+00  0.00000000000E+00  0.25968701565E+03  0.25968701565E+03  0.00000000000E+00 0. -1.
         21   -1    0    0  501  502 -0.00000000000E+00 -0.00000000000E+00 -0.23575818381E+02  0.23575818381E+02  0.00000000000E+00 0.  1.
          2    1    1    2  501    0 -0.24994970601E+02 -0.29594416255E+01  0.25215933181E+03  0.25341238224E+03  0.00000000000E+00 0. -1.
         21    1    1    2  503  502  0.24994970601E+02  0.29594416255E+01 -0.16048134544E+02  0.29850451795E+02  0.00000000000E+00 0.  1.
</event>
<event>
 4    1  0.2243475E+005  0.4968145E+02  0.7546771E-02  0.1299560E+00
          2   -1    0    0  502    0  0.00000000000E+00  0.00000000000E+00  0.11923295370E+04  0.11923295370E+04  0.00000000000E+00 0. -1.
         21   -1    0    0  503  502 -0.00000000000E+00 -0.00000000000E+00 -0.11606382741E+02  0.11606382741E+02  0.00000000000E+00 0. -1.
          2    1    1    2  501    0  0.48868586677E+02 -0.89502712182E+01  0.11360118806E+04  0.11370977262E+04  0.00000000000E+00 0. -1.
         21    1    1    2  503  501 -0.48868586677E+02  0.89502712182E+01  0.44711273620E+02  0.66838193478E+02  0.00000000000E+00 0. -1.
</event>
<event>
 4    1  0.2243475E+005  0.2037782E+02  0.7546771E-02  0.1528336E+00
          2   -1    0    0  503    0  0.00000000000E+00  0.00000000000E+00  0.11700216179E+04  0.11700216179E+04  0.00000000000E+00 0. -1.
         21   -1    0    0  501  502 -0.00000000000E+00 -0.00000000000E+00 -0.10583594775E+03  0.10583594775E+03  0.00000000000E+00 0.  1.
          2    1    1    2  501    0  0.13494180122E+02 -0.15269666070E+02  0.11689510970E+04  0.11691287024E+04  0.00000000000E+00 0. -1.
         21    1    1    2  503  502 -0.13494180122E+02  0.15269666070E+02 -0.10476542682E+03  0.10672886328E+03  0.00000000000E+00 0.  1.
</event>
<event>
 4    1  0.2243475E+005  0.5020883E+02  0.7546771E-02  0.1297270E+00
          2   -1    0    0  503    0  0.00000000000E+00  0.00000000000E+00  0.88393371443E+03  0.88393371443E+03  0.00000000000E+00 0. -1.
         21   -1    0    0  501  502 -0.00000000000E+00 -0.00000000000E+00 -0.30431498527E+01  0.30431498527E+01  0.00000000000E+00 0.  1.
          2    1    1    2  501    0  0.41859077281E+02 -0.27726244327E+02  0.55161190235E+03  0.55389224385E+03  0.00000000000E+00 0. -1.
         21    1    1    2  503  502 -0.41859077281E+02  0.27726244327E+02  0.32927866223E+03  0.33308462044E+03  0.00000000000E+00 0.  1.
</event>
<event>
 4    1  0.2243475E+005  0.2609456E+02  0.7546771E-02  0.1456922E+00
          2   -1    0    0  502    0  0.00000000000E+00  0.00000000000E+00  0.16117417910E+04  0.16117417910E+04  0.00000000000E+00 0. -1.
         21   -1    0    0  503  502 -0.00000000000E+00 -0.00000000000E+00 -0.49260290950E+02  0.49260290950E+02  0.00000000000E+00 0. -1.
          2    1    1    2  501    0  0.23318032147E+02 -0.11713043545E+02  0.16081727474E+04  0.16083844414E+04  0.00000000000E+00 0. -1.
         21    1    1    2  503  501 -0.23318032147E+02  0.11713043545E+02 -0.45691247326E+02  0.52617640525E+02  0.00000000000E+00 0. -1.
</event>
<event>
 4    1  0.2243475E+005  0.3025036E+02  0.7546771E-02  0.1417433E+00
          2   -1    0    0  503    0  0.00000000000E+00  0.00000000000E+00  0.37691491342E+02  0.37691491342E+02  0.00000000000E+00 0.  1.
         21   -1    0    0  501  502 -0.00000000000E+00 -0.00000000000E+00 -0.65369021310E+02  0.65369021310E+02  0.00000000000E+00 0.  1.
          2    1    1    2  501    0  0.26006670921E+02  0.15451120018E+02  0.27016532299E+02  0.40558316776E+02  0.00000000000E+00 0.  1.
         21    1    1    2  503  502 -0.26006670921E+02 -0.15451120018E+02 -0.54694062266E+02  0.62502195877E+02  0.00000000000E+00 0.  1.
</event>
<event>
 4    1  0.2243475E+005  0.3464697E+02  0.7546771E-02  0.1383062E+00
          2   -1    0    0  502    0  0.00000000000E+00  0.00000000000E+00  0.17265472795E+02  0.17265472795E+02  0.00000000000E+00 0.  1.
         21   -1    0    0  503  502 -0.00000000000E+00 -0.00000000000E+00 -0.17747262970E+03  0.17747262970E+03  0.00000000000E+00 0.  1.
          2    1    1    2  501    0 -0.12328800834E+02 -0.32379209871E+02 -0.41657383929E+01  0.34896503238E+02  0.00000000000E+00 0.  1.
         21    1    1    2  503  501  0.12328800834E+02  0.32379209871E+02 -0.15604141852E+03  0.15984159926E+03  0.00000000000E+00 0.  1.
</event>
<event>
 4    1  0.2243475E+005  0.3352558E+02  0.7546771E-02  0.1391236E+00
          2   -1    0    0  503    0  0.00000000000E+00  0.00000000000E+00  0.32849988894E+03  0.32849988894E+03  0.00000000000E+00 0. -1.
         21   -1    0    0  501  502 -0.00000000000E+00 -0.00000000000E+00 -0.61858441944E+02  0.61858441944E+02  0.00000000000E+00 0. -1.
          2    1    1    2  501    0  0.36526420935E+01  0.33326006609E+02  0.32302524596E+03  0.32476033323E+03  0.00000000000E+00 0. -1.
         21    1    1    2  503  502 -0.36526420935E+01 -0.33326006609E+02 -0.56383798965E+02  0.65597997656E+02  0.00000000000E+00 0. -1.
</event>
<event>
 4    1  0.2243475E+005  0.4538831E+02  0.7546771E-02  0.1319509E+00
          2   -1    0    0  503    0  0.00000000000E+00  0.00000000000E+00  0.35854593750E+03  0.35854593750E+03  0.00000000000E+00 0.  1.
         21   -1    0    0  501  502 -0.00000000000E+00 -0.00000000000E+00 -0.66623475566E+02  0.66623475566E+02  0.00000000000E+00 0.  1.
          2    1    1    2  501    0  0.37178231482E+02 -0.26036080229E+02  0.34917248379E+03  0.35211009899E+03  0.00000000000E+00 0.  1.
         21    1    1    2  503  502 -0.37178231482E+02  0.26036080229E+02 -0.57250021863E+02  0.73059314076E+02  0.00000000000E+00 0.  1.
</event>
<event>
 4    1  0.2243475E+005  0.2154206E+02  0.7546771E-02  0.1511664E+00
          2   -1    0    0  502    0  0.00000000000E+00  0.00000000000E+00  0.15155782610E+03  0.15155782610E+03  0.00000000000E+00 0. -1.
         21   -1    0    0  503  502 -0.00000000000E+00 -0.00000000000E+00 -0.32017971975E+01  0.32017971975E+01  0.00000000000E+00 0.  1.
          2    1    1    2  501    0 -0.21470153495E+02 -0.17586834709E+01  0.90350560919E+02  0.92883175640E+02  0.00000000000E+00 0. -1.
         21    1    1    2  503  501  0.21470153495E+02  0.17586834709E+01  0.58005467979E+02  0.61876447653E+02  0.00000000000E+00 0.  1.
</event>
<event>
 4    1  0.2243475E+005  0.2523277E+02  0.7546771E-02  0.1466216E+00
          2   -1    0    0  502    0  0.00000000000E+00  0.00000000000E+00  0.17964062690E+04  0.17964062690E+04  0.00000000000E+00 0.  1.
         21   -1    0    0  503  502 -0.00000000000E+00 -0.00000000000E+00 -0.97323324321E+01  0.97323324321E+01  0.00000000000E+00 0. -1.
          2    1    1    2  501    0  0.19143989718E+02  0.16437770743E+02  0.17798100750E+04  0.17799889313E+04  0.00000000000E+00 0.  1.
         21    1    1    2  503  501 -0.19143989718E+02 -0.16437770743E+02  0.68638615530E+01  0.26149670069E+02  0.00000000000E+00 0. -1.
</event>
<event>
 4    1  0.2243475E+005  0.2726530E+02  0.7546771E-02  0.1444961E+00
          2   -1    0    0  502    0  0.00000000000E+00  0.00000000000E+00  0.61801094507E+03  0.61801094507E+03  0.00000000000E+00 0.  1.
         21   -1    0    0  503  502 -0.00000000000E+00 -0.00000000000E+00 -0.44342292447E+02  0.44342292447E+02  0.00000000000E+00 0. -1.
          2    1    1    2  501    0 -0.22807800878E+02  0.14939902794E+02  0.61348810126E+03  0.61409367923E+03  0.00000000000E+00 0.  1.
         21    1    1    2  503  501  0.22807800878E+02 -0.14939902794E+02 -0.39819448639E+02  0.48259558290E+02  0.00000000000E+00 0. -1.
</event>
<event>
 4    1  0.2243475E+005  0.4276197E+02  0.7546771E-02  0.1333019E+00
          2   -1    0    0  502    0  0.00000000000E+00  0.00000000000E+00  0.46537310693E+03  0.46537310693E+03  0.00000000000E+00 0. -1.
         21   -1    0    0  503  502 -0.00000000000E+00 -0.00000000000E+00 -0.45176199876E+01  0.45176199876E+01  0.00000000000E+00 0. -1.
          2    1    1    2  501    0  0.11769092639E+02  0.41110521265E+02  0.31521333286E+03  0.31810066287E+03  0.00000000000E+00 0. -1.
         21    1    1    2  503  501 -0.11769092639E+02 -0.41110521265E+02  0.14564215408E+03  0.15179006405E+03  0.00000000000E+00 0. -1.
</event>
<event>
 4    1  0.2243475E+005  0.4190391E+02  0.7546771E-02  0.1337676E+00
          2   -1    0    0  502    0  0.00000000000E+00  0.00000000000E+00  0.34145504551E+03  0.34145504551E+03  0.00000000000E+00 0.  1.
         21   -1    0    0  503  502 -0.00000000000E+00 -0.00000000000E+00 -0.14033969115E+02  0.14033969115E+02  0.00000000000E+00 0.  1.
          2    1    1    2  501    0  0.35734003123E+02  0.21886501421E+02  0.30518964525E+03  0.30805301085E+03  0.00000000000E+00 0.  1.
         21    1    1    2  503  501 -0.35734003123E+02 -0.21886501421E+02  0.22231431143E+02  0.47436003777E+02  0.00000000000E+00 0.  1.
</event>
<event>
 4    1  0.2243475E+005  0.2527280E+02  0.7546771E-02  0.1465775E+00
          2   -1    0    0  503    0  0.00000000000E+00  0.00000000000E+00  0.87762323358E+03  0.87762323358E+03  0.00000000000E+00 0. -1.
         21   -1    0    0  501  502 -0.00000000000E+00 -0.00000000000E+00 -0.13183069031E+02  0.13183069031E+02  0.00000000000E+00 0. -1.
          2    1    1    2  501    0 -0.94523081813E+01  0.23438606689E+02  0.86515435890E+03  0.86552341340E+03  0.00000000000E+00 0. -1.
         21    1    1    2  503  502  0.94523081813E+01 -0.23438606689E+02 -0.71419435055E+00  0.25282889215E+02  0.00000000000E+00 0. -1.
</event>
<event>
 4    1  0.2243475E+005  0.2523060E+02  0.7546771E-02  0.1466240E+00
          2   -1    0    0  502    0  0.00000000000E+00  0.00000000000E+00  0.18909312998E+03  0.18909312998E+03  0.00000000000E+00 0.  1.
         21   -1    0    0  503  502 -0.00000000000E+00 -0.00000000000E+00 -0.17667317798E+02  0.17667317798E+02  0.00000000000E+00 0. -1.
          2    1    1    2  501    0  0.25117802482E+02 -0.23830902653E+01  0.17872351902E+03  0.18049564918E+03  0.00000000000E+00 0.  1.
         21    1    1    2  503  501 -0.25117802482E+02  0.23830902653E+01 -0.72977068346E+01  0.26264798605E+02  0.00000000000E+00 0. -1.
</event>
<event>
 4    1  0.2243475E+005  0.2287013E+02  0.7546771E-02  0.1494135E+00
          2   -1    0    0  502    0  0.00000000000E+00  0.00000000000E+00  0.13108837020E+04  0.13108837020E+04  0.00000000000E+00 0. -1.
         21   -1    0    0  503  502 -0.00000000000E+00 -0.00000000000E+00 -0.56645623241E+00  0.56645623241E+00  0.00000000000E+00 0. -1.
          2    1    1    2  501    0 -0.16387841528E+02 -0.15952469694E+02  0.10116830007E+04  0.10119414689E+04  0.00000000000E+00 0. -1.
         21    1    1    2  503  501  0.16387841528E+02  0.15952469694E+02  0.29863424508E+03  0.29950868931E+03  0.00000000000E+00 0. -1.
</event>
<event>
 4    1  0.2243475E+005  0.2531933E+02  0.7546771E-02  0.1465262E+00
          2   -1    0    0  502    0  0.00000000000E+00  0.00000000000E+00  0.35845029516E+03  0.35845029516E+03  0.00000000000E+00 0.  1.
         21   -1    0    0  503  502 -0.00000000000E+00 -0.00000000000E+00 -0.90993317595E+01  0.90993317595E+01  0.00000000000E+00 0.  1.
          2    1    1    2  501    0  0.97464676388E+01  0.23368249645E+02  0.33940304046E+03  0.34034613645E+03  0.00000000000E+00 0.  1.
         21    1    1    2  503  501 -0.97464676388E+01 -0.23368249645E+02  0.99479229403E+01  0.27203490469E+02  0.00000000000E+00 0.  1.
</event>
<event>
 4    1  0.2243475E+005  0.2027484E+02  0.7546771E-02  0.1529875E+00
          2   -1    0    0  503    0  0.00000000000E+00  0.00000000000E+00  0.27389589633E+01  0.27389589633E+01  0.00000000000E+00 0. -1.
         21   -1    0    0  501  502 -0.00000000000E+00 -0.00000000000E+00 -0.25254359036E+03  0.25254359036E+03  0.00000000000E+00 0. -1.
          2    1    1    2  501    0 -0.17699511466E+02  0.98892034845E+01 -0.43599978660E+02  0.48083543867E+02  0.00000000000E+00 0. -1.
         21    1    1    2  503  502  0.17699511466E+02 -0.98892034845E+01 -0.20620465274E+03  0.20719900546E+03  0.00000000000E+00 0. -1.
</event>
<event>
 4    1  0.2243475E+005  0.3263801E+02  0.7546771E-02  0.1397975E+00
          2   -1    0    0  503    0  0.00000000000E+00  0.00000000000E+00  0.64800682874E+03  0.64800682874E+03  0.00000000000E+00 0. -1.
         21   -1    0    0  501  502 -0.00000000000E+00 -0.00000000000E+00 -0.17386094197E+01  0.17386094197E+01  0.00000000000E+00 0. -1.
          2    1    1    2  501    0 -0.21583538987E+02  0.24482455724E+02  0.39896998980E+03  0.40030275113E+03  0.00000000000E+00 0. -1.
         21    1    1    2  503  502  0.21583538987E+02 -0.24482455724E+02  0.24729822951E+03  0.24944268703E+03  0.00000000000E+00 0. -1.
</event>
<event>
 4    1  0.2243475E+005  0.2143340E+02  0.7546771E-02  0.1513166E+00
          2   -1    0    0  502    0  0.00000000000E+00  0.00000000000E+00  0.10417189782E+01  0.10417189782E+01  0.00000000000E+00 0. -1.
         21   -1    0    0  503  502 -0.00000000000E+00 -0.00000000000E+00 -0.87676231444E+03  0.87676231444E+03  0.00000000000E+00 0.  1.
          2    1    1    2  501    0 -0.18124729852E+02  0.11440491106E+02 -0.12843557271E+03  0.13021170072E+03  0.00000000000E+00 0. -1.
         21    1    1    2  503  501  0.18124729852E+02 -0.11440491106E+02 -0.74728502276E+03  0.74759233270E+03  0.00000000000E+00 0.  1.
</event>
<event>
 4    1  0.2243475E+005  0.2264674E+02  0.7546771E-02  0.1496982E+00
          2   -1    0    0  503    0  0.00000000000E+00  0.00000000000E+00  0.48530836375E+03  0.48530836375E+03  0.00000000000E+00 0.  1.
         21   -1    0    0  501  502 -0.00000000000E+00 -0.00000000000E+00 -0.11655818698E+01  0.11655818698E+01  0.00000000000E+00 0.  1.
          2    1    1    2  501    0 -0.18066053603E+02  0.13656234745E+02  0.31637872507E+03  0.31718822916E+03  0.00000000000E+00 0.  1.
         21    1    1    2  503  502  0.18066053603E+02 -0.13656234745E+02  0.16776405681E+03  0.16928571646E+03  0.00000000000E+00 0.  1.
</event>
<event>
 4    1  0.2243475E+005  0.2068958E+02  0.7546771E-02  0.1523743E+00
          2   -1    0    0  502    0  0.00000000000E+00  0.00000000000E+00  0.36227788596E+02  0.36227788596E+02  0.00000000000E+00 0.  1.
         21   -1    0    0  503  502 -0.00000000000E+00 -0.00000000000E+00 -0.30492775595E+03  0.30492775595E+03  0.00000000000E+00 0. -1.
          2    1    1    2  501    0  0.18284353371E+02  0.96820094698E+01  0.32890245966E+02  0.38856494505E+02  0.00000000000E+00 0.  1.
         21    1    1    2  503  501 -0.18284353371E+02 -0.96820094698E+01 -0.30159021332E+03  0.30229905004E+03  0.00000000000E+00 0. -1.
</event>
<event>
 4    1  0.2243475E+005  0.2403762E+02  0.7546771E-02  0.1479864E+00
          2   -1    0    0  503    0  0.00000000000E+00  0.00000000000E+00  0.68304685909E+02  0.68304685909E+02  0.00000000000E+00 0.  1.
         21   -1    0    0  501  502 -0.00000000000E+00 -0.00000000000E+00 -0.63139705535E+02  0.63139705535E+02  0.00000000000E+00 0.  1.
          2    1    1    2  501    0  0.13818907245E+02 -0.19668372726E+02  0.63743804769E+02  0.68125470491E+02  0.00000000000E+00 0.  1.
         21    1    1    2  503  502 -0.13818907245E+02  0.19668372726E+02 -0.58578824395E+02  0.63318920953E+02  0.00000000000E+00 0.  1.
</event>
<event>
 4    1  0.2243475E+005  0.2235516E+02  0.7546771E-02  0.1500758E+00
          2   -1    0    0  503    0  0.00000000000E+00  0.00000000000E+00  0.39870462818E+02  0.39870462818E+02  0.00000000000E+00 0.  1.
         21   -1    0    0  501  502 -0.00000000000E+00 -0.00000000000E+00 -0.22801057406E+02  0.22801057406E+02  0.00000000000E+00 0. -1.
          2    1    1    2  501    0  0.16968354413E+02 -0.14554314989E+02  0.29561680047E+02  0.37062731463E+02  0.00000000000E+00 0.  1.
         21    1    1    2  503  502 -0.16968354413E+02  0.14554314989E+02 -0.12492274635E+02  0.25608788762E+02  0.00000000000E+00 0. -1.
</event>
<event>
 4    1  0.2243475E+005  0.3148781E+02  0.7546771E-02  0.1407093E+00
          2   -1    0    0  502    0  0.00000000000E+00  0.00000000000E+00  0.16048214343E+02  0.16048214343E+02  0.00000000000E+00 0. -1.
         21   -1    0    0  503  502 -0.00000000000E+00 -0.00000000000E+00 -0.15951823267E+03  0.15951823267E+03  0.00000000000E+00 0. -1.
          2    1    1    2  501    0  0.51329330447E+01  0.31066625036E+02 -0.30225730860E+01  0.31632548757E+02  0.00000000000E+00 0. -1.
         21    1    1    2  503  501 -0.51329330447E+01 -0.31066625036E+02 -0.14044744524E+03  0.14393389826E+03  0.00000000000E+00 0. -1.
</event>
<event>
 4    1  0.2243475E+005  0.2694226E+02  0.7546771E-02  0.1448189E+00
          2   -1    0    0  502    0  0.00000000000E+00  0.00000000000E+00  0.80974018381E+03  0.80974018381E+03  0.00000000000E+00 0.  1.
         21   -1    0    0  503  502 -0.00000000000E+00 -0.00000000000E+00 -0.89651193350E+00  0.89651193350E+00  0.00000000000E+00 0.  1.
          2    1    1    2  501    0 -0.25910270066E+02 -0.73853246240E+01  0.40084217217E+03  0.40174660186E+03  0.00000000000E+00 0.  1.
         21    1    1    2  503  501  0.25910270066E+02  0.73853246240E+01  0.40800149971E+03  0.40889009389E+03  0.00000000000E+00 0.  1.
</event>
<event>
 4    1  0.2243475E+005  0.2500347E+02  0.7546771E-02  0.1468765E+00
          2   -1    0    0  502    0  0.00000000000E+00  0.00000000000E+00  0.44269647892E+03  0.44269647892E+03  0.00000000000E+00 0.  1.
         21   -1    0    0  503  502 -0.00000000000E+00 -0.00000000000E+00 -0.39105732359E+01  0.39105732359E+01  0.00000000000E+00 0.  1.
          2    1    1    2  501    0 -0.37730422324E+01 -0.24717158203E+02  0.39787907844E+03  0.39866393719E+03  0.00000000000E+00 0.  1.
         21    1    1    2  503  501  0.37730422324E+01  0.24717158203E+02  0.40906827248E+02  0.47943114968E+02  0.00000000000E+00 0.  1.
</event>
<event>
 4    1  0.2243475E+005  0.2183620E+02  0.7546771E-02  0.1507653E+00
          2   -1    0    0  503    0  0.00000000000E+00  0.00000000000E+00  0.51608232425E+03  0.51608232425E+03  0.00000000000E+00 0.  1.
         21   -1    0    0  501  502 -0.00000000000E+00 -0.00000000000E+00 -0.18658839419E+01  0.18658839419E+01  0.00000000000E+00 0.  1.
          2    1    1    2  501    0  0.20514466281E+02 -0.74817444759E+01  0.44111367492E+03  0.44165381695E+03  0.00000000000E+00 0.  1.
         21    1    1    2  503  502 -0.20514466281E+02  0.74817444759E+01  0.73102765388E+02  0.76294391239E+02  0.00000000000E+00 0.  1.
</event>
<event>
 4    1  0.2243475E+005  0.2005021E+02  0.7546771E-02  0.1533269E+00
          2   -1    0    0  502    0  0.00000000000E+00  0.00000000000E+00  0.20025516743E+02  0.20025516743E+02  0.00000000000E+00 0. -1.
         21   -1    0    0  503  502 -0.00000000000E+00 -0.00000000000E+00 -0.23119517995E+03  0.23119517995E+03  0.00000000000E+00 0.  1.
          2    1    1    2  501    0  0.13203781386E+02  0.15088778322E+02  0.14448252879E+02  0.24713621455E+02  0.00000000000E+00 0. -1.
         21    1    1    2  503  501 -0.13203781386E+02 -0.15088778322E+02 -0.22561791608E+03  0.22650707523E+03  0.00000000000E+00 0.  1.
</event>
<event>
 4    1  0.2243475E+005  0.2186274E+02  0.7546771E-02  0.1507295E+00
          2   -1    0    0  502    0  0.00000000000E+00  0.00000000000E+00  0.51046017823E+03  0.51046017823E+03  0.00000000000E+00 0.  1.
         21   -1    0    0  503  502 -0.00000000000E+00 -0.00000000000E+00 -0.19288050738E+01  0.19288050738E+01  0.00000000000E+00 0. -1.
          2    1    1    2  501    0  0.94717759326E+01 -0.19704436040E+02  0.43803660290E+03  0.43858185646E+03  0.00000000000E+00 0.  1.
         21    1    1    2  503  501 -0.94717759326E+01  0.19704436040E+02  0.70494770264E+02  0.73807126847E+02  0.00000000000E+00 0. -1.
</event>
<event>
 4    1  0.2243475E+005  0.2068795E+02  0.7546771E-02  0.1523767E+00
          2   -1    0    0  502    0  0.00000000000E+00  0.00000000000E+00  0.46940183799E+03  0.46940183799E+03  0.00000000000E+00 0.  1.
         21   -1    0    0  503  502 -0.00000000000E+00 -0.00000000000E+00 -0.39202588600E+01  0.39202588600E+01  0.00000000000E+00 0.  1.
          2    1    1    2  501    0 -0.19155517917E+02 -0.78139175904E+01  0.44006160044E+03  0.44054761758E+03  0.00000000000E+00 0.  1.
         21    1    1    2  503  501  0.19155517917E+02  0.78139175904E+01  0.25419978693E+02  0.32774479271E+02  0.00000000000E+00 0.  1.
</event>
<event>
 4    1  0.2243475E+005  0.2410471E+02  0.7546771E-02  0.1479073E+00
          2   -1    0    0  503    0  0.00000000000E+00  0.00000000000E+00  0.64002243460E+03  0.64002243460E+03  0.00000000000E+00 0. -1.
         21   -1    0    0  501  502 -0.00000000000E+00 -0.00000000000E+00 -0.19161484860E+02  0.19161484860E+02  0.00000000000E+00 0.  1.
          2    1    1    2  501    0  0.13151654073E+02 -0.20200762449E+02  0.63211994727E+03  0.63257937410E+03  0.00000000000E+00 0. -1.
         21    1    1    2  503  502 -0.13151654073E+02  0.20200762449E+02 -0.11258997526E+02  0.26604545357E+02  0.00000000000E+00 0.  1.
</event>
<event>
 4    1  0.2243475E+005  0.2795172E+02  0.7546771E-02  0.1438275E+00
          2   -1    0    0  502    0  0.00000000000E+00  0.00000000000E+00  0.11867801968E+04  0.11867801968E+04  0.00000000000E+00 0.  1.
         21   -1    0    0  503  502 -0.00000000000E+00 -0.00000000000E+00 -0.14263201049E+02  0.14263201049E+02  0.00000000000E+00 0.  1.
          2    1    1    2  501    0  0.27171232737E+02 -0.65591938985E+01  0.11727575818E+04  0.11730906378E+04  0.00000000000E+00 0.  1.
         21    1    1    2  503  501 -0.27171232737E+02  0.65591938985E+01 -0.24058600625E+00  0.27952760055E+02  0.00000000000E+00 0.  1.
</event>
<event>
 4    1  0.2243475E+005  0.3003130E+02  0.7546771E-02  0.1419325E+00
          2   -1    0    0  503    0  0.00000000000E+00  0.00000000000E+00  0.51325013899E+02  0.51325013899E+02  0.00000000000E+00 0.  1.
         21   -1    0    0  501  502 -0.00000000000E+00 -0.00000000000E+00 -0.22129806560E+02  0.22129806560E+02  0.00000000000E+00 0.  1.
          2    1    1    2  501    0  0.16013559247E+02  0.25405612815E+02 -0.20703798976E+01  0.30102586519E+02  0.00000000000E+00 0.  1.
         21    1    1    2  503  502 -0.16013559247E+02 -0.25405612815E+02  0.31265587237E+02  0.43352233939E+02  0.00000000000E+00 0.  1.
</event>
<event>
 4    1  0.2243475E+005  0.2284715E+02  0.7546771E-02  0.1494427E+00
          2   -1    0    0  503    0  0.00000000000E+00  0.00000000000E+00  0.35420174004E+03  0.35420174004E+03  0.00000000000E+00 0. -1.
         21   -1    0    0  501  502 -0.00000000000E+00 -0.00000000000E+00 -0.31930932457E+01  0.31930932457E+01  0.00000000000E+00 0.  1.
          2    1    1    2  501    0  0.18161384262E+02 -0.13862041647E+02  0.30663319038E+03  0.30748317925E+03  0.00000000000E+00 0. -1.
         21    1    1    2  503  502 -0.18161384262E+02  0.13862041647E+02  0.44375456410E+02  0.49911654035E+02  0.00000000000E+00 0.  1.
</event>
<event>
 4    1  0.2243475E+005  0.5661375E+02  0.7546771E-02  0.1271793E+00
          2   -1    0    0  503    0  0.00000000000E+00  0.00000000000E+00  0.14098184067E+04  0.14098184067E+04  0.00000000000E+00 0.  1.
         21   -1    0    0  501  502 -0.00000000000E+00 -0.00000000000E+00 -0.40466459255E+02  0.40466459255E+02  0.00000000000E+00 0. -1.
          2    1    1    2  501    0 -0.56203465692E+02  0.68034661309E+01  0.13891545596E+04  0.13903077023E+04  0.00000000000E+00 0.  1.
         21    1    1    2  503  502  0.56203465692E+02 -0.68034661309E+01 -0.19802612160E+02  0.59977163617E+02  0.00000000000E+00 0. -1.
</event>
<event>
 4    1  0.2243475E+005  0.2792197E+02  0.7546771E-02  0.1438560E+00
          2   -1    0    0  503    0  0.00000000000E+00  0.00000000000E+00  0.13627870837E+03  0.13627870837E+03  0.00000000000E+00 0. -1.
         21   -1    0    0  501  502 -0.00000000000E+00 -0.00000000000E+00 -0.16055926458E+03  0.16055926458E+03  0.00000000000E+00 0.  1.
          2    1    1    2  501    0  0.21487279166E+02 -0.17830686322E+02  0.13361056228E+03  0.13649695562E+03  0.00000000000E+00 0. -1.
         21    1    1    2  503  502 -0.21487279166E+02  0.17830686322E+02 -0.15789111849E+03  0.16034101733E+03  0.00000000000E+00 0.  1.
</event>
<event>
 4    1  0.2243475E+005  0.4315146E+02  0.7546771E-02  0.1330946E+00
          2   -1    0    0  502    0  0.00000000000E+00  0.00000000000E+00  0.29860158875E+03  0.29860158875E+03  0.00000000000E+00 0. -1.
         21   -1    0    0  503  502 -0.00000000000E+00 -0.00000000000E+00 -0.76167889992E+01  0.76167889992E+01  0.00000000000E+00 0.  1.
          2    1    1    2  501    0  0.27593628659E+02 -0.33175893974E+02  0.21068456374E+03  0.21505820998E+03  0.00000000000E+00 0. -1.
         21    1    1    2  503  501 -0.27593628659E+02  0.33175893974E+02  0.80300236016E+02  0.91160167770E+02  0.00000000000E+00 0.  1.
</event>
<event>
 4    1  0.2243475E+005  0.3825595E+02  0.7546771E-02  0.1359020E+00
          2   -1    0    0  503    0  0.00000000000E+00  0.00000000000E+00  0.12334854070E+04  0.12334854070E+04  0.00000000000E+00 0. -1.
         21   -1    0    0  501  502 -0.00000000000E+00 -0.00000000000E+00 -0.34092612408E+01  0.34092612408E+01  0.00000000000E+00 0. -1.
          2    1    1    2  501    0  0.36378829427E+02  0.11836319415E+02  0.11144052560E+04  0.11150616989E+04  0.00000000000E+00 0. -1.
         21    1    1    2  503  502 -0.36378829427E+02 -0.11836319415E+02  0.11567088975E+03  0.12183296936E+03  0.00000000000E+00 0. -1.
</event>
<event>
 4    1  0.2243475E+005  0.2429777E+02  0.7546771E-02  0.1476815E+00
          2   -1    0    0  503    0  0.00000000000E+00  0.00000000000E+00  0.22141148826E+04  0.22141148826E+04  0.00000000000E+00 0. -1.
         21   -1    0    0  501  502 -0.00000000000E+00 -0.00000000000E+00 -0.42681358731E+00  0.42681358731E+00  0.00000000000E+00 0. -1.
          2    1    1    2  501    0 -0.12377523884E+02 -0.20908817642E+02  0.17851474092E+04  0.17853127609E+04  0.00000000000E+00 0. -1.
         21    1    1    2  503  502  0.12377523884E+02  0.20908817642E+02  0.42854065985E+03  0.42922893530E+03  0.00000000000E+00 0. -1.
</event>
<event>
 4    1  0.2243475E+005  0.2397672E+02  0.7546771E-02  0.1480585E+00
          2   -1    0    0  503    0  0.00000000000E+00  0.00000000000E+00  0.89146423169E+03  0.89146423169E+03  0.00000000000E+00 0. -1.
         21   -1    0    0  501  502 -0.00000000000E+00 -0.00000000000E+00 -0.42893465030E+02  0.42893465030E+02  0.00000000000E+00 0.  1.
          2    1    1    2  501    0  0.65475934004E+00 -0.23967773372E+02  0.88793906950E+03  0.88826272803E+03  0.00000000000E+00 0. -1.
         21    1    1    2  503  502 -0.65475934004E+00  0.23967773372E+02 -0.39368302837E+02  0.46094968689E+02  0.00000000000E+00 0.  1.
</event>
<event>
 4    1  0.2243475E+005  0.2312229E+02  0.7546771E-02  0.1490968E+00
          2   -1    0    0  503    0  0.00000000000E+00  0.00000000000E+00  0.72639304154E+03  0.72639304154E+03  0.00000000000E+00 0. -1.
         21   -1    0    0  501  502 -0.00000000000E+00 -0.00000000000E+00 -0.91640794197E+00  0.91640794197E+00  0.00000000000E+00 0. -1.
          2    1    1    2  501    0 -0.10677682092E+02 -0.20509203860E+02  0.20139622488E+03  0.20271921402E+03  0.00000000000E+00 0. -1.
         21    1    1    2  503  502  0.10677682092E+02  0.20509203860E+02  0.52408040872E+03  0.52459023546E+03  0.00000000000E+00 0. -1.
</event>
<event>
 4    1  0.2243475E+005  0.2116077E+02  0.7546771E-02  0.1516982E+00
          2   -1    0    0  503    0  0.00000000000E+00  0.00000000000E+00  0.36049580570E+02  0.36049580570E+02  0.00000000000E+00 0.  1.
         21   -1    0    0  501  502 -0.00000000000E+00 -0.00000000000E+00 -0.40259494620E+02  0.40259494620E+02  0.00000000000E+00 0.  1.
          2    1    1    2  501    0  0.14739883517E+01 -0.21109374098E+02  0.29622371626E+02  0.36404164834E+02  0.00000000000E+00 0.  1.
         21    1    1    2  503  502 -0.14739883517E+01  0.21109374098E+02 -0.33832285676E+02  0.39904910356E+02  0.00000000000E+00 0.  1.
</event>
<event>
 4    1  0.2243475E+005  0.2038955E+02  0.7546771E-02  0.1528162E+00
          2   -1    0    0  502    0  0.00000000000E+00  0.00000000000E+00  0.16421711076E+04  0.16421711076E+04  0.00000000000E+00 0. -1.
         21   -1    0    0  503  502 -0.00000000000E+00 -0.00000000000E+00 -0.46228790708E+00  0.46228790708E+00  0.00000000000E+00 0.  1.
          2    1    1    2  501    0  0.93481196471E+01  0.18120330494E+02  0.13732615950E+04  0.13734129540E+04  0.00000000000E+00 0. -1.
         21    1    1    2  503  501 -0.93481196471E+01 -0.18120330494E+02  0.26844722469E+03  0.26922044157E+03  0.00000000000E+00 0.  1.
</event>
<event>
 4    1  0.2243475E+005  0.2143601E+02  0.7546771E-02  0.1513130E+00
          2   -1    0    0  503    0  0.00000000000E+00  0.00000000000E+00  0.34067779337E+03  0.34067779337E+03  0.00000000000E+00 0. -1.
         21   -1    0    0  501  502 -0.00000000000E+00 -0.00000000000E+00 -0.14105915096E+01  0.14105915096E+01  0.00000000000E+00 0. -1.
          2    1    1    2  501    0 -0.90014949039E+01 -0.19454451602E+02  0.20543576994E+03  0.20655110304E+03  0.00000000000E+00 0. -1.
         21    1    1    2  503  502  0.90014949039E+01  0.19454451602E+02  0.13383143192E+03  0.13553728184E+03  0.00000000000E+00 0. -1.
</event>
<event>
 4    1  0.2243475E+005  0.2168750E+02  0.7546771E-02  0.1509671E+00
          2   -1    0    0  503    0  0.00000000000E+00  0.00000000000E+00  0.54015438883E+03  0.54015438883E+03  0.00000000000E+00 0. -1.
         21   -1    0    0  501  502 -0.00000000000E+00 -0.00000000000E+00 -0.17729355541E+01  0.17729355541E+01  0.00000000000E+00 0. -1.
          2    1    1    2  501    0 -0.73037913357E+01 -0.20420628903E+02  0.46248052812E+03  0.46298875401E+03  0.00000000000E+00 0. -1.
         21    1    1    2  503  502  0.73037913357E+01  0.20420628903E+02  0.75900925154E+02  0.78938570369E+02  0.00000000000E+00 0. -1.
</event>
<event>
 4    1  0.2243475E+005  0.2371129E+02  0.7546771E-02  0.1483754E+00
          2   -1    0    0  503    0  0.00000000000E+00  0.00000000000E+00  0.16670935437E+04  0.16670935437E+04  0.00000000000E+00 0. -1.
         21   -1    0    0  501  502 -0.00000000000E+00 -0.00000000000E+00 -0.72285344722E+00  0.72285344722E+00  0.00000000000E+00 0.  1.
          2    1    1    2  501    0 -0.75637088793E+01  0.22472555103E+02  0.14422511283E+04  0.14424460276E+04  0.00000000000E+00 0. -1.
         21    1    1    2  503  502  0.75637088793E+01 -0.22472555103E+02  0.22411956196E+03  0.22537036956E+03  0.00000000000E+00 0.  1.
</event>
<event>
 4    1  0.2243475E+005  0.2407844E+02  0.7546771E-02  0.1479383E+00
          2   -1    0    0  503    0  0.00000000000E+00  0.00000000000E+00  0.17739889647E+02  0.17739889647E+02  0.00000000000E+00 0. -1.
         21   -1    0    0  501  502 -0.00000000000E+00 -0.00000000000E+00 -0.17065557219E+03  0.17065557219E+03  0.00000000000E+00 0. -1.
          2    1    1    2  501    0 -0.23292983067E+02 -0.60998359962E+01  0.82412040300E+01  0.25449725013E+02  0.00000000000E+00 0. -1.
         21    1    1    2  503  502  0.23292983067E+02  0.60998359962E+01 -0.16115688657E+03  0.16294573682E+03  0.00000000000E+00 0. -1.
</event>
<event>
 4    1  0.2243475E+005  0.2443504E+02  0.7546771E-02  0.1475224E+00
          2   -1    0    0  503    0  0.00000000000E+00  0.00000000000E+00  0.54968032065E+03  0.54968032065E+03  0.00000000000E+00 0. -1.
         21   -1    0    0  501  502 -0.00000000000E+00 -0.00000000000E+00 -0.38012149888E+01  0.38012149888E+01  0.00000000000E+00 0.  1.
          2    1    1    2  501    0 -0.24334675818E+02  0.22124142544E+01  0.50682155870E+03  0.50741025175E+03  0.00000000000E+00 0. -1.
         21    1    1    2  503  502  0.24334675818E+02 -0.22124142544E+01  0.39057546961E+02  0.46071283883E+02  0.00000000000E+00 0.  1.
</event>
<event>
 4    1  0.2243475E+005  0.3747733E+02  0.7546771E-02  0.1363938E+00
          2   -1    0    0  502    0  0.00000000000E+00  0.00000000000E+00  0.12939722324E+02  0.12939722324E+02  0.00000000000E+00 0. -1.
         21   -1    0    0  503  502 -0.00000000000E+00 -0.00000000000E+00 -0.82078646435E+03  0.82078646435E+03  0.00000000000E+00 0.  1.
          2    1    1    2  501    0  0.10114840109E+02  0.36086568528E+02 -0.15601558567E+02  0.40595061871E+02  0.00000000000E+00 0. -1.
         21    1    1    2  503  501 -0.10114840109E+02 -0.36086568528E+02 -0.79224518346E+03  0.79313112481E+03  0.00000000000E+00 0.  1.
</event>
<event>
 4    1  0.2243475E+005  0.2087755E+02  0.7546771E-02  0.1521020E+00
          2   -1    0    0  503    0  0.00000000000E+00  0.00000000000E+00  0.66351918470E+02  0.66351918470E+02  0.00000000000E+00 0. -1.
         21   -1    0    0  501  502 -0.00000000000E+00 -0.00000000000E+00 -0.74396251065E+01  0.74396251065E+01  0.00000000000E+00 0. -1.
          2    1    1    2  501    0 -0.16323009450E+02  0.13016576542E+02  0.42077140336E+02  0.46971881389E+02  0.00000000000E+00 0. -1.
         21    1    1    2  503  502  0.16323009450E+02 -0.13016576542E+02  0.16835153027E+02  0.26819662187E+02  0.00000000000E+00 0. -1.
</event>
<event>
 4    1  0.2243475E+005  0.2918184E+02  0.7546771E-02  0.1426842E+00
          2   -1    0    0  502    0  0.00000000000E+00  0.00000000000E+00  0.17495512594E+03  0.17495512594E+03  0.00000000000E+00 0.  1.
         21   -1    0    0  503  502 -0.00000000000E+00 -0.00000000000E+00 -0.85925587232E+02  0.85925587232E+02  0.00000000000E+00 0. -1.
          2    1    1    2  501    0 -0.45492779865E+01  0.28825059887E+02  0.17120674656E+03  0.17367593408E+03  0.00000000000E+00 0.  1.
         21    1    1    2  503  501  0.45492779865E+01 -0.28825059887E+02 -0.82177207852E+02  0.87204779101E+02  0.00000000000E+00 0. -1.
</event>
<event>
 4    1  0.2243475E+005  0.2642689E+02  0.7546771E-02  0.1453452E+00
          2   -1    0    0  502    0  0.00000000000E+00  0.00000000000E+00  0.17494126329E+04  0.17494126329E+04  0.00000000000E+00 0.  1.
         21   -1    0    0  503  502 -0.00000000000E+00 -0.00000000000E+00 -0.46014792460E+00  0.46014792460E+00  0.00000000000E+00 0.  1.
          2    1    1    2  501    0 -0.15502761237E+02 -0.21401982324E+02  0.11928789837E+04  0.11931716768E+04  0.00000000000E+00 0.  1.
         21    1    1    2  503  501  0.15502761237E+02  0.21401982324E+02  0.55607350124E+03  0.55670110404E+03  0.00000000000E+00 0.  1.
</event>
<event>
 4    1  0.2243475E+005  0.2254674E+02  0.7546771E-02  0.1498270E+00
          2   -1    0    0  503    0  0.00000000000E+00  0.00000000000E+00  0.12057241802E+03  0.12057241802E+03  0.00000000000E+00 0.  1.
         21   -1    0    0  501  502 -0.00000000000E+00 -0.00000000000E+00 -0.66889538662E+02  0.66889538662E+02  0.00000000000E+00 0.  1.
          2    1    1    2  501    0 -0.87879952051E+00  0.22529609268E+02  0.11757031307E+03  0.11971271485E+03  0.00000000000E+00 0.  1.
         21    1    1    2  503  502  0.87879952051E+00 -0.22529609268E+02 -0.63887433710E+02  0.67749241829E+02  0.00000000000E+00 0.  1.
</event>
<event>
 4    1  0.2243475E+005  0.2274762E+02  0.7546771E-02  0.1495692E+00
          2   -1    0    0  503    0  0.00000000000E+00  0.00000000000E+00  0.23247544428E+03  0.23247544428E+03  0.00000000000E+00 0.  1.
         21   -1    0    0  501  502 -0.00000000000E+00 -0.00000000000E+00 -0.26288592060E+01  0.26288592060E+01  0.00000000000E+00 0.  1.
          2    1    1    2  501    0  0.15913122363E+01 -0.22691888887E+02  0.16094975346E+03  0.16254930709E+03  0.00000000000E+00 0.  1.
         21    1    1    2  503  502 -0.15913122363E+01  0.22691888887E+02  0.68896831613E+02  0.72554996397E+02  0.00000000000E+00 0.  1.
</event>
<event>
 4    1  0.2243475E+005  0.5468747E+02  0.7546771E-02  0.1279035E+00
          2   -1    0    0  502    0  0.00000000000E+00  0.00000000000E+00  0.55117623449E+03  0.55117623449E+03  0.00000000000E+00 0. -1.
         21   -1    0    0  503  502 -0.00000000000E+00 -0.00000000000E+00 -0.54398315630E+01  0.54398315630E+01  0.00000000000E+00 0. -1.
          2    1    1    2  501    0 -0.58601962721E+01  0.54372578080E+02  0.28686778384E+03  0.29203397843E+03  0.00000000000E+00 0. -1.
         21    1    1    2  503  501  0.58601962721E+01 -0.54372578080E+02  0.25886861908E+03  0.26458208763E+03  0.00000000000E+00 0. -1.
</event>
<event>
 4    1  0.2243475E+005  0.4626022E+02  0.7546771E-02  0.1315255E+00
          2   -1    0    0  502    0  0.00000000000E+00  0.00000000000E+00  0.56235724423E+03  0.56235724423E+03  0.00000000000E+00 0.  1.
         21   -1    0    0  503  502 -0.00000000000E+00 -0.00000000000E+00 -0.22935891994E+02  0.22935891994E+02  0.00000000000E+00 0.  1.
          2    1    1    2  501    0 -0.39551217175E+02  0.23993942894E+02  0.53697956538E+03  0.53896851643E+03  0.00000000000E+00 0.  1.
         21    1    1    2  503  501  0.39551217175E+02 -0.23993942894E+02  0.24417868612E+01  0.46324619791E+02  0.00000000000E+00 0.  1.
</event>
<event>
 4    1  0.2243475E+005  0.2076855E+02  0.7546771E-02  0.1522595E+00
          2   -1    0    0  502    0  0.00000000000E+00  0.00000000000E+00  0.36306980126E+03  0.36306980126E+03  0.00000000000E+00 0. -1.
         21   -1    0    0  503  502 -0.00000000000E+00 -0.00000000000E+00 -0.14193864775E+02  0.14193864775E+02  0.00000000000E+00 0.  1.
          2    1    1    2  501    0 -0.10277205722E+02 -0.18047479797E+02  0.35500315222E+03  0.35561013845E+03  0.00000000000E+00 0. -1.
         21    1    1    2  503  501  0.10277205722E+02  0.18047479797E+02 -0.61272157273E+01  0.21653527589E+02  0.00000000000E+00 0.  1.
</event>
<event>
 4    1  0.2243475E+005  0.2055067E+02  0.7546771E-02  0.1525778E+00
          2   -1    0    0  502    0  0.00000000000E+00  0.00000000000E+00  0.14457378760E+04  0.14457378760E+04  0.00000000000E+00 0.  1.
         21   -1    0    0  503  502 -0.00000000000E+00 -0.00000000000E+00 -0.10628146291E+02  0.10628146291E+02  0.00000000000E+00 0. -1.
          2    1    1    2  501    0 -0.13914787953E+02 -0.15123116505E+02  0.14356608862E+04  0.14358079643E+04  0.00000000000E+00 0.  1.
         21    1    1    2  503  501  0.13914787953E+02  0.15123116505E+02 -0.55115652157E+00  0.20558058033E+02  0.00000000000E+00 0. -1.
</event>
<event>
 4    1  0.2243475E+005  0.3853027E+02  0.7546771E-02  0.1357320E+00
          2   -1    0    0  502    0  0.00000000000E+00  0.00000000000E+00  0.38591277469E+03  0.38591277469E+03  0.00000000000E+00 0.  1.
         21   -1    0    0  503  502 -0.00000000000E+00 -0.00000000000E+00 -0.98745018511E+01  0.98745018511E+01  0.00000000000E+00 0. -1.
          2    1    1    2  501    0 -0.81848797623E+01 -0.37650889218E+02  0.34263185624E+03  0.34479148862E+03  0.00000000000E+00 0.  1.
         21    1    1    2  503  501  0.81848797623E+01  0.37650889218E+02  0.33406416603E+02  0.50995787923E+02  0.00000000000E+00 0. -1.
</event>
<event>
 4    1  0.2243475E+005  0.2139676E+02  0.7546771E-02  0.1513675E+00
          2   -1    0    0  502    0  0.00000000000E+00  0.00000000000E+00  0.26377624129E+02  0.26377624129E+02  0.00000000000E+00 0. -1.
         21   -1    0    0  503  502 -0.00000000000E+00 -0.00000000000E+00 -0.30904346735E+02  0.30904346735E+02  0.00000000000E+00 0.  1.
          2    1    1    2  501    0 -0.95408534955E+01  0.19151849868E+02  0.16699965165E+02  0.27142403639E+02  0.00000000000E+00 0. -1.
         21    1    1    2  503  501  0.95408534955E+01 -0.19151849868E+02 -0.21226687771E+02  0.30139567225E+02  0.00000000000E+00 0.  1.
</event>
<event>
 4    1  0.2243475E+005  0.3440572E+02  0.7546771E-02  0.1384790E+00
          2   -1    0    0  502    0  0.00000000000E+00  0.00000000000E+00  0.75985034985E+03  0.75985034985E+03  0.00000000000E+00 0. -1.
         21   -1    0    0  503  502 -0.00000000000E+00 -0.00000000000E+00 -0.27528951126E+03  0.27528951126E+03  0.00000000000E+00 0. -1.
          2    1    1    2  501    0  0.33494363552E+02 -0.78664677698E+01  0.75838379472E+03  0.75916383858E+03  0.00000000000E+00 0. -1.
         21    1    1    2  503  501 -0.33494363552E+02  0.78664677698E+01 -0.27382295613E+03  0.27597602253E+03  0.00000000000E+00 0. -1.
</event>
<event>
 4    1  0.2243475E+005  0.2324196E+02  0.7546771E-02  0.1489482E+00
          2   -1    0    0  502    0  0.00000000000E+00  0.00000000000E+00  0.54174975254E+03  0.54174975254E+03  0.00000000000E+00 0. -1.
         21   -1    0    0  503  502 -0.00000000000E+00 -0.00000000000E+00 -0.17426118927E+01  0.17426118927E+01  0.00000000000E+00 0.  1.
          2    1    1    2  501    0  0.19724649022E+02 -0.12293378207E+02  0.44774345427E+03  0.44834628332E+03  0.00000000000E+00 0. -1.
         21    1    1    2  503  501 -0.19724649022E+02  0.12293378207E+02  0.92263686373E+02  0.95146081106E+02  0.00000000000E+00 0.  1.
</event>
<event>
 4    1  0.2243475E+005  0.2228030E+02  0.7546771E-02  0.1501739E+00
          2   -1    0    0  503    0  0.00000000000E+00  0.00000000000E+00  0.65068029043E+03  0.65068029043E+03  0.00000000000E+00 0.  1.
         21   -1    0    0  501  502 -0.00000000000E+00 -0.00000000000E+00 -0.94841682491E+01  0.94841682491E+01  0.00000000000E+00 0. -1.
          2    1    1    2  501    0  0.12745689238E+02 -0.18274546063E+02  0.63712599952E+03  0.63751545149E+03  0.00000000000E+00 0.  1.
         21    1    1    2  503  502 -0.12745689238E+02  0.18274546063E+02  0.40701226591E+01  0.22649007184E+02  0.00000000000E+00 0. -1.
</event>
<event>
 4    1  0.2243475E+005  0.2123603E+02  0.7546771E-02  0.1515921E+00
          2   -1    0    0  503    0  0.00000000000E+00  0.00000000000E+00  0.31188104675E+03  0.31188104675E+03  0.00000000000E+00 0. -1.
         21   -1    0    0  501  502 -0.00000000000E+00 -0.00000000000E+00 -0.32086441993E+02  0.32086441993E+02  0.00000000000E+00 0. -1.
          2    1    1    2  501    0  0.21055571482E+02  0.27625913039E+01  0.30796118092E+03  0.30869249741E+03  0.00000000000E+00 0. -1.
         21    1    1    2  503  502 -0.21055571482E+02 -0.27625913039E+01 -0.28166576163E+02  0.35274991338E+02  0.00000000000E+00 0. -1.
</event>
<event>
 4    1  0.2243475E+005  0.3246052E+02  0.7546771E-02  0.1399353E+00
          2   -1    0    0  502    0  0.00000000000E+00  0.00000000000E+00  0.12165718271E+04  0.12165718271E+04  0.00000000000E+00 0.  1.
         21   -1    0    0  503  502 -0.00000000000E+00 -0.00000000000E+00 -0.62819639722E+02  0.62819639722E+02  0.00000000000E+00 0. -1.
          2    1    1    2  501    0  0.17533319840E+02 -0.27317904610E+02  0.12121466986E+04  0.12125812567E+04  0.00000000000E+00 0.  1.
         21    1    1    2  503  501 -0.17533319840E+02  0.27317904610E+02 -0.58394511288E+02  0.66810210039E+02  0.00000000000E+00 0. -1.
</event>
<event>
 4    1  0.2243475E+005  0.2672647E+02  0.7546771E-02  0.1450375E+00
          2   -1    0    0  503    0  0.00000000000E+00  0.00000000000E+00  0.15656651269E+04  0.15656651269E+04  0.00000000000E+00 0. -1.
         21   -1    0    0  501  502 -0.00000000000E+00 -0.00000000000E+00 -0.27273274324E+01  0.27273274324E+01  0.00000000000E+00 0. -1.
          2    1    1    2  501    0 -0.25524566230E+02  0.79246893749E+01  0.14970748508E+04  0.14973133984E+04  0.00000000000E+00 0. -1.
         21    1    1    2  503  502  0.25524566230E+02 -0.79246893749E+01  0.65862948703E+02  0.71079055950E+02  0.00000000000E+00 0. -1.
</event>
<event>
 4    1  0.2243475E+005  0.2074036E+02  0.7546771E-02  0.1523004E+00
          2   -1    0    0  502    0  0.00000000000E+00  0.00000000000E+00  0.83436427193E+01  0.83436427193E+01  0.00000000000E+00 0. -1.
         21   -1    0    0  503  502 -0.00000000000E+00 -0.00000000000E+00 -0.66495515245E+02  0.66495515245E+02  0.00000000000E+00 0. -1.
          2    1    1    2  501    0  0.14982972880E+02  0.14341307202E+02 -0.11339149865E+02  0.23637658265E+02  0.00000000000E+00 0. -1.
         21    1    1    2  503  501 -0.14982972880E+02 -0.14341307202E+02 -0.46812722661E+02  0.51201499700E+02  0.00000000000E+00 0. -1.
</event>
<event>
 4    1  0.2243475E+005  0.2488858E+02  0.7546771E-02  0.1470054E+00
          2   -1    0    0  502    0  0.00000000000E+00  0.00000000000E+00  0.13793491755E+02  0.13793491755E+02  0.00000000000E+00 0.  1.
         21   -1    0    0  503  502 -0.00000000000E+00 -0.00000000000E+00 -0.14232665840E+03  0.14232665840E+03  0.00000000000E+00 0.  1.
          2    1    1    2  501    0  0.24156694985E+02 -0.59912837059E+01  0.31465715629E+00  0.24890568538E+02  0.00000000000E+00 0.  1.
         21    1    1    2  503  501 -0.24156694985E+02  0.59912837059E+01 -0.12884782380E+03  0.13122958161E+03  0.00000000000E+00 0.  1.
</event>
<event>
 4    1  0.2243475E+005  0.2259233E+02  0.7546771E-02  0.1497682E+00
          2   -1    0    0  503    0  0.00000000000E+00  0.00000000000E+00  0.31987835459E+03  0.31987835459E+03  0.00000000000E+00 0. -1.
         21   -1    0    0  501  502 -0.00000000000E+00 -0.00000000000E+00 -0.19797361968E+01  0.19797361968E+01  0.00000000000E+00 0. -1.
          2    1    1    2  501    0  0.20693904507E+01 -0.22497354005E+02  0.22983297229E+03  0.23094070335E+03  0.00000000000E+00 0. -1.
         21    1    1    2  503  502 -0.20693904507E+01  0.22497354005E+02  0.88065646110E+02  0.90917387439E+02  0.00000000000E+00 0. -1.
</event>
<event>
 4    1  0.2243475E+005  0.3922279E+02  0.7546771E-02  0.1353101E+00
          2   -1    0    0  503    0  0.00000000000E+00  0.00000000000E+00  0.51371609898E+03  0.51371609898E+03  0.00000000000E+00 0.  1.
         21   -1    0    0  501  502 -0.00000000000E+00 -0.00000000000E+00 -0.59067485793E+01  0.59067485793E+01  0.00000000000E+00 0.  1.
          2    1    1    2  501    0  0.15353182990E+02  0.36093032793E+02  0.43632913527E+03  0.43808850878E+03  0.00000000000E+00 0.  1.
         21    1    1    2  503  502 -0.15353182990E+02 -0.36093032793E+02  0.71480215128E+02  0.81534338771E+02  0.00000000000E+00 0.  1.
</event>
<event>
 4    1  0.2243475E+005  0.5090345E+02  0.7546771E-02  0.1294302E+00
          2   -1    0    0  502    0  0.00000000000E+00  0.00000000000E+00  0.57837559040E+02  0.57837559040E+02  0.00000000000E+00 0. -1.
         21   -1    0    0  503  502 -0.00000000000E+00 -0.00000000000E+00 -0.11147677637E+03  0.11147677637E+03  0.00000000000E+00 0. -1.
          2    1    1    2  501    0  0.12466430552E+02  0.49353314573E+02  0.38652547044E+02  0.63915420229E+02  0.00000000000E+00 0. -1.
         21    1    1    2  503  501 -0.12466430552E+02 -0.49353314573E+02 -0.92291764370E+02  0.10539891518E+03  0.00000000000E+00 0. -1.
</event>
<event>
 4    1  0.2243475E+005  0.4138567E+02  0.7546771E-02  0.1340552E+00
          2   -1    0    0  503    0  0.00000000000E+00  0.00000000000E+00  0.98491894906E+03  0.98491894906E+03  0.00000000000E+00 0.  1.
         21   -1    0    0  501  502 -0.00000000000E+00 -0.00000000000E+00 -0.64448086244E+02  0.64448086244E+02  0.00000000000E+00 0. -1.
          2    1    1    2  501    0 -0.78000024659E+01  0.40643982739E+02  0.97779178851E+03  0.97866723408E+03  0.00000000000E+00 0.  1.
         21    1    1    2  503  502  0.78000024659E+01 -0.40643982739E+02 -0.57320925695E+02  0.70699801230E+02  0.00000000000E+00 0. -1.
</event>
<event>
 4    1  0.2243475E+005  0.2503618E+02  0.7546771E-02  0.1468399E+00
          2   -1    0    0  503    0  0.00000000000E+00  0.00000000000E+00  0.39621744946E+02  0.39621744946E+02  0.00000000000E+00 0. -1.
         21   -1    0    0  501  502 -0.00000000000E+00 -0.00000000000E+00 -0.47237905216E+03  0.47237905216E+03  0.00000000000E+00 0. -1.
          2    1    1    2  501    0  0.19075449921E+02  0.16215343640E+02  0.35298547410E+02  0.43275831688E+02  0.00000000000E+00 0. -1.
         21    1    1    2  503  502 -0.19075449921E+02 -0.16215343640E+02 -0.46805585463E+03  0.46872496542E+03  0.00000000000E+00 0. -1.
</event>
<event>
 4    1  0.2243475E+005  0.2356382E+02  0.7546771E-02  0.1485537E+00
          2   -1    0    0  502    0  0.00000000000E+00  0.00000000000E+00  0.10742346196E+03  0.10742346196E+03  0.00000000000E+00 0. -1.
         21   -1    0    0  503  502 -0.00000000000E+00 -0.00000000000E+00 -0.23340167318E+02  0.23340167318E+02  0.00000000000E+00 0.  1.
          2    1    1    2  501    0  0.21545611402E+02  0.95414973192E+01  0.99731368582E+02  0.10247731174E+03  0.00000000000E+00 0. -1.
         21    1    1    2  503  501 -0.21545611402E+02 -0.95414973192E+01 -0.15648073943E+02  0.28286317538E+02  0.00000000000E+00 0.  1.
</event>
<event>
 4    1  0.2243475E+005  0.2679447E+02  0.7546771E-02  0.1449684E+00
          2   -1    0    0  502    0  0.00000000000E+00  0.00000000000E+00  0.23111711482E+01  0.23111711482E+01  0.00000000000E+00 0. -1.
         21   -1    0    0  503  502 -0.00000000000E+00 -0.00000000000E+00 -0.40107803704E+03  0.40107803704E+03  0.00000000000E+00 0. -1.
          2    1    1    2  501    0 -0.25628876096E+02  0.78169431068E+01 -0.10360810371E+03  0.10701674189E+03  0.00000000000E+00 0. -1.
         21    1    1    2  503  501  0.25628876096E+02 -0.78169431068E+01 -0.29515876218E+03  0.29637246630E+03  0.00000000000E+00 0. -1.
</event>
<event>
 4    1  0.2243475E+005  0.4140752E+02  0.7546771E-02  0.1340429E+00
          2   -1    0    0  503    0  0.00000000000E+00  0.00000000000E+00  0.44129210795E+02  0.44129210795E+02  0.00000000000E+00 0.  1.
         21   -1    0    0  501  502 -0.00000000000E+00 -0.00000000000E+00 -0.39276056698E+02  0.39276056698E+02  0.00000000000E+00 0.  1.
          2    1    1    2  501    0  0.24903019940E+02  0.33082049086E+02 -0.18980424342E+01  0.41450994426E+02  0.00000000000E+00 0.  1.
         21    1    1    2  503  502 -0.24903019940E+02 -0.33082049086E+02  0.67511965311E+01  0.41954273066E+02  0.00000000000E+00 0.  1.
</event>
<event>
 4    1  0.2243475E+005  0.2541927E+02  0.7546771E-02  0.1464167E+00
          2   -1    0    0  502    0  0.00000000000E+00  0.00000000000E+00  0.11548605145E+04  0.11548605145E+04  0.00000000000E+00 0.  1.
         21   -1    0    0  503  502 -0.00000000000E+00 -0.00000000000E+00 -0.20087898769E+01  0.20087898769E+01  0.00000000000E+00 0.  1.
          2    1    1    2  501    0  0.12077870725E+02 -0.22366586466E+02  0.10677469047E+04  0.10680494331E+04  0.00000000000E+00 0.  1.
         21    1    1    2  503  501 -0.12077870725E+02  0.22366586466E+02  0.85104819981E+02  0.88819871287E+02  0.00000000000E+00 0.  1.
</event>
<event>
 4    1  0.2243475E+005  0.2379135E+02  0.7546771E-02  0.1482793E+00
          2   -1    0    0  502    0  0.00000000000E+00  0.00000000000E+00  0.18924685809E+03  0.18924685809E+03  0.00000000000E+00 0.  1.
         21   -1    0    0  503  502 -0.00000000000E+00 -0.00000000000E+00 -0.19160533218E+03  0.19160533218E+03  0.00000000000E+00 0. -1.
          2    1    1    2  501    0  0.89259812729E+01  0.22053457794E+02  0.18775474047E+03  0.18925609822E+03  0.00000000000E+00 0.  1.
         21    1    1    2  503  501 -0.89259812729E+01 -0.22053457794E+02 -0.19011321456E+03  0.19159609206E+03  0.00000000000E+00 0. -1.
</event>
<event>
 4    1  0.2243475E+005  0.2085742E+02  0.7546771E-02  0.1521310E+00
          2   -1    0    0  503    0  0.00000000000E+00  0.00000000000E+00  0.22089522949E+03  0.22089522949E+03  0.00000000000E+00 0. -1.
         21   -1    0    0  501  502 -0.00000000000E+00 -0.00000000000E+00 -0.11514215923E+03  0.11514215923E+03  0.00000000000E+00 0.  1.
          2    1    1    2  501    0  0.19647271100E+02  0.70011872898E+01  0.21945212734E+03  0.22044107621E+03  0.00000000000E+00 0. -1.
         21    1    1    2  503  502 -0.19647271100E+02 -0.70011872898E+01 -0.11369905709E+03  0.11559631252E+03  0.00000000000E+00 0.  1.
</event>
<event>
 4    1  0.2243475E+005  0.3165919E+02  0.7546771E-02  0.1405706E+00
          2   -1    0    0  503    0  0.00000000000E+00  0.00000000000E+00  0.20619445783E+04  0.20619445783E+04  0.00000000000E+00 0.  1.
         21   -1    0    0  501  502 -0.00000000000E+00 -0.00000000000E+00 -0.18934484407E+01  0.18934484407E+01  0.00000000000E+00 0. -1.
          2    1    1    2  501    0  0.31226148704E+01 -0.31504819693E+02  0.19196776585E+04  0.19199387013E+04  0.00000000000E+00 0.  1.
         21    1    1    2  503  502 -0.31226148704E+01  0.31504819693E+02  0.14037347140E+03  0.14389932543E+03  0.00000000000E+00 0. -1.
</event>
<event>
 4    1  0.2243475E+005  0.2102876E+02  0.7546771E-02  0.1518855E+00
          2   -1    0    0  503    0  0.00000000000E+00  0.00000000000E+00  0.26802879287E+02  0.26802879287E+02  0.00000000000E+00 0.  1.
         21   -1    0    0  501  502 -0.00000000000E+00 -0.00000000000E+00 -0.36985576537E+02  0.36985576537E+02  0.00000000000E+00 0. -1.
          2    1    1    2  501    0 -0.19683877415E+02  0.73995676581E+01  0.18646172638E+02  0.28104953045E+02  0.00000000000E+00 0.  1.
         21    1    1    2  503  502  0.19683877415E+02 -0.73995676581E+01 -0.28828869887E+02  0.35683502779E+02  0.00000000000E+00 0. -1.
</event>
<event>
 4    1  0.2243475E+005  0.4431280E+02  0.7546771E-02  0.1324912E+00
          2   -1    0    0  502    0  0.00000000000E+00  0.00000000000E+00  0.40299822490E+03  0.40299822490E+03  0.00000000000E+00 0. -1.
         21   -1    0    0  503  502 -0.00000000000E+00 -0.00000000000E+00 -0.12713079401E+02  0.12713079401E+02  0.00000000000E+00 0.  1.
          2    1    1    2  501    0  0.19928776038E+02 -0.39578631971E+02  0.35837614355E+03  0.36110536480E+03  0.00000000000E+00 0. -1.
         21    1    1    2  503  501 -0.19928776038E+02  0.39578631971E+02  0.31909001947E+02  0.54605939497E+02  0.00000000000E+00 0.  1.
</event>
<event>
 4    1  0.2243475E+005  0.2600210E+02  0.7546771E-02  0.1457898E+00
          2   -1    0    0  503    0  0.00000000000E+00  0.00000000000E+00  0.38434767550E+02  0.38434767550E+02  0.00000000000E+00 0. -1.
         21   -1    0    0  501  502 -0.00000000000E+00 -0.00000000000E+00 -0.29560839158E+02  0.29560839158E+02  0.00000000000E+00 0.  1.
          2    1    1    2  501    0  0.21507510328E+02  0.14612873441E+02  0.26070882455E+02  0.36821189317E+02  0.00000000000E+00 0. -1.
         21    1    1    2  503  502 -0.21507510328E+02 -0.14612873441E+02 -0.17196954063E+02  0.31174417392E+02  0.00000000000E+00 0.  1.
</event>
<event>
 4    1  0.2243475E+005  0.2052567E+02  0.7546771E-02  0.1526146E+00
          2   -1    0    0  503    0  0.00000000000E+00  0.00000000000E+00  0.86371094941E+02  0.86371094941E+02  0.00000000000E+00 0. -1.
         21   -1    0    0  501  502 -0.00000000000E+00 -0.00000000000E+00 -0.76114356154E+01  0.76114356154E+01  0.00000000000E+00 0. -1.
          2    1    1    2  501    0  0.15048834190E+02 -0.13958358270E+02  0.67541090384E+02  0.70591090559E+02  0.00000000000E+00 0. -1.
         21    1    1    2  503  502 -0.15048834190E+02  0.13958358270E+02  0.11218568942E+02  0.23391439998E+02  0.00000000000E+00 0. -1.
</event>
<event>
 4    1  0.2243475E+005  0.2084617E+02  0.7546771E-02  0.1521473E+00
          2   -1    0    0  502    0  0.00000000000E+00  0.00000000000E+00  0.10784662935E+04  0.10784662935E+04  0.00000000000E+00 0. -1.
         21   -1    0    0  503  502 -0.00000000000E+00 -0.00000000000E+00 -0.12939574815E+01  0.12939574815E+01  0.00000000000E+00 0. -1.
          2    1    1    2  501    0 -0.20177166449E+02 -0.52387601197E+01  0.98658741119E+03  0.98680762186E+03  0.00000000000E+00 0. -1.
         21    1    1    2  503  501  0.20177166449E+02  0.52387601197E+01  0.90584924864E+02  0.92952629151E+02  0.00000000000E+00 0. -1.
</event>
<event>
 4    1  0.2243475E+005  0.2990334E+02  0.7546771E-02  0.1420438E+00
          2   -1    0    0  503    0  0.00000000000E+00  0.00000000000E+00  0.15691119014E+02  0.15691119014E+02  0.00000000000E+00 0.  1.
         21   -1    0    0  501  502 -0.00000000000E+00 -0.00000000000E+00 -0.57203224915E+02  0.57203224915E+02  0.00000000000E+00 0. -1.
          2    1    1    2  501    0 -0.57444128568E+01 -0.29346407364E+02 -0.22990221104E+02  0.37719493245E+02  0.00000000000E+00 0.  1.
         21    1    1    2  503  502  0.57444128568E+01  0.29346407364E+02 -0.18521884798E+02  0.35174850685E+02  0.00000000000E+00 0. -1.
</event>
<event>
 4    1  0.2243475E+005  0.2060114E+02  0.7546771E-02  0.1525036E+00
          2   -1    0    0  503    0  0.00000000000E+00  0.00000000000E+00  0.17049170805E+03  0.17049170805E+03  0.00000000000E+00 0. -1.
         21   -1    0    0  501  502 -0.00000000000E+00 -0.00000000000E+00 -0.83372764907E+01  0.83372764907E+01  0.00000000000E+00 0. -1.
          2    1    1    2  501    0 -0.25465700621E+01  0.20443135731E+02  0.15596280094E+03  0.15731751998E+03  0.00000000000E+00 0. -1.
         21    1    1    2  503  502  0.25465700621E+01 -0.20443135731E+02  0.61916306212E+01  0.21511464556E+02  0.00000000000E+00 0. -1.
</event>
<event>
 4    1  0.2243475E+005  0.3365782E+02  0.7546771E-02  0.1390253E+00
          2   -1    0    0  502    0  0.00000000000E+00  0.00000000000E+00  0.26404461592E+04  0.26404461592E+04  0.00000000000E+00 0. -1.
         21   -1    0    0  503  502 -0.00000000000E+00 -0.00000000000E+00 -0.49005218462E+00  0.49005218462E+00  0.00000000000E+00 0. -1.
          2    1    1    2  501    0 -0.85421907156E+01 -0.32555795011E+02  0.17859138783E+04  0.17862310123E+04  0.00000000000E+00 0. -1.
         21    1    1    2  503  501  0.85421907156E+01  0.32555795011E+02  0.85404222869E+03  0.85470519900E+03  0.00000000000E+00 0. -1.
</event>
<event>
 4    1  0.2243475E+005  0.3165884E+02  0.7546771E-02  0.1405709E+00
          2   -1    0    0  503    0  0.00000000000E+00  0.00000000000E+00  0.22143026002E+02  0.22143026002E+02  0.00000000000E+00 0. -1.
         21   -1    0    0  501  502 -0.00000000000E+00 -0.00000000000E+00 -0.52025029068E+02  0.52025029068E+02  0.00000000000E+00 0. -1.
          2    1    1    2  501    0 -0.24104765168E+02 -0.20524194887E+02 -0.15723801973E+01  0.31697865213E+02  0.00000000000E+00 0. -1.
         21    1    1    2  503  502  0.24104765168E+02  0.20524194887E+02 -0.28309622868E+02  0.42470189857E+02  0.00000000000E+00 0. -1.
</event>
<event>
 4    1  0.2243475E+005  0.2004903E+02  0.7546771E-02  0.1533287E+00
          2   -1    0    0  503    0  0.00000000000E+00  0.00000000000E+00  0.15017957175E+04  0.15017957175E+04  0.00000000000E+00 0. -1.
         21   -1    0    0  501  502 -0.00000000000E+00 -0.00000000000E+00 -0.59060003573E+01  0.59060003573E+01  0.00000000000E+00 0.  1.
          2    1    1    2  501    0 -0.40191869586E+01 -0.19642042732E+02  0.14845156985E+04  0.14846510778E+04  0.00000000000E+00 0. -1.
         21    1    1    2  503  502  0.40191869586E+01  0.19642042732E+02  0.11374018614E+02  0.23050640033E+02  0.00000000000E+00 0.  1.
</event>
<event>
 4    1  0.2243475E+005  0.2159475E+02  0.7546771E-02  0.1510940E+00
          2   -1    0    0  502    0  0.00000000000E+00  0.00000000000E+00  0.28940349502E+03  0.28940349502E+03  0.00000000000E+00 0.  1.
         21   -1    0    0  503  502 -0.00000000000E+00 -0.00000000000E+00 -0.58829112345E+01  0.58829112345E+01  0.00000000000E+00 0. -1.
          2    1    1    2  501    0 -0.13804835308E+02 -0.16606013182E+02  0.26756883469E+03  0.26843884676E+03  0.00000000000E+00 0.  1.
         21    1    1    2  503  501  0.13804835308E+02  0.16606013182E+02  0.15951749096E+02  0.26847559496E+02  0.00000000000E+00 0. -1.
</event>
<event>
 4    1  0.2243475E+005  0.3346467E+02  0.7546771E-02  0.1391691E+00
          2   -1    0    0  503    0  0.00000000000E+00  0.00000000000E+00  0.15388746932E+03  0.15388746932E+03  0.00000000000E+00 0.  1.
         21   -1    0    0  501  502 -0.00000000000E+00 -0.00000000000E+00 -0.14445648672E+02  0.14445648672E+02  0.00000000000E+00 0.  1.
          2    1    1    2  501    0  0.24958597626E+02  0.22292430354E+02  0.12901082859E+03  0.13328044846E+03  0.00000000000E+00 0.  1.
         21    1    1    2  503  502 -0.24958597626E+02 -0.22292430354E+02  0.10430992060E+02  0.35052669540E+02  0.00000000000E+00 0.  1.
</event>
<event>
 4    1  0.2243475E+005  0.2379105E+02  0.7546771E-02  0.1482797E+00
          2   -1    0    0  503    0  0.00000000000E+00  0.00000000000E+00  0.17463758085E+03  0.17463758085E+03  0.00000000000E+00 0.  1.
         21   -1    0    0  501  502 -0.00000000000E+00 -0.00000000000E+00 -0.32277199268E+03  0.32277199268E+03  0.00000000000E+00 0. -1.
          2    1    1    2  501    0 -0.16611585341E+02 -0.17031417114E+02  0.17338576029E+03  0.17501038771E+03  0.00000000000E+00 0.  1.
         21    1    1    2  503  502  0.16611585341E+02  0.17031417114E+02 -0.32152017212E+03  0.32239918582E+03  0.00000000000E+00 0. -1.
</event>
<event>
 4    1  0.2243475E+005  0.2502942E+02  0.7546771E-02  0.1468475E+00
          2   -1    0    0  503    0  0.00000000000E+00  0.00000000000E+00  0.40791278867E+01  0.40791278867E+01  0.00000000000E+00 0. -1.
         21   -1    0    0  501  502 -0.00000000000E+00 -0.00000000000E+00 -0.15358007213E+03  0.15358007213E+03  0.00000000000E+00 0. -1.
          2    1    1    2  501    0  0.24962014386E+01 -0.24904633434E+02 -0.74848408464E+02  0.78922468523E+02  0.00000000000E+00 0. -1.
         21    1    1    2  503  502 -0.24962014386E+01  0.24904633434E+02 -0.74652535778E+02  0.78736731493E+02  0.00000000000E+00 0. -1.
</event>
<event>
 4    1  0.2243475E+005  0.2178182E+02  0.7546771E-02  0.1508389E+00
          2   -1    0    0  503    0  0.00000000000E+00  0.00000000000E+00  0.15713978599E+04  0.15713978599E+04  0.00000000000E+00 0.  1.
         21   -1    0    0  501  502 -0.00000000000E+00 -0.00000000000E+00 -0.65154133153E+01  0.65154133153E+01  0.00000000000E+00 0.  1.
          2    1    1    2  501    0  0.95095460991E+01  0.19596326147E+02  0.15529007344E+04  0.15530534886E+04  0.00000000000E+00 0.  1.
         21    1    1    2  503  502 -0.95095460991E+01 -0.19596326147E+02  0.11981712178E+02  0.24859784637E+02  0.00000000000E+00 0.  1.
</event>
<event>
 4    1  0.2243475E+005  0.2030178E+02  0.7546771E-02  0.1529471E+00
          2   -1    0    0  503    0  0.00000000000E+00  0.00000000000E+00  0.72057505211E+03  0.72057505211E+03  0.00000000000E+00 0. -1.
         21   -1    0    0  501  502 -0.00000000000E+00 -0.00000000000E+00 -0.98569807543E+00  0.98569807543E+00  0.00000000000E+00 0.  1.
          2    1    1    2  501    0  0.32032370215E+01 -0.20047478056E+02  0.59352640721E+03  0.59387352034E+03  0.00000000000E+00 0. -1.
         21    1    1    2  503  502 -0.32032370215E+01  0.20047478056E+02  0.12606294682E+03  0.12768722984E+03  0.00000000000E+00 0.  1.
</event>
<event>
 4    1  0.2243475E+005  0.2493449E+02  0.7546771E-02  0.1469538E+00
          2   -1    0    0  502    0  0.00000000000E+00  0.00000000000E+00  0.17891701755E+04  0.17891701755E+04  0.00000000000E+00 0. -1.
         21   -1    0    0  503  502 -0.00000000000E+00 -0.00000000000E+00 -0.71192591140E+00  0.71192591140E+00  0.00000000000E+00 0. -1.
          2    1    1    2  501    0  0.51189349730E+01  0.24403387463E+02  0.15345302405E+04  0.15347328066E+04  0.00000000000E+00 0. -1.
         21    1    1    2  503  501 -0.51189349730E+01 -0.24403387463E+02  0.25392800913E+03  0.25514929479E+03  0.00000000000E+00 0. -1.
</event>
<event>
 4    1  0.2243475E+005  0.2568920E+02  0.7546771E-02  0.1461239E+00
          2   -1    0    0  502    0  0.00000000000E+00  0.00000000000E+00  0.22540245312E+03  0.22540245312E+03  0.00000000000E+00 0. -1.
         21   -1    0    0  503  502 -0.00000000000E+00 -0.00000000000E+00 -0.88092664306E+02  0.88092664306E+02  0.00000000000E+00 0.  1.
          2    1    1    2  501    0 -0.26311436340E+01 -0.25554100894E+02  0.22277564779E+03  0.22425192137E+03  0.00000000000E+00 0. -1.
         21    1    1    2  503  501  0.26311436340E+01  0.25554100894E+02 -0.85465858983E+02  0.89243196049E+02  0.00000000000E+00 0.  1.
</event>
<event>
 4    1  0.2243475E+005  0.2595778E+02  0.7546771E-02  0.1458368E+00
          2   -1    0    0  502    0  0.00000000000E+00  0.00000000000E+00  0.33685596725E+01  0.33685596725E+01  0.00000000000E+00 0.  1.
         21   -1    0    0  503  502 -0.00000000000E+00 -0.00000000000E+00 -0.11229895559E+04  0.11229895559E+04  0.00000000000E+00 0. -1.
          2    1    1    2  501    0  0.35600129425E+01 -0.25712496665E+02 -0.49246192208E+02  0.55668605370E+02  0.00000000000E+00 0.  1.
         21    1    1    2  503  501 -0.35600129425E+01  0.25712496665E+02 -0.10703748040E+04  0.10706895102E+04  0.00000000000E+00 0. -1.
</event>
<event>
 4    1  0.2243475E+005  0.2596632E+02  0.7546771E-02  0.1458277E+00
          2   -1    0    0  503    0  0.00000000000E+00  0.00000000000E+00  0.70628162225E+02  0.70628162225E+02  0.00000000000E+00 0. -1.
         21   -1    0    0  501  502 -0.00000000000E+00 -0.00000000000E+00 -0.15806891810E+03  0.15806891810E+03  0.00000000000E+00 0. -1.
          2    1    1    2  501    0  0.17301528628E+02  0.19362517282E+02  0.67121385539E+02  0.71968954175E+02  0.00000000000E+00 0. -1.
         21    1    1    2  503  502 -0.17301528628E+02 -0.19362517282E+02 -0.15456214141E+03  0.15672812615E+03  0.00000000000E+00 0. -1.
</event>
<event>
 4    1  0.2243475E+005  0.2095093E+02  0.7546771E-02  0.1519967E+00
          2   -1    0    0  503    0  0.00000000000E+00  0.00000000000E+00  0.74932055539E+03  0.74932055539E+03  0.00000000000E+00 0.  1.
         21   -1    0    0  501  502 -0.00000000000E+00 -0.00000000000E+00 -0.76951976746E+00  0.76951976746E+00  0.00000000000E+00 0.  1.
          2    1    1    2  501    0  0.19697368796E-01 -0.20950921347E+02  0.19101537546E+03  0.19216090954E+03  0.00000000000E+00 0.  1.
         21    1    1    2  503  502 -0.19697368796E-01  0.20950921347E+02  0.55753566017E+03  0.55792916562E+03  0.00000000000E+00 0.  1.
</event>
<event>
 4    1  0.2243475E+005  0.2205101E+02  0.7546771E-02  0.1504771E+00
          2   -1    0    0  502    0  0.00000000000E+00  0.00000000000E+00  0.15904814406E+03  0.15904814406E+03  0.00000000000E+00 0.  1.
         21   -1    0    0  503  502 -0.00000000000E+00 -0.00000000000E+00 -0.18289872641E+02  0.18289872641E+02  0.00000000000E+00 0.  1.
          2    1    1    2  501    0 -0.73173066376E+01 -0.20801543075E+02  0.15129880526E+03  0.15289727154E+03  0.00000000000E+00 0.  1.
         21    1    1    2  503  501  0.73173066376E+01  0.20801543075E+02 -0.10540533838E+02  0.24440745167E+02  0.00000000000E+00 0.  1.
</event>
<event>
 4    1  0.2243475E+005  0.2036363E+02  0.7546771E-02  0.1528548E+00
          2   -1    0    0  503    0  0.00000000000E+00  0.00000000000E+00  0.25842317944E+03  0.25842317944E+03  0.00000000000E+00 0. -1.
         21   -1    0    0  501  502 -0.00000000000E+00 -0.00000000000E+00 -0.30619667146E+02  0.30619667146E+02  0.00000000000E+00 0. -1.
          2    1    1    2  501    0  0.19759648143E+02 -0.49227914296E+01  0.25458534782E+03  0.25539846690E+03  0.00000000000E+00 0. -1.
         21    1    1    2  503  502 -0.19759648143E+02  0.49227914296E+01 -0.26781835528E+02  0.33644379685E+02  0.00000000000E+00 0. -1.
</event>
<event>
 4    1  0.2243475E+005  0.3466471E+02  0.7546771E-02  0.1382936E+00
          2   -1    0    0  503    0  0.00000000000E+00  0.00000000000E+00  0.27640614761E+03  0.27640614761E+03  0.00000000000E+00 0.  1.
         21   -1    0    0  501  502 -0.00000000000E+00 -0.00000000000E+00 -0.21562347314E+02  0.21562347314E+02  0.00000000000E+00 0. -1.
          2    1    1    2  501    0 -0.24778517843E+02  0.24241854199E+02  0.26054255324E+03  0.26283847604E+03  0.00000000000E+00 0.  1.
         21    1    1    2  503  502  0.24778517843E+02 -0.24241854199E+02 -0.56987529404E+01  0.35130018880E+02  0.00000000000E+00 0. -1.
</event>
<event>
 4    1  0.2243475E+005  0.2719826E+02  0.7546771E-02  0.1445627E+00
          2   -1    0    0  502    0  0.00000000000E+00  0.00000000000E+00  0.80068974898E+01  0.80068974898E+01  0.00000000000E+00 0.  1.
         21   -1    0    0  503  502 -0.00000000000E+00 -0.00000000000E+00 -0.13944635542E+03  0.13944635542E+03  0.00000000000E+00 0. -1.
          2    1    1    2  501    0  0.93073664584E+01  0.25556174051E+02 -0.22890828213E+02  0.35549052291E+02  0.00000000000E+00 0.  1.
         21    1    1    2  503  501 -0.93073664584E+01 -0.25556174051E+02 -0.10854862972E+03  0.11190420062E+03  0.00000000000E+00 0. -1.
</event>
<event>
 4    1  0.2243475E+005  0.2105767E+02  0.7546771E-02  0.1518443E+00
          2   -1    0    0  502    0  0.00000000000E+00  0.00000000000E+00  0.21139769029E+02  0.21139769029E+02  0.00000000000E+00 0. -1.
         21   -1    0    0  503  502 -0.00000000000E+00 -0.00000000000E+00 -0.64095995948E+02  0.64095995948E+02  0.00000000000E+00 0.  1.
          2    1    1    2  501    0 -0.20834056072E+02  0.30606672242E+01  0.13477449574E+02  0.25001344429E+02  0.00000000000E+00 0. -1.
         21    1    1    2  503  501  0.20834056072E+02 -0.30606672242E+01 -0.56433676492E+02  0.60234420548E+02  0.00000000000E+00 0.  1.
</event>
<event>
 4    1  0.2243475E+005  0.2196235E+02  0.7546771E-02  0.1505956E+00
          2   -1    0    0  502    0  0.00000000000E+00  0.00000000000E+00  0.99026110136E+03  0.99026110136E+03  0.00000000000E+00 0.  1.
         21   -1    0    0  503  502 -0.00000000000E+00 -0.00000000000E+00 -0.63633717113E+02  0.63633717113E+02  0.00000000000E+00 0. -1.
          2    1    1    2  501    0 -0.17524126314E+02  0.13238192100E+02  0.98824045048E+03  0.98848446255E+03  0.00000000000E+00 0.  1.
         21    1    1    2  503  501  0.17524126314E+02 -0.13238192100E+02 -0.61613066227E+02  0.65410355931E+02  0.00000000000E+00 0. -1.
</event>
<event>
 4    1  0.2243475E+005  0.3462445E+02  0.7546771E-02  0.1383223E+00
          2   -1    0    0  502    0  0.00000000000E+00  0.00000000000E+00  0.13119787271E+03  0.13119787271E+03  0.00000000000E+00 0.  1.
         21   -1    0    0  503  502 -0.00000000000E+00 -0.00000000000E+00 -0.25578653948E+03  0.25578653948E+03  0.00000000000E+00 0. -1.
          2    1    1    2  501    0 -0.16919965537E+02  0.30208726553E+02  0.12771027465E+03  0.13232069621E+03  0.00000000000E+00 0.  1.
         21    1    1    2  503  501  0.16919965537E+02 -0.30208726553E+02 -0.25229894142E+03  0.25466371598E+03  0.00000000000E+00 0. -1.
</event>
<event>
 4    1  0.2243475E+005  0.2110351E+02  0.7546771E-02  0.1517792E+00
          2   -1    0    0  502    0  0.00000000000E+00  0.00000000000E+00  0.10710148988E+04  0.10710148988E+04  0.00000000000E+00 0. -1.
         21   -1    0    0  503  502 -0.00000000000E+00 -0.00000000000E+00 -0.56191051610E+00  0.56191051610E+00  0.00000000000E+00 0. -1.
          2    1    1    2  501    0  0.18686254941E+02 -0.98072483458E+01  0.80841252558E+03  0.80868793100E+03  0.00000000000E+00 0. -1.
         21    1    1    2  503  501 -0.18686254941E+02  0.98072483458E+01  0.26204046268E+03  0.26288887828E+03  0.00000000000E+00 0. -1.
</event>
<event>
 4    1  0.2243475E+005  0.2241090E+02  0.7546771E-02  0.1500031E+00
          2   -1    0    0  503    0  0.00000000000E+00  0.00000000000E+00  0.22185369593E+03  0.22185369593E+03  0.00000000000E+00 0.  1.
         21   -1    0    0  501  502 -0.00000000000E+00 -0.00000000000E+00 -0.86615979990E+01  0.86615979990E+01  0.00000000000E+00 0.  1.
          2    1    1    2  501    0  0.20492359112E+02  0.90725709863E+01  0.20565268201E+03  0.20687018622E+03  0.00000000000E+00 0.  1.
         21    1    1    2  503  502 -0.20492359112E+02 -0.90725709863E+01  0.75394159158E+01  0.23645107710E+02  0.00000000000E+00 0.  1.
</event>
<event>
 4    1  0.2243475E+005  0.3686252E+02  0.7546771E-02  0.1367922E+00
          2   -1    0    0  503    0  0.00000000000E+00  0.00000000000E+00  0.32471294938E+03  0.32471294938E+03  0.00000000000E+00 0.  1.
         21   -1    0    0  501  502 -0.00000000000E+00 -0.00000000000E+00 -0.11682048056E+02  0.11682048056E+02  0.00000000000E+00 0. -1.
          2    1    1    2  501    0  0.36660839928E+02 -0.38507545316E+01  0.29126029635E+03  0.29358372865E+03  0.00000000000E+00 0.  1.
         21    1    1    2  503  502 -0.36660839928E+02  0.38507545316E+01  0.21770604975E+02  0.42811268793E+02  0.00000000000E+00 0. -1.
</event>
<event>
 4    1  0.2243475E+005  0.5947857E+02  0.7546771E-02  0.1261615E+00
          2   -1    0    0  503    0  0.00000000000E+00  0.00000000000E+00  0.85265786578E+03  0.85265786578E+03  0.00000000000E+00 0.  1.
         21   -1    0    0  501  502 -0.00000000000E+00 -0.00000000000E+00 -0.16530589636E+02  0.16530589636E+02  0.00000000000E+00 0. -1.
          2    1    1    2  501    0 -0.57639464142E+02 -0.14676259278E+02  0.79418457797E+03  0.79640871687E+03  0.00000000000E+00 0.  1.
         21    1    1    2  503  502  0.57639464142E+02  0.14676259278E+02  0.41942698165E+02  0.72779738543E+02  0.00000000000E+00 0. -1.
</event>
<event>
 4    1  0.2243475E+005  0.2531866E+02  0.7546771E-02  0.1465270E+00
          2   -1    0    0  503    0  0.00000000000E+00  0.00000000000E+00  0.65502109384E+02  0.65502109384E+02  0.00000000000E+00 0.  1.
         21   -1    0    0  501  502 -0.00000000000E+00 -0.00000000000E+00 -0.48946128945E+02  0.48946128945E+02  0.00000000000E+00 0. -1.
          2    1    1    2  501    0 -0.16729551870E+02 -0.19004117953E+02  0.59462599658E+02  0.64628439275E+02  0.00000000000E+00 0.  1.
         21    1    1    2  503  502  0.16729551870E+02  0.19004117953E+02 -0.42906619220E+02  0.49819799054E+02  0.00000000000E+00 0. -1.
</event>
<event>
 4    1  0.2243475E+005  0.2602587E+02  0.7546771E-02  0.1457647E+00
          2   -1    0    0  503    0  0.00000000000E+00  0.00000000000E+00  0.20675631198E+03  0.20675631198E+03  0.00000000000E+00 0. -1.
         21   -1    0    0  501  502 -0.00000000000E+00 -0.00000000000E+00 -0.86377086846E+02  0.86377086846E+02  0.00000000000E+00 0. -1.
          2    1    1    2  501    0  0.20583618500E+02 -0.15926730055E+02  0.20394999738E+03  0.20560386065E+03  0.00000000000E+00 0. -1.
         21    1    1    2  503  502 -0.20583618500E+02  0.15926730055E+02 -0.83570772245E+02  0.87529538183E+02  0.00000000000E+00 0. -1.
</event>
<event>
 4    1  0.2243475E+005  0.2169129E+02  0.7546771E-02  0.1509620E+00
          2   -1    0    0  502    0  0.00000000000E+00  0.00000000000E+00  0.48712916799E+03  0.48712916799E+03  0.00000000000E+00 0. -1.
         21   -1    0    0  503  502 -0.00000000000E+00 -0.00000000000E+00 -0.92159336881E+01  0.92159336881E+01  0.00000000000E+00 0.  1.
          2    1    1    2  501    0 -0.21288212520E+02  0.41622444491E+01  0.47376427034E+03  0.47426057829E+03  0.00000000000E+00 0. -1.
         21    1    1    2  503  501  0.21288212520E+02 -0.41622444491E+01  0.41489639597E+01  0.22084523384E+02  0.00000000000E+00 0.  1.
</event>
<event>
 4    1  0.2243475E+005  0.3468663E+02  0.7546771E-02  0.1382780E+00
          2   -1    0    0  502    0  0.00000000000E+00  0.00000000000E+00  0.23600679793E+03  0.23600679793E+03  0.00000000000E+00 0.  1.
         21   -1    0    0  503  502 -0.00000000000E+00 -0.00000000000E+00 -0.48415883349E+02  0.48415883349E+02  0.00000000000E+00 0.  1.
          2    1    1    2  501    0  0.32614481402E+02  0.11809242692E+02  0.22831144823E+03  0.23093133179E+03  0.00000000000E+00 0.  1.
         21    1    1    2  503  501 -0.32614481402E+02 -0.11809242692E+02 -0.40720533645E+02  0.53491349491E+02  0.00000000000E+00 0.  1.
</event>
<event>
 4    1  0.2243475E+005  0.1007201E+03  0.7546771E-02  0.1162566E+00
          2   -1    0    0  503    0  0.00000000000E+00  0.00000000000E+00  0.80590776167E+03  0.80590776167E+03  0.00000000000E+00 0. -1.
         21   -1    0    0  501  502 -0.00000000000E+00 -0.00000000000E+00 -0.14307813934E+02  0.14307813934E+02  0.00000000000E+00 0. -1.
          2    1    1    2  501    0 -0.12282396479E+02  0.99968435506E+02  0.53799578823E+03  0.54734268381E+03  0.00000000000E+00 0. -1.
         21    1    1    2  503  502  0.12282396479E+02 -0.99968435506E+02  0.25360415951E+03  0.27287289180E+03  0.00000000000E+00 0. -1.
</event>
<event>
 4    1  0.2243475E+005  0.2063241E+02  0.7546771E-02  0.1524578E+00
          2   -1    0    0  503    0  0.00000000000E+00  0.00000000000E+00  0.65138334227E+03  0.65138334227E+03  0.00000000000E+00 0.  1.
         21   -1    0    0  501  502 -0.00000000000E+00 -0.00000000000E+00 -0.56821686632E+01  0.56821686632E+01  0.00000000000E+00 0. -1.
          2    1    1    2  501    0 -0.81585078981E+01 -0.18950863587E+02  0.63191355304E+03  0.63225029458E+03  0.00000000000E+00 0.  1.
         21    1    1    2  503  502  0.81585078981E+01  0.18950863587E+02  0.13787620572E+02  0.24815216357E+02  0.00000000000E+00 0. -1.
</event>
<event>
 4    1  0.2243475E+005  0.2586046E+02  0.7546771E-02  0.1459403E+00
          2   -1    0    0  502    0  0.00000000000E+00  0.00000000000E+00  0.12895238064E+04  0.12895238064E+04  0.00000000000E+00 0. -1.
         21   -1    0    0  503  502 -0.00000000000E+00 -0.00000000000E+00 -0.19675163146E+01  0.19675163146E+01  0.00000000000E+00 0.  1.
          2    1    1    2  501    0  0.23268963218E+02 -0.11283566075E+02  0.11979214152E+04  0.11982005177E+04  0.00000000000E+00 0. -1.
         21    1    1    2  503  501 -0.23268963218E+02  0.11283566075E+02  0.89634874827E+02  0.93290805002E+02  0.00000000000E+00 0.  1.
</event>
<event>
 4    1  0.2243475E+005  0.2750802E+02  0.7546771E-02  0.1442571E+00
          2   -1    0    0  503    0  0.00000000000E+00  0.00000000000E+00  0.20100465938E+04  0.20100465938E+04  0.00000000000E+00 0. -1.
         21   -1    0    0  501  502 -0.00000000000E+00 -0.00000000000E+00 -0.54010251341E+01  0.54010251341E+01  0.00000000000E+00 0.  1.
          2    1    1    2  501    0  0.18054566940E+02 -0.20753885743E+02  0.19742928655E+04  0.19744844922E+04  0.00000000000E+00 0. -1.
         21    1    1    2  503  502 -0.18054566940E+02  0.20753885743E+02  0.30352703082E+02  0.40963126653E+02  0.00000000000E+00 0.  1.
</event>
<event>
 4    1  0.2243475E+005  0.2028580E+02  0.7546771E-02  0.1529711E+00
          2   -1    0    0  502    0  0.00000000000E+00  0.00000000000E+00  0.10405409398E+04  0.10405409398E+04  0.00000000000E+00 0.  1.
         21   -1    0    0  503  502 -0.00000000000E+00 -0.00000000000E+00 -0.52547977257E+00  0.52547977257E+00  0.00000000000E+00 0.  1.
          2    1    1    2  501    0 -0.49525228371E+01 -0.19671961142E+02  0.77891311548E+03  0.77917722952E+03  0.00000000000E+00 0.  1.
         21    1    1    2  503  501  0.49525228371E+01  0.19671961142E+02  0.26110234456E+03  0.26188919007E+03  0.00000000000E+00 0.  1.
</event>
<event>
 4    1  0.2243475E+005  0.2195612E+02  0.7546771E-02  0.1506039E+00
          2   -1    0    0  502    0  0.00000000000E+00  0.00000000000E+00  0.26216248961E+03  0.26216248961E+03  0.00000000000E+00 0.  1.
         21   -1    0    0  503  502 -0.00000000000E+00 -0.00000000000E+00 -0.41607583230E+01  0.41607583230E+01  0.00000000000E+00 0. -1.
          2    1    1    2  501    0 -0.88799421157E+01 -0.20080281342E+02  0.22847671664E+03  0.22952925983E+03  0.00000000000E+00 0.  1.
         21    1    1    2  503  501  0.88799421157E+01  0.20080281342E+02  0.29525014649E+02  0.36793988106E+02  0.00000000000E+00 0. -1.
</event>
<event>
 4    1  0.2243475E+005  0.3170616E+02  0.7546771E-02  0.1405327E+00
          2   -1    0    0  503    0  0.00000000000E+00  0.00000000000E+00  0.30579872184E+03  0.30579872184E+03  0.00000000000E+00 0.  1.
         21   -1    0    0  501  502 -0.00000000000E+00 -0.00000000000E+00 -0.25343200884E+03  0.25343200884E+03  0.00000000000E+00 0. -1.
          2    1    1    2  501    0  0.29651229410E+02 -0.11228760458E+02  0.30397928739E+03  0.30562834886E+03  0.00000000000E+00 0.  1.
         21    1    1    2  503  502 -0.29651229410E+02  0.11228760458E+02 -0.25161257440E+03  0.25360238181E+03  0.00000000000E+00 0. -1.
</event>
<event>
 4    1  0.2243475E+005  0.3454091E+02  0.7546771E-02  0.1383820E+00
          2   -1    0    0  503    0  0.00000000000E+00  0.00000000000E+00  0.80332547107E+03  0.80332547107E+03  0.00000000000E+00 0.  1.
         21   -1    0    0  501  502 -0.00000000000E+00 -0.00000000000E+00 -0.40608949248E+02  0.40608949248E+02  0.00000000000E+00 0. -1.
          2    1    1    2  501    0  0.10492828066E+02 -0.32908585293E+02  0.79553740991E+03  0.79628691123E+03  0.00000000000E+00 0.  1.
         21    1    1    2  503  502 -0.10492828066E+02  0.32908585293E+02 -0.32820888092E+02  0.47647509085E+02  0.00000000000E+00 0. -1.
</event>
<event>
 4    1  0.2243475E+005  0.2161882E+02  0.7546771E-02  0.1510610E+00
          2   -1    0    0  503    0  0.00000000000E+00  0.00000000000E+00  0.37373982172E+01  0.37373982172E+01  0.00000000000E+00 0. -1.
         21   -1    0    0  501  502 -0.00000000000E+00 -0.00000000000E+00 -0.22664215136E+03  0.22664215136E+03  0.00000000000E+00 0. -1.
          2    1    1    2  501    0  0.21609753702E+02  0.62602709101E+00 -0.34332386649E+02  0.40571987109E+02  0.00000000000E+00 0. -1.
         21    1    1    2  503  502 -0.21609753702E+02 -0.62602709101E+00 -0.18857236649E+03  0.18980756247E+03  0.00000000000E+00 0. -1.
</event>
<event>
 4    1  0.2243475E+005  0.2941054E+02  0.7546771E-02  0.1424789E+00
          2   -1    0    0  503    0  0.00000000000E+00  0.00000000000E+00  0.11812508530E+04  0.11812508530E+04  0.00000000000E+00 0. -1.
         21   -1    0    0  501  502 -0.00000000000E+00 -0.00000000000E+00 -0.25359718459E+01  0.25359718459E+01  0.00000000000E+00 0. -1.
          2    1    1    2  501    0 -0.12138800629E+02  0.26788604450E+02  0.10885351352E+04  0.10889323764E+04  0.00000000000E+00 0. -1.
         21    1    1    2  503  502  0.12138800629E+02 -0.26788604450E+02  0.90179745907E+02  0.94854448399E+02  0.00000000000E+00 0. -1.
</event>
<event>
 4    1  0.2243475E+005  0.2523124E+02  0.7546771E-02  0.1466233E+00
          2   -1    0    0  503    0  0.00000000000E+00  0.00000000000E+00  0.44913279444E+03  0.44913279444E+03  0.00000000000E+00 0. -1.
         21   -1    0    0  501  502 -0.00000000000E+00 -0.00000000000E+00 -0.14221118444E+01  0.14221118444E+01  0.00000000000E+00 0. -1.
          2    1    1    2  501    0 -0.15875029025E+02 -0.19611199548E+02  0.21093378030E+03  0.21243746225E+03  0.00000000000E+00 0. -1.
         21    1    1    2  503  502  0.15875029025E+02  0.19611199548E+02  0.23677690230E+03  0.23811744404E+03  0.00000000000E+00 0. -1.
</event>
<event>
 4    1  0.2243475E+005  0.4489019E+02  0.7546771E-02  0.1321989E+00
          2   -1    0    0  502    0  0.00000000000E+00  0.00000000000E+00  0.31540353779E+02  0.31540353779E+02  0.00000000000E+00 0. -1.
         21   -1    0    0  503  502 -0.00000000000E+00 -0.00000000000E+00 -0.15295201317E+04  0.15295201317E+04  0.00000000000E+00 0. -1.
          2    1    1    2  501    0  0.16441557664E+02 -0.41770855842E+02  0.15064462671E+02  0.47350472562E+02  0.00000000000E+00 0. -1.
         21    1    1    2  503  501 -0.16441557664E+02  0.41770855842E+02 -0.15130442406E+04  0.15137100129E+04  0.00000000000E+00 0. -1.
</event>
<event>
 4    1  0.2243475E+005  0.5192410E+02  0.7546771E-02  0.1290039E+00
          2   -1    0    0  502    0  0.00000000000E+00  0.00000000000E+00  0.97876729687E+02  0.97876729687E+02  0.00000000000E+00 0.  1.
         21   -1    0    0  503  502 -0.00000000000E+00 -0.00000000000E+00 -0.16355391010E+03  0.16355391010E+03  0.00000000000E+00 0.  1.
          2    1    1    2  501    0  0.40477376061E+02  0.32522211572E+02  0.86361919085E+02  0.10076950574E+03  0.00000000000E+00 0.  1.
         21    1    1    2  503  501 -0.40477376061E+02 -0.32522211572E+02 -0.15203909950E+03  0.16066113405E+03  0.00000000000E+00 0.  1.
</event>
<event>
 4    1  0.2243475E+005  0.2807787E+02  0.7546771E-02  0.1437071E+00
          2   -1    0    0  503    0  0.00000000000E+00  0.00000000000E+00  0.80962340835E+03  0.80962340835E+03  0.00000000000E+00 0. -1.
         21   -1    0    0  501  502 -0.00000000000E+00 -0.00000000000E+00 -0.20610360224E+01  0.20610360224E+01  0.00000000000E+00 0. -1.
          2    1    1    2  501    0  0.25651701988E+02  0.11417406752E+02  0.69855389775E+03  0.69911795503E+03  0.00000000000E+00 0. -1.
         21    1    1    2  503  502 -0.25651701988E+02 -0.11417406752E+02  0.10900847458E+03  0.11256648934E+03  0.00000000000E+00 0. -1.
</event>
<event>
 4    1  0.2243475E+005  0.2638926E+02  0.7546771E-02  0.1453841E+00
          2   -1    0    0  502    0  0.00000000000E+00  0.00000000000E+00  0.75762585174E+02  0.75762585174E+02  0.00000000000E+00 0. -1.
         21   -1    0    0  503  502 -0.00000000000E+00 -0.00000000000E+00 -0.23513295788E+03  0.23513295788E+03  0.00000000000E+00 0.  1.
          2    1    1    2  501    0  0.14830860313E+02 -0.21827478242E+02  0.72693925688E+02  0.77335632511E+02  0.00000000000E+00 0. -1.
         21    1    1    2  503  501 -0.14830860313E+02  0.21827478242E+02 -0.23206429839E+03  0.23355991054E+03  0.00000000000E+00 0.  1.
</event>
<event>
 4    1  0.2243475E+005  0.2912596E+02  0.7546771E-02  0.1427347E+00
          2   -1    0    0  502    0  0.00000000000E+00  0.00000000000E+00  0.19374345207E+02  0.19374345207E+02  0.00000000000E+00 0.  1.
         21   -1    0    0  503  502 -0.00000000000E+00 -0.00000000000E+00 -0.16711880409E+03  0.16711880409E+03  0.00000000000E+00 0.  1.
          2    1    1    2  501    0  0.10643842673E+02 -0.27111435433E+02  0.62328162243E+01  0.29785387628E+02  0.00000000000E+00 0.  1.
         21    1    1    2  503  501 -0.10643842673E+02  0.27111435433E+02 -0.15397727511E+03  0.15670776167E+03  0.00000000000E+00 0.  1.
</event>
<event>
 4    1  0.2243475E+005  0.4589255E+02  0.7546771E-02  0.1317036E+00
          2   -1    0    0  503    0  0.00000000000E+00  0.00000000000E+00  0.27705905244E+03  0.27705905244E+03  0.00000000000E+00 0. -1.
         21   -1    0    0  501  502 -0.00000000000E+00 -0.00000000000E+00 -0.85781859143E+01  0.85781859143E+01  0.00000000000E+00 0. -1.
          2    1    1    2  501    0 -0.27998498321E+02 -0.36362209838E+02  0.18242577533E+03  0.18810978102E+03  0.00000000000E+00 0. -1.
         21    1    1    2  503  502  0.27998498321E+02  0.36362209838E+02  0.86055091197E+02  0.97527457331E+02  0.00000000000E+00 0. -1.
</event>
<event>
 4    1  0.2243475E+005  0.3502350E+02  0.7546771E-02  0.1380398E+00
          2   -1    0    0  502    0  0.00000000000E+00  0.00000000000E+00  0.10889725575E+03  0.10889725575E+03  0.00000000000E+00 0.  1.
         21   -1    0    0  503  502 -0.00000000000E+00 -0.00000000000E+00 -0.20565460716E+03  0.20565460716E+03  0.00000000000E+00 0.  1.
          2    1    1    2  501    0 -0.29083244810E+02  0.19514371030E+02  0.10452939346E+03  0.11024082684E+03  0.00000000000E+00 0.  1.
         21    1    1    2  503  501  0.29083244810E+02 -0.19514371030E+02 -0.20128674486E+03  0.20431103607E+03  0.00000000000E+00 0.  1.
</event>
<event>
 4    1  0.2243475E+005  0.2627159E+02  0.7546771E-02  0.1455066E+00
          2   -1    0    0  503    0  0.00000000000E+00  0.00000000000E+00  0.38790679739E+03  0.38790679739E+03  0.00000000000E+00 0.  1.
         21   -1    0    0  501  502 -0.00000000000E+00 -0.00000000000E+00 -0.23433307111E+01  0.23433307111E+01  0.00000000000E+00 0.  1.
          2    1    1    2  501    0  0.19762857357E+02 -0.17309701719E+02  0.28851301102E+03  0.28970666860E+03  0.00000000000E+00 0.  1.
         21    1    1    2  503  502 -0.19762857357E+02  0.17309701719E+02  0.97050455659E+02  0.10054345950E+03  0.00000000000E+00 0.  1.
</event>
<event>
 4    1  0.2243475E+005  0.2298275E+02  0.7546771E-02  0.1492715E+00
          2   -1    0    0  503    0  0.00000000000E+00  0.00000000000E+00  0.17064521962E+03  0.17064521962E+03  0.00000000000E+00 0. -1.
         21   -1    0    0  501  502 -0.00000000000E+00 -0.00000000000E+00 -0.34189780811E+01  0.34189780811E+01  0.00000000000E+00 0. -1.
          2    1    1    2  501    0  0.29341963555E+01 -0.22794677274E+02  0.11038962319E+03  0.11275671035E+03  0.00000000000E+00 0. -1.
         21    1    1    2  503  502 -0.29341963555E+01  0.22794677274E+02  0.56836618345E+02  0.61307487350E+02  0.00000000000E+00 0. -1.
</event>
<event>
 4    1  0.2243475E+005  0.3835570E+02  0.7546771E-02  0.1358400E+00
          2   -1    0    0  502    0  0.00000000000E+00  0.00000000000E+00  0.71862042122E+03  0.71862042122E+03  0.00000000000E+00 0.  1.
         21   -1    0    0  503  502 -0.00000000000E+00 -0.00000000000E+00 -0.40175350232E+01  0.40175350232E+01  0.00000000000E+00 0.  1.
          2    1    1    2  501    0 -0.14889331922E+02 -0.35347810717E+02  0.61033664584E+03  0.61154066192E+03  0.00000000000E+00 0.  1.
         21    1    1    2  503  501  0.14889331922E+02  0.35347810717E+02  0.10426624036E+03  0.11109729433E+03  0.00000000000E+00 0.  1.
</event>
<event>
 4    1  0.2243475E+005  0.2401340E+02  0.7546771E-02  0.1480150E+00
          2   -1    0    0  503    0  0.00000000000E+00  0.00000000000E+00  0.10114606447E+03  0.10114606447E+03  0.00000000000E+00 0. -1.
         21   -1    0    0  501  502 -0.00000000000E+00 -0.00000000000E+00 -0.11415739180E+02  0.11415739180E+02  0.00000000000E+00 0.  1.
          2    1    1    2  501    0  0.18719512662E+02  0.15040711651E+02  0.84685385537E+02  0.88024188066E+02  0.00000000000E+00 0. -1.
         21    1    1    2  503  502 -0.18719512662E+02 -0.15040711651E+02  0.50449397480E+01  0.24537615579E+02  0.00000000000E+00 0.  1.
</event>
<event>
 4    1  0.2243475E+005  0.2508534E+02  0.7546771E-02  0.1467851E+00
          2   -1    0    0  502    0  0.00000000000E+00  0.00000000000E+00  0.26607254583E+03  0.26607254583E+03  0.00000000000E+00 0.  1.
         21   -1    0    0  503  502 -0.00000000000E+00 -0.00000000000E+00 -0.97394291252E+01  0.97394291252E+01  0.00000000000E+00 0.  1.
          2    1    1    2  501    0 -0.10302798249E+02  0.22871962540E+02  0.24816598292E+03  0.24943061039E+03  0.00000000000E+00 0.  1.
         21    1    1    2  503  501  0.10302798249E+02 -0.22871962540E+02  0.81671337914E+01  0.26381364569E+02  0.00000000000E+00 0.  1.
</event>
<event>
 4    1  0.2243475E+005  0.2357118E+02  0.7546771E-02  0.1485448E+00
          2   -1    0    0  502    0  0.00000000000E+00  0.00000000000E+00  0.16663973821E+02  0.16663973821E+02  0.00000000000E+00 0.  1.
         21   -1    0    0  503  502 -0.00000000000E+00 -0.00000000000E+00 -0.16507072597E+03  0.16507072597E+03  0.00000000000E+00 0.  1.
          2    1    1    2  501    0  0.21563065249E+02 -0.95202237274E+01  0.69700813071E+01  0.24580123600E+02  0.00000000000E+00 0.  1.
         21    1    1    2  503  501 -0.21563065249E+02  0.95202237274E+01 -0.15537683346E+03  0.15715457619E+03  0.00000000000E+00 0.  1.
</event>
<event>
 4    1  0.2243475E+005  0.2019437E+02  0.7546771E-02  0.1531085E+00
          2   -1    0    0  502    0  0.00000000000E+00  0.00000000000E+00  0.26291311844E+03  0.26291311844E+03  0.00000000000E+00 0.  1.
         21   -1    0    0  503  502 -0.00000000000E+00 -0.00000000000E+00 -0.17047266145E+01  0.17047266145E+01  0.00000000000E+00 0.  1.
          2    1    1    2  501    0  0.13717738034E+01  0.20147725091E+02  0.90889458079E+02  0.93105886922E+02  0.00000000000E+00 0.  1.
         21    1    1    2  503  501 -0.13717738034E+01 -0.20147725091E+02  0.17031893375E+03  0.17151195813E+03  0.00000000000E+00 0.  1.
</event>
<event>
 4    1  0.2243475E+005  0.2321949E+02  0.7546771E-02  0.1489760E+00
          2   -1    0    0  503    0  0.00000000000E+00  0.00000000000E+00  0.12086230400E+04  0.12086230400E+04  0.00000000000E+00 0. -1.
         21   -1    0    0  501  502 -0.00000000000E+00 -0.00000000000E+00 -0.10767986389E+02  0.10767986389E+02  0.00000000000E+00 0. -1.
          2    1    1    2  501    0 -0.19685773018E+02 -0.12313200942E+02  0.11958606431E+04  0.11960860430E+04  0.00000000000E+00 0. -1.
         21    1    1    2  503  502  0.19685773018E+02  0.12313200942E+02  0.19944105095E+01  0.23304983373E+02  0.00000000000E+00 0. -1.
</event>
<event>
 4    1  0.2243475E+005  0.2659699E+02  0.7546771E-02  0.1451699E+00
          2   -1    0    0  503    0  0.00000000000E+00  0.00000000000E+00  0.48208112473E+03  0.48208112473E+03  0.00000000000E+00 0. -1.
         21   -1    0    0  501  502 -0.00000000000E+00 -0.00000000000E+00 -0.26048304652E+02  0.26048304652E+02  0.00000000000E+00 0. -1.
          2    1    1    2  501    0  0.16945364779E+02  0.20500108497E+02  0.47482124474E+03  0.47556557307E+03  0.00000000000E+00 0. -1.
         21    1    1    2  503  502 -0.16945364779E+02 -0.20500108497E+02 -0.18788424667E+02  0.32563856303E+02  0.00000000000E+00 0. -1.
</event>
<event>
 4    1  0.2243475E+005  0.7245980E+02  0.7546771E-02  0.1222525E+00
          2   -1    0    0  503    0  0.00000000000E+00  0.00000000000E+00  0.25308817154E+04  0.25308817154E+04  0.00000000000E+00 0. -1.
         21   -1    0    0  501  502 -0.00000000000E+00 -0.00000000000E+00 -0.21699631510E+01  0.21699631510E+01  0.00000000000E+00 0. -1.
          2    1    1    2  501    0  0.59955166951E+02 -0.40691522029E+02  0.15299440713E+04  0.15316589971E+04  0.00000000000E+00 0. -1.
         21    1    1    2  503  502 -0.59955166951E+02  0.40691522029E+02  0.99876768098E+03  0.10013926815E+04  0.00000000000E+00 0. -1.
</event>
<event>
 4    1  0.2243475E+005  0.3140830E+02  0.7546771E-02  0.1407741E+00
          2   -1    0    0  502    0  0.00000000000E+00  0.00000000000E+00  0.12945071171E+04  0.12945071171E+04  0.00000000000E+00 0. -1.
         21   -1    0    0  503  502 -0.00000000000E+00 -0.00000000000E+00 -0.38770219741E+01  0.38770219741E+01  0.00000000000E+00 0. -1.
          2    1    1    2  501    0 -0.29931361023E+02 -0.95181324437E+01  0.12272186356E+04  0.12276204872E+04  0.00000000000E+00 0. -1.
         21    1    1    2  503  501  0.29931361023E+02  0.95181324437E+01  0.63411459625E+02  0.70763651896E+02  0.00000000000E+00 0. -1.
</event>
<event>
 4    1  0.2243475E+005  0.2130001E+02  0.7546771E-02  0.1515024E+00
          2   -1    0    0  502    0  0.00000000000E+00  0.00000000000E+00  0.30665739317E+03  0.30665739317E+03  0.00000000000E+00 0. -1.
         21   -1    0    0  503  502 -0.00000000000E+00 -0.00000000000E+00 -0.14796425672E+01  0.14796425672E+01  0.00000000000E+00 0.  1.
          2    1    1    2  501    0  0.11740014517E+02 -0.17772525105E+02  0.15424995752E+03  0.15571364740E+03  0.00000000000E+00 0. -1.
         21    1    1    2  503  501 -0.11740014517E+02  0.17772525105E+02  0.15092779308E+03  0.15242338834E+03  0.00000000000E+00 0.  1.
</event>
<event>
 4    1  0.2243475E+005  0.2389097E+02  0.7546771E-02  0.1481603E+00
          2   -1    0    0  503    0  0.00000000000E+00  0.00000000000E+00  0.28916200280E+04  0.28916200280E+04  0.00000000000E+00 0. -1.
         21   -1    0    0  501  502 -0.00000000000E+00 -0.00000000000E+00 -0.19860134102E+00  0.19860134102E+00  0.00000000000E+00 0. -1.
          2    1    1    2  501    0  0.79855763462E+01 -0.22516861681E+02  0.15586079231E+04  0.15587910175E+04  0.00000000000E+00 0. -1.
         21    1    1    2  503  502 -0.79855763462E+01  0.22516861681E+02  0.13328135036E+04  0.13330276118E+04  0.00000000000E+00 0. -1.
</event>
<event>
 4    1  0.2243475E+005  0.3599278E+02  0.7546771E-02  0.1373715E+00
          2   -1    0    0  502    0  0.00000000000E+00  0.00000000000E+00  0.62806116648E+03  0.62806116648E+03  0.00000000000E+00 0.  1.
         21   -1    0    0  503  502 -0.00000000000E+00 -0.00000000000E+00 -0.10836404494E+02  0.10836404494E+02  0.00000000000E+00 0.  1.
          2    1    1    2  501    0  0.10714627280E+02  0.34360976595E+02  0.59605489240E+03  0.59714061552E+03  0.00000000000E+00 0.  1.
         21    1    1    2  503  501 -0.10714627280E+02 -0.34360976595E+02  0.21169869583E+02  0.41756955451E+02  0.00000000000E+00 0.  1.
</event>
<event>
 4    1  0.2243475E+005  0.2273014E+02  0.7546771E-02  0.1495915E+00
          2   -1    0    0  502    0  0.00000000000E+00  0.00000000000E+00  0.11327914322E+04  0.11327914322E+04  0.00000000000E+00 0.  1.
         21   -1    0    0  503  502 -0.00000000000E+00 -0.00000000000E+00 -0.45691162813E+01  0.45691162813E+01  0.00000000000E+00 0.  1.
          2    1    1    2  501    0 -0.10475362256E+02 -0.20172405590E+02  0.11036622798E+04  0.11038963207E+04  0.00000000000E+00 0.  1.
         21    1    1    2  503  501  0.10475362256E+02  0.20172405590E+02  0.24560036101E+02  0.33464227691E+02  0.00000000000E+00 0.  1.
</event>
<event>
 4    1  0.2243475E+005  0.2991096E+02  0.7546771E-02  0.1420372E+00
          2   -1    0    0  503    0  0.00000000000E+00  0.00000000000E+00  0.61858034848E+03  0.61858034848E+03  0.00000000000E+00 0. -1.
         21   -1    0    0  501  502 -0.00000000000E+00 -0.00000000000E+00 -0.15042911923E+01  0.15042911923E+01  0.00000000000E+00 0.  1.
          2    1    1    2  501    0  0.26282447188E+02  0.14279303314E+02  0.36940177669E+03  0.37061076368E+03  0.00000000000E+00 0. -1.
         21    1    1    2  503  502 -0.26282447188E+02 -0.14279303314E+02  0.24767428060E+03  0.24947387599E+03  0.00000000000E+00 0.  1.
</event>
<event>
 4    1  0.2243475E+005  0.2391888E+02  0.7546771E-02  0.1481271E+00
          2   -1    0    0  502    0  0.00000000000E+00  0.00000000000E+00  0.95324975782E+03  0.95324975782E+03  0.00000000000E+00 0. -1.
         21   -1    0    0  503  502 -0.00000000000E+00 -0.00000000000E+00 -0.26381275909E+01  0.26381275909E+01  0.00000000000E+00 0.  1.
          2    1    1    2  501    0  0.21448423111E+02  0.10586676969E+02  0.89538054754E+03  0.89569997070E+03  0.00000000000E+00 0. -1.
         21    1    1    2  503  501 -0.21448423111E+02 -0.10586676969E+02  0.55231082680E+02  0.60187914711E+02  0.00000000000E+00 0.  1.
</event>
<event>
 4    1  0.2243475E+005  0.2162023E+02  0.7546771E-02  0.1510591E+00
          2   -1    0    0  502    0  0.00000000000E+00  0.00000000000E+00  0.12968790197E+03  0.12968790197E+03  0.00000000000E+00 0.  1.
         21   -1    0    0  503  502 -0.00000000000E+00 -0.00000000000E+00 -0.36282412961E+02  0.36282412961E+02  0.00000000000E+00 0. -1.
          2    1    1    2  501    0  0.86674473155E+01 -0.19806809430E+02  0.12545823017E+03  0.12730750905E+03  0.00000000000E+00 0.  1.
         21    1    1    2  503  501 -0.86674473155E+01  0.19806809430E+02 -0.32052741161E+02  0.38662805883E+02  0.00000000000E+00 0. -1.
</event>
<event>
 4    1  0.2243475E+005  0.3850136E+02  0.7546771E-02  0.1357499E+00
          2   -1    0    0  502    0  0.00000000000E+00  0.00000000000E+00  0.97920852432E+02  0.97920852432E+02  0.00000000000E+00 0.  1.
         21   -1    0    0  503  502 -0.00000000000E+00 -0.00000000000E+00 -0.15308747121E+02  0.15308747121E+02  0.00000000000E+00 0.  1.
          2    1    1    2  501    0 -0.36665163678E+02  0.11748200832E+02  0.47280053298E+02  0.60973419538E+02  0.00000000000E+00 0.  1.
         21    1    1    2  503  501  0.36665163678E+02 -0.11748200832E+02  0.35332052013E+02  0.52256180015E+02  0.00000000000E+00 0.  1.
</event>
<event>
 4    1  0.2243475E+005  0.3204317E+02  0.7546771E-02  0.1402634E+00
          2   -1    0    0  503    0  0.00000000000E+00  0.00000000000E+00  0.12927291630E+04  0.12927291630E+04  0.00000000000E+00 0.  1.
         21   -1    0    0  501  502 -0.00000000000E+00 -0.00000000000E+00 -0.22722326154E+01  0.22722326154E+01  0.00000000000E+00 0. -1.
          2    1    1    2  501    0  0.26446806170E+01 -0.31933841662E+02  0.11674404897E+04  0.11678801572E+04  0.00000000000E+00 0.  1.
         21    1    1    2  503  502 -0.26446806170E+01  0.31933841662E+02  0.12301644069E+03  0.12712123842E+03  0.00000000000E+00 0. -1.
</event>
<event>
 4    1  0.2243475E+005  0.2085619E+02  0.7546771E-02  0.1521328E+00
          2   -1    0    0  502    0  0.00000000000E+00  0.00000000000E+00  0.32624520454E+03  0.32624520454E+03  0.00000000000E+00 0.  1.
         21   -1    0    0  503  502 -0.00000000000E+00 -0.00000000000E+00 -0.72817390520E+01  0.72817390520E+01  0.00000000000E+00 0.  1.
          2    1    1    2  501    0 -0.18265245663E+02 -0.10067834711E+02  0.31020667652E+03  0.31090700001E+03  0.00000000000E+00 0.  1.
         21    1    1    2  503  501  0.18265245663E+02  0.10067834711E+02  0.87567889709E+01  0.22619943589E+02  0.00000000000E+00 0.  1.
</event>
<event>
 4    1  0.2243475E+005  0.2140533E+02  0.7546771E-02  0.1513556E+00
          2   -1    0    0  503    0  0.00000000000E+00  0.00000000000E+00  0.34016589802E+03  0.34016589802E+03  0.00000000000E+00 0. -1.
         21   -1    0    0  501  502 -0.00000000000E+00 -0.00000000000E+00 -0.93400636257E+01  0.93400636257E+01  0.00000000000E+00 0.  1.
          2    1    1    2  501    0  0.18909082557E+02  0.10031687800E+02  0.32707476261E+03  0.32777444760E+03  0.00000000000E+00 0. -1.
         21    1    1    2  503  502 -0.18909082557E+02 -0.10031687800E+02  0.37510717866E+01  0.21731514048E+02  0.00000000000E+00 0.  1.
</event>
<event>
 4    1  0.2243475E+005  0.2147858E+02  0.7546771E-02  0.1512540E+00
          2   -1    0    0  503    0  0.00000000000E+00  0.00000000000E+00  0.99716519270E+03  0.99716519270E+03  0.00000000000E+00 0.  1.
         21   -1    0    0  501  502 -0.00000000000E+00 -0.00000000000E+00 -0.13457820329E+01  0.13457820329E+01  0.00000000000E+00 0.  1.
          2    1    1    2  501    0  0.21478530788E+02  0.45821705685E-01  0.90234639292E+03  0.90260198438E+03  0.00000000000E+00 0.  1.
         21    1    1    2  503  502 -0.21478530788E+02 -0.45821705685E-01  0.93473017744E+02  0.95908990354E+02  0.00000000000E+00 0.  1.
</event>
<event>
 4    1  0.2243475E+005  0.2196140E+02  0.7546771E-02  0.1505969E+00
          2   -1    0    0  503    0  0.00000000000E+00  0.00000000000E+00  0.45679809242E+03  0.45679809242E+03  0.00000000000E+00 0. -1.
         21   -1    0    0  501  502 -0.00000000000E+00 -0.00000000000E+00 -0.40197487251E+02  0.40197487251E+02  0.00000000000E+00 0. -1.
          2    1    1    2  501    0 -0.21250186807E+02 -0.55437101631E+01  0.45351283218E+03  0.45404426228E+03  0.00000000000E+00 0. -1.
         21    1    1    2  503  502  0.21250186807E+02  0.55437101631E+01 -0.36912227015E+02  0.42951317383E+02  0.00000000000E+00 0. -1.
</event>
<event>
 4    1  0.2243475E+005  0.2001654E+02  0.7546771E-02  0.1533783E+00
          2   -1    0    0  503    0  0.00000000000E+00  0.00000000000E+00  0.11429019985E+03  0.11429019985E+03  0.00000000000E+00 0. -1.
         21   -1    0    0  501  502 -0.00000000000E+00 -0.00000000000E+00 -0.53046050416E+01  0.53046050416E+01  0.00000000000E+00 0. -1.
          2    1    1    2  501    0  0.16290913244E+02  0.11630477654E+02  0.89315742445E+02  0.91531217152E+02  0.00000000000E+00 0. -1.
         21    1    1    2  503  502 -0.16290913244E+02 -0.11630477654E+02  0.19669852361E+02  0.28063587737E+02  0.00000000000E+00 0. -1.
</event>
<event>
 4    1  0.2243475E+005  0.3439353E+02  0.7546771E-02  0.1384878E+00
          2   -1    0    0  503    0  0.00000000000E+00  0.00000000000E+00  0.16397157673E+04  0.16397157673E+04  0.00000000000E+00 0. -1.
         21   -1    0    0  501  502 -0.00000000000E+00 -0.00000000000E+00 -0.97174213291E+00  0.97174213291E+00  0.00000000000E+00 0. -1.
          2    1    1    2  501    0  0.26214129453E+02 -0.22265091890E+02  0.12357374450E+04  0.12362159795E+04  0.00000000000E+00 0. -1.
         21    1    1    2  503  502 -0.26214129453E+02  0.22265091890E+02  0.40300658021E+03  0.40447153002E+03  0.00000000000E+00 0. -1.
</event>
<event>
 4    1  0.2243475E+005  0.3395337E+02  0.7546771E-02  0.1388074E+00
          2   -1    0    0  503    0  0.00000000000E+00  0.00000000000E+00  0.85768632938E+03  0.85768632938E+03  0.00000000000E+00 0.  1.
         21   -1    0    0  501  502 -0.00000000000E+00 -0.00000000000E+00 -0.59685922591E+01  0.59685922591E+01  0.00000000000E+00 0.  1.
          2    1    1    2  501    0 -0.33602116972E+02  0.48712748746E+01  0.80596553532E+03  0.80668040493E+03  0.00000000000E+00 0.  1.
         21    1    1    2  503  502  0.33602116972E+02 -0.48712748746E+01  0.45752201800E+02  0.56974516703E+02  0.00000000000E+00 0.  1.
</event>
<event>
 4    1  0.2243475E+005  0.2994875E+02  0.7546771E-02  0.1420042E+00
          2   -1    0    0  503    0  0.00000000000E+00  0.00000000000E+00  0.24670307643E+02  0.24670307643E+02  0.00000000000E+00 0.  1.
         21   -1    0    0  501  502 -0.00000000000E+00 -0.00000000000E+00 -0.45647574280E+02  0.45647574280E+02  0.00000000000E+00 0.  1.
          2    1    1    2  501    0  0.29291421759E+02  0.62402024220E+01  0.53733869933E+01  0.30426974919E+02  0.00000000000E+00 0.  1.
         21    1    1    2  503  502 -0.29291421759E+02 -0.62402024220E+01 -0.26350653631E+02  0.39890907005E+02  0.00000000000E+00 0.  1.
</event>
<event>
 4    1  0.2243475E+005  0.8790910E+02  0.7546771E-02  0.1186588E+00
          2   -1    0    0  503    0  0.00000000000E+00  0.00000000000E+00  0.14047485797E+03  0.14047485797E+03  0.00000000000E+00 0.  1.
         21   -1    0    0  501  502 -0.00000000000E+00 -0.00000000000E+00 -0.62189576285E+02  0.62189576285E+02  0.00000000000E+00 0.  1.
          2    1    1    2  501    0  0.66190431859E+02 -0.57851848942E+02  0.47208778221E+01  0.88035767635E+02  0.00000000000E+00 0.  1.
         21    1    1    2  503  502 -0.66190431859E+02  0.57851848942E+02  0.73564403867E+02  0.11462866662E+03  0.00000000000E+00 0.  1.
</event>
<event>
 4    1  0.2243475E+005  0.3218281E+02  0.7546771E-02  0.1401530E+00
          2   -1    0    0  503    0  0.00000000000E+00  0.00000000000E+00  0.26582721278E+03  0.26582721278E+03  0.00000000000E+00 0. -1.
         21   -1    0    0  501  502 -0.00000000000E+00 -0.00000000000E+00 -0.44975958574E+02  0.44975958574E+02  0.00000000000E+00 0. -1.
          2    1    1    2  501    0 -0.31522398016E+01  0.32028055863E+02  0.25894353921E+03  0.26093579570E+03  0.00000000000E+00 0. -1.
         21    1    1    2  503  502  0.31522398016E+01 -0.32028055863E+02 -0.38092285003E+02  0.49867375657E+02  0.00000000000E+00 0. -1.
</event>
<event>
 4    1  0.2243475E+005  0.2411822E+02  0.7546771E-02  0.1478915E+00
          2   -1    0    0  502    0  0.00000000000E+00  0.00000000000E+00  0.26480301302E+03  0.26480301302E+03  0.00000000000E+00 0.  1.
         21   -1    0    0  503  502 -0.00000000000E+00 -0.00000000000E+00 -0.83297786808E+02  0.83297786808E+02  0.00000000000E+00 0. -1.
          2    1    1    2  501    0  0.24113909535E+02 -0.45587178171E+00  0.26249269871E+03  0.26359837884E+03  0.00000000000E+00 0.  1.
         21    1    1    2  503  501 -0.24113909535E+02  0.45587178171E+00 -0.80987472494E+02  0.84502420990E+02  0.00000000000E+00 0. -1.
</event>
<event>
 4    1  0.2243475E+005  0.2153896E+02  0.7546771E-02  0.1511707E+00
          2   -1    0    0  503    0  0.00000000000E+00  0.00000000000E+00  0.18016644813E+02  0.18016644813E+02  0.00000000000E+00 0.  1.
         21   -1    0    0  501  502 -0.00000000000E+00 -0.00000000000E+00 -0.46095017160E+02  0.46095017160E+02  0.00000000000E+00 0.  1.
          2    1    1    2  501    0 -0.16479838067E+02  0.13868735739E+02  0.72574049332E+01  0.22728766356E+02  0.00000000000E+00 0.  1.
         21    1    1    2  503  502  0.16479838067E+02 -0.13868735739E+02 -0.35335777280E+02  0.41382895618E+02  0.00000000000E+00 0.  1.
</event>
<event>
 4    1  0.2243475E+005  0.2781439E+02  0.7546771E-02  0.1439595E+00
          2   -1    0    0  502    0  0.00000000000E+00  0.00000000000E+00  0.49540014286E+01  0.49540014286E+01  0.00000000000E+00 0.  1.
         21   -1    0    0  503  502 -0.00000000000E+00 -0.00000000000E+00 -0.20049934256E+03  0.20049934256E+03  0.00000000000E+00 0. -1.
          2    1    1    2  501    0  0.26043240031E+02  0.97667900301E+01 -0.49467017222E+02  0.56750562391E+02  0.00000000000E+00 0.  1.
         21    1    1    2  503  501 -0.26043240031E+02 -0.97667900301E+01 -0.14607832391E+03  0.14870278160E+03  0.00000000000E+00 0. -1.
</event>
<event>
 4    1  0.2243475E+005  0.3830822E+02  0.7546771E-02  0.1358695E+00
          2   -1    0    0  503    0  0.00000000000E+00  0.00000000000E+00  0.45498865984E+03  0.45498865984E+03  0.00000000000E+00 0. -1.
         21   -1    0    0  501  502 -0.00000000000E+00 -0.00000000000E+00 -0.37956400500E+01  0.37956400500E+01  0.00000000000E+00 0. -1.
          2    1    1    2  501    0 -0.12812445996E+02  0.36102090884E+02  0.13668346714E+03  0.14195030795E+03  0.00000000000E+00 0. -1.
         21    1    1    2  503  502  0.12812445996E+02 -0.36102090884E+02  0.31450955264E+03  0.31683399193E+03  0.00000000000E+00 0. -1.
</event>
<event>
 4    1  0.2243475E+005  0.3175260E+02  0.7546771E-02  0.1404954E+00
          2   -1    0    0  503    0  0.00000000000E+00  0.00000000000E+00  0.64356752199E+02  0.64356752199E+02  0.00000000000E+00 0. -1.
         21   -1    0    0  501  502 -0.00000000000E+00 -0.00000000000E+00 -0.40612708630E+02  0.40612708630E+02  0.00000000000E+00 0.  1.
          2    1    1    2  501    0 -0.28657367563E+02  0.13674162614E+02  0.53006562379E+02  0.61789344503E+02  0.00000000000E+00 0. -1.
         21    1    1    2  503  502  0.28657367563E+02 -0.13674162614E+02 -0.29262518810E+02  0.43180116326E+02  0.00000000000E+00 0.  1.
</event>
<event>
 4    1  0.2243475E+005  0.3063972E+02  0.7546771E-02  0.1414117E+00
          2   -1    0    0  503    0  0.00000000000E+00  0.00000000000E+00  0.14388990739E+04  0.14388990739E+04  0.00000000000E+00 0.  1.
         21   -1    0    0  501  502 -0.00000000000E+00 -0.00000000000E+00 -0.95086758694E+01  0.95086758694E+01  0.00000000000E+00 0.  1.
          2    1    1    2  501    0  0.27164616895E+02  0.14173074089E+02  0.14136119650E+04  0.14139439805E+04  0.00000000000E+00 0.  1.
         21    1    1    2  503  502 -0.27164616895E+02 -0.14173074089E+02  0.15778432971E+02  0.34463769196E+02  0.00000000000E+00 0.  1.
</event>
<event>
 4    1  0.2243475E+005  0.2205672E+02  0.7546771E-02  0.1504695E+00
          2   -1    0    0  502    0  0.00000000000E+00  0.00000000000E+00  0.67113688070E+03  0.67113688070E+03  0.00000000000E+00 0. -1.
         21   -1    0    0  503  502 -0.00000000000E+00 -0.00000000000E+00 -0.97578515406E+00  0.97578515406E+00  0.00000000000E+00 0.  1.
          2    1    1    2  501    0  0.20261787952E+02 -0.87154435800E+01  0.50548578182E+03  0.50596677226E+03  0.00000000000E+00 0. -1.
         21    1    1    2  503  501 -0.20261787952E+02  0.87154435800E+01  0.16467531372E+03  0.16614589359E+03  0.00000000000E+00 0.  1.
</event>
<event>
 4    1  0.2243475E+005  0.2224681E+02  0.7546771E-02  0.1502179E+00
          2   -1    0    0  502    0  0.00000000000E+00  0.00000000000E+00  0.10150004488E+02  0.10150004488E+02  0.00000000000E+00 0.  1.
         21   -1    0    0  503  502 -0.00000000000E+00 -0.00000000000E+00 -0.10499108412E+03  0.10499108412E+03  0.00000000000E+00 0. -1.
          2    1    1    2  501    0  0.23615750855E+01 -0.22121114710E+02 -0.52887539919E+01  0.22866824697E+02  0.00000000000E+00 0.  1.
         21    1    1    2  503  501 -0.23615750855E+01  0.22121114710E+02 -0.89552325645E+02  0.92274263916E+02  0.00000000000E+00 0. -1.
</event>
<event>
 4    1  0.2243475E+005  0.2116018E+02  0.7546771E-02  0.1516990E+00
          2   -1    0    0  503    0  0.00000000000E+00  0.00000000000E+00  0.10063653663E+03  0.10063653663E+03  0.00000000000E+00 0.  1.
         21   -1    0    0  501  502 -0.00000000000E+00 -0.00000000000E+00 -0.44688578412E+01  0.44688578412E+01  0.00000000000E+00 0. -1.
          2    1    1    2  501    0  0.16563103619E+02  0.13168782609E+02  0.51568315556E+02  0.55740868366E+02  0.00000000000E+00 0.  1.
         21    1    1    2  503  502 -0.16563103619E+02 -0.13168782609E+02  0.44599363236E+02  0.49364526109E+02  0.00000000000E+00 0. -1.
</event>
<event>
 4    1  0.2243475E+005  0.2080615E+02  0.7546771E-02  0.1522051E+00
          2   -1    0    0  503    0  0.00000000000E+00  0.00000000000E+00  0.41232701087E+03  0.41232701087E+03  0.00000000000E+00 0. -1.
         21   -1    0    0  501  502 -0.00000000000E+00 -0.00000000000E+00 -0.35925401640E+01  0.35925401640E+01  0.00000000000E+00 0.  1.
          2    1    1    2  501    0  0.16904932399E+02  0.12129263296E+02  0.37932059749E+03  0.37989078884E+03  0.00000000000E+00 0. -1.
         21    1    1    2  503  502 -0.16904932399E+02 -0.12129263296E+02  0.29413873219E+02  0.36028762194E+02  0.00000000000E+00 0.  1.
</event>
<event>
 4    1  0.2243475E+005  0.2098547E+02  0.7546771E-02  0.1519472E+00
          2   -1    0    0  502    0  0.00000000000E+00  0.00000000000E+00  0.86211831344E+03  0.86211831344E+03  0.00000000000E+00 0. -1.
         21   -1    0    0  503  502 -0.00000000000E+00 -0.00000000000E+00 -0.49440010097E+02  0.49440010097E+02  0.00000000000E+00 0. -1.
          2    1    1    2  501    0 -0.20334803944E+01 -0.20886719503E+02  0.85975760276E+03  0.86001367757E+03  0.00000000000E+00 0. -1.
         21    1    1    2  503  501  0.20334803944E+01  0.20886719503E+02 -0.47079299420E+02  0.51544645969E+02  0.00000000000E+00 0. -1.
</event>
<event>
 4    1  0.2243475E+005  0.3973221E+02  0.7546771E-02  0.1350062E+00
          2   -1    0    0  502    0  0.00000000000E+00  0.00000000000E+00  0.16812432493E+03  0.16812432493E+03  0.00000000000E+00 0.  1.
         21   -1    0    0  503  502 -0.00000000000E+00 -0.00000000000E+00 -0.79266245584E+02  0.79266245584E+02  0.00000000000E+00 0.  1.
          2    1    1    2  501    0  0.25604046686E+02 -0.30382250208E+02  0.16056708325E+03  0.16540990465E+03  0.00000000000E+00 0.  1.
         21    1    1    2  503  501 -0.25604046686E+02  0.30382250208E+02 -0.71709003903E+02  0.81980665862E+02  0.00000000000E+00 0.  1.
</event>
<event>
 4    1  0.2243475E+005  0.2243264E+02  0.7546771E-02  0.1499748E+00
          2   -1    0    0  503    0  0.00000000000E+00  0.00000000000E+00  0.14423710032E+03  0.14423710032E+03  0.00000000000E+00 0. -1.
         21   -1    0    0  501  502 -0.00000000000E+00 -0.00000000000E+00 -0.34357346537E+02  0.34357346537E+02  0.00000000000E+00 0. -1.
          2    1    1    2  501    0  0.13926385769E+02 -0.17586328373E+02  0.13958185617E+03  0.14137297386E+03  0.00000000000E+00 0. -1.
         21    1    1    2  503  502 -0.13926385769E+02  0.17586328373E+02 -0.29702102384E+02  0.37221473000E+02  0.00000000000E+00 0. -1.
</event>
<event>
 4    1  0.2243475E+005  0.4471225E+02  0.7546771E-02  0.1322885E+00
          2   -1    0    0  503    0  0.00000000000E+00  0.00000000000E+00  0.83623258423E+03  0.83623258423E+03  0.00000000000E+00 0.  1.
         21   -1    0    0  501  502 -0.00000000000E+00 -0.00000000000E+00 -0.23329323294E+02  0.23329323294E+02  0.00000000000E+00 0.  1.
          2    1    1    2  501    0  0.13544427574E+02 -0.42611426222E+02  0.81361631997E+03  0.81484397358E+03  0.00000000000E+00 0.  1.
         21    1    1    2  503  502 -0.13544427574E+02  0.42611426222E+02 -0.71305903157E+00  0.44717933944E+02  0.00000000000E+00 0.  1.
</event>
<event>
 4    1  0.2243475E+005  0.2995988E+02  0.7546771E-02  0.1419945E+00
          2   -1    0    0  502    0  0.00000000000E+00  0.00000000000E+00  0.36865428838E+03  0.36865428838E+03  0.00000000000E+00 0. -1.
         21   -1    0    0  503  502 -0.00000000000E+00 -0.00000000000E+00 -0.65916017162E+02  0.65916017162E+02  0.00000000000E+00 0.  1.
          2    1    1    2  501    0 -0.14614671954E+02 -0.26153505850E+02  0.36460352222E+03  0.36583236998E+03  0.00000000000E+00 0. -1.
         21    1    1    2  503  501  0.14614671954E+02  0.26153505850E+02 -0.61865251003E+02  0.68737935568E+02  0.00000000000E+00 0.  1.
</event>
<event>
 4    1  0.2243475E+005  0.4961690E+02  0.7546771E-02  0.1299842E+00
          2   -1    0    0  503    0  0.00000000000E+00  0.00000000000E+00  0.16330816524E+03  0.16330816524E+03  0.00000000000E+00 0. -1.
         21   -1    0    0  501  502 -0.00000000000E+00 -0.00000000000E+00 -0.45202467119E+03  0.45202467119E+03  0.00000000000E+00 0. -1.
          2    1    1    2  501    0 -0.32950075855E+01  0.49507368865E+02  0.15813440487E+03  0.16573571327E+03  0.00000000000E+00 0. -1.
         21    1    1    2  503  502  0.32950075855E+01 -0.49507368865E+02 -0.44685091083E+03  0.44959712316E+03  0.00000000000E+00 0. -1.
</event>
<event>
 4    1  0.2243475E+005  0.3756842E+02  0.7546771E-02  0.1363356E+00
          2   -1    0    0  503    0  0.00000000000E+00  0.00000000000E+00  0.74551291565E+01  0.74551291565E+01  0.00000000000E+00 0. -1.
         21   -1    0    0  501  502 -0.00000000000E+00 -0.00000000000E+00 -0.57710529373E+03  0.57710529373E+03  0.00000000000E+00 0.  1.
          2    1    1    2  501    0  0.88702189166E+01 -0.36506242524E+02 -0.45234941484E+02  0.58801245378E+02  0.00000000000E+00 0. -1.
         21    1    1    2  503  502 -0.88702189166E+01  0.36506242524E+02 -0.52441522309E+03  0.52575917751E+03  0.00000000000E+00 0.  1.
</event>
<event>
 4    1  0.2243475E+005  0.3947841E+02  0.7546771E-02  0.1351570E+00
          2   -1    0    0  503    0  0.00000000000E+00  0.00000000000E+00  0.71494445916E+03  0.71494445916E+03  0.00000000000E+00 0.  1.
         21   -1    0    0  501  502 -0.00000000000E+00 -0.00000000000E+00 -0.24038514401E+01  0.24038514401E+01  0.00000000000E+00 0.  1.
          2    1    1    2  501    0 -0.36984639428E+02 -0.13808726689E+02  0.46573471241E+03  0.46740492812E+03  0.00000000000E+00 0.  1.
         21    1    1    2  503  502  0.36984639428E+02  0.13808726689E+02  0.24680589531E+03  0.24994338248E+03  0.00000000000E+00 0.  1.
</event>
<event>
 4    1  0.2243475E+005  0.2348652E+02  0.7546771E-02  0.1486478E+00
          2   -1    0    0  503    0  0.00000000000E+00  0.00000000000E+00  0.15001608394E+04  0.15001608394E+04  0.00000000000E+00 0. -1.
         21   -1    0    0  501  502 -0.00000000000E+00 -0.00000000000E+00 -0.36911457274E+00  0.36911457274E+00  0.00000000000E+00 0.  1.
          2    1    1    2  501    0  0.22239972034E+02  0.75498651221E+01  0.70353414163E+03  0.70392606519E+03  0.00000000000E+00 0. -1.
         21    1    1    2  503  502 -0.22239972034E+02 -0.75498651221E+01  0.79625758316E+03  0.79660388874E+03  0.00000000000E+00 0.  1.
</event>
<event>
 4    1  0.2243475E+005  0.2440802E+02  0.7546771E-02  0.1475536E+00
          2   -1    0    0  502    0  0.00000000000E+00  0.00000000000E+00  0.70922394096E+03  0.70922394096E+03  0.00000000000E+00 0. -1.
         21   -1    0    0  503  502 -0.00000000000E+00 -0.00000000000E+00 -0.17154601309E+01  0.17154601309E+01  0.00000000000E+00 0. -1.
          2    1    1    2  501    0  0.12828862925E+02 -0.20764678793E+02  0.60769314188E+03  0.60818311905E+03  0.00000000000E+00 0. -1.
         21    1    1    2  503  501 -0.12828862925E+02  0.20764678793E+02  0.99815338946E+02  0.10275628204E+03  0.00000000000E+00 0. -1.
</event>
<event>
 4    1  0.2243475E+005  0.3490949E+02  0.7546771E-02  0.1381201E+00
          2   -1    0    0  502    0  0.00000000000E+00  0.00000000000E+00  0.81667320497E+02  0.81667320497E+02  0.00000000000E+00 0.  1.
         21   -1    0    0  503  502 -0.00000000000E+00 -0.00000000000E+00 -0.18805676074E+02  0.18805676074E+02  0.00000000000E+00 0.  1.
          2    1    1    2  501    0  0.12987059890E+02 -0.32403841389E+02  0.54259137098E+02  0.64519195748E+02  0.00000000000E+00 0.  1.
         21    1    1    2  503  501 -0.12987059890E+02  0.32403841389E+02  0.86025073250E+01  0.35953800823E+02  0.00000000000E+00 0.  1.
</event>
<event>
 4    1  0.2243475E+005  0.2504725E+02  0.7546771E-02  0.1468276E+00
          2   -1    0    0  503    0  0.00000000000E+00  0.00000000000E+00  0.11565591715E+04  0.11565591715E+04  0.00000000000E+00 0. -1.
         21   -1    0    0  501  502 -0.00000000000E+00 -0.00000000000E+00 -0.25905843912E+02  0.25905843912E+02  0.00000000000E+00 0.  1.
          2    1    1    2  501    0 -0.17079006047E+02  0.18321357997E+02  0.11503365383E+04  0.11506091934E+04  0.00000000000E+00 0. -1.
         21    1    1    2  503  502  0.17079006047E+02 -0.18321357997E+02 -0.19683210763E+02  0.31855821954E+02  0.00000000000E+00 0.  1.
</event>
<event>
 4    1  0.2243475E+005  0.3211538E+02  0.7546771E-02  0.1402062E+00
          2   -1    0    0  502    0  0.00000000000E+00  0.00000000000E+00  0.23970003688E+03  0.23970003688E+03  0.00000000000E+00 0.  1.
         21   -1    0    0  503  502 -0.00000000000E+00 -0.00000000000E+00 -0.14046583253E+02  0.14046583253E+02  0.00000000000E+00 0.  1.
          2    1    1    2  501    0 -0.24302682745E+02 -0.20994689612E+02  0.21849563880E+03  0.22084325110E+03  0.00000000000E+00 0.  1.
         21    1    1    2  503  501  0.24302682745E+02  0.20994689612E+02  0.71578148213E+01  0.32903369030E+02  0.00000000000E+00 0.  1.
</event>
<event>
 4    1  0.2243475E+005  0.2505087E+02  0.7546771E-02  0.1468235E+00
          2   -1    0    0  503    0  0.00000000000E+00  0.00000000000E+00  0.13620792622E+04  0.13620792622E+04  0.00000000000E+00 0. -1.
         21   -1    0    0  501  502 -0.00000000000E+00 -0.00000000000E+00 -0.37262524055E+01  0.37262524055E+01  0.00000000000E+00 0.  1.
          2    1    1    2  501    0 -0.19874005859E+02  0.15250253086E+02  0.13184685240E+04  0.13187064856E+04  0.00000000000E+00 0. -1.
         21    1    1    2  503  502  0.19874005859E+02 -0.15250253086E+02  0.39884485785E+02  0.47099029018E+02  0.00000000000E+00 0.  1.
</event>
<event>
 4    1  0.2243475E+005  0.4578821E+02  0.7546771E-02  0.1317544E+00
          2   -1    0    0  503    0  0.00000000000E+00  0.00000000000E+00  0.17876798848E+04  0.17876798848E+04  0.00000000000E+00 0.  1.
         21   -1    0    0  501  502 -0.00000000000E+00 -0.00000000000E+00 -0.44828306513E+01  0.44828306513E+01  0.00000000000E+00 0.  1.
          2    1    1    2  501    0  0.45326370935E+02  0.64869523730E+01  0.16615944106E+04  0.16622251791E+04  0.00000000000E+00 0.  1.
         21    1    1    2  503  502 -0.45326370935E+02 -0.64869523730E+01  0.12160264350E+03  0.12993753637E+03  0.00000000000E+00 0.  1.
</event>
<event>
 4    1  0.2243475E+005  0.3417018E+02  0.7546771E-02  0.1386493E+00
          2   -1    0    0  502    0  0.00000000000E+00  0.00000000000E+00  0.25125575818E+03  0.25125575818E+03  0.00000000000E+00 0. -1.
         21   -1    0    0  503  502 -0.00000000000E+00 -0.00000000000E+00 -0.64238725912E+02  0.64238725912E+02  0.00000000000E+00 0.  1.
          2    1    1    2  501    0 -0.29216958783E+02 -0.17719215967E+02  0.24544289986E+03  0.24781004497E+03  0.00000000000E+00 0. -1.
         21    1    1    2  503  501  0.29216958783E+02  0.17719215967E+02 -0.58425867595E+02  0.67684439122E+02  0.00000000000E+00 0.  1.
</event>
<event>
 4    1  0.2243475E+005  0.2379714E+02  0.7546771E-02  0.1482724E+00
          2   -1    0    0  503    0  0.00000000000E+00  0.00000000000E+00  0.99511148544E+03  0.99511148544E+03  0.00000000000E+00 0. -1.
         21   -1    0    0  501  502 -0.00000000000E+00 -0.00000000000E+00 -0.35755378446E+01  0.35755378446E+01  0.00000000000E+00 0.  1.
          2    1    1    2  501    0  0.19773039188E+02  0.13241256379E+02  0.95365237890E+03  0.95394924589E+03  0.00000000000E+00 0. -1.
         21    1    1    2  503  502 -0.19773039188E+02 -0.13241256379E+02  0.37883568695E+02  0.44737777396E+02  0.00000000000E+00 0.  1.
</event>
<event>
 4    1  0.2243475E+005  0.2354022E+02  0.7546771E-02  0.1485824E+00
          2   -1    0    0  503    0  0.00000000000E+00  0.00000000000E+00  0.11041317333E+04  0.11041317333E+04  0.00000000000E+00 0.  1.
         21   -1    0    0  501  502 -0.00000000000E+00 -0.00000000000E+00 -0.14348989372E+01  0.14348989372E+01  0.00000000000E+00 0.  1.
          2    1    1    2  501    0 -0.24272695537E+01  0.23414750120E+02  0.99709640180E+03  0.99737424102E+03  0.00000000000E+00 0.  1.
         21    1    1    2  503  502  0.24272695537E+01 -0.23414750120E+02  0.10560043257E+03  0.10819239123E+03  0.00000000000E+00 0.  1.
</event>
<event>
 4    1  0.2243475E+005  0.2536714E+02  0.7546771E-02  0.1464738E+00
          2   -1    0    0  502    0  0.00000000000E+00  0.00000000000E+00  0.12361453033E+04  0.12361453033E+04  0.00000000000E+00 0. -1.
         21   -1    0    0  503  502 -0.00000000000E+00 -0.00000000000E+00 -0.74986891698E+00  0.74986891698E+00  0.00000000000E+00 0.  1.
          2    1    1    2  501    0 -0.73629668426E+01 -0.24275055451E+02  0.95969116396E+03  0.96002636515E+03  0.00000000000E+00 0. -1.
         21    1    1    2  503  501  0.73629668426E+01  0.24275055451E+02  0.27570427042E+03  0.27686880706E+03  0.00000000000E+00 0.  1.
</event>
<event>
 4    1  0.2243475E+005  0.2117258E+02  0.7546771E-02  0.1516815E+00
          2   -1    0    0  503    0  0.00000000000E+00  0.00000000000E+00  0.99672839191E+03  0.99672839191E+03  0.00000000000E+00 0.  1.
         21   -1    0    0  501  502 -0.00000000000E+00 -0.00000000000E+00 -0.69644844527E+00  0.69644844527E+00  0.00000000000E+00 0.  1.
          2    1    1    2  501    0 -0.14975776960E+02  0.14966767862E+02  0.79483339946E+03  0.79511534442E+03  0.00000000000E+00 0.  1.
         21    1    1    2  503  502  0.14975776960E+02 -0.14966767862E+02  0.20119854401E+03  0.20230949594E+03  0.00000000000E+00 0.  1.
</event>
<event>
 4    1  0.2243475E+005  0.6051507E+02  0.7546771E-02  0.1258093E+00
          2   -1    0    0  503    0  0.00000000000E+00  0.00000000000E+00  0.13829643217E+04  0.13829643217E+04  0.00000000000E+00 0. -1.
         21   -1    0    0  501  502 -0.00000000000E+00 -0.00000000000E+00 -0.30561147791E+01  0.30561147791E+01  0.00000000000E+00 0. -1.
          2    1    1    2  501    0 -0.30232146368E+01 -0.60439506205E+02  0.94320561284E+03  0.94514491050E+03  0.00000000000E+00 0. -1.
         21    1    1    2  503  502  0.30232146368E+01  0.60439506205E+02  0.43670259409E+03  0.44087552599E+03  0.00000000000E+00 0. -1.
</event>
<event>
 4    1  0.2243475E+005  0.2691108E+02  0.7546771E-02  0.1448503E+00
          2   -1    0    0  502    0  0.00000000000E+00  0.00000000000E+00  0.55887602328E+02  0.55887602328E+02  0.00000000000E+00 0.  1.
         21   -1    0    0  503  502 -0.00000000000E+00 -0.00000000000E+00 -0.27456489014E+03  0.27456489014E+03  0.00000000000E+00 0.  1.
          2    1    1    2  501    0  0.25859200384E+02 -0.74503743193E+01  0.51941501135E+02  0.58498938983E+02  0.00000000000E+00 0.  1.
         21    1    1    2  503  501 -0.25859200384E+02  0.74503743193E+01 -0.27061878895E+03  0.27195355348E+03  0.00000000000E+00 0.  1.
</event>
<event>
 4    1  0.2243475E+005  0.2190870E+02  0.7546771E-02  0.1506676E+00
          2   -1    0    0  502    0  0.00000000000E+00  0.00000000000E+00  0.17715216287E+02  0.17715216287E+02  0.00000000000E+00 0.  1.
         21   -1    0    0  503  502 -0.00000000000E+00 -0.00000000000E+00 -0.30853622701E+02  0.30853622701E+02  0.00000000000E+00 0.  1.
          2    1    1    2  501    0  0.62078956756E+01  0.21010789499E+02  0.19069207183E+01  0.21991534524E+02  0.00000000000E+00 0.  1.
         21    1    1    2  503  501 -0.62078956756E+01 -0.21010789499E+02 -0.15045327133E+02  0.26577304465E+02  0.00000000000E+00 0.  1.
</event>
<event>
 4    1  0.2243475E+005  0.4419052E+02  0.7546771E-02  0.1325537E+00
          2   -1    0    0  502    0  0.00000000000E+00  0.00000000000E+00  0.81358178377E+03  0.81358178377E+03  0.00000000000E+00 0.  1.
         21   -1    0    0  503  502 -0.00000000000E+00 -0.00000000000E+00 -0.92089092657E+02  0.92089092657E+02  0.00000000000E+00 0.  1.
          2    1    1    2  501    0 -0.44097819064E+02 -0.28608987261E+01  0.80764136202E+03  0.80884941246E+03  0.00000000000E+00 0.  1.
         21    1    1    2  503  501  0.44097819064E+02  0.28608987261E+01 -0.86148670902E+02  0.96821463974E+02  0.00000000000E+00 0.  1.
</event>
<event>
 4    1  0.2243475E+005  0.2414428E+02  0.7546771E-02  0.1478608E+00
          2   -1    0    0  502    0  0.00000000000E+00  0.00000000000E+00  0.90823313180E+02  0.90823313180E+02  0.00000000000E+00 0. -1.
         21   -1    0    0  503  502 -0.00000000000E+00 -0.00000000000E+00 -0.98566275892E+02  0.98566275892E+02  0.00000000000E+00 0.  1.
          2    1    1    2  501    0 -0.11225403937E+02  0.21376074608E+02  0.87688235969E+02  0.90951486994E+02  0.00000000000E+00 0. -1.
         21    1    1    2  503  501  0.11225403937E+02 -0.21376074608E+02 -0.95431198680E+02  0.98438102078E+02  0.00000000000E+00 0.  1.
</event>
<event>
 4    1  0.2243475E+005  0.3270338E+02  0.7546771E-02  0.1397470E+00
          2   -1    0    0  503    0  0.00000000000E+00  0.00000000000E+00  0.12446579377E+04  0.12446579377E+04  0.00000000000E+00 0. -1.
         21   -1    0    0  501  502 -0.00000000000E+00 -0.00000000000E+00 -0.12809708541E+02  0.12809708541E+02  0.00000000000E+00 0.  1.
          2    1    1    2  501    0  0.25831148291E+02 -0.20056484978E+02  0.12232040370E+04  0.12236411349E+04  0.00000000000E+00 0. -1.
         21    1    1    2  503  502 -0.25831148291E+02  0.20056484978E+02  0.86441921241E+01  0.33826511336E+02  0.00000000000E+00 0.  1.
</event>
<event>
 4    1  0.2243475E+005  0.2466177E+02  0.7546771E-02  0.1472623E+00
          2   -1    0    0  503    0  0.00000000000E+00  0.00000000000E+00  0.16939065123E+04  0.16939065123E+04  0.00000000000E+00 0.  1.
         21   -1    0    0  501  502 -0.00000000000E+00 -0.00000000000E+00 -0.38465440823E+00  0.38465440823E+00  0.00000000000E+00 0.  1.
          2    1    1    2  501    0 -0.93995036371E+00  0.24643851407E+02  0.10653110727E+04  0.10655964924E+04  0.00000000000E+00 0.  1.
         21    1    1    2  503  502  0.93995036371E+00 -0.24643851407E+02  0.62821078513E+03  0.62869467428E+03  0.00000000000E+00 0.  1.
</event>
<event>
 4    1  0.2243475E+005  0.2721951E+02  0.7546771E-02  0.1445415E+00
          2   -1    0    0  503    0  0.00000000000E+00  0.00000000000E+00  0.10243539244E+04  0.10243539244E+04  0.00000000000E+00 0. -1.
         21   -1    0    0  501  502 -0.00000000000E+00 -0.00000000000E+00 -0.19074389724E+01  0.19074389724E+01  0.00000000000E+00 0.  1.
          2    1    1    2  501    0 -0.54526898533E+01 -0.26667773781E+02  0.91552567990E+03  0.91593022253E+03  0.00000000000E+00 0. -1.
         21    1    1    2  503  502  0.54526898533E+01  0.26667773781E+02  0.10692080551E+03  0.11033114083E+03  0.00000000000E+00 0.  1.
</event>
<event>
 4    1  0.2243475E+005  0.2179676E+02  0.7546771E-02  0.1508186E+00
          2   -1    0    0  503    0  0.00000000000E+00  0.00000000000E+00  0.58436053135E+03  0.58436053135E+03  0.00000000000E+00 0.  1.
         21   -1    0    0  501  502 -0.00000000000E+00 -0.00000000000E+00 -0.13958367314E+01  0.13958367314E+01  0.00000000000E+00 0.  1.
          2    1    1    2  501    0  0.24285507611E+01 -0.21661040577E+02  0.48073178981E+03  0.48122567707E+03  0.00000000000E+00 0.  1.
         21    1    1    2  503  502 -0.24285507611E+01  0.21661040577E+02  0.10223290481E+03  0.10453069101E+03  0.00000000000E+00 0.  1.
</event>
<event>
 4    1  0.2243475E+005  0.2016720E+02  0.7546771E-02  0.1531495E+00
          2   -1    0    0  502    0  0.00000000000E+00  0.00000000000E+00  0.44899081428E+03  0.44899081428E+03  0.00000000000E+00 0. -1.
         21   -1    0    0  503  502 -0.00000000000E+00 -0.00000000000E+00 -0.57447474626E+01  0.57447474626E+01  0.00000000000E+00 0. -1.
          2    1    1    2  501    0 -0.20166576186E+02  0.15838969738E+00  0.43029634407E+03  0.43076868456E+03  0.00000000000E+00 0. -1.
         21    1    1    2  503  501  0.20166576186E+02 -0.15838969738E+00  0.12949722746E+02  0.23966877176E+02  0.00000000000E+00 0. -1.
</event>
<event>
 4    1  0.2243475E+005  0.4173003E+02  0.7546771E-02  0.1338636E+00
          2   -1    0    0  503    0  0.00000000000E+00  0.00000000000E+00  0.95430640037E+02  0.95430640037E+02  0.00000000000E+00 0.  1.
         21   -1    0    0  501  502 -0.00000000000E+00 -0.00000000000E+00 -0.68058391641E+02  0.68058391641E+02  0.00000000000E+00 0.  1.
          2    1    1    2  501    0  0.38508815900E+02 -0.16076895324E+02  0.83618584480E+02  0.93452999608E+02  0.00000000000E+00 0.  1.
         21    1    1    2  503  502 -0.38508815900E+02  0.16076895324E+02 -0.56246336085E+02  0.70036032070E+02  0.00000000000E+00 0.  1.
</event>
<event>
 4    1  0.2243475E+005  0.3500107E+02  0.7546771E-02  0.1380556E+00
          2   -1    0    0  503    0  0.00000000000E+00  0.00000000000E+00  0.82988960484E+03  0.82988960484E+03  0.00000000000E+00 0. -1.
         21   -1    0    0  501  502 -0.00000000000E+00 -0.00000000000E+00 -0.20151754113E+01  0.20151754113E+01  0.00000000000E+00 0. -1.
          2    1    1    2  501    0 -0.70193604505E+01  0.34289986671E+02  0.62905472565E+03  0.63002771564E+03  0.00000000000E+00 0. -1.
         21    1    1    2  503  502  0.70193604505E+01 -0.34289986671E+02  0.19881970378E+03  0.20187706462E+03  0.00000000000E+00 0. -1.
</event>
<event>
 4    1  0.2243475E+005  0.2786695E+02  0.7546771E-02  0.1439089E+00
          2   -1    0    0  502    0  0.00000000000E+00  0.00000000000E+00  0.70958361177E+03  0.70958361177E+03  0.00000000000E+00 0. -1.
         21   -1    0    0  503  502 -0.00000000000E+00 -0.00000000000E+00 -0.30521386264E+02  0.30521386264E+02  0.00000000000E+00 0.  1.
          2    1    1    2  501    0 -0.22871306025E+02  0.15920746108E+02  0.70288860771E+03  0.70344080181E+03  0.00000000000E+00 0. -1.
         21    1    1    2  503  501  0.22871306025E+02 -0.15920746108E+02 -0.23826382205E+02  0.36664196227E+02  0.00000000000E+00 0.  1.
</event>
<event>
 4    1  0.2243475E+005  0.3003980E+02  0.7546771E-02  0.1419251E+00
          2   -1    0    0  503    0  0.00000000000E+00  0.00000000000E+00  0.91764099182E+03  0.91764099182E+03  0.00000000000E+00 0. -1.
         21   -1    0    0  501  502 -0.00000000000E+00 -0.00000000000E+00 -0.29633300591E+01  0.29633300591E+01  0.00000000000E+00 0.  1.
          2    1    1    2  501    0 -0.19302984724E+02 -0.23017048781E+02  0.83359196301E+03  0.83413305327E+03  0.00000000000E+00 0. -1.
         21    1    1    2  503  502  0.19302984724E+02  0.23017048781E+02  0.81085698747E+02  0.86471268611E+02  0.00000000000E+00 0.  1.
</event>
<event>
 4    1  0.2243475E+005  0.2052726E+02  0.7546771E-02  0.1526123E+00
          2   -1    0    0  503    0  0.00000000000E+00  0.00000000000E+00  0.11247236753E+03  0.11247236753E+03  0.00000000000E+00 0.  1.
         21   -1    0    0  501  502 -0.00000000000E+00 -0.00000000000E+00 -0.69655194123E+01  0.69655194123E+01  0.00000000000E+00 0.  1.
          2    1    1    2  501    0 -0.12738685427E+02 -0.16096407825E+02  0.93351244846E+02  0.95581501169E+02  0.00000000000E+00 0.  1.
         21    1    1    2  503  502  0.12738685427E+02  0.16096407825E+02  0.12155603270E+02  0.23856385772E+02  0.00000000000E+00 0.  1.
</event>
<event>
 4    1  0.2243475E+005  0.2199792E+02  0.7546771E-02  0.1505480E+00
          2   -1    0    0  503    0  0.00000000000E+00  0.00000000000E+00  0.79926146643E+03  0.79926146643E+03  0.00000000000E+00 0. -1.
         21   -1    0    0  501  502 -0.00000000000E+00 -0.00000000000E+00 -0.66596963494E+01  0.66596963494E+01  0.00000000000E+00 0. -1.
          2    1    1    2  501    0 -0.21599662208E+02  0.41669228870E+01  0.78050815944E+03  0.78081809380E+03  0.00000000000E+00 0. -1.
         21    1    1    2  503  502  0.21599662208E+02 -0.41669228870E+01  0.12093610642E+02  0.25103068980E+02  0.00000000000E+00 0. -1.
</event>
<event>
 4    1  0.2243475E+005  0.2508080E+02  0.7546771E-02  0.1467901E+00
          2   -1    0    0  502    0  0.00000000000E+00  0.00000000000E+00  0.44122812646E+02  0.44122812646E+02  0.00000000000E+00 0. -1.
         21   -1    0    0  503  502 -0.00000000000E+00 -0.00000000000E+00 -0.45778795604E+02  0.45778795604E+02  0.00000000000E+00 0.  1.
          2    1    1    2  501    0 -0.19940622926E+02 -0.15212438831E+02  0.36472337596E+02  0.44263734000E+02  0.00000000000E+00 0. -1.
         21    1    1    2  503  501  0.19940622926E+02  0.15212438831E+02 -0.38128320554E+02  0.45637874250E+02  0.00000000000E+00 0.  1.
</event>
<event>
 4    1  0.2243475E+005  0.2412243E+02  0.7546771E-02  0.1478865E+00
          2   -1    0    0  502    0  0.00000000000E+00  0.00000000000E+00  0.48910909866E+03  0.48910909866E+03  0.00000000000E+00 0.  1.
         21   -1    0    0  503  502 -0.00000000000E+00 -0.00000000000E+00 -0.13901904025E+02  0.13901904025E+02  0.00000000000E+00 0. -1.
          2    1    1    2  501    0  0.21829479525E+02 -0.10264776594E+02  0.47810677453E+03  0.47871492526E+03  0.00000000000E+00 0.  1.
         21    1    1    2  503  501 -0.21829479525E+02  0.10264776594E+02 -0.28995798927E+01  0.24296077428E+02  0.00000000000E+00 0. -1.
</event>
<event>
 4    1  0.2243475E+005  0.2572956E+02  0.7546771E-02  0.1460805E+00
          2   -1    0    0  503    0  0.00000000000E+00  0.00000000000E+00  0.30113319837E+03  0.30113319837E+03  0.00000000000E+00 0.  1.
         21   -1    0    0  501  502 -0.00000000000E+00 -0.00000000000E+00 -0.27725601068E+01  0.27725601068E+01  0.00000000000E+00 0.  1.
          2    1    1    2  501    0 -0.21585388796E+02 -0.14002903838E+02  0.21832934769E+03  0.21984020194E+03  0.00000000000E+00 0.  1.
         21    1    1    2  503  502  0.21585388796E+02  0.14002903838E+02  0.80031290573E+02  0.84065556539E+02  0.00000000000E+00 0.  1.
</event>
<event>
 4    1  0.2243475E+005  0.2174913E+02  0.7546771E-02  0.1508832E+00
          2   -1    0    0  503    0  0.00000000000E+00  0.00000000000E+00  0.46253172211E+01  0.46253172211E+01  0.00000000000E+00 0.  1.
         21   -1    0    0  501  502 -0.00000000000E+00 -0.00000000000E+00 -0.17143316279E+03  0.17143316279E+03  0.00000000000E+00 0.  1.
          2    1    1    2  501    0  0.21707425036E+02 -0.13462944484E+01 -0.27489829325E+02  0.35053038766E+02  0.00000000000E+00 0.  1.
         21    1    1    2  503  502 -0.21707425036E+02  0.13462944484E+01 -0.13931801624E+03  0.14100544124E+03  0.00000000000E+00 0.  1.
</event>
<event>
 4    1  0.2243475E+005  0.2487955E+02  0.7546771E-02  0.1470155E+00
          2   -1    0    0  502    0  0.00000000000E+00  0.00000000000E+00  0.11807524200E+03  0.11807524200E+03  0.00000000000E+00 0.  1.
         21   -1    0    0  503  502 -0.00000000000E+00 -0.00000000000E+00 -0.14893940837E+03  0.14893940837E+03  0.00000000000E+00 0.  1.
          2    1    1    2  501    0 -0.23784856775E+02 -0.72988109040E+01  0.11570460686E+03  0.11834926321E+03  0.00000000000E+00 0.  1.
         21    1    1    2  503  501  0.23784856775E+02  0.72988109040E+01 -0.14656877324E+03  0.14866538716E+03  0.00000000000E+00 0.  1.
</event>
<event>
 4    1  0.2243475E+005  0.3448104E+02  0.7546771E-02  0.1384249E+00
          2   -1    0    0  503    0  0.00000000000E+00  0.00000000000E+00  0.56707802536E+03  0.56707802536E+03  0.00000000000E+00 0. -1.
         21   -1    0    0  501  502 -0.00000000000E+00 -0.00000000000E+00 -0.80265062410E+01  0.80265062410E+01  0.00000000000E+00 0. -1.
          2    1    1    2  501    0  0.23539813651E+02 -0.25195622170E+02  0.52668509524E+03  0.52781259151E+03  0.00000000000E+00 0. -1.
         21    1    1    2  503  502 -0.23539813651E+02  0.25195622170E+02  0.32366423877E+02  0.47291940094E+02  0.00000000000E+00 0. -1.
</event>
<event>
 4    1  0.2243475E+005  0.2080469E+02  0.7546771E-02  0.1522072E+00
          2   -1    0    0  503    0  0.00000000000E+00  0.00000000000E+00  0.80321030579E+03  0.80321030579E+03  0.00000000000E+00 0. -1.
         21   -1    0    0  501  502 -0.00000000000E+00 -0.00000000000E+00 -0.60278591523E+00  0.60278591523E+00  0.00000000000E+00 0. -1.
          2    1    1    2  501    0  0.15081850294E+02 -0.14330833152E+02  0.53216461582E+03  0.53257113451E+03  0.00000000000E+00 0. -1.
         21    1    1    2  503  502 -0.15081850294E+02  0.14330833152E+02  0.27044290406E+03  0.27124195719E+03  0.00000000000E+00 0. -1.
</event>
<event>
 4    1  0.2243475E+005  0.2909377E+02  0.7546771E-02  0.1427638E+00
          2   -1    0    0  503    0  0.00000000000E+00  0.00000000000E+00  0.11789624512E+04  0.11789624512E+04  0.00000000000E+00 0. -1.
         21   -1    0    0  501  502 -0.00000000000E+00 -0.00000000000E+00 -0.23072420587E+02  0.23072420587E+02  0.00000000000E+00 0.  1.
          2    1    1    2  501    0  0.28045774047E+02 -0.77383597054E+01  0.11695374215E+04  0.11698992384E+04  0.00000000000E+00 0. -1.
         21    1    1    2  503  502 -0.28045774047E+02  0.77383597054E+01 -0.13647390932E+02  0.32135633370E+02  0.00000000000E+00 0.  1.
</event>
<event>
 4    1  0.2243475E+005  0.2498371E+02  0.7546771E-02  0.1468986E+00
          2   -1    0    0  503    0  0.00000000000E+00  0.00000000000E+00  0.40888476406E+02  0.40888476406E+02  0.00000000000E+00 0. -1.
         21   -1    0    0  501  502 -0.00000000000E+00 -0.00000000000E+00 -0.21405091502E+02  0.21405091502E+02  0.00000000000E+00 0. -1.
          2    1    1    2  501    0 -0.36834653143E+01  0.24710679718E+02  0.26422696172E+02  0.36364054805E+02  0.00000000000E+00 0. -1.
         21    1    1    2  503  502  0.36834653143E+01 -0.24710679718E+02 -0.69393112677E+01  0.25929513103E+02  0.00000000000E+00 0. -1.
</event>
<event>
 4    1  0.2243475E+005  0.2683281E+02  0.7546771E-02  0.1449295E+00
          2   -1    0    0  503    0  0.00000000000E+00  0.00000000000E+00  0.30365039839E+03  0.30365039839E+03  0.00000000000E+00 0.  1.
         21   -1    0    0  501  502 -0.00000000000E+00 -0.00000000000E+00 -0.39964811037E+01  0.39964811037E+01  0.00000000000E+00 0.  1.
          2    1    1    2  501    0  0.67598021611E+01  0.25967382785E+02  0.24792376962E+03  0.24937160111E+03  0.00000000000E+00 0.  1.
         21    1    1    2  503  502 -0.67598021611E+01 -0.25967382785E+02  0.51730147666E+02  0.58275278391E+02  0.00000000000E+00 0.  1.
</event>
<event>
 4    1  0.2243475E+005  0.2061234E+02  0.7546771E-02  0.1524872E+00
          2   -1    0    0  503    0  0.00000000000E+00  0.00000000000E+00  0.47689932080E+03  0.47689932080E+03  0.00000000000E+00 0. -1.
         21   -1    0    0  501  502 -0.00000000000E+00 -0.00000000000E+00 -0.33161242694E+02  0.33161242694E+02  0.00000000000E+00 0. -1.
          2    1    1    2  501    0 -0.11900554379E+02 -0.16829900060E+02  0.47345022103E+03  0.47389870281E+03  0.00000000000E+00 0. -1.
         21    1    1    2  503  502  0.11900554379E+02  0.16829900060E+02 -0.29712142928E+02  0.36161860681E+02  0.00000000000E+00 0. -1.
</event>
<event>
 4    1  0.2243475E+005  0.2376963E+02  0.7546771E-02  0.1483054E+00
          2   -1    0    0  502    0  0.00000000000E+00  0.00000000000E+00  0.21493543710E+02  0.21493543710E+02  0.00000000000E+00 0.  1.
         21   -1    0    0  503  502 -0.00000000000E+00 -0.00000000000E+00 -0.68066846938E+03  0.68066846938E+03  0.00000000000E+00 0.  1.
          2    1    1    2  501    0 -0.16895381479E+02  0.16719486797E+02  0.14647597706E+02  0.27920373792E+02  0.00000000000E+00 0.  1.
         21    1    1    2  503  501  0.16895381479E+02 -0.16719486797E+02 -0.67382252338E+03  0.67424163930E+03  0.00000000000E+00 0.  1.
</event>
<event>
 4    1  0.2243475E+005  0.4998130E+02  0.7546771E-02  0.1298254E+00
          2   -1    0    0  503    0  0.00000000000E+00  0.00000000000E+00  0.17509295361E+04  0.17509295361E+04  0.00000000000E+00 0. -1.
         21   -1    0    0  501  502 -0.00000000000E+00 -0.00000000000E+00 -0.27582674466E+01  0.27582674466E+01  0.00000000000E+00 0. -1.
          2    1    1    2  501    0 -0.18151263464E+02  0.46568898037E+02  0.26485984017E+03  0.26953453501E+03  0.00000000000E+00 0. -1.
         21    1    1    2  503  502  0.18151263464E+02 -0.46568898037E+02  0.14833114285E+04  0.14841532685E+04  0.00000000000E+00 0. -1.
</event>
<event>
 4    1  0.2243475E+005  0.2449411E+02  0.7546771E-02  0.1474543E+00
          2   -1    0    0  503    0  0.00000000000E+00  0.00000000000E+00  0.43825007450E+03  0.43825007450E+03  0.00000000000E+00 0. -1.
         21   -1    0    0  501  502 -0.00000000000E+00 -0.00000000000E+00 -0.46451861067E+03  0.46451861067E+03  0.00000000000E+00 0. -1.
          2    1    1    2  501    0 -0.11258374887E+01 -0.24468217851E+02  0.43758444145E+03  0.43826944292E+03  0.00000000000E+00 0. -1.
         21    1    1    2  503  502  0.11258374887E+01  0.24468217851E+02 -0.46385297762E+03  0.46449924224E+03  0.00000000000E+00 0. -1.
</event>
<event>
 4    1  0.2243475E+005  0.2420739E+02  0.7546771E-02  0.1477869E+00
          2   -1    0    0  503    0  0.00000000000E+00  0.00000000000E+00  0.15764805365E+04  0.15764805365E+04  0.00000000000E+00 0.  1.
         21   -1    0    0  501  502 -0.00000000000E+00 -0.00000000000E+00 -0.76114008277E+01  0.76114008277E+01  0.00000000000E+00 0.  1.
          2    1    1    2  501    0 -0.10385949775E+02 -0.21866176374E+02  0.15568981689E+04  0.15570863514E+04  0.00000000000E+00 0.  1.
         21    1    1    2  503  502  0.10385949775E+02  0.21866176374E+02  0.11970966776E+02  0.27005585858E+02  0.00000000000E+00 0.  1.
</event>
<event>
 4    1  0.2243475E+005  0.3152369E+02  0.7546771E-02  0.1406802E+00
          2   -1    0    0  503    0  0.00000000000E+00  0.00000000000E+00  0.12941873804E+03  0.12941873804E+03  0.00000000000E+00 0.  1.
         21   -1    0    0  501  502 -0.00000000000E+00 -0.00000000000E+00 -0.15660149782E+02  0.15660149782E+02  0.00000000000E+00 0.  1.
          2    1    1    2  501    0  0.27670846819E+02  0.15101893735E+02  0.10866648483E+03  0.11314657699E+03  0.00000000000E+00 0.  1.
         21    1    1    2  503  502 -0.27670846819E+02 -0.15101893735E+02  0.50921034275E+01  0.31932310837E+02  0.00000000000E+00 0.  1.
</event>
<event>
 4    1  0.2243475E+005  0.2685904E+02  0.7546771E-02  0.1449029E+00
          2   -1    0    0  503    0  0.00000000000E+00  0.00000000000E+00  0.44780933141E+03  0.44780933141E+03  0.00000000000E+00 0. -1.
         21   -1    0    0  501  502 -0.00000000000E+00 -0.00000000000E+00 -0.83856084505E+02  0.83856084505E+02  0.00000000000E+00 0.  1.
          2    1    1    2  501    0  0.67861216535E+01 -0.25987620966E+02  0.44524347351E+03  0.44605286524E+03  0.00000000000E+00 0. -1.
         21    1    1    2  503  502 -0.67861216535E+01  0.25987620966E+02 -0.81290226605E+02  0.85612550669E+02  0.00000000000E+00 0.  1.
</event>
<event>
 4    1  0.2243475E+005  0.3163921E+02  0.7546771E-02  0.1405867E+00
          2   -1    0    0  503    0  0.00000000000E+00  0.00000000000E+00  0.49825704317E+02  0.49825704317E+02  0.00000000000E+00 0.  1.
         21   -1    0    0  501  502 -0.00000000000E+00 -0.00000000000E+00 -0.20107524619E+02  0.20107524619E+02  0.00000000000E+00 0.  1.
          2    1    1    2  501    0 -0.30583832826E+02 -0.81036270332E+01  0.15866723477E+02  0.35394809157E+02  0.00000000000E+00 0.  1.
         21    1    1    2  503  502  0.30583832826E+02  0.81036270332E+01  0.13851456221E+02  0.34538419779E+02  0.00000000000E+00 0.  1.
</event>
<event>
 4    1  0.2243475E+005  0.5795844E+02  0.7546771E-02  0.1266931E+00
          2   -1    0    0  503    0  0.00000000000E+00  0.00000000000E+00  0.25503641082E+04  0.25503641082E+04  0.00000000000E+00 0.  1.
         21   -1    0    0  501  502 -0.00000000000E+00 -0.00000000000E+00 -0.13278432741E+01  0.13278432741E+01  0.00000000000E+00 0.  1.
          2    1    1    2  501    0  0.25986322463E+02  0.51806286222E+02  0.13890782750E+04  0.13902868892E+04  0.00000000000E+00 0.  1.
         21    1    1    2  503  502 -0.25986322463E+02 -0.51806286222E+02  0.11599579899E+04  0.11614050622E+04  0.00000000000E+00 0.  1.
</event>
<event>
 4    1  0.2243475E+005  0.2550934E+02  0.7546771E-02  0.1463185E+00
          2   -1    0    0  502    0  0.00000000000E+00  0.00000000000E+00  0.12734260791E+04  0.12734260791E+04  0.00000000000E+00 0.  1.
         21   -1    0    0  503  502 -0.00000000000E+00 -0.00000000000E+00 -0.17332161221E+01  0.17332161221E+01  0.00000000000E+00 0. -1.
          2    1    1    2  501    0  0.38497945758E+01 -0.25217165799E+02  0.11712500501E+04  0.11715278086E+04  0.00000000000E+00 0.  1.
         21    1    1    2  503  501 -0.38497945758E+01  0.25217165799E+02  0.10044281291E+03  0.10363148669E+03  0.00000000000E+00 0. -1.
</event>
<event>
 4    1  0.2243475E+005  0.2142361E+02  0.7546771E-02  0.1513302E+00
          2   -1    0    0  503    0  0.00000000000E+00  0.00000000000E+00  0.69665795366E+02  0.69665795366E+02  0.00000000000E+00 0.  1.
         21   -1    0    0  501  502 -0.00000000000E+00 -0.00000000000E+00 -0.11546867598E+03  0.11546867598E+03  0.00000000000E+00 0. -1.
          2    1    1    2  501    0 -0.13987963229E+02 -0.16226763266E+02  0.66986254351E+02  0.70328722677E+02  0.00000000000E+00 0.  1.
         21    1    1    2  503  502  0.13987963229E+02  0.16226763266E+02 -0.11278913497E+03  0.11480574867E+03  0.00000000000E+00 0. -1.
</event>
<event>
 4    1  0.2243475E+005  0.2570713E+02  0.7546771E-02  0.1461046E+00
          2   -1    0    0  503    0  0.00000000000E+00  0.00000000000E+00  0.98089561779E+02  0.98089561779E+02  0.00000000000E+00 0.  1.
         21   -1    0    0  501  502 -0.00000000000E+00 -0.00000000000E+00 -0.14904031929E+02  0.14904031929E+02  0.00000000000E+00 0. -1.
          2    1    1    2  501    0 -0.24681507489E+02  0.71888515094E+01  0.83413989185E+02  0.87285451192E+02  0.00000000000E+00 0.  1.
         21    1    1    2  503  502  0.24681507489E+02 -0.71888515094E+01 -0.22845933563E+00  0.25708142516E+02  0.00000000000E+00 0. -1.
</event>
<event>
 4    1  0.2243475E+005  0.2024407E+02  0.7546771E-02  0.1530337E+00
          2   -1    0    0  503    0  0.00000000000E+00  0.00000000000E+00  0.11085029789E+03  0.11085029789E+03  0.00000000000E+00 0. -1.
         21   -1    0    0  501  502 -0.00000000000E+00 -0.00000000000E+00 -0.44029705674E+01  0.44029705674E+01  0.00000000000E+00 0.  1.
          2    1    1    2  501    0  0.86141392337E+01 -0.18319907327E+02  0.30149864474E+02  0.36315791703E+02  0.00000000000E+00 0. -1.
         21    1    1    2  503  502 -0.86141392337E+01  0.18319907327E+02  0.76297462844E+02  0.78937476750E+02  0.00000000000E+00 0.  1.
</event>
<event>
 4    1  0.2243475E+005  0.2263521E+02  0.7546771E-02  0.1497130E+00
          2   -1    0    0  503    0  0.00000000000E+00  0.00000000000E+00  0.15803360761E+03  0.15803360761E+03  0.00000000000E+00 0.  1.
         21   -1    0    0  501  502 -0.00000000000E+00 -0.00000000000E+00 -0.39227910881E+01  0.39227910881E+01  0.00000000000E+00 0.  1.
          2    1    1    2  501    0  0.21604420611E+02 -0.67529034590E+01  0.11078894184E+03  0.11307759428E+03  0.00000000000E+00 0.  1.
         21    1    1    2  503  502 -0.21604420611E+02  0.67529034590E+01  0.43321874689E+02  0.48878804421E+02  0.00000000000E+00 0.  1.
</event>
<event>
 4    1  0.2243475E+005  0.4038607E+02  0.7546771E-02  0.1346238E+00
          2   -1    0    0  502    0  0.00000000000E+00  0.00000000000E+00  0.26120136708E+02  0.26120136708E+02  0.00000000000E+00 0. -1.
         21   -1    0    0  503  502 -0.00000000000E+00 -0.00000000000E+00 -0.23347263852E+03  0.23347263852E+03  0.00000000000E+00 0.  1.
          2    1    1    2  501    0 -0.32783009518E+02  0.23586200395E+02  0.74149282004E+01  0.41061121786E+02  0.00000000000E+00 0. -1.
         21    1    1    2  503  501  0.32783009518E+02 -0.23586200395E+02 -0.21476743002E+03  0.21853165345E+03  0.00000000000E+00 0.  1.
</event>
<event>
 4    1  0.2243475E+005  0.3789419E+02  0.7546771E-02  0.1361288E+00
          2   -1    0    0  502    0  0.00000000000E+00  0.00000000000E+00  0.33090387000E+03  0.33090387000E+03  0.00000000000E+00 0.  1.
         21   -1    0    0  503  502 -0.00000000000E+00 -0.00000000000E+00 -0.26727283357E+02  0.26727283357E+02  0.00000000000E+00 0. -1.
          2    1    1    2  501    0  0.17776656566E+02 -0.33465802642E+02  0.31574474515E+03  0.31801055573E+03  0.00000000000E+00 0.  1.
         21    1    1    2  503  501 -0.17776656566E+02  0.33465802642E+02 -0.11568158507E+02  0.39620597628E+02  0.00000000000E+00 0. -1.
</event>
<event>
 4    1  0.2243475E+005  0.2350478E+02  0.7546771E-02  0.1486255E+00
          2   -1    0    0  503    0  0.00000000000E+00  0.00000000000E+00  0.93011145419E+03  0.93011145419E+03  0.00000000000E+00 0.  1.
         21   -1    0    0  501  502 -0.00000000000E+00 -0.00000000000E+00 -0.18914775146E+01  0.18914775146E+01  0.00000000000E+00 0. -1.
          2    1    1    2  501    0 -0.19867507926E+02  0.12560122382E+02  0.85006679924E+03  0.85039169664E+03  0.00000000000E+00 0.  1.
         21    1    1    2  503  502  0.19867507926E+02 -0.12560122382E+02  0.78153177438E+02  0.81611235066E+02  0.00000000000E+00 0. -1.
</event>
<event>
 4    1  0.2243475E+005  0.2158406E+02  0.7546771E-02  0.1511087E+00
          2   -1    0    0  503    0  0.00000000000E+00  0.00000000000E+00  0.13649739941E+03  0.13649739941E+03  0.00000000000E+00 0. -1.
         21   -1    0    0  501  502 -0.00000000000E+00 -0.00000000000E+00 -0.46285715852E+01  0.46285715852E+01  0.00000000000E+00 0. -1.
          2    1    1    2  501    0 -0.14440796583E+02  0.16041669195E+02  0.10209501983E+03  0.10435164029E+03  0.00000000000E+00 0. -1.
         21    1    1    2  503  502  0.14440796583E+02 -0.16041669195E+02  0.29773807995E+02  0.36774330708E+02  0.00000000000E+00 0. -1.
</event>
<event>
 4    1  0.2243475E+005  0.2753791E+02  0.7546771E-02  0.1442278E+00
          2   -1    0    0  502    0  0.00000000000E+00  0.00000000000E+00  0.31591032731E+03  0.31591032731E+03  0.00000000000E+00 0.  1.
         21   -1    0    0  503  502 -0.00000000000E+00 -0.00000000000E+00 -0.83606088164E+01  0.83606088164E+01  0.00000000000E+00 0.  1.
          2    1    1    2  501    0  0.26653604404E+02 -0.69225799806E+01  0.29066963167E+03  0.29197118269E+03  0.00000000000E+00 0.  1.
         21    1    1    2  503  501 -0.26653604404E+02  0.69225799806E+01  0.16880086821E+02  0.32299753442E+02  0.00000000000E+00 0.  1.
</event>
<event>
 4    1  0.2243475E+005  0.5311272E+02  0.7546771E-02  0.1285213E+00
          2   -1    0    0  503    0  0.00000000000E+00  0.00000000000E+00  0.66569094498E+03  0.66569094498E+03  0.00000000000E+00 0.  1.
         21   -1    0    0  501  502 -0.00000000000E+00 -0.00000000000E+00 -0.18696718992E+02  0.18696718992E+02  0.00000000000E+00 0. -1.
          2    1    1    2  501    0  0.30705389318E+02  0.43337509976E+02  0.62442313486E+03  0.62667791732E+03  0.00000000000E+00 0.  1.
         21    1    1    2  503  502 -0.30705389318E+02 -0.43337509976E+02  0.22571091124E+02  0.57709746652E+02  0.00000000000E+00 0. -1.
</event>
<event>
 4    1  0.2243475E+005  0.2569957E+02  0.7546771E-02  0.1461127E+00
          2   -1    0    0  502    0  0.00000000000E+00  0.00000000000E+00  0.41851198984E+03  0.41851198984E+03  0.00000000000E+00 0.  1.
         21   -1    0    0  503  502 -0.00000000000E+00 -0.00000000000E+00 -0.23087738409E+01  0.23087738409E+01  0.00000000000E+00 0. -1.
          2    1    1    2  501    0  0.12529652710E+02 -0.22438265205E+02  0.32646793854E+03  0.32747791198E+03  0.00000000000E+00 0.  1.
         21    1    1    2  503  501 -0.12529652710E+02  0.22438265205E+02  0.89735277465E+02  0.93342851704E+02  0.00000000000E+00 0. -1.
</event>
<event>
 4    1  0.2243475E+005  0.2408194E+02  0.7546771E-02  0.1479341E+00
          2   -1    0    0  503    0  0.00000000000E+00  0.00000000000E+00  0.65563803193E+03  0.65563803193E+03  0.00000000000E+00 0.  1.
         21   -1    0    0  501  502 -0.00000000000E+00 -0.00000000000E+00 -0.22567498527E+01  0.22567498527E+01  0.00000000000E+00 0.  1.
          2    1    1    2  501    0  0.21107476288E+02  0.11593720275E+02  0.58319488622E+03  0.58369188380E+03  0.00000000000E+00 0.  1.
         21    1    1    2  503  502 -0.21107476288E+02 -0.11593720275E+02  0.70186395860E+02  0.74202897981E+02  0.00000000000E+00 0.  1.
</event>
<event>
 4    1  0.2243475E+005  0.2048960E+02  0.7546771E-02  0.1526678E+00
          2   -1    0    0  502    0  0.00000000000E+00  0.00000000000E+00  0.10730029031E+03  0.10730029031E+03  0.00000000000E+00 0.  1.
         21   -1    0    0  503  502 -0.00000000000E+00 -0.00000000000E+00 -0.15600970397E+03  0.15600970397E+03  0.00000000000E+00 0.  1.
          2    1    1    2  501    0  0.18366393457E+02  0.90829134744E+01  0.10563890358E+03  0.10760762833E+03  0.00000000000E+00 0.  1.
         21    1    1    2  503  501 -0.18366393457E+02 -0.90829134744E+01 -0.15434831724E+03  0.15570236595E+03  0.00000000000E+00 0.  1.
</event>
<event>
 4    1  0.2243475E+005  0.2907781E+02  0.7546771E-02  0.1427783E+00
          2   -1    0    0  502    0  0.00000000000E+00  0.00000000000E+00  0.18637296773E+03  0.18637296773E+03  0.00000000000E+00 0. -1.
         21   -1    0    0  503  502 -0.00000000000E+00 -0.00000000000E+00 -0.91528263366E+01  0.91528263366E+01  0.00000000000E+00 0. -1.
          2    1    1    2  501    0 -0.28414941388E+02  0.61733296948E+01  0.15803814673E+03  0.16069092916E+03  0.00000000000E+00 0. -1.
         21    1    1    2  503  501  0.28414941388E+02 -0.61733296948E+01  0.19181994665E+02  0.34834864904E+02  0.00000000000E+00 0. -1.
</event>
<event>
 4    1  0.2243475E+005  0.2079558E+02  0.7546771E-02  0.1522204E+00
          2   -1    0    0  503    0  0.00000000000E+00  0.00000000000E+00  0.21344813676E+03  0.21344813676E+03  0.00000000000E+00 0.  1.
         21   -1    0    0  501  502 -0.00000000000E+00 -0.00000000000E+00 -0.10773041621E+03  0.10773041621E+03  0.00000000000E+00 0.  1.
          2    1    1    2  501    0  0.16467230090E+02 -0.12699867212E+02  0.21193089592E+03  0.21294872843E+03  0.00000000000E+00 0.  1.
         21    1    1    2  503  502 -0.16467230090E+02  0.12699867212E+02 -0.10621317538E+03  0.10822982453E+03  0.00000000000E+00 0.  1.
</event>
<event>
 4    1  0.2243475E+005  0.3091367E+02  0.7546771E-02  0.1411819E+00
          2   -1    0    0  502    0  0.00000000000E+00  0.00000000000E+00  0.18999727979E+03  0.18999727979E+03  0.00000000000E+00 0. -1.
         21   -1    0    0  503  502 -0.00000000000E+00 -0.00000000000E+00 -0.80172128363E+01  0.80172128363E+01  0.00000000000E+00 0. -1.
          2    1    1    2  501    0 -0.30817626000E+02 -0.24348905906E+01  0.15142668998E+03  0.15454998286E+03  0.00000000000E+00 0. -1.
         21    1    1    2  503  501  0.30817626000E+02  0.24348905906E+01  0.30553376972E+02  0.43464509763E+02  0.00000000000E+00 0. -1.
</event>
<event>
 4    1  0.2243475E+005  0.2366179E+02  0.7546771E-02  0.1484351E+00
          2   -1    0    0  502    0  0.00000000000E+00  0.00000000000E+00  0.17897671152E+04  0.17897671152E+04  0.00000000000E+00 0.  1.
         21   -1    0    0  503  502 -0.00000000000E+00 -0.00000000000E+00 -0.11341225773E+01  0.11341225773E+01  0.00000000000E+00 0.  1.
          2    1    1    2  501    0  0.22264755893E+02 -0.80100412953E+01  0.16563296575E+04  0.16564986612E+04  0.00000000000E+00 0.  1.
         21    1    1    2  503  501 -0.22264755893E+02  0.80100412953E+01  0.13230333517E+03  0.13440257667E+03  0.00000000000E+00 0.  1.
</event>
<event>
 4    1  0.2243475E+005  0.2288483E+02  0.7546771E-02  0.1493949E+00
          2   -1    0    0  503    0  0.00000000000E+00  0.00000000000E+00  0.63325329832E+02  0.63325329832E+02  0.00000000000E+00 0. -1.
         21   -1    0    0  501  502 -0.00000000000E+00 -0.00000000000E+00 -0.39597210407E+02  0.39597210407E+02  0.00000000000E+00 0. -1.
          2    1    1    2  501    0  0.16607382726E+02  0.15745172940E+02  0.57636852194E+02  0.62013888466E+02  0.00000000000E+00 0. -1.
         21    1    1    2  503  502 -0.16607382726E+02 -0.15745172940E+02 -0.33908732768E+02  0.40908651773E+02  0.00000000000E+00 0. -1.
</event>
<event>
 4    1  0.2243475E+005  0.2111905E+02  0.7546771E-02  0.1517572E+00
          2   -1    0    0  502    0  0.00000000000E+00  0.00000000000E+00  0.27934187602E+02  0.27934187602E+02  0.00000000000E+00 0. -1.
         21   -1    0    0  503  502 -0.00000000000E+00 -0.00000000000E+00 -0.11499895489E+03  0.11499895489E+03  0.00000000000E+00 0.  1.
          2    1    1    2  501    0 -0.21112020489E+02 -0.54484539266E+00  0.22787618556E+02  0.31069113684E+02  0.00000000000E+00 0. -1.
         21    1    1    2  503  501  0.21112020489E+02  0.54484539266E+00 -0.10985238585E+03  0.11186402881E+03  0.00000000000E+00 0.  1.
</event>
<event>
 4    1  0.2243475E+005  0.2394612E+02  0.7546771E-02  0.1480948E+00
          2   -1    0    0  502    0  0.00000000000E+00  0.00000000000E+00  0.14956224601E+03  0.14956224601E+03  0.00000000000E+00 0. -1.
         21   -1    0    0  503  502 -0.00000000000E+00 -0.00000000000E+00 -0.12425857559E+02  0.12425857559E+02  0.00000000000E+00 0.  1.
          2    1    1    2  501    0 -0.97162706580E+01 -0.21886311463E+02  0.13591768820E+03  0.13801099417E+03  0.00000000000E+00 0. -1.
         21    1    1    2  503  501  0.97162706580E+01  0.21886311463E+02  0.12187002484E+01  0.23977109401E+02  0.00000000000E+00 0.  1.
</event>
<event>
 4    1  0.2243475E+005  0.3034870E+02  0.7546771E-02  0.1416590E+00
          2   -1    0    0  503    0  0.00000000000E+00  0.00000000000E+00  0.50994112647E+03  0.50994112647E+03  0.00000000000E+00 0. -1.
         21   -1    0    0  501  502 -0.00000000000E+00 -0.00000000000E+00 -0.22225242534E+01  0.22225242534E+01  0.00000000000E+00 0. -1.
          2    1    1    2  501    0  0.20573375314E+02 -0.22310985669E+02  0.36469596285E+03  0.36595654000E+03  0.00000000000E+00 0. -1.
         21    1    1    2  503  502 -0.20573375314E+02  0.22310985669E+02  0.14302263937E+03  0.14620711073E+03  0.00000000000E+00 0. -1.
</event>
<event>
 4    1  0.2243475E+005  0.3085517E+02  0.7546771E-02  0.1412307E+00
          2   -1    0    0  502    0  0.00000000000E+00  0.00000000000E+00  0.10575024061E+03  0.10575024061E+03  0.00000000000E+00 0.  1.
         21   -1    0    0  503  502 -0.00000000000E+00 -0.00000000000E+00 -0.25133280049E+02  0.25133280049E+02  0.00000000000E+00 0. -1.
          2    1    1    2  501    0  0.27985210535E+02 -0.12994982847E+02  0.92735465434E+02  0.97733863819E+02  0.00000000000E+00 0.  1.
         21    1    1    2  503  501 -0.27985210535E+02  0.12994982847E+02 -0.12118504876E+02  0.33149656836E+02  0.00000000000E+00 0. -1.
</event>
<event>
 4    1  0.2243475E+005  0.2093959E+02  0.7546771E-02  0.1520129E+00
          2   -1    0    0  503    0  0.00000000000E+00  0.00000000000E+00  0.10493377059E+03  0.10493377059E+03  0.00000000000E+00 0.  1.
         21   -1    0    0  501  502 -0.00000000000E+00 -0.00000000000E+00 -0.14607519917E+02  0.14607519917E+02  0.00000000000E+00 0.  1.
          2    1    1    2  501    0  0.18495008268E+02  0.98184153147E+01  0.95666602529E+02  0.97931432388E+02  0.00000000000E+00 0.  1.
         21    1    1    2  503  502 -0.18495008268E+02 -0.98184153147E+01 -0.53403518534E+01  0.21609858122E+02  0.00000000000E+00 0.  1.
</event>
<event>
 4    1  0.2243475E+005  0.2125247E+02  0.7546771E-02  0.1515691E+00
          2   -1    0    0  502    0  0.00000000000E+00  0.00000000000E+00  0.11335343038E+03  0.11335343038E+03  0.00000000000E+00 0.  1.
         21   -1    0    0  503  502 -0.00000000000E+00 -0.00000000000E+00 -0.21272339474E+02  0.21272339474E+02  0.00000000000E+00 0.  1.
          2    1    1    2  501    0  0.17689268015E+02  0.11779535398E+02  0.10672252334E+03  0.10881803456E+03  0.00000000000E+00 0.  1.
         21    1    1    2  503  501 -0.17689268015E+02 -0.11779535398E+02 -0.14641432438E+02  0.25807735293E+02  0.00000000000E+00 0.  1.
</event>
<event>
 4    1  0.2243475E+005  0.2442076E+02  0.7546771E-02  0.1475389E+00
          2   -1    0    0  502    0  0.00000000000E+00  0.00000000000E+00  0.48455796174E+03  0.48455796174E+03  0.00000000000E+00 0.  1.
         21   -1    0    0  503  502 -0.00000000000E+00 -0.00000000000E+00 -0.95644291156E+01  0.95644291156E+01  0.00000000000E+00 0.  1.
          2    1    1    2  501    0 -0.20551667332E+02 -0.13191005419E+02  0.46811475868E+03  0.46875132101E+03  0.00000000000E+00 0.  1.
         21    1    1    2  503  501  0.20551667332E+02  0.13191005419E+02  0.68787739427E+01  0.25371069844E+02  0.00000000000E+00 0.  1.
</event>
<event>
 4    1  0.2243475E+005  0.8566045E+02  0.7546771E-02  0.1191283E+00
          2   -1    0    0  503    0  0.00000000000E+00  0.00000000000E+00  0.17335126718E+04  0.17335126718E+04  0.00000000000E+00 0. -1.
         21   -1    0    0  501  502 -0.00000000000E+00 -0.00000000000E+00 -0.48950862806E+01  0.48950862806E+01  0.00000000000E+00 0. -1.
          2    1    1    2  501    0 -0.21242155643E+02 -0.82984843185E+02  0.11840107297E+04  0.11871053540E+04  0.00000000000E+00 0. -1.
         21    1    1    2  503  502  0.21242155643E+02  0.82984843185E+02  0.54460685582E+03  0.55130240411E+03  0.00000000000E+00 0. -1.
</event>
<event>
 4    1  0.2243475E+005  0.2901887E+02  0.7546771E-02  0.1428318E+00
          2   -1    0    0  503    0  0.00000000000E+00  0.00000000000E+00  0.46800822644E+01  0.46800822644E+01  0.00000000000E+00 0. -1.
         21   -1    0    0  501  502 -0.00000000000E+00 -0.00000000000E+00 -0.18407526035E+03  0.18407526035E+03  0.00000000000E+00 0.  1.
          2    1    1    2  501    0  0.28971520470E+02  0.16569730317E+01 -0.75537528881E+02  0.80919792557E+02  0.00000000000E+00 0. -1.
         21    1    1    2  503  502 -0.28971520470E+02 -0.16569730317E+01 -0.10385764921E+03  0.10783555006E+03  0.00000000000E+00 0.  1.
</event>
<event>
 4    1  0.2243475E+005  0.2162770E+02  0.7546771E-02  0.1510489E+00
          2   -1    0    0  502    0  0.00000000000E+00  0.00000000000E+00  0.11381698342E+02  0.11381698342E+02  0.00000000000E+00 0.  1.
         21   -1    0    0  503  502 -0.00000000000E+00 -0.00000000000E+00 -0.56338308943E+02  0.56338308943E+02  0.00000000000E+00 0. -1.
          2    1    1    2  501    0 -0.49485862998E+01 -0.21053954744E+02 -0.48670059838E+01  0.22168564771E+02  0.00000000000E+00 0.  1.
         21    1    1    2  503  501  0.49485862998E+01  0.21053954744E+02 -0.40089604617E+02  0.45551442514E+02  0.00000000000E+00 0. -1.
</event>
<event>
 4    1  0.2243475E+005  0.2401541E+02  0.7546771E-02  0.1480127E+00
          2   -1    0    0  503    0  0.00000000000E+00  0.00000000000E+00  0.16943251819E+04  0.16943251819E+04  0.00000000000E+00 0.  1.
         21   -1    0    0  501  502 -0.00000000000E+00 -0.00000000000E+00 -0.67737705719E+00  0.67737705719E+00  0.00000000000E+00 0.  1.
          2    1    1    2  501    0  0.52305261667E+01 -0.23438884402E+02  0.14445862463E+04  0.14447858536E+04  0.00000000000E+00 0.  1.
         21    1    1    2  503  502 -0.52305261667E+01  0.23438884402E+02  0.24906155855E+03  0.25021670538E+03  0.00000000000E+00 0.  1.
</event>
<event>
 4    1  0.2243475E+005  0.2113729E+02  0.7546771E-02  0.1517314E+00
          2   -1    0    0  502    0  0.00000000000E+00  0.00000000000E+00  0.56250043100E+02  0.56250043100E+02  0.00000000000E+00 0. -1.
         21   -1    0    0  503  502 -0.00000000000E+00 -0.00000000000E+00 -0.13752697223E+02  0.13752697223E+02  0.00000000000E+00 0.  1.
          2    1    1    2  501    0  0.20657585283E+02  0.44776173181E+01  0.43998283745E+02  0.48812230630E+02  0.00000000000E+00 0. -1.
         21    1    1    2  503  501 -0.20657585283E+02 -0.44776173181E+01 -0.15009378680E+01  0.21190509693E+02  0.00000000000E+00 0.  1.
</event>
<event>
 4    1  0.2243475E+005  0.2379537E+02  0.7546771E-02  0.1482745E+00
          2   -1    0    0  503    0  0.00000000000E+00  0.00000000000E+00  0.35650473391E+02  0.35650473391E+02  0.00000000000E+00 0.  1.
         21   -1    0    0  501  502 -0.00000000000E+00 -0.00000000000E+00 -0.29443145480E+02  0.29443145480E+02  0.00000000000E+00 0. -1.
          2    1    1    2  501    0 -0.95747864833E+01 -0.21784013878E+02  0.25191643010E+02  0.34653119259E+02  0.00000000000E+00 0.  1.
         21    1    1    2  503  502  0.95747864833E+01  0.21784013878E+02 -0.18984315099E+02  0.30440499612E+02  0.00000000000E+00 0. -1.
</event>
<event>
 4    1  0.2243475E+005  0.4370362E+02  0.7546771E-02  0.1328050E+00
          2   -1    0    0  503    0  0.00000000000E+00  0.00000000000E+00  0.90582130410E+03  0.90582130410E+03  0.00000000000E+00 0. -1.
         21   -1    0    0  501  502 -0.00000000000E+00 -0.00000000000E+00 -0.39091316975E+01  0.39091316975E+01  0.00000000000E+00 0. -1.
          2    1    1    2  501    0 -0.10969113903E+02 -0.42304663134E+02  0.75966142326E+03  0.76091752771E+03  0.00000000000E+00 0. -1.
         21    1    1    2  503  502  0.10969113903E+02  0.42304663134E+02  0.14225074914E+03  0.14881290809E+03  0.00000000000E+00 0. -1.
</event>
<event>
 4    1  0.2243475E+005  0.2498395E+02  0.7546771E-02  0.1468983E+00
          2   -1    0    0  502    0  0.00000000000E+00  0.00000000000E+00  0.19338918705E+02  0.19338918705E+02  0.00000000000E+00 0.  1.
         21   -1    0    0  503  502 -0.00000000000E+00 -0.00000000000E+00 -0.72399890230E+03  0.72399890230E+03  0.00000000000E+00 0.  1.
          2    1    1    2  501    0  0.24810671285E+02  0.29373827268E+01  0.10959737406E+02  0.27282108989E+02  0.00000000000E+00 0.  1.
         21    1    1    2  503  501 -0.24810671285E+02 -0.29373827268E+01 -0.71561972100E+03  0.71605571202E+03  0.00000000000E+00 0.  1.
</event>
<event>
 4    1  0.2243475E+005  0.2520391E+02  0.7546771E-02  0.1466535E+00
          2   -1    0    0  503    0  0.00000000000E+00  0.00000000000E+00  0.14621041623E+03  0.14621041623E+03  0.00000000000E+00 0. -1.
         21   -1    0    0  501  502 -0.00000000000E+00 -0.00000000000E+00 -0.71535528537E+02  0.71535528537E+02  0.00000000000E+00 0. -1.
          2    1    1    2  501    0 -0.90827420395E+01  0.23510446396E+02  0.14285245558E+03  0.14505882034E+03  0.00000000000E+00 0. -1.
         21    1    1    2  503  502  0.90827420395E+01 -0.23510446396E+02 -0.68177567895E+02  0.72687124422E+02  0.00000000000E+00 0. -1.
</event>
<event>
 4    1  0.2243475E+005  0.2289866E+02  0.7546771E-02  0.1493775E+00
          2   -1    0    0  503    0  0.00000000000E+00  0.00000000000E+00  0.24202013982E+04  0.24202013982E+04  0.00000000000E+00 0. -1.
         21   -1    0    0  501  502 -0.00000000000E+00 -0.00000000000E+00 -0.22455392856E+00  0.22455392856E+00  0.00000000000E+00 0. -1.
          2    1    1    2  501    0  0.16215998648E+02 -0.16167556278E+02  0.14369688243E+04  0.14371512622E+04  0.00000000000E+00 0. -1.
         21    1    1    2  503  502 -0.16215998648E+02  0.16167556278E+02  0.98300802002E+03  0.98327468995E+03  0.00000000000E+00 0. -1.
</event>
<event>
 4    1  0.2243475E+005  0.4226436E+02  0.7546771E-02  0.1335704E+00
          2   -1    0    0  503    0  0.00000000000E+00  0.00000000000E+00  0.44507556016E+01  0.44507556016E+01  0.00000000000E+00 0.  1.
         21   -1    0    0  501  502 -0.00000000000E+00 -0.00000000000E+00 -0.44917124591E+03  0.44917124591E+03  0.00000000000E+00 0.  1.
          2    1    1    2  501    0 -0.25824478046E+02 -0.33457028802E+02 -0.14834799731E+03  0.15425110939E+03  0.00000000000E+00 0.  1.
         21    1    1    2  503  502  0.25824478046E+02  0.33457028802E+02 -0.29637249299E+03  0.29937089212E+03  0.00000000000E+00 0.  1.
</event>
<event>
 4    1  0.2243475E+005  0.2514394E+02  0.7546771E-02  0.1467199E+00
          2   -1    0    0  503    0  0.00000000000E+00  0.00000000000E+00  0.13082849460E+04  0.13082849460E+04  0.00000000000E+00 0.  1.
         21   -1    0    0  501  502 -0.00000000000E+00 -0.00000000000E+00 -0.49112168951E+00  0.49112168951E+00  0.00000000000E+00 0.  1.
          2    1    1    2  501    0  0.24462877025E+02  0.58125316041E+01  0.73678705406E+03  0.73721596626E+03  0.00000000000E+00 0.  1.
         21    1    1    2  503  502 -0.24462877025E+02 -0.58125316041E+01  0.57100677029E+03  0.57156010147E+03  0.00000000000E+00 0.  1.
</event>
<event>
 4    1  0.2243475E+005  0.2745466E+02  0.7546771E-02  0.1443094E+00
          2   -1    0    0  502    0  0.00000000000E+00  0.00000000000E+00  0.53424681177E+02  0.53424681177E+02  0.00000000000E+00 0.  1.
         21   -1    0    0  503  502 -0.00000000000E+00 -0.00000000000E+00 -0.16363883031E+02  0.16363883031E+02  0.00000000000E+00 0.  1.
          2    1    1    2  501    0  0.23123802973E+02  0.14800282610E+02  0.31484028670E+02  0.41773229353E+02  0.00000000000E+00 0.  1.
         21    1    1    2  503  501 -0.23123802973E+02 -0.14800282610E+02  0.55767694764E+01  0.28015334856E+02  0.00000000000E+00 0.  1.
</event>
<event>
 4    1  0.2243475E+005  0.2495939E+02  0.7546771E-02  0.1469258E+00
          2   -1    0    0  503    0  0.00000000000E+00  0.00000000000E+00  0.70195975548E+02  0.70195975548E+02  0.00000000000E+00 0.  1.
         21   -1    0    0  501  502 -0.00000000000E+00 -0.00000000000E+00 -0.36357122137E+02  0.36357122137E+02  0.00000000000E+00 0. -1.
          2    1    1    2  501    0  0.49689862120E+01  0.24459769010E+02  0.63239422511E+02  0.67986731673E+02  0.00000000000E+00 0.  1.
         21    1    1    2  503  502 -0.49689862120E+01 -0.24459769010E+02 -0.29400569100E+02  0.38566366012E+02  0.00000000000E+00 0. -1.
</event>
<event>
 4    1  0.2243475E+005  0.2192563E+02  0.7546771E-02  0.1506448E+00
          2   -1    0    0  502    0  0.00000000000E+00  0.00000000000E+00  0.13474906033E+03  0.13474906033E+03  0.00000000000E+00 0. -1.
         21   -1    0    0  503  502 -0.00000000000E+00 -0.00000000000E+00 -0.37362559684E+02  0.37362559684E+02  0.00000000000E+00 0. -1.
          2    1    1    2  501    0  0.10789205657E+02 -0.19087338696E+02  0.13053741547E+03  0.13236597106E+03  0.00000000000E+00 0. -1.
         21    1    1    2  503  501 -0.10789205657E+02  0.19087338696E+02 -0.33150914822E+02  0.39745648954E+02  0.00000000000E+00 0. -1.
</event>
<event>
 4    1  0.2243475E+005  0.2545016E+02  0.7546771E-02  0.1463830E+00
          2   -1    0    0  502    0  0.00000000000E+00  0.00000000000E+00  0.67213686474E+03  0.67213686474E+03  0.00000000000E+00 0. -1.
         21   -1    0    0  503  502 -0.00000000000E+00 -0.00000000000E+00 -0.11699789051E+02  0.11699789051E+02  0.00000000000E+00 0.  1.
          2    1    1    2  501    0 -0.24315170021E+02 -0.75155223278E+01  0.65775318785E+03  0.65824536967E+03  0.00000000000E+00 0. -1.
         21    1    1    2  503  501  0.24315170021E+02  0.75155223278E+01  0.26838878406E+01  0.25591284120E+02  0.00000000000E+00 0.  1.
</event>
<event>
 4    1  0.2243475E+005  0.2481577E+02  0.7546771E-02  0.1470875E+00
          2   -1    0    0  502    0  0.00000000000E+00  0.00000000000E+00  0.45509139056E+03  0.45509139056E+03  0.00000000000E+00 0. -1.
         21   -1    0    0  503  502 -0.00000000000E+00 -0.00000000000E+00 -0.20753342279E+01  0.20753342279E+01  0.00000000000E+00 0.  1.
          2    1    1    2  501    0  0.21050003788E+02 -0.13142290736E+02  0.36134665396E+03  0.36219777304E+03  0.00000000000E+00 0. -1.
         21    1    1    2  503  501 -0.21050003788E+02  0.13142290736E+02  0.91669402364E+02  0.94968951742E+02  0.00000000000E+00 0.  1.
</event>
<event>
 4    1  0.2243475E+005  0.2206051E+02  0.7546771E-02  0.1504645E+00
          2   -1    0    0  503    0  0.00000000000E+00  0.00000000000E+00  0.54516918394E+02  0.54516918394E+02  0.00000000000E+00 0. -1.
         21   -1    0    0  501  502 -0.00000000000E+00 -0.00000000000E+00 -0.18291471698E+02  0.18291471698E+02  0.00000000000E+00 0. -1.
          2    1    1    2  501    0 -0.15304319738E+02 -0.15888480446E+02  0.44160551650E+02  0.49364160436E+02  0.00000000000E+00 0. -1.
         21    1    1    2  503  502  0.15304319738E+02  0.15888480446E+02 -0.79351049541E+01  0.23444229656E+02  0.00000000000E+00 0. -1.
</event>
<event>
 4    1  0.2243475E+005  0.2906172E+02  0.7546771E-02  0.1427929E+00
          2   -1    0    0  502    0  0.00000000000E+00  0.00000000000E+00  0.80556702544E+02  0.80556702544E+02  0.00000000000E+00 0.  1.
         21   -1    0    0  503  502 -0.00000000000E+00 -0.00000000000E+00 -0.13751682744E+02  0.13751682744E+02  0.00000000000E+00 0.  1.
          2    1    1    2  501    0  0.21423511728E+02  0.19637127775E+02  0.56387266929E+02  0.63435853535E+02  0.00000000000E+00 0.  1.
         21    1    1    2  503  501 -0.21423511728E+02 -0.19637127775E+02  0.10417752871E+02  0.30872531753E+02  0.00000000000E+00 0.  1.
</event>
<event>
 4    1  0.2243475E+005  0.2172599E+02  0.7546771E-02  0.1509147E+00
          2   -1    0    0  503    0  0.00000000000E+00  0.00000000000E+00  0.63885050425E+03  0.63885050425E+03  0.00000000000E+00 0. -1.
         21   -1    0    0  501  502 -0.00000000000E+00 -0.00000000000E+00 -0.32127019043E+02  0.32127019043E+02  0.00000000000E+00 0.  1.
          2    1    1    2  501    0 -0.20119981556E+02  0.81978644601E+01  0.63497028519E+03  0.63534186209E+03  0.00000000000E+00 0. -1.
         21    1    1    2  503  502  0.20119981556E+02 -0.81978644601E+01 -0.28246799992E+02  0.35635661202E+02  0.00000000000E+00 0.  1.
</event>
<event>
 4    1  0.2243475E+005  0.3134277E+02  0.7546771E-02  0.1408276E+00
          2   -1    0    0  503    0  0.00000000000E+00  0.00000000000E+00  0.14918038116E+03  0.14918038116E+03  0.00000000000E+00 0. -1.
         21   -1    0    0  501  502 -0.00000000000E+00 -0.00000000000E+00 -0.78347571335E+01  0.78347571335E+01  0.00000000000E+00 0. -1.
          2    1    1    2  501    0  0.13828710260E+02 -0.28127138823E+02  0.39318843158E+02  0.50282607262E+02  0.00000000000E+00 0. -1.
         21    1    1    2  503  502 -0.13828710260E+02  0.28127138823E+02  0.10202678087E+03  0.10673253103E+03  0.00000000000E+00 0. -1.
</event>
<event>
 4    1  0.2243475E+005  0.2155309E+02  0.7546771E-02  0.1511513E+00
          2   -1    0    0  503    0  0.00000000000E+00  0.00000000000E+00  0.18475620033E+04  0.18475620033E+04  0.00000000000E+00 0. -1.
         21   -1    0    0  501  502 -0.00000000000E+00 -0.00000000000E+00 -0.26552699364E+00  0.26552699364E+00  0.00000000000E+00 0. -1.
          2    1    1    2  501    0  0.21183562948E+02 -0.39739580924E+01  0.71077849344E+03  0.71110519785E+03  0.00000000000E+00 0. -1.
         21    1    1    2  503  502 -0.21183562948E+02  0.39739580924E+01  0.11365179829E+04  0.11367223325E+04  0.00000000000E+00 0. -1.
</event>
<event>
 4    1  0.2243475E+005  0.2395575E+02  0.7546771E-02  0.1480833E+00
          2   -1    0    0  503    0  0.00000000000E+00  0.00000000000E+00  0.13725790225E+04  0.13725790225E+04  0.00000000000E+00 0. -1.
         21   -1    0    0  501  502 -0.00000000000E+00 -0.00000000000E+00 -0.25260111494E+02  0.25260111494E+02  0.00000000000E+00 0.  1.
          2    1    1    2  501    0  0.57281402033E+01  0.23260833653E+02  0.13667706763E+04  0.13669805995E+04  0.00000000000E+00 0. -1.
         21    1    1    2  503  502 -0.57281402033E+01 -0.23260833653E+02 -0.19451765315E+02  0.30858534415E+02  0.00000000000E+00 0.  1.
</event>
<event>
 4    1  0.2243475E+005  0.2595374E+02  0.7546771E-02  0.1458411E+00
          2   -1    0    0  502    0  0.00000000000E+00  0.00000000000E+00  0.36682875864E+03  0.36682875864E+03  0.00000000000E+00 0. -1.
         21   -1    0    0  503  502 -0.00000000000E+00 -0.00000000000E+00 -0.17822249083E+02  0.17822249083E+02  0.00000000000E+00 0. -1.
          2    1    1    2  501    0  0.13369746932E+02 -0.22245143619E+02  0.35665160756E+03  0.35759469476E+03  0.00000000000E+00 0. -1.
         21    1    1    2  503  501 -0.13369746932E+02  0.22245143619E+02 -0.76450980015E+01  0.27056312962E+02  0.00000000000E+00 0. -1.
</event>
<event>
 4    1  0.2243475E+005  0.1395926E+03  0.7546771E-02  0.1108790E+00
          2   -1    0    0  503    0  0.00000000000E+00  0.00000000000E+00  0.66144726681E+03  0.66144726681E+03  0.00000000000E+00 0. -1.
         21   -1    0    0  501  502 -0.00000000000E+00 -0.00000000000E+00 -0.46973072668E+02  0.46973072668E+02  0.00000000000E+00 0. -1.
          2    1    1    2  501    0  0.31279040417E+01  0.13955757831E+03  0.52351903252E+03  0.54181018711E+03  0.00000000000E+00 0. -1.
         21    1    1    2  503  502 -0.31279040417E+01 -0.13955757831E+03  0.90955161623E+02  0.16661015237E+03  0.00000000000E+00 0. -1.
</event>
<event>
 4    1  0.2243475E+005  0.1108323E+03  0.7546771E-02  0.1146255E+00
          2   -1    0    0  502    0  0.00000000000E+00  0.00000000000E+00  0.19719023141E+03  0.19719023141E+03  0.00000000000E+00 0.  1.
         21   -1    0    0  503  502 -0.00000000000E+00 -0.00000000000E+00 -0.23976934121E+03  0.23976934121E+03  0.00000000000E+00 0.  1.
          2    1    1    2  501    0 -0.10991108892E+03 -0.14260339723E+02  0.16667814230E+03  0.20016345291E+03  0.00000000000E+00 0.  1.
         21    1    1    2  503  501  0.10991108892E+03  0.14260339723E+02 -0.20925725210E+03  0.23679611972E+03  0.00000000000E+00 0.  1.
</event>
<event>
 4    1  0.2243475E+005  0.2515156E+02  0.7546771E-02  0.1467115E+00
          2   -1    0    0  503    0  0.00000000000E+00  0.00000000000E+00  0.33008545758E+01  0.33008545758E+01  0.00000000000E+00 0.  1.
         21   -1    0    0  501  502 -0.00000000000E+00 -0.00000000000E+00 -0.64577367242E+03  0.64577367242E+03  0.00000000000E+00 0. -1.
          2    1    1    2  501    0 -0.25066929008E+02  0.20615356726E+01 -0.49083725887E+02  0.55152633719E+02  0.00000000000E+00 0.  1.
         21    1    1    2  503  502  0.25066929008E+02 -0.20615356726E+01 -0.59338909196E+03  0.59392189328E+03  0.00000000000E+00 0. -1.
</event>
<event>
 4    1  0.2243475E+005  0.2022495E+02  0.7546771E-02  0.1530624E+00
          2   -1    0    0  502    0  0.00000000000E+00  0.00000000000E+00  0.57949767130E+03  0.57949767130E+03  0.00000000000E+00 0. -1.
         21   -1    0    0  503  502 -0.00000000000E+00 -0.00000000000E+00 -0.10524026113E+01  0.10524026113E+01  0.00000000000E+00 0.  1.
          2    1    1    2  501    0 -0.73462841245E+00 -0.20211600490E+02  0.45579097524E+03  0.45623947832E+03  0.00000000000E+00 0. -1.
         21    1    1    2  503  501  0.73462841245E+00  0.20211600490E+02  0.12265429346E+03  0.12431059559E+03  0.00000000000E+00 0.  1.
</event>
<event>
 4    1  0.2243475E+005  0.3617818E+02  0.7546771E-02  0.1372464E+00
          2   -1    0    0  503    0  0.00000000000E+00  0.00000000000E+00  0.14016063345E+04  0.14016063345E+04  0.00000000000E+00 0. -1.
         21   -1    0    0  501  502 -0.00000000000E+00 -0.00000000000E+00 -0.99472783246E+00  0.99472783246E+00  0.00000000000E+00 0. -1.
          2    1    1    2  501    0 -0.33111688645E+02 -0.14576572978E+02  0.87382883202E+03  0.87457743401E+03  0.00000000000E+00 0. -1.
         21    1    1    2  503  502  0.33111688645E+02  0.14576572978E+02  0.52678277467E+03  0.52802362834E+03  0.00000000000E+00 0. -1.
</event>
<event>
 4    1  0.2243475E+005  0.2005547E+02  0.7546771E-02  0.1533189E+00
          2   -1    0    0  503    0  0.00000000000E+00  0.00000000000E+00  0.85809983956E+01  0.85809983956E+01  0.00000000000E+00 0. -1.
         21   -1    0    0  501  502 -0.00000000000E+00 -0.00000000000E+00 -0.60096295917E+02  0.60096295917E+02  0.00000000000E+00 0. -1.
          2    1    1    2  501    0  0.31154679774E+01 -0.19812007444E+02 -0.96504393909E+01  0.22256521743E+02  0.00000000000E+00 0. -1.
         21    1    1    2  503  502 -0.31154679774E+01  0.19812007444E+02 -0.41864858130E+02  0.46420772569E+02  0.00000000000E+00 0. -1.
</event>
<event>
 4    1  0.2243475E+005  0.2855548E+02  0.7546771E-02  0.1432579E+00
          2   -1    0    0  502    0  0.00000000000E+00  0.00000000000E+00  0.12066448671E+02  0.12066448671E+02  0.00000000000E+00 0.  1.
         21   -1    0    0  503  502 -0.00000000000E+00 -0.00000000000E+00 -0.33927982411E+03  0.33927982411E+03  0.00000000000E+00 0. -1.
          2    1    1    2  501    0  0.44212512816E+01 -0.28211131417E+02 -0.63991563004E+01  0.29263707900E+02  0.00000000000E+00 0.  1.
         21    1    1    2  503  501 -0.44212512816E+01  0.28211131417E+02 -0.32081421913E+03  0.32208256488E+03  0.00000000000E+00 0. -1.
</event>
<event>
 4    1  0.2243475E+005  0.2255608E+02  0.7546771E-02  0.1498149E+00
          2   -1    0    0  503    0  0.00000000000E+00  0.00000000000E+00  0.74536730850E+01  0.74536730850E+01  0.00000000000E+00 0. -1.
         21   -1    0    0  501  502 -0.00000000000E+00 -0.00000000000E+00 -0.79939499974E+02  0.79939499974E+02  0.00000000000E+00 0. -1.
          2    1    1    2  501    0 -0.21033313570E+00  0.22555095932E+02 -0.19539443895E+02  0.29842360166E+02  0.00000000000E+00 0. -1.
         21    1    1    2  503  502  0.21033313570E+00 -0.22555095932E+02 -0.52946382994E+02  0.57550812893E+02  0.00000000000E+00 0. -1.
</event>
<event>
 4    1  0.2243475E+005  0.2361545E+02  0.7546771E-02  0.1484911E+00
          2   -1    0    0  503    0  0.00000000000E+00  0.00000000000E+00  0.23408472412E+04  0.23408472412E+04  0.00000000000E+00 0. -1.
         21   -1    0    0  501  502 -0.00000000000E+00 -0.00000000000E+00 -0.23830740414E+00  0.23830740414E+00  0.00000000000E+00 0.  1.
          2    1    1    2  501    0 -0.15804888784E+02  0.17546932678E+02  0.11896185114E+04  0.11898528867E+04  0.00000000000E+00 0. -1.
         21    1    1    2  503  502  0.15804888784E+02 -0.17546932678E+02  0.11509904224E+04  0.11512326619E+04  0.00000000000E+00 0.  1.
</event>
<event>
 4    1  0.2243475E+005  0.2451004E+02  0.7546771E-02  0.1474360E+00
          2   -1    0    0  503    0  0.00000000000E+00  0.00000000000E+00  0.33902402646E+03  0.33902402646E+03  0.00000000000E+00 0. -1.
         21   -1    0    0  501  502 -0.00000000000E+00 -0.00000000000E+00 -0.22919467813E+02  0.22919467813E+02  0.00000000000E+00 0. -1.
          2    1    1    2  501    0 -0.11591953989E+01 -0.24482608737E+02  0.33188757665E+03  0.33279138420E+03  0.00000000000E+00 0. -1.
         21    1    1    2  503  502  0.11591953989E+01  0.24482608737E+02 -0.15783018001E+02  0.29152110074E+02  0.00000000000E+00 0. -1.
</event>
<event>
 4    1  0.2243475E+005  0.2204709E+02  0.7546771E-02  0.1504824E+00
          2   -1    0    0  503    0  0.00000000000E+00  0.00000000000E+00  0.14319627528E+04  0.14319627528E+04  0.00000000000E+00 0. -1.
         21   -1    0    0  501  502 -0.00000000000E+00 -0.00000000000E+00 -0.17616591975E+01  0.17616591975E+01  0.00000000000E+00 0. -1.
          2    1    1    2  501    0  0.13114604585E+02  0.17722336958E+02  0.13592061589E+04  0.13593849552E+04  0.00000000000E+00 0. -1.
         21    1    1    2  503  502 -0.13114604585E+02 -0.17722336958E+02  0.70994934668E+02  0.74339456745E+02  0.00000000000E+00 0. -1.
</event>
<event>
 4    1  0.2243475E+005  0.4108126E+02  0.7546771E-02  0.1342264E+00
          2   -1    0    0  503    0  0.00000000000E+00  0.00000000000E+00  0.14768446059E+04  0.14768446059E+04  0.00000000000E+00 0.  1.
         21   -1    0    0  501  502 -0.00000000000E+00 -0.00000000000E+00 -0.15190546759E+01  0.15190546759E+01  0.00000000000E+00 0. -1.
          2    1    1    2  501    0 -0.41057255863E+02  0.14041838646E+01  0.11055647464E+04  0.11063277446E+04  0.00000000000E+00 0.  1.
         21    1    1    2  503  502  0.41057255863E+02 -0.14041838646E+01  0.36976080486E+03  0.37203591601E+03  0.00000000000E+00 0. -1.
</event>
<event>
 4    1  0.2243475E+005  0.3441938E+02  0.7546771E-02  0.1384692E+00
          2   -1    0    0  503    0  0.00000000000E+00  0.00000000000E+00  0.15417353278E+04  0.15417353278E+04  0.00000000000E+00 0.  1.
         21   -1    0    0  501  502 -0.00000000000E+00 -0.00000000000E+00 -0.41847943518E+01  0.41847943518E+01  0.00000000000E+00 0. -1.
          2    1    1    2  501    0  0.32878006233E+02  0.10184827291E+02  0.14671732530E+04  0.14675769310E+04  0.00000000000E+00 0.  1.
         21    1    1    2  503  502 -0.32878006233E+02 -0.10184827291E+02  0.70377280434E+02  0.78343191166E+02  0.00000000000E+00 0. -1.
</event>
<event>
 4    1  0.2243475E+005  0.2442371E+02  0.7546771E-02  0.1475355E+00
          2   -1    0    0  503    0  0.00000000000E+00  0.00000000000E+00  0.44686187532E+03  0.44686187532E+03  0.00000000000E+00 0.  1.
         21   -1    0    0  501  502 -0.00000000000E+00 -0.00000000000E+00 -0.15817680782E+01  0.15817680782E+01  0.00000000000E+00 0.  1.
          2    1    1    2  501    0 -0.12697250533E+02  0.20863787024E+02  0.31121997180E+03  0.31217685472E+03  0.00000000000E+00 0.  1.
         21    1    1    2  503  502  0.12697250533E+02 -0.20863787024E+02  0.13406013544E+03  0.13626678867E+03  0.00000000000E+00 0.  1.
</event>
<event>
 4    1  0.2243475E+005  0.8113703E+02  0.7546771E-02  0.1201232E+00
          2   -1    0    0  503    0  0.00000000000E+00  0.00000000000E+00  0.19114765398E+03  0.19114765398E+03  0.00000000000E+00 0.  1.
         21   -1    0    0  501  502 -0.00000000000E+00 -0.00000000000E+00 -0.46458523565E+02  0.46458523565E+02  0.00000000000E+00 0.  1.
          2    1    1    2  501    0 -0.60411632846E+02  0.54163194775E+02  0.13276890415E+03  0.15559819717E+03  0.00000000000E+00 0.  1.
         21    1    1    2  503  502  0.60411632846E+02 -0.54163194775E+02  0.11920226260E+02  0.82007980376E+02  0.00000000000E+00 0.  1.
</event>
<event>
 4    1  0.2243475E+005  0.2069945E+02  0.7546771E-02  0.1523599E+00
          2   -1    0    0  503    0  0.00000000000E+00  0.00000000000E+00  0.19712885959E+03  0.19712885959E+03  0.00000000000E+00 0.  1.
         21   -1    0    0  501  502 -0.00000000000E+00 -0.00000000000E+00 -0.11371248567E+02  0.11371248567E+02  0.00000000000E+00 0.  1.
          2    1    1    2  501    0  0.18035465956E+02 -0.10158212163E+02  0.18663760833E+03  0.18778195906E+03  0.00000000000E+00 0.  1.
         21    1    1    2  503  502 -0.18035465956E+02  0.10158212163E+02 -0.87999730703E+00  0.20718149093E+02  0.00000000000E+00 0.  1.
</event>
<event>
 4    1  0.2243475E+005  0.2250222E+02  0.7546771E-02  0.1498845E+00
          2   -1    0    0  503    0  0.00000000000E+00  0.00000000000E+00  0.17328147874E+03  0.17328147874E+03  0.00000000000E+00 0.  1.
         21   -1    0    0  501  502 -0.00000000000E+00 -0.00000000000E+00 -0.31567103924E+01  0.31567103924E+01  0.00000000000E+00 0.  1.
          2    1    1    2  501    0  0.19382415974E+01 -0.22418593328E+02  0.10911132142E+03  0.11140749781E+03  0.00000000000E+00 0.  1.
         21    1    1    2  503  502 -0.19382415974E+01  0.22418593328E+02  0.61013446927E+02  0.65030691318E+02  0.00000000000E+00 0.  1.
</event>
<event>
 4    1  0.2243475E+005  0.3201849E+02  0.7546771E-02  0.1402830E+00
          2   -1    0    0  503    0  0.00000000000E+00  0.00000000000E+00  0.43084985212E+03  0.43084985212E+03  0.00000000000E+00 0. -1.
         21   -1    0    0  501  502 -0.00000000000E+00 -0.00000000000E+00 -0.23927790134E+02  0.23927790134E+02  0.00000000000E+00 0.  1.
          2    1    1    2  501    0 -0.20924733432E+02 -0.24235076545E+02  0.41924778342E+03  0.42046865199E+03  0.00000000000E+00 0. -1.
         21    1    1    2  503  502  0.20924733432E+02  0.24235076545E+02 -0.12325721430E+02  0.34308990267E+02  0.00000000000E+00 0.  1.
</event>
<event>
 4    1  0.2243475E+005  0.2531446E+02  0.7546771E-02  0.1465316E+00
          2   -1    0    0  502    0  0.00000000000E+00  0.00000000000E+00  0.77898072279E+03  0.77898072279E+03  0.00000000000E+00 0. -1.
         21   -1    0    0  503  502 -0.00000000000E+00 -0.00000000000E+00 -0.13890156756E+01  0.13890156756E+01  0.00000000000E+00 0.  1.
          2    1    1    2  501    0  0.24489624595E+02  0.64093880279E+01  0.63795023238E+03  0.63845228558E+03  0.00000000000E+00 0. -1.
         21    1    1    2  503  501 -0.24489624595E+02 -0.64093880279E+01  0.13964147473E+03  0.14191745289E+03  0.00000000000E+00 0.  1.
</event>
<event>
 4    1  0.2243475E+005  0.2522508E+02  0.7546771E-02  0.1466301E+00
          2   -1    0    0  502    0  0.00000000000E+00  0.00000000000E+00  0.60429829691E+03  0.60429829691E+03  0.00000000000E+00 0. -1.
         21   -1    0    0  503  502 -0.00000000000E+00 -0.00000000000E+00 -0.19985862661E+03  0.19985862661E+03  0.00000000000E+00 0.  1.
          2    1    1    2  501    0  0.22285094320E+02  0.11818604668E+02  0.60323771325E+03  0.60376489094E+03  0.00000000000E+00 0. -1.
         21    1    1    2  503  501 -0.22285094320E+02 -0.11818604668E+02 -0.19879804294E+03  0.20039203258E+03  0.00000000000E+00 0.  1.
</event>
<event>
 4    1  0.2243475E+005  0.2333189E+02  0.7546771E-02  0.1488372E+00
          2   -1    0    0  503    0  0.00000000000E+00  0.00000000000E+00  0.71133707676E+03  0.71133707676E+03  0.00000000000E+00 0.  1.
         21   -1    0    0  501  502 -0.00000000000E+00 -0.00000000000E+00 -0.31440979197E+01  0.31440979197E+01  0.00000000000E+00 0. -1.
          2    1    1    2  501    0 -0.23272173161E+02 -0.16682157601E+01  0.66483331779E+03  0.66524260044E+03  0.00000000000E+00 0.  1.
         21    1    1    2  503  502  0.23272173161E+02  0.16682157601E+01  0.43359661051E+02  0.49238574248E+02  0.00000000000E+00 0. -1.
</event>
<event>
 4    1  0.2243475E+005  0.2005219E+02  0.7546771E-02  0.1533239E+00
          2   -1    0    0  503    0  0.00000000000E+00  0.00000000000E+00  0.11208975315E+04  0.11208975315E+04  0.00000000000E+00 0.  1.
         21   -1    0    0  501  502 -0.00000000000E+00 -0.00000000000E+00 -0.42563334563E+01  0.42563334563E+01  0.00000000000E+00 0.  1.
          2    1    1    2  501    0 -0.11538610987E+02  0.16399714382E+02  0.10966689551E+04  0.10968522632E+04  0.00000000000E+00 0.  1.
         21    1    1    2  503  502  0.11538610987E+02 -0.16399714382E+02  0.19972242988E+02  0.28301601815E+02  0.00000000000E+00 0.  1.
</event>
<event>
 4    1  0.2243475E+005  0.2250997E+02  0.7546771E-02  0.1498745E+00
          2   -1    0    0  503    0  0.00000000000E+00  0.00000000000E+00  0.52028455154E+02  0.52028455154E+02  0.00000000000E+00 0.  1.
         21   -1    0    0  501  502 -0.00000000000E+00 -0.00000000000E+00 -0.30857449772E+02  0.30857449772E+02  0.00000000000E+00 0.  1.
          2    1    1    2  501    0  0.84952042390E+01 -0.20845388509E+02  0.44870408146E+02  0.50200121955E+02  0.00000000000E+00 0.  1.
         21    1    1    2  503  502 -0.84952042390E+01  0.20845388509E+02 -0.23699402763E+02  0.32685782972E+02  0.00000000000E+00 0.  1.
</event>
<event>
 4    1  0.2243475E+005  0.2174744E+02  0.7546771E-02  0.1508855E+00
          2   -1    0    0  503    0  0.00000000000E+00  0.00000000000E+00  0.13770747499E+03  0.13770747499E+03  0.00000000000E+00 0. -1.
         21   -1    0    0  501  502 -0.00000000000E+00 -0.00000000000E+00 -0.35703310047E+01  0.35703310047E+01  0.00000000000E+00 0. -1.
          2    1    1    2  501    0  0.21531680421E+02  0.30557625812E+01  0.80848646485E+02  0.83722485541E+02  0.00000000000E+00 0. -1.
         21    1    1    2  503  502 -0.21531680421E+02 -0.30557625812E+01  0.53288497501E+02  0.57555320455E+02  0.00000000000E+00 0. -1.
</event>
<event>
 4    1  0.2243475E+005  0.2395379E+02  0.7546771E-02  0.1480856E+00
          2   -1    0    0  502    0  0.00000000000E+00  0.00000000000E+00  0.12359260406E+03  0.12359260406E+03  0.00000000000E+00 0.  1.
         21   -1    0    0  503  502 -0.00000000000E+00 -0.00000000000E+00 -0.51256950255E+02  0.51256950255E+02  0.00000000000E+00 0.  1.
          2    1    1    2  501    0 -0.10957456143E+02  0.21300664873E+02  0.11953944465E+03  0.12191580289E+03  0.00000000000E+00 0.  1.
         21    1    1    2  503  501  0.10957456143E+02 -0.21300664873E+02 -0.47203790844E+02  0.52933751418E+02  0.00000000000E+00 0.  1.
</event>
<event>
 4    1  0.2243475E+005  0.2170985E+02  0.7546771E-02  0.1509367E+00
          2   -1    0    0  503    0  0.00000000000E+00  0.00000000000E+00  0.21756962751E+03  0.21756962751E+03  0.00000000000E+00 0. -1.
         21   -1    0    0  501  502 -0.00000000000E+00 -0.00000000000E+00 -0.22953913950E+01  0.22953913950E+01  0.00000000000E+00 0. -1.
          2    1    1    2  501    0  0.20893182886E+02 -0.58985345931E+01  0.81565271461E+02  0.84405043155E+02  0.00000000000E+00 0. -1.
         21    1    1    2  503  502 -0.20893182886E+02  0.58985345931E+01  0.13370896465E+03  0.13545997575E+03  0.00000000000E+00 0. -1.
</event>
<event>
 4    1  0.2243475E+005  0.2323576E+02  0.7546771E-02  0.1489559E+00
          2   -1    0    0  503    0  0.00000000000E+00  0.00000000000E+00  0.71838161764E+03  0.71838161764E+03  0.00000000000E+00 0.  1.
         21   -1    0    0  501  502 -0.00000000000E+00 -0.00000000000E+00 -0.10226978785E+01  0.10226978785E+01  0.00000000000E+00 0. -1.
          2    1    1    2  501    0 -0.14817356505E+02 -0.17898223368E+02  0.54389253232E+03  0.54438863615E+03  0.00000000000E+00 0.  1.
         21    1    1    2  503  502  0.14817356505E+02  0.17898223368E+02  0.17346638744E+03  0.17501567937E+03  0.00000000000E+00 0. -1.
</event>
<event>
 4    1  0.2243475E+005  0.2107764E+02  0.7546771E-02  0.1518159E+00
          2   -1    0    0  503    0  0.00000000000E+00  0.00000000000E+00  0.81048680046E+02  0.81048680046E+02  0.00000000000E+00 0.  1.
         21   -1    0    0  501  502 -0.00000000000E+00 -0.00000000000E+00 -0.31165002528E+02  0.31165002528E+02  0.00000000000E+00 0. -1.
          2    1    1    2  501    0 -0.12651145555E+02 -0.16858691471E+02  0.75876040551E+02  0.78749225340E+02  0.00000000000E+00 0.  1.
         21    1    1    2  503  502  0.12651145555E+02  0.16858691471E+02 -0.25992363032E+02  0.33464457234E+02  0.00000000000E+00 0. -1.
</event>
<event>
 4    1  0.2243475E+005  0.2161218E+02  0.7546771E-02  0.1510701E+00
          2   -1    0    0  502    0  0.00000000000E+00  0.00000000000E+00  0.13999673945E+04  0.13999673945E+04  0.00000000000E+00 0.  1.
         21   -1    0    0  503  502 -0.00000000000E+00 -0.00000000000E+00 -0.55132509706E+00  0.55132509706E+00  0.00000000000E+00 0.  1.
          2    1    1    2  501    0 -0.20707121904E+02 -0.61888160853E+01  0.11397240870E+04  0.11399289806E+04  0.00000000000E+00 0.  1.
         21    1    1    2  503  501  0.20707121904E+02  0.61888160853E+01  0.25969198246E+03  0.26058973904E+03  0.00000000000E+00 0.  1.
</event>
<event>
 4    1  0.2243475E+005  0.6998746E+02  0.7546771E-02  0.1229219E+00
          2   -1    0    0  502    0  0.00000000000E+00  0.00000000000E+00  0.15311277971E+04  0.15311277971E+04  0.00000000000E+00 0. -1.
         21   -1    0    0  503  502 -0.00000000000E+00 -0.00000000000E+00 -0.67509474059E+01  0.67509474059E+01  0.00000000000E+00 0. -1.
          2    1    1    2  501    0  0.10129644003E+02  0.69250517537E+02  0.13199343036E+04  0.13217884890E+04  0.00000000000E+00 0. -1.
         21    1    1    2  503  501 -0.10129644003E+02 -0.69250517537E+02  0.20444254614E+03  0.21609025554E+03  0.00000000000E+00 0. -1.
</event>
<event>
 4    1  0.2243475E+005  0.3151710E+02  0.7546771E-02  0.1406856E+00
          2   -1    0    0  503    0  0.00000000000E+00  0.00000000000E+00  0.28811716881E+02  0.28811716881E+02  0.00000000000E+00 0.  1.
         21   -1    0    0  501  502 -0.00000000000E+00 -0.00000000000E+00 -0.53803246562E+02  0.53803246562E+02  0.00000000000E+00 0.  1.
          2    1    1    2  501    0  0.30908015022E+02  0.61662277978E+01  0.12261554563E+02  0.33818241796E+02  0.00000000000E+00 0.  1.
         21    1    1    2  503  502 -0.30908015022E+02 -0.61662277978E+01 -0.37253084245E+02  0.48796721648E+02  0.00000000000E+00 0.  1.
</event>
<event>
 4    1  0.2243475E+005  0.3054161E+02  0.7546771E-02  0.1414947E+00
          2   -1    0    0  503    0  0.00000000000E+00  0.00000000000E+00  0.13782113032E+04  0.13782113032E+04  0.00000000000E+00 0.  1.
         21   -1    0    0  501  502 -0.00000000000E+00 -0.00000000000E+00 -0.52037436857E+01  0.52037436857E+01  0.00000000000E+00 0.  1.
          2    1    1    2  501    0 -0.15356099591E+02 -0.26400386646E+02  0.13316624115E+04  0.13320126007E+04  0.00000000000E+00 0.  1.
         21    1    1    2  503  502  0.15356099591E+02  0.26400386646E+02  0.41345147999E+02  0.51402446175E+02  0.00000000000E+00 0.  1.
</event>
<event>
 4    1  0.2243475E+005  0.2056079E+02  0.7546771E-02  0.1525629E+00
          2   -1    0    0  502    0  0.00000000000E+00  0.00000000000E+00  0.54207801323E+02  0.54207801323E+02  0.00000000000E+00 0.  1.
         21   -1    0    0  503  502 -0.00000000000E+00 -0.00000000000E+00 -0.25198947753E+02  0.25198947753E+02  0.00000000000E+00 0. -1.
          2    1    1    2  501    0 -0.15722742667E+02 -0.13249202086E+02  0.47496905382E+02  0.51756178508E+02  0.00000000000E+00 0.  1.
         21    1    1    2  503  501  0.15722742667E+02  0.13249202086E+02 -0.18488051812E+02  0.27650570567E+02  0.00000000000E+00 0. -1.
</event>
<event>
 4    1  0.2243475E+005  0.2432750E+02  0.7546771E-02  0.1476469E+00
          2   -1    0    0  503    0  0.00000000000E+00  0.00000000000E+00  0.25563292569E+02  0.25563292569E+02  0.00000000000E+00 0. -1.
         21   -1    0    0  501  502 -0.00000000000E+00 -0.00000000000E+00 -0.61536675135E+02  0.61536675135E+02  0.00000000000E+00 0. -1.
          2    1    1    2  501    0  0.22276872317E+00  0.24326477033E+02  0.16408923021E+02  0.29344162374E+02  0.00000000000E+00 0. -1.
         21    1    1    2  503  502 -0.22276872317E+00 -0.24326477033E+02 -0.52382305586E+02  0.57755805330E+02  0.00000000000E+00 0. -1.
</event>
<event>
 4    1  0.2243475E+005  0.2140389E+02  0.7546771E-02  0.1513576E+00
          2   -1    0    0  503    0  0.00000000000E+00  0.00000000000E+00  0.49173620098E+03  0.49173620098E+03  0.00000000000E+00 0. -1.
         21   -1    0    0  501  502 -0.00000000000E+00 -0.00000000000E+00 -0.88861266992E+01  0.88861266992E+01  0.00000000000E+00 0.  1.
          2    1    1    2  501    0 -0.56227015788E+01  0.20652160073E+02  0.47825123932E+03  0.47872995979E+03  0.00000000000E+00 0. -1.
         21    1    1    2  503  502  0.56227015788E+01 -0.20652160073E+02  0.45988349583E+01  0.21892367887E+02  0.00000000000E+00 0.  1.
</event>
<event>
 4    1  0.2243475E+005  0.5824338E+02  0.7546771E-02  0.1265921E+00
          2   -1    0    0  502    0  0.00000000000E+00  0.00000000000E+00  0.12391460846E+04  0.12391460846E+04  0.00000000000E+00 0.  1.
         21   -1    0    0  503  502 -0.00000000000E+00 -0.00000000000E+00 -0.17858549360E+02  0.17858549360E+02  0.00000000000E+00 0. -1.
          2    1    1    2  501    0 -0.55480584693E+02 -0.17725580521E+02  0.11889704947E+04  0.11903962066E+04  0.00000000000E+00 0.  1.
         21    1    1    2  503  501  0.55480584693E+02  0.17725580521E+02  0.32317040543E+02  0.66608427336E+02  0.00000000000E+00 0. -1.
</event>
<event>
 4    1  0.2243475E+005  0.3439042E+02  0.7546771E-02  0.1384900E+00
          2   -1    0    0  503    0  0.00000000000E+00  0.00000000000E+00  0.17384838143E+03  0.17384838143E+03  0.00000000000E+00 0. -1.
         21   -1    0    0  501  502 -0.00000000000E+00 -0.00000000000E+00 -0.11852775487E+02  0.11852775487E+02  0.00000000000E+00 0. -1.
          2    1    1    2  501    0 -0.22891162722E+02  0.25665067322E+02  0.14160274347E+03  0.14571903777E+03  0.00000000000E+00 0. -1.
         21    1    1    2  503  502  0.22891162722E+02 -0.25665067322E+02  0.20392862474E+02  0.39982119145E+02  0.00000000000E+00 0. -1.
</event>
<event>
 4    1  0.2243475E+005  0.2418451E+02  0.7546771E-02  0.1478137E+00
          2   -1    0    0  503    0  0.00000000000E+00  0.00000000000E+00  0.94186624639E+03  0.94186624639E+03  0.00000000000E+00 0.  1.
         21   -1    0    0  501  502 -0.00000000000E+00 -0.00000000000E+00 -0.95647920356E+00  0.95647920356E+00  0.00000000000E+00 0.  1.
          2    1    1    2  501    0  0.20490890629E+02  0.12845769734E+02  0.74964558590E+03  0.75003559573E+03  0.00000000000E+00 0.  1.
         21    1    1    2  503  502 -0.20490890629E+02 -0.12845769734E+02  0.19126418128E+03  0.19278712986E+03  0.00000000000E+00 0.  1.
</event>
<event>
 4    1  0.2243475E+005  0.3641134E+02  0.7546771E-02  0.1370904E+00
          2   -1    0    0  503    0  0.00000000000E+00  0.00000000000E+00  0.13435308151E+03  0.13435308151E+03  0.00000000000E+00 0. -1.
         21   -1    0    0  501  502 -0.00000000000E+00 -0.00000000000E+00 -0.14246196315E+02  0.14246196315E+02  0.00000000000E+00 0. -1.
          2    1    1    2  501    0  0.15314026555E+02  0.33034322964E+02  0.10124314560E+03  0.10759163738E+03  0.00000000000E+00 0. -1.
         21    1    1    2  503  502 -0.15314026555E+02 -0.33034322964E+02  0.18863739585E+02  0.41007640436E+02  0.00000000000E+00 0. -1.
</event>
<event>
 4    1  0.2243475E+005  0.3205901E+02  0.7546771E-02  0.1402509E+00
          2   -1    0    0  502    0  0.00000000000E+00  0.00000000000E+00  0.77032438572E+03  0.77032438572E+03  0.00000000000E+00 0. -1.
         21   -1    0    0  503  502 -0.00000000000E+00 -0.00000000000E+00 -0.81281559357E+01  0.81281559357E+01  0.00000000000E+00 0. -1.
          2    1    1    2  501    0  0.10294298898E+02  0.30361288081E+02  0.73694808212E+03  0.73764507464E+03  0.00000000000E+00 0. -1.
         21    1    1    2  503  501 -0.10294298898E+02 -0.30361288081E+02  0.25248147670E+02  0.40807467019E+02  0.00000000000E+00 0. -1.
</event>
<event>
 4    1  0.2243475E+005  0.2160009E+02  0.7546771E-02  0.1510867E+00
          2   -1    0    0  503    0  0.00000000000E+00  0.00000000000E+00  0.37642716517E+02  0.37642716517E+02  0.00000000000E+00 0. -1.
         21   -1    0    0  501  502 -0.00000000000E+00 -0.00000000000E+00 -0.34057324144E+02  0.34057324144E+02  0.00000000000E+00 0. -1.
          2    1    1    2  501    0  0.66996588876E+01  0.20534806201E+02  0.30384490025E+02  0.37279765678E+02  0.00000000000E+00 0. -1.
         21    1    1    2  503  502 -0.66996588876E+01 -0.20534806201E+02 -0.26799097652E+02  0.34420274983E+02  0.00000000000E+00 0. -1.
</event>
<event>
 4    1  0.2243475E+005  0.4295907E+02  0.7546771E-02  0.1331967E+00
          2   -1    0    0  502    0  0.00000000000E+00  0.00000000000E+00  0.79051824241E+03  0.79051824241E+03  0.00000000000E+00 0.  1.
         21   -1    0    0  503  502 -0.00000000000E+00 -0.00000000000E+00 -0.75378737032E+01  0.75378737032E+01  0.00000000000E+00 0. -1.
          2    1    1    2  501    0 -0.39348061677E+02  0.17239841724E+02  0.72301848220E+03  0.72429359220E+03  0.00000000000E+00 0.  1.
         21    1    1    2  503  501  0.39348061677E+02 -0.17239841724E+02  0.59961886503E+02  0.73762523909E+02  0.00000000000E+00 0. -1.
</event>
<event>
 4    1  0.2243475E+005  0.2111066E+02  0.7546771E-02  0.1517691E+00
          2   -1    0    0  502    0  0.00000000000E+00  0.00000000000E+00  0.18894339200E+03  0.18894339200E+03  0.00000000000E+00 0.  1.
         21   -1    0    0  503  502 -0.00000000000E+00 -0.00000000000E+00 -0.12098114821E+02  0.12098114821E+02  0.00000000000E+00 0.  1.
          2    1    1    2  501    0 -0.18651295998E+02 -0.98888329911E+01  0.17861368469E+03  0.17985691040E+03  0.00000000000E+00 0.  1.
         21    1    1    2  503  501  0.18651295998E+02  0.98888329911E+01 -0.17684075113E+01  0.21184596419E+02  0.00000000000E+00 0.  1.
</event>
<event>
 4    1  0.2243475E+005  0.2800227E+02  0.7546771E-02  0.1437792E+00
          2   -1    0    0  503    0  0.00000000000E+00  0.00000000000E+00  0.55115278767E+02  0.55115278767E+02  0.00000000000E+00 0.  1.
         21   -1    0    0  501  502 -0.00000000000E+00 -0.00000000000E+00 -0.47930147537E+02  0.47930147537E+02  0.00000000000E+00 0.  1.
          2    1    1    2  501    0 -0.12727238292E+02  0.24942821312E+02  0.46797102595E+02  0.54535270614E+02  0.00000000000E+00 0.  1.
         21    1    1    2  503  502  0.12727238292E+02 -0.24942821312E+02 -0.39611971365E+02  0.48510155690E+02  0.00000000000E+00 0.  1.
</event>
<event>
 4    1  0.2243475E+005  0.2225544E+02  0.7546771E-02  0.1502065E+00
          2   -1    0    0  502    0  0.00000000000E+00  0.00000000000E+00  0.30045868515E+03  0.30045868515E+03  0.00000000000E+00 0.  1.
         21   -1    0    0  503  502 -0.00000000000E+00 -0.00000000000E+00 -0.68349810281E+01  0.68349810281E+01  0.00000000000E+00 0. -1.
          2    1    1    2  501    0  0.66223528567E+01  0.21247325825E+02  0.28065359834E+03  0.28153462784E+03  0.00000000000E+00 0.  1.
         21    1    1    2  503  501 -0.66223528567E+01 -0.21247325825E+02  0.12970105781E+02  0.25759038337E+02  0.00000000000E+00 0. -1.
</event>
<event>
 4    1  0.2243475E+005  0.2084740E+02  0.7546771E-02  0.1521455E+00
          2   -1    0    0  503    0  0.00000000000E+00  0.00000000000E+00  0.17509031748E+01  0.17509031748E+01  0.00000000000E+00 0. -1.
         21   -1    0    0  501  502 -0.00000000000E+00 -0.00000000000E+00 -0.44832701775E+03  0.44832701775E+03  0.00000000000E+00 0. -1.
          2    1    1    2  501    0  0.17061655656E+02 -0.11979732639E+02 -0.72943268625E+02  0.75863921106E+02  0.00000000000E+00 0. -1.
         21    1    1    2  503  502 -0.17061655656E+02  0.11979732639E+02 -0.37363284595E+03  0.37421399982E+03  0.00000000000E+00 0. -1.
</event>
<event>
 4    1  0.2243475E+005  0.3282475E+02  0.7546771E-02  0.1396536E+00
          2   -1    0    0  503    0  0.00000000000E+00  0.00000000000E+00  0.93106514826E+02  0.93106514826E+02  0.00000000000E+00 0.  1.
         21   -1    0    0  501  502 -0.00000000000E+00 -0.00000000000E+00 -0.11586367726E+02  0.11586367726E+02  0.00000000000E+00 0.  1.
          2    1    1    2  501    0 -0.29534789321E+02  0.14323428878E+02  0.38941561465E+02  0.50930438879E+02  0.00000000000E+00 0.  1.
         21    1    1    2  503  502  0.29534789321E+02 -0.14323428878E+02  0.42578585635E+02  0.53762443673E+02  0.00000000000E+00 0.  1.
</event>
<event>
 4    1  0.2243475E+005  0.2834470E+02  0.7546771E-02  0.1434549E+00
          2   -1    0    0  503    0  0.00000000000E+00  0.00000000000E+00  0.78990297880E+02  0.78990297880E+02  0.00000000000E+00 0. -1.
         21   -1    0    0  501  502 -0.00000000000E+00 -0.00000000000E+00 -0.19798746632E+02  0.19798746632E+02  0.00000000000E+00 0.  1.
          2    1    1    2  501    0  0.21503844015E+02  0.18466363832E+02  0.64040202264E+02  0.70032631013E+02  0.00000000000E+00 0. -1.
         21    1    1    2  503  502 -0.21503844015E+02 -0.18466363832E+02 -0.48486510163E+01  0.28756413499E+02  0.00000000000E+00 0.  1.
</event>
<event>
 4    1  0.2243475E+005  0.2836671E+02  0.7546771E-02  0.1434342E+00
          2   -1    0    0  502    0  0.00000000000E+00  0.00000000000E+00  0.28607546128E+03  0.28607546128E+03  0.00000000000E+00 0.  1.
         21   -1    0    0  503  502 -0.00000000000E+00 -0.00000000000E+00 -0.29829424450E+02  0.29829424450E+02  0.00000000000E+00 0. -1.
          2    1    1    2  501    0 -0.27615575575E+02  0.64846230146E+01  0.27844397441E+03  0.27988518581E+03  0.00000000000E+00 0.  1.
         21    1    1    2  503  501  0.27615575575E+02 -0.64846230146E+01 -0.22197937577E+02  0.36019699925E+02  0.00000000000E+00 0. -1.
</event>
<event>
 4    1  0.2243475E+005  0.2248237E+02  0.7546771E-02  0.1499102E+00
          2   -1    0    0  503    0  0.00000000000E+00  0.00000000000E+00  0.14083606231E+04  0.14083606231E+04  0.00000000000E+00 0. -1.
         21   -1    0    0  501  502 -0.00000000000E+00 -0.00000000000E+00 -0.94085195856E+01  0.94085195856E+01  0.00000000000E+00 0.  1.
          2    1    1    2  501    0  0.19852758972E+02  0.10551071298E+02  0.13947086040E+04  0.13948897976E+04  0.00000000000E+00 0. -1.
         21    1    1    2  503  502 -0.19852758972E+02 -0.10551071298E+02  0.42434994369E+01  0.22879345092E+02  0.00000000000E+00 0.  1.
</event>
<event>
 4    1  0.2243475E+005  0.2005243E+02  0.7546771E-02  0.1533236E+00
          2   -1    0    0  503    0  0.00000000000E+00  0.00000000000E+00  0.34079968898E+03  0.34079968898E+03  0.00000000000E+00 0.  1.
         21   -1    0    0  501  502 -0.00000000000E+00 -0.00000000000E+00 -0.15626055672E+01  0.15626055672E+01  0.00000000000E+00 0.  1.
          2    1    1    2  501    0  0.34518540014E+01 -0.19753095710E+02  0.25433726452E+03  0.25512652588E+03  0.00000000000E+00 0.  1.
         21    1    1    2  503  502 -0.34518540014E+01  0.19753095710E+02  0.84899818888E+02  0.87235768659E+02  0.00000000000E+00 0.  1.
</event>
<event>
 4    1  0.2243475E+005  0.2265849E+02  0.7546771E-02  0.1496832E+00
          2   -1    0    0  502    0  0.00000000000E+00  0.00000000000E+00  0.13235905702E+04  0.13235905702E+04  0.00000000000E+00 0. -1.
         21   -1    0    0  503  502 -0.00000000000E+00 -0.00000000000E+00 -0.42753981350E+00  0.42753981350E+00  0.00000000000E+00 0. -1.
          2    1    1    2  501    0  0.17423073839E+02 -0.14485989535E+02  0.86318444961E+03  0.86348178987E+03  0.00000000000E+00 0. -1.
         21    1    1    2  503  501 -0.17423073839E+02  0.14485989535E+02  0.45997858076E+03  0.46053632012E+03  0.00000000000E+00 0. -1.
</event>
<event>
 4    1  0.2243475E+005  0.2264101E+02  0.7546771E-02  0.1497056E+00
          2   -1    0    0  502    0  0.00000000000E+00  0.00000000000E+00  0.14779560227E+04  0.14779560227E+04  0.00000000000E+00 0. -1.
         21   -1    0    0  503  502 -0.00000000000E+00 -0.00000000000E+00 -0.80825907815E+01  0.80825907815E+01  0.00000000000E+00 0. -1.
          2    1    1    2  501    0 -0.21377331586E+02 -0.74582325445E+01  0.14618389672E+04  0.14620142891E+04  0.00000000000E+00 0. -1.
         21    1    1    2  503  501  0.21377331586E+02  0.74582325445E+01  0.80344647268E+01  0.24024324380E+02  0.00000000000E+00 0. -1.
</event>
<event>
 4    1  0.2243475E+005  0.2873733E+02  0.7546771E-02  0.1430896E+00
          2   -1    0    0  502    0  0.00000000000E+00  0.00000000000E+00  0.10396477637E+04  0.10396477637E+04  0.00000000000E+00 0.  1.
         21   -1    0    0  503  502 -0.00000000000E+00 -0.00000000000E+00 -0.36707982541E+01  0.36707982541E+01  0.00000000000E+00 0. -1.
          2    1    1    2  501    0 -0.20720644791E+02 -0.19912026400E+02  0.97976911059E+03  0.98019046311E+03  0.00000000000E+00 0.  1.
         21    1    1    2  503  501  0.20720644791E+02  0.19912026400E+02  0.56207854886E+02  0.63128098869E+02  0.00000000000E+00 0. -1.
</event>
<event>
 4    1  0.2243475E+005  0.2125762E+02  0.7546771E-02  0.1515618E+00
          2   -1    0    0  503    0  0.00000000000E+00  0.00000000000E+00  0.23626452270E+03  0.23626452270E+03  0.00000000000E+00 0. -1.
         21   -1    0    0  501  502 -0.00000000000E+00 -0.00000000000E+00 -0.49280664557E+01  0.49280664557E+01  0.00000000000E+00 0. -1.
          2    1    1    2  501    0 -0.20242477458E+02 -0.64906569111E+01  0.21000278310E+03  0.21107594707E+03  0.00000000000E+00 0. -1.
         21    1    1    2  503  502  0.20242477458E+02  0.64906569111E+01  0.21333673141E+02  0.30116642085E+02  0.00000000000E+00 0. -1.
</event>
<event>
 4    1  0.2243475E+005  0.2438641E+02  0.7546771E-02  0.1475786E+00
          2   -1    0    0  502    0  0.00000000000E+00  0.00000000000E+00  0.91902591195E+03  0.91902591195E+03  0.00000000000E+00 0. -1.
         21   -1    0    0  503  502 -0.00000000000E+00 -0.00000000000E+00 -0.12334275882E+03  0.12334275882E+03  0.00000000000E+00 0. -1.
          2    1    1    2  501    0  0.19430013892E+01 -0.24308880543E+02  0.91765696578E+03  0.91798093867E+03  0.00000000000E+00 0. -1.
         21    1    1    2  503  501 -0.19430013892E+01  0.24308880543E+02 -0.12197381264E+03  0.12438773210E+03  0.00000000000E+00 0. -1.
</event>
<event>
 4    1  0.2243475E+005  0.2667983E+02  0.7546771E-02  0.1450851E+00
          2   -1    0    0  502    0  0.00000000000E+00  0.00000000000E+00  0.12372055950E+02  0.12372055950E+02  0.00000000000E+00 0.  1.
         21   -1    0    0  503  502 -0.00000000000E+00 -0.00000000000E+00 -0.92613731593E+02  0.92613731593E+02  0.00000000000E+00 0. -1.
          2    1    1    2  501    0 -0.65899156184E+01 -0.25853165389E+02 -0.78142334324E+01  0.27800636551E+02  0.00000000000E+00 0.  1.
         21    1    1    2  503  501  0.65899156184E+01  0.25853165389E+02 -0.72427442211E+02  0.77185150992E+02  0.00000000000E+00 0. -1.
</event>
<event>
 4    1  0.2243475E+005  0.3422421E+02  0.7546771E-02  0.1386101E+00
          2   -1    0    0  503    0  0.00000000000E+00  0.00000000000E+00  0.90845743894E+03  0.90845743894E+03  0.00000000000E+00 0. -1.
         21   -1    0    0  501  502 -0.00000000000E+00 -0.00000000000E+00 -0.13561291511E+01  0.13561291511E+01  0.00000000000E+00 0. -1.
          2    1    1    2  501    0  0.34043355775E+02  0.35137433909E+01  0.55451664866E+03  0.55557178663E+03  0.00000000000E+00 0. -1.
         21    1    1    2  503  502 -0.34043355775E+02 -0.35137433909E+01  0.35258466114E+03  0.35424178146E+03  0.00000000000E+00 0. -1.
</event>
<event>
 4    1  0.2243475E+005  0.2837047E+02  0.7546771E-02  0.1434307E+00
          2   -1    0    0  503    0  0.00000000000E+00  0.00000000000E+00  0.14831996105E+03  0.14831996105E+03  0.00000000000E+00 0.  1.
         21   -1    0    0  501  502 -0.00000000000E+00 -0.00000000000E+00 -0.95276034326E+01  0.95276034326E+01  0.00000000000E+00 0.  1.
          2    1    1    2  501    0 -0.28368026260E+02  0.37205677230E+00  0.12117563255E+03  0.12445246990E+03  0.00000000000E+00 0.  1.
         21    1    1    2  503  502  0.28368026260E+02 -0.37205677230E+00  0.17616725067E+02  0.33395094583E+02  0.00000000000E+00 0.  1.
</event>
<event>
 4    1  0.2243475E+005  0.2227151E+02  0.7546771E-02  0.1501854E+00
          2   -1    0    0  503    0  0.00000000000E+00  0.00000000000E+00  0.41709081250E+02  0.41709081250E+02  0.00000000000E+00 0. -1.
         21   -1    0    0  501  502 -0.00000000000E+00 -0.00000000000E+00 -0.19952208972E+03  0.19952208972E+03  0.00000000000E+00 0. -1.
          2    1    1    2  501    0  0.91117668617E+01 -0.20322299508E+02  0.38059254612E+02  0.44096791428E+02  0.00000000000E+00 0. -1.
         21    1    1    2  503  502 -0.91117668617E+01  0.20322299508E+02 -0.19587226309E+03  0.19713437955E+03  0.00000000000E+00 0. -1.
</event>
<event>
 4    1  0.2243475E+005  0.2487980E+02  0.7546771E-02  0.1470153E+00
          2   -1    0    0  503    0  0.00000000000E+00  0.00000000000E+00  0.60967077029E+03  0.60967077029E+03  0.00000000000E+00 0. -1.
         21   -1    0    0  501  502 -0.00000000000E+00 -0.00000000000E+00 -0.91722411929E+01  0.91722411929E+01  0.00000000000E+00 0.  1.
          2    1    1    2  501    0  0.18460050364E+02  0.16680253672E+02  0.59204314773E+03  0.59256568673E+03  0.00000000000E+00 0. -1.
         21    1    1    2  503  502 -0.18460050364E+02 -0.16680253672E+02  0.84553813720E+01  0.26277324752E+02  0.00000000000E+00 0.  1.
</event>
<event>
 4    1  0.2243475E+005  0.3126017E+02  0.7546771E-02  0.1408953E+00
          2   -1    0    0  502    0  0.00000000000E+00  0.00000000000E+00  0.17413796321E+04  0.17413796321E+04  0.00000000000E+00 0. -1.
         21   -1    0    0  503  502 -0.00000000000E+00 -0.00000000000E+00 -0.19178453520E+02  0.19178453520E+02  0.00000000000E+00 0. -1.
          2    1    1    2  501    0 -0.22950872138E+02 -0.21223940087E+02  0.17284055012E+04  0.17286881658E+04  0.00000000000E+00 0. -1.
         21    1    1    2  503  501  0.22950872138E+02  0.21223940087E+02 -0.62043226508E+01  0.31869919741E+02  0.00000000000E+00 0. -1.
</event>
<event>
 4    1  0.2243475E+005  0.2117934E+02  0.7546771E-02  0.1516720E+00
          2   -1    0    0  502    0  0.00000000000E+00  0.00000000000E+00  0.99074578948E+02  0.99074578948E+02  0.00000000000E+00 0.  1.
         21   -1    0    0  503  502 -0.00000000000E+00 -0.00000000000E+00 -0.94952885780E+01  0.94952885780E+01  0.00000000000E+00 0. -1.
          2    1    1    2  501    0 -0.17217186779E+02  0.12334218514E+02  0.84054579796E+02  0.86681813846E+02  0.00000000000E+00 0.  1.
         21    1    1    2  503  501  0.17217186779E+02 -0.12334218514E+02  0.55247105734E+01  0.21888053679E+02  0.00000000000E+00 0. -1.
</event>
<event>
 4    1  0.2243475E+005  0.2077483E+02  0.7546771E-02  0.1522504E+00
          2   -1    0    0  503    0  0.00000000000E+00  0.00000000000E+00  0.43724107383E+01  0.43724107383E+01  0.00000000000E+00 0. -1.
         21   -1    0    0  501  502 -0.00000000000E+00 -0.00000000000E+00 -0.10212837609E+03  0.10212837609E+03  0.00000000000E+00 0. -1.
          2    1    1    2  501    0  0.20603859742E+02  0.26598210196E+01 -0.39133452388E+02  0.44305990339E+02  0.00000000000E+00 0. -1.
         21    1    1    2  503  502 -0.20603859742E+02 -0.26598210196E+01 -0.58622512960E+02  0.62194796485E+02  0.00000000000E+00 0. -1.
</event>
<event>
 4    1  0.2243475E+005  0.2285663E+02  0.7546771E-02  0.1494306E+00
          2   -1    0    0  502    0  0.00000000000E+00  0.00000000000E+00  0.78241096365E+02  0.78241096365E+02  0.00000000000E+00 0. -1.
         21   -1    0    0  503  502 -0.00000000000E+00 -0.00000000000E+00 -0.67885721651E+01  0.67885721651E+01  0.00000000000E+00 0. -1.
          2    1    1    2  501    0  0.22304263551E+02 -0.49945402063E+01  0.30278913237E+02  0.37937292883E+02  0.00000000000E+00 0. -1.
         21    1    1    2  503  501 -0.22304263551E+02  0.49945402063E+01  0.41173610963E+02  0.47092375648E+02  0.00000000000E+00 0. -1.
</event>
<event>
 4    1  0.2243475E+005  0.3021600E+02  0.7546771E-02  0.1417728E+00
          2   -1    0    0  503    0  0.00000000000E+00  0.00000000000E+00  0.28724488264E+02  0.28724488264E+02  0.00000000000E+00 0.  1.
         21   -1    0    0  501  502 -0.00000000000E+00 -0.00000000000E+00 -0.23608211062E+03  0.23608211062E+03  0.00000000000E+00 0.  1.
          2    1    1    2  501    0  0.27914961744E+02  0.11565534084E+02  0.19489340552E+02  0.35956099107E+02  0.00000000000E+00 0.  1.
         21    1    1    2  503  502 -0.27914961744E+02 -0.11565534084E+02 -0.22684696291E+03  0.22885049978E+03  0.00000000000E+00 0.  1.
</event>
<event>
 4    1  0.2243475E+005  0.5060848E+02  0.7546771E-02  0.1295556E+00
          2   -1    0    0  503    0  0.00000000000E+00  0.00000000000E+00  0.45739497619E+03  0.45739497619E+03  0.00000000000E+00 0. -1.
         21   -1    0    0  501  502 -0.00000000000E+00 -0.00000000000E+00 -0.61343788682E+01  0.61343788682E+01  0.00000000000E+00 0. -1.
          2    1    1    2  501    0 -0.50110464680E+02  0.70823102804E+01  0.29406225244E+03  0.29838536509E+03  0.00000000000E+00 0. -1.
         21    1    1    2  503  502  0.50110464680E+02 -0.70823102804E+01  0.15719834488E+03  0.16514398997E+03  0.00000000000E+00 0. -1.
</event>
<event>
 4    1  0.2243475E+005  0.2748963E+02  0.7546771E-02  0.1442751E+00
          2   -1    0    0  502    0  0.00000000000E+00  0.00000000000E+00  0.14560467106E+04  0.14560467106E+04  0.00000000000E+00 0.  1.
         21   -1    0    0  503  502 -0.00000000000E+00 -0.00000000000E+00 -0.10978660135E+01  0.10978660135E+01  0.00000000000E+00 0. -1.
          2    1    1    2  501    0 -0.23176505783E+02 -0.14782730676E+02  0.12565153174E+04  0.12568159859E+04  0.00000000000E+00 0.  1.
         21    1    1    2  503  501  0.23176505783E+02  0.14782730676E+02  0.19843352716E+03  0.20032859069E+03  0.00000000000E+00 0. -1.
</event>
<event>
 4    1  0.2243475E+005  0.2741145E+02  0.7546771E-02  0.1443518E+00
          2   -1    0    0  502    0  0.00000000000E+00  0.00000000000E+00  0.10751220767E+04  0.10751220767E+04  0.00000000000E+00 0.  1.
         21   -1    0    0  503  502 -0.00000000000E+00 -0.00000000000E+00 -0.56199702892E+01  0.56199702892E+01  0.00000000000E+00 0. -1.
          2    1    1    2  501    0 -0.26049872934E+02 -0.85318130458E+01  0.10404073816E+04  0.10407684216E+04  0.00000000000E+00 0.  1.
         21    1    1    2  503  501  0.26049872934E+02  0.85318130458E+01  0.29094724759E+02  0.39973625337E+02  0.00000000000E+00 0. -1.
</event>
<event>
 4    1  0.2243475E+005  0.2062025E+02  0.7546771E-02  0.1524756E+00
          2   -1    0    0  502    0  0.00000000000E+00  0.00000000000E+00  0.11401426291E+04  0.11401426291E+04  0.00000000000E+00 0.  1.
         21   -1    0    0  503  502 -0.00000000000E+00 -0.00000000000E+00 -0.16859491198E+01  0.16859491198E+01  0.00000000000E+00 0.  1.
          2    1    1    2  501    0 -0.18237634519E+02 -0.96220249296E+01  0.10730583353E+04  0.10732564399E+04  0.00000000000E+00 0.  1.
         21    1    1    2  503  501  0.18237634519E+02  0.96220249296E+01  0.65398344671E+02  0.68572138382E+02  0.00000000000E+00 0.  1.
</event>
<event>
 4    1  0.2243475E+005  0.3198314E+02  0.7546771E-02  0.1403111E+00
          2   -1    0    0  502    0  0.00000000000E+00  0.00000000000E+00  0.14340432168E+03  0.14340432168E+03  0.00000000000E+00 0. -1.
         21   -1    0    0  503  502 -0.00000000000E+00 -0.00000000000E+00 -0.16187832473E+02  0.16187832473E+02  0.00000000000E+00 0.  1.
          2    1    1    2  501    0 -0.24103063265E+02  0.21022922822E+02  0.12328763856E+03  0.12736860981E+03  0.00000000000E+00 0. -1.
         21    1    1    2  503  501  0.24103063265E+02 -0.21022922822E+02  0.39288506464E+01  0.32223544345E+02  0.00000000000E+00 0.  1.
</event>
<event>
 4    1  0.2243475E+005  0.2194922E+02  0.7546771E-02  0.1506132E+00
          2   -1    0    0  503    0  0.00000000000E+00  0.00000000000E+00  0.12259805680E+04  0.12259805680E+04  0.00000000000E+00 0.  1.
         21   -1    0    0  501  502 -0.00000000000E+00 -0.00000000000E+00 -0.37379944922E+01  0.37379944922E+01  0.00000000000E+00 0. -1.
          2    1    1    2  501    0 -0.21811624650E+02  0.24538178653E+01  0.11927640661E+04  0.11929660035E+04  0.00000000000E+00 0.  1.
         21    1    1    2  503  502  0.21811624650E+02 -0.24538178653E+01  0.29478507441E+02  0.36752558998E+02  0.00000000000E+00 0. -1.
</event>
<event>
 4    1  0.2243475E+005  0.3251825E+02  0.7546771E-02  0.1398904E+00
          2   -1    0    0  503    0  0.00000000000E+00  0.00000000000E+00  0.10905154465E+04  0.10905154465E+04  0.00000000000E+00 0.  1.
         21   -1    0    0  501  502 -0.00000000000E+00 -0.00000000000E+00 -0.19794737640E+01  0.19794737640E+01  0.00000000000E+00 0.  1.
          2    1    1    2  501    0  0.22548587286E+01  0.32439982122E+02  0.93441985922E+03  0.93498551333E+03  0.00000000000E+00 0.  1.
         21    1    1    2  503  502 -0.22548587286E+01 -0.32439982122E+02  0.15411611349E+03  0.15750940691E+03  0.00000000000E+00 0.  1.
</event>
<event>
 4    1  0.2243475E+005  0.2083654E+02  0.7546771E-02  0.1521611E+00
          2   -1    0    0  503    0  0.00000000000E+00  0.00000000000E+00  0.11316681538E+04  0.11316681538E+04  0.00000000000E+00 0.  1.
         21   -1    0    0  501  502 -0.00000000000E+00 -0.00000000000E+00 -0.22598478053E+01  0.22598478053E+01  0.00000000000E+00 0. -1.
          2    1    1    2  501    0 -0.13943678517E+02 -0.15483390553E+02  0.10813054598E+04  0.10815061992E+04  0.00000000000E+00 0.  1.
         21    1    1    2  503  502  0.13943678517E+02  0.15483390553E+02  0.48102846203E+02  0.52421802396E+02  0.00000000000E+00 0. -1.
</event>
<event>
 4    1  0.2243475E+005  0.5561741E+02  0.7546771E-02  0.1275497E+00
          2   -1    0    0  502    0  0.00000000000E+00  0.00000000000E+00  0.11762062922E+04  0.11762062922E+04  0.00000000000E+00 0.  1.
         21   -1    0    0  503  502 -0.00000000000E+00 -0.00000000000E+00 -0.46777669811E+01  0.46777669811E+01  0.00000000000E+00 0. -1.
          2    1    1    2  501    0 -0.43609950387E+02  0.34517647714E+02  0.97643390878E+03  0.97801660211E+03  0.00000000000E+00 0.  1.
         21    1    1    2  503  501  0.43609950387E+02 -0.34517647714E+02  0.19509461639E+03  0.20286745703E+03  0.00000000000E+00 0. -1.
</event>
<event>
 4    1  0.2243475E+005  0.4105588E+02  0.7546771E-02  0.1342407E+00
          2   -1    0    0  502    0  0.00000000000E+00  0.00000000000E+00  0.77344275300E+03  0.77344275300E+03  0.00000000000E+00 0. -1.
         21   -1    0    0  503  502 -0.00000000000E+00 -0.00000000000E+00 -0.57750336717E+01  0.57750336717E+01  0.00000000000E+00 0. -1.
          2    1    1    2  501    0 -0.20826413656E+02  0.35381437988E+02  0.69126202429E+03  0.69248015992E+03  0.00000000000E+00 0. -1.
         21    1    1    2  503  501  0.20826413656E+02 -0.35381437988E+02  0.76405695036E+02  0.86737626748E+02  0.00000000000E+00 0. -1.
</event>
<event>
 4    1  0.2243475E+005  0.3278660E+02  0.7546771E-02  0.1396829E+00
          2   -1    0    0  503    0  0.00000000000E+00  0.00000000000E+00  0.52855413661E+03  0.52855413661E+03  0.00000000000E+00 0. -1.
         21   -1    0    0  501  502 -0.00000000000E+00 -0.00000000000E+00 -0.13714012199E+02  0.13714012199E+02  0.00000000000E+00 0.  1.
          2    1    1    2  501    0  0.29231869387E+02 -0.14847865282E+02  0.50764329291E+03  0.50870096730E+03  0.00000000000E+00 0. -1.
         21    1    1    2  503  502 -0.29231869387E+02  0.14847865282E+02  0.71968315046E+01  0.33567181517E+02  0.00000000000E+00 0.  1.
</event>
<event>
 4    1  0.2243475E+005  0.3042839E+02  0.7546771E-02  0.1415910E+00
          2   -1    0    0  503    0  0.00000000000E+00  0.00000000000E+00  0.55030597726E+03  0.55030597726E+03  0.00000000000E+00 0.  1.
         21   -1    0    0  501  502 -0.00000000000E+00 -0.00000000000E+00 -0.56910016806E+02  0.56910016806E+02  0.00000000000E+00 0.  1.
          2    1    1    2  501    0 -0.25080454921E+02  0.17229554262E+02  0.54578435574E+03  0.54663191430E+03  0.00000000000E+00 0.  1.
         21    1    1    2  503  502  0.25080454921E+02 -0.17229554262E+02 -0.52388395292E+02  0.60584079761E+02  0.00000000000E+00 0.  1.
</event>
<event>
 4    1  0.2243475E+005  0.2073915E+02  0.7546771E-02  0.1523022E+00
          2   -1    0    0  502    0  0.00000000000E+00  0.00000000000E+00  0.14726381550E+04  0.14726381550E+04  0.00000000000E+00 0.  1.
         21   -1    0    0  503  502 -0.00000000000E+00 -0.00000000000E+00 -0.28372423729E+01  0.28372423729E+01  0.00000000000E+00 0.  1.
          2    1    1    2  501    0 -0.11952795505E+02  0.16948246427E+02  0.14336353295E+04  0.14337853293E+04  0.00000000000E+00 0.  1.
         21    1    1    2  503  501  0.11952795505E+02 -0.16948246427E+02  0.36165583129E+02  0.41690068127E+02  0.00000000000E+00 0.  1.
</event>
<event>
 4    1  0.2243475E+005  0.2381026E+02  0.7546771E-02  0.1482567E+00
          2   -1    0    0  502    0  0.00000000000E+00  0.00000000000E+00  0.92408132765E+03  0.92408132765E+03  0.00000000000E+00 0.  1.
         21   -1    0    0  503  502 -0.00000000000E+00 -0.00000000000E+00 -0.52745491525E+01  0.52745491525E+01  0.00000000000E+00 0. -1.
          2    1    1    2  501    0  0.18718131103E+02 -0.14715978207E+02  0.89622185977E+03  0.89653809198E+03  0.00000000000E+00 0.  1.
         21    1    1    2  503  501 -0.18718131103E+02  0.14715978207E+02  0.22584918730E+02  0.32817784822E+02  0.00000000000E+00 0. -1.
</event>
<event>
 4    1  0.2243475E+005  0.3913801E+02  0.7546771E-02  0.1353612E+00
          2   -1    0    0  503    0  0.00000000000E+00  0.00000000000E+00  0.76277060627E+03  0.76277060627E+03  0.00000000000E+00 0. -1.
         21   -1    0    0  501  502 -0.00000000000E+00 -0.00000000000E+00 -0.21370698338E+01  0.21370698338E+01  0.00000000000E+00 0. -1.
          2    1    1    2  501    0 -0.32010820818E+02 -0.22518690583E+02  0.47423966766E+03  0.47585191653E+03  0.00000000000E+00 0. -1.
         21    1    1    2  503  502  0.32010820818E+02  0.22518690583E+02  0.28639386878E+03  0.28905575958E+03  0.00000000000E+00 0. -1.
</event>
<event>
 4    1  0.2243475E+005  0.2051598E+02  0.7546771E-02  0.1526289E+00
          2   -1    0    0  503    0  0.00000000000E+00  0.00000000000E+00  0.16685320104E+02  0.16685320104E+02  0.00000000000E+00 0. -1.
         21   -1    0    0  501  502 -0.00000000000E+00 -0.00000000000E+00 -0.35918872640E+02  0.35918872640E+02  0.00000000000E+00 0. -1.
          2    1    1    2  501    0  0.20506876416E+02  0.61096194861E+00  0.47339719806E+01  0.21055064605E+02  0.00000000000E+00 0. -1.
         21    1    1    2  503  502 -0.20506876416E+02 -0.61096194861E+00 -0.23967524516E+02  0.31549128138E+02  0.00000000000E+00 0. -1.
</event>
<event>
 4    1  0.2468888E+005  0.2635803E+02  0.7546771E-02  0.1454166E+00
          2   -1    0    0  503    0  0.00000000000E+00  0.00000000000E+00  0.12827136034E+04  0.12827136034E+04  0.00000000000E+00 0.  1.
         21   -1    0    0  501  502 -0.00000000000E+00 -0.00000000000E+00 -0.21906494028E+03  0.21906494028E+03  0.00000000000E+00 0.  1.
          2    1    1    2  501    0 -0.26324072886E+02  0.13376029796E+01  0.12817847695E+04  0.12820557481E+04  0.00000000000E+00 0.  1.
         21    1    1    2  503  502  0.26324072886E+02 -0.13376029796E+01 -0.21813610636E+03  0.21972279557E+03  0.00000000000E+00 0.  1.
</event>
<event>
 4    1  0.2243475E+005  0.4046187E+02  0.7546771E-02  0.1345800E+00
          2   -1    0    0  502    0  0.00000000000E+00  0.00000000000E+00  0.17309863789E+04  0.17309863789E+04  0.00000000000E+00 0. -1.
         21   -1    0    0  503  502 -0.00000000000E+00 -0.00000000000E+00 -0.11596735539E+01  0.11596735539E+01  0.00000000000E+00 0. -1.
          2    1    1    2  501    0  0.97960081724E+01  0.39258137276E+02  0.12368486600E+04  0.12375103114E+04  0.00000000000E+00 0. -1.
         21    1    1    2  503  501 -0.97960081724E+01 -0.39258137276E+02  0.49297804540E+03  0.49463574109E+03  0.00000000000E+00 0. -1.
</event>
<event>
 4    1  0.2243475E+005  0.2241080E+02  0.7546771E-02  0.1500032E+00
          2   -1    0    0  502    0  0.00000000000E+00  0.00000000000E+00  0.11047446124E+04  0.11047446124E+04  0.00000000000E+00 0. -1.
         21   -1    0    0  503  502 -0.00000000000E+00 -0.00000000000E+00 -0.38884879283E+02  0.38884879283E+02  0.00000000000E+00 0.  1.
          2    1    1    2  501    0 -0.43778764957E+01 -0.21979039973E+02  0.11013920840E+04  0.11016200646E+04  0.00000000000E+00 0. -1.
         21    1    1    2  503  501  0.43778764957E+01  0.21979039973E+02 -0.35532350916E+02  0.42009427065E+02  0.00000000000E+00 0.  1.
</event>
<event>
 4    1  0.2243475E+005  0.2365378E+02  0.7546771E-02  0.1484448E+00
          2   -1    0    0  503    0  0.00000000000E+00  0.00000000000E+00  0.70134350494E+03  0.70134350494E+03  0.00000000000E+00 0. -1.
         21   -1    0    0  501  502 -0.00000000000E+00 -0.00000000000E+00 -0.38589880717E+01  0.38589880717E+01  0.00000000000E+00 0. -1.
          2    1    1    2  501    0  0.13737337997E+02 -0.19255824614E+02  0.66278967669E+03  0.66321162291E+03  0.00000000000E+00 0. -1.
         21    1    1    2  503  502 -0.13737337997E+02  0.19255824614E+02  0.34694840178E+02  0.41990870101E+02  0.00000000000E+00 0. -1.
</event>
<event>
 4    1  0.2243475E+005  0.2089345E+02  0.7546771E-02  0.1520792E+00
          2   -1    0    0  503    0  0.00000000000E+00  0.00000000000E+00  0.43588784572E+03  0.43588784572E+03  0.00000000000E+00 0.  1.
         21   -1    0    0  501  502 -0.00000000000E+00 -0.00000000000E+00 -0.27098803207E+01  0.27098803207E+01  0.00000000000E+00 0.  1.
          2    1    1    2  501    0  0.16258417585E+02  0.13122499276E+02  0.39071161432E+03  0.39126985789E+03  0.00000000000E+00 0.  1.
         21    1    1    2  503  502 -0.16258417585E+02 -0.13122499276E+02  0.42466351083E+02  0.47327868154E+02  0.00000000000E+00 0.  1.
</event>
<event>
 4    1  0.2243475E+005  0.2192902E+02  0.7546771E-02  0.1506403E+00
          2   -1    0    0  502    0  0.00000000000E+00  0.00000000000E+00  0.78864781287E+01  0.78864781287E+01  0.00000000000E+00 0. -1.
         21   -1    0    0  503  502 -0.00000000000E+00 -0.00000000000E+00 -0.13503018569E+03  0.13503018569E+03  0.00000000000E+00 0. -1.
          2    1    1    2  501    0 -0.17382058804E+02  0.13369589879E+02 -0.10652597759E+02  0.24379494269E+02  0.00000000000E+00 0. -1.
         21    1    1    2  503  501  0.17382058804E+02 -0.13369589879E+02 -0.11649110980E+03  0.11853716955E+03  0.00000000000E+00 0. -1.
</event>
<event>
 4    1  0.2243475E+005  0.2440131E+02  0.7546771E-02  0.1475614E+00
          2   -1    0    0  502    0  0.00000000000E+00  0.00000000000E+00  0.84109256343E+03  0.84109256343E+03  0.00000000000E+00 0. -1.
         21   -1    0    0  503  502 -0.00000000000E+00 -0.00000000000E+00 -0.75705957198E+01  0.75705957198E+01  0.00000000000E+00 0.  1.
          2    1    1    2  501    0 -0.18705315505E+02  0.15669563523E+02  0.82076636353E+03  0.82112900786E+03  0.00000000000E+00 0. -1.
         21    1    1    2  503  501  0.18705315505E+02 -0.15669563523E+02  0.12755604180E+02  0.27534151288E+02  0.00000000000E+00 0.  1.
</event>
<event>
 4    1  0.2243475E+005  0.2259401E+02  0.7546771E-02  0.1497660E+00
          2   -1    0    0  502    0  0.00000000000E+00  0.00000000000E+00  0.56780363603E+03  0.56780363603E+03  0.00000000000E+00 0. -1.
         21   -1    0    0  503  502 -0.00000000000E+00 -0.00000000000E+00 -0.93325939109E+00  0.93325939109E+00  0.00000000000E+00 0. -1.
          2    1    1    2  501    0 -0.33600537629E+01 -0.22342768938E+02  0.33787194307E+03  0.33862654827E+03  0.00000000000E+00 0. -1.
         21    1    1    2  503  501  0.33600537629E+01  0.22342768938E+02  0.22899843358E+03  0.23011034715E+03  0.00000000000E+00 0. -1.
</event>
<event>
 4    1  0.2243475E+005  0.3887829E+02  0.7546771E-02  0.1355187E+00
          2   -1    0    0  503    0  0.00000000000E+00  0.00000000000E+00  0.27479753059E+03  0.27479753059E+03  0.00000000000E+00 0. -1.
         21   -1    0    0  501  502 -0.00000000000E+00 -0.00000000000E+00 -0.55075018339E+01  0.55075018339E+01  0.00000000000E+00 0. -1.
          2    1    1    2  501    0 -0.13136424001E+02  0.36591740455E+02  0.12964426231E+03  0.13534827614E+03  0.00000000000E+00 0. -1.
         21    1    1    2  503  502  0.13136424001E+02 -0.36591740455E+02  0.13964576645E+03  0.14495675629E+03  0.00000000000E+00 0. -1.
</event>
<event>
 4    1  0.2243475E+005  0.4403403E+02  0.7546771E-02  0.1326341E+00
          2   -1    0    0  503    0  0.00000000000E+00  0.00000000000E+00  0.82850655970E+03  0.82850655970E+03  0.00000000000E+00 0. -1.
         21   -1    0    0  501  502 -0.00000000000E+00 -0.00000000000E+00 -0.15594456901E+02  0.15594456901E+02  0.00000000000E+00 0. -1.
          2    1    1    2  501    0  0.30190267242E+02  0.32055323540E+02  0.79555004042E+03  0.79676775965E+03  0.00000000000E+00 0. -1.
         21    1    1    2  503  502 -0.30190267242E+02 -0.32055323540E+02  0.17362062375E+02  0.47333256948E+02  0.00000000000E+00 0. -1.
</event>
<event>
 4    1  0.2243475E+005  0.2048735E+02  0.7546771E-02  0.1526712E+00
          2   -1    0    0  503    0  0.00000000000E+00  0.00000000000E+00  0.73479731383E+03  0.73479731383E+03  0.00000000000E+00 0.  1.
         21   -1    0    0  501  502 -0.00000000000E+00 -0.00000000000E+00 -0.12950853335E+01  0.12950853335E+01  0.00000000000E+00 0. -1.
          2    1    1    2  501    0 -0.17768241985E+02  0.10199069331E+02  0.64190891096E+03  0.64223576777E+03  0.00000000000E+00 0.  1.
         21    1    1    2  503  502  0.17768241985E+02 -0.10199069331E+02  0.91593317540E+02  0.93856631393E+02  0.00000000000E+00 0. -1.
</event>
<event>
 4    1  0.2243475E+005  0.2698208E+02  0.7546771E-02  0.1447788E+00
          2   -1    0    0  503    0  0.00000000000E+00  0.00000000000E+00  0.47060759046E+03  0.47060759046E+03  0.00000000000E+00 0.  1.
         21   -1    0    0  501  502 -0.00000000000E+00 -0.00000000000E+00 -0.29081047550E+01  0.29081047550E+01  0.00000000000E+00 0. -1.
          2    1    1    2  501    0 -0.13747182700E+02  0.23217400022E+02  0.39582333059E+03  0.39674190821E+03  0.00000000000E+00 0.  1.
         21    1    1    2  503  502  0.13747182700E+02 -0.23217400022E+02  0.71876155116E+02  0.76773786999E+02  0.00000000000E+00 0. -1.
</event>
<event>
 4    1  0.2243475E+005  0.2025327E+02  0.7546771E-02  0.1530199E+00
          2   -1    0    0  502    0  0.00000000000E+00  0.00000000000E+00  0.12935970994E+03  0.12935970994E+03  0.00000000000E+00 0. -1.
         21   -1    0    0  503  502 -0.00000000000E+00 -0.00000000000E+00 -0.58346583537E+01  0.58346583537E+01  0.00000000000E+00 0.  1.
          2    1    1    2  501    0 -0.16519035238E+01 -0.20185792884E+02  0.10743589628E+03  0.10932825266E+03  0.00000000000E+00 0. -1.
         21    1    1    2  503  501  0.16519035238E+01  0.20185792884E+02  0.16089155304E+02  0.25866115634E+02  0.00000000000E+00 0.  1.
</event>
<event>
 4    1  0.2243475E+005  0.2515862E+02  0.7546771E-02  0.1467037E+00
          2   -1    0    0  502    0  0.00000000000E+00  0.00000000000E+00  0.24227393898E+03  0.24227393898E+03  0.00000000000E+00 0.  1.
         21   -1    0    0  503  502 -0.00000000000E+00 -0.00000000000E+00 -0.80316449119E+02  0.80316449119E+02  0.00000000000E+00 0. -1.
          2    1    1    2  501    0 -0.31361272310E+01 -0.24962393716E+02  0.23962891493E+03  0.24094599657E+03  0.00000000000E+00 0.  1.
         21    1    1    2  503  501  0.31361272310E+01  0.24962393716E+02 -0.77671425074E+02  0.81644391522E+02  0.00000000000E+00 0. -1.
</event>
<event>
 4    1  0.2243475E+005  0.5023748E+02  0.7546771E-02  0.1297146E+00
          2   -1    0    0  502    0  0.00000000000E+00  0.00000000000E+00  0.79475944830E+02  0.79475944830E+02  0.00000000000E+00 0.  1.
         21   -1    0    0  503  502 -0.00000000000E+00 -0.00000000000E+00 -0.13482559062E+03  0.13482559062E+03  0.00000000000E+00 0.  1.
          2    1    1    2  501    0  0.50166647700E+02  0.26667542916E+01  0.66011306746E+02  0.82953581829E+02  0.00000000000E+00 0.  1.
         21    1    1    2  503  501 -0.50166647700E+02 -0.26667542916E+01 -0.12136095254E+03  0.13134795362E+03  0.00000000000E+00 0.  1.
</event>
<event>
 4    1  0.2243475E+005  0.3410570E+02  0.7546771E-02  0.1386962E+00
          2   -1    0    0  502    0  0.00000000000E+00  0.00000000000E+00  0.47139330086E+03  0.47139330086E+03  0.00000000000E+00 0. -1.
         21   -1    0    0  503  502 -0.00000000000E+00 -0.00000000000E+00 -0.49790877273E+02  0.49790877273E+02  0.00000000000E+00 0.  1.
          2    1    1    2  501    0 -0.23246391848E+02  0.24956045744E+02  0.46485393442E+03  0.46610339979E+03  0.00000000000E+00 0. -1.
         21    1    1    2  503  501  0.23246391848E+02 -0.24956045744E+02 -0.43251510833E+02  0.55080778339E+02  0.00000000000E+00 0.  1.
</event>
<event>
 4    1  0.2243475E+005  0.2688010E+02  0.7546771E-02  0.1448816E+00
          2   -1    0    0  503    0  0.00000000000E+00  0.00000000000E+00  0.94788309827E+03  0.94788309827E+03  0.00000000000E+00 0. -1.
         21   -1    0    0  501  502 -0.00000000000E+00 -0.00000000000E+00 -0.13563939217E+01  0.13563939217E+01  0.00000000000E+00 0.  1.
          2    1    1    2  501    0  0.21920136014E+02 -0.15557870678E+02  0.78738120342E+03  0.78783989439E+03  0.00000000000E+00 0. -1.
         21    1    1    2  503  502 -0.21920136014E+02  0.15557870678E+02  0.15914550093E+03  0.16139959780E+03  0.00000000000E+00 0.  1.
</event>
<event>
 4    1  0.2243475E+005  0.3355300E+02  0.7546771E-02  0.1391032E+00
          2   -1    0    0  502    0  0.00000000000E+00  0.00000000000E+00  0.12441271483E+03  0.12441271483E+03  0.00000000000E+00 0. -1.
         21   -1    0    0  503  502 -0.00000000000E+00 -0.00000000000E+00 -0.17475183071E+02  0.17475183071E+02  0.00000000000E+00 0. -1.
          2    1    1    2  501    0  0.27141802856E+02 -0.19726290430E+02  0.10273181816E+03  0.10807233901E+03  0.00000000000E+00 0. -1.
         21    1    1    2  503  501 -0.27141802856E+02  0.19726290430E+02  0.42057136006E+01  0.33815558894E+02  0.00000000000E+00 0. -1.
</event>
<event>
 4    1  0.2243475E+005  0.3557688E+02  0.7546771E-02  0.1376552E+00
          2   -1    0    0  503    0  0.00000000000E+00  0.00000000000E+00  0.51110400308E+02  0.51110400308E+02  0.00000000000E+00 0. -1.
         21   -1    0    0  501  502 -0.00000000000E+00 -0.00000000000E+00 -0.36456650725E+02  0.36456650725E+02  0.00000000000E+00 0.  1.
          2    1    1    2  501    0  0.17439944923E+02  0.31009078463E+02  0.32122369364E+02  0.47932882655E+02  0.00000000000E+00 0. -1.
         21    1    1    2  503  502 -0.17439944923E+02 -0.31009078463E+02 -0.17468619781E+02  0.39634168379E+02  0.00000000000E+00 0.  1.
</event>
<event>
 4    1  0.2243475E+005  0.2493406E+02  0.7546771E-02  0.1469542E+00
          2   -1    0    0  503    0  0.00000000000E+00  0.00000000000E+00  0.41807753118E+03  0.41807753118E+03  0.00000000000E+00 0. -1.
         21   -1    0    0  501  502 -0.00000000000E+00 -0.00000000000E+00 -0.13241073287E+02  0.13241073287E+02  0.00000000000E+00 0. -1.
          2    1    1    2  501    0  0.15738920362E+02 -0.19338921968E+02  0.40560696987E+03  0.40637263875E+03  0.00000000000E+00 0. -1.
         21    1    1    2  503  502 -0.15738920362E+02  0.19338921968E+02 -0.77051197391E+00  0.24945965721E+02  0.00000000000E+00 0. -1.
</event>
<event>
 4    1  0.2243475E+005  0.3138895E+02  0.7546771E-02  0.1407899E+00
          2   -1    0    0  502    0  0.00000000000E+00  0.00000000000E+00  0.15644135543E+04  0.15644135543E+04  0.00000000000E+00 0.  1.
         21   -1    0    0  503  502 -0.00000000000E+00 -0.00000000000E+00 -0.10249047063E+02  0.10249047063E+02  0.00000000000E+00 0.  1.
          2    1    1    2  501    0 -0.23519255031E+02  0.20787270184E+02  0.15398394923E+04  0.15401593840E+04  0.00000000000E+00 0.  1.
         21    1    1    2  503  501  0.23519255031E+02 -0.20787270184E+02  0.14325014959E+02  0.34503217423E+02  0.00000000000E+00 0.  1.
</event>
<event>
 4    1  0.2243475E+005  0.3942460E+02  0.7546771E-02  0.1351891E+00
          2   -1    0    0  503    0  0.00000000000E+00  0.00000000000E+00  0.93270753176E+03  0.93270753176E+03  0.00000000000E+00 0.  1.
         21   -1    0    0  501  502 -0.00000000000E+00 -0.00000000000E+00 -0.32179392396E+01  0.32179392396E+01  0.00000000000E+00 0.  1.
          2    1    1    2  501    0 -0.14776193052E+02 -0.36550832680E+02  0.78968123633E+03  0.79066475466E+03  0.00000000000E+00 0.  1.
         21    1    1    2  503  502  0.14776193052E+02  0.36550832680E+02  0.13980835619E+03  0.14526071634E+03  0.00000000000E+00 0.  1.
</event>
<event>
 4    1  0.2243475E+005  0.2482076E+02  0.7546771E-02  0.1470819E+00
          2   -1    0    0  503    0  0.00000000000E+00  0.00000000000E+00  0.15448593603E+03  0.15448593603E+03  0.00000000000E+00 0. -1.
         21   -1    0    0  501  502 -0.00000000000E+00 -0.00000000000E+00 -0.78011615147E+02  0.78011615147E+02  0.00000000000E+00 0.  1.
          2    1    1    2  501    0  0.87869797423E+01 -0.23213342610E+02  0.15147570291E+03  0.15349579428E+03  0.00000000000E+00 0. -1.
         21    1    1    2  503  502 -0.87869797423E+01  0.23213342610E+02 -0.75001382025E+02  0.79001756903E+02  0.00000000000E+00 0.  1.
</event>
<event>
 4    1  0.2243475E+005  0.2563002E+02  0.7546771E-02  0.1461877E+00
          2   -1    0    0  502    0  0.00000000000E+00  0.00000000000E+00  0.94943656048E+03  0.94943656048E+03  0.00000000000E+00 0.  1.
         21   -1    0    0  503  502 -0.00000000000E+00 -0.00000000000E+00 -0.18809401557E+02  0.18809401557E+02  0.00000000000E+00 0.  1.
          2    1    1    2  501    0  0.25573589218E+02  0.16998330548E+01  0.94044919004E+03  0.94079837210E+03  0.00000000000E+00 0.  1.
         21    1    1    2  503  501 -0.25573589218E+02 -0.16998330548E+01 -0.98220311199E+01  0.27447589935E+02  0.00000000000E+00 0.  1.
</event>
<event>
 4    1  0.2243475E+005  0.2019583E+02  0.7546771E-02  0.1531063E+00
          2   -1    0    0  503    0  0.00000000000E+00  0.00000000000E+00  0.16987286860E+04  0.16987286860E+04  0.00000000000E+00 0. -1.
         21   -1    0    0  501  502 -0.00000000000E+00 -0.00000000000E+00 -0.29832535466E+00  0.29832535466E+00  0.00000000000E+00 0. -1.
          2    1    1    2  501    0 -0.30003760424E+00 -0.20193600156E+02  0.12245047129E+04  0.12246712471E+04  0.00000000000E+00 0. -1.
         21    1    1    2  503  502  0.30003760424E+00  0.20193600156E+02  0.47392564769E+03  0.47435576422E+03  0.00000000000E+00 0. -1.
</event>
<event>
 4    1  0.2243475E+005  0.2121407E+02  0.7546771E-02  0.1516230E+00
          2   -1    0    0  503    0  0.00000000000E+00  0.00000000000E+00  0.31780598519E+02  0.31780598519E+02  0.00000000000E+00 0.  1.
         21   -1    0    0  501  502 -0.00000000000E+00 -0.00000000000E+00 -0.24639409531E+02  0.24639409531E+02  0.00000000000E+00 0.  1.
          2    1    1    2  501    0  0.73614674283E+01 -0.19895865432E+02  0.21967346590E+02  0.30538516339E+02  0.00000000000E+00 0.  1.
         21    1    1    2  503  502 -0.73614674283E+01  0.19895865432E+02 -0.14826157602E+02  0.25881491711E+02  0.00000000000E+00 0.  1.
</event>
<event>
 4    1  0.2243475E+005  0.4640669E+02  0.7546771E-02  0.1314552E+00
          2   -1    0    0  503    0  0.00000000000E+00  0.00000000000E+00  0.21953113399E+02  0.21953113399E+02  0.00000000000E+00 0. -1.
         21   -1    0    0  501  502 -0.00000000000E+00 -0.00000000000E+00 -0.87339584030E+03  0.87339584030E+03  0.00000000000E+00 0.  1.
          2    1    1    2  501    0 -0.44844818913E+02 -0.11938301235E+02 -0.39367311232E+01  0.46573368696E+02  0.00000000000E+00 0. -1.
         21    1    1    2  503  502  0.44844818913E+02  0.11938301235E+02 -0.84750599578E+03  0.84877558500E+03  0.00000000000E+00 0.  1.
</event>
<event>
 4    1  0.2243475E+005  0.2218983E+02  0.7546771E-02  0.1502930E+00
          2   -1    0    0  503    0  0.00000000000E+00  0.00000000000E+00  0.43251614311E+02  0.43251614311E+02  0.00000000000E+00 0. -1.
         21   -1    0    0  501  502 -0.00000000000E+00 -0.00000000000E+00 -0.26364985439E+02  0.26364985439E+02  0.00000000000E+00 0.  1.
          2    1    1    2  501    0 -0.19073423347E+02 -0.11339887676E+02  0.34681582324E+02  0.41172814856E+02  0.00000000000E+00 0. -1.
         21    1    1    2  503  502  0.19073423347E+02  0.11339887676E+02 -0.17794953452E+02  0.28443784893E+02  0.00000000000E+00 0.  1.
</event>
<event>
 4    1  0.2243475E+005  0.2074521E+02  0.7546771E-02  0.1522934E+00
          2   -1    0    0  503    0  0.00000000000E+00  0.00000000000E+00  0.13987151627E+03  0.13987151627E+03  0.00000000000E+00 0.  1.
         21   -1    0    0  501  502 -0.00000000000E+00 -0.00000000000E+00 -0.11096969667E+03  0.11096969667E+03  0.00000000000E+00 0.  1.
          2    1    1    2  501    0  0.80894831037E+01  0.19102983659E+02  0.13812052863E+03  0.13966976821E+03  0.00000000000E+00 0.  1.
         21    1    1    2  503  502 -0.80894831037E+01 -0.19102983659E+02 -0.10921870903E+03  0.11117144473E+03  0.00000000000E+00 0.  1.
</event>
<event>
 4    1  0.2243475E+005  0.2551140E+02  0.7546771E-02  0.1463163E+00
          2   -1    0    0  503    0  0.00000000000E+00  0.00000000000E+00  0.29952330651E+03  0.29952330651E+03  0.00000000000E+00 0.  1.
         21   -1    0    0  501  502 -0.00000000000E+00 -0.00000000000E+00 -0.87577407091E+02  0.87577407091E+02  0.00000000000E+00 0. -1.
          2    1    1    2  501    0 -0.14461239874E+02  0.21016755527E+02  0.29710712773E+03  0.29820039708E+03  0.00000000000E+00 0.  1.
         21    1    1    2  503  502  0.14461239874E+02 -0.21016755527E+02 -0.85161228307E+02  0.88900316525E+02  0.00000000000E+00 0. -1.
</event>
<event>
 4    1  0.2243475E+005  0.2048247E+02  0.7546771E-02  0.1526784E+00
          2   -1    0    0  502    0  0.00000000000E+00  0.00000000000E+00  0.29939547863E+03  0.29939547863E+03  0.00000000000E+00 0.  1.
         21   -1    0    0  503  502 -0.00000000000E+00 -0.00000000000E+00 -0.25995420024E+01  0.25995420024E+01  0.00000000000E+00 0.  1.
          2    1    1    2  501    0 -0.18094572744E+02 -0.95978207755E+01  0.25091603090E+03  0.25175064308E+03  0.00000000000E+00 0.  1.
         21    1    1    2  503  501  0.18094572744E+02  0.95978207755E+01  0.45879905723E+02  0.50244377552E+02  0.00000000000E+00 0.  1.
</event>
<event>
 4    1  0.2243475E+005  0.2229767E+02  0.7546771E-02  0.1501511E+00
          2   -1    0    0  502    0  0.00000000000E+00  0.00000000000E+00  0.12246484453E+04  0.12246484453E+04  0.00000000000E+00 0. -1.
         21   -1    0    0  503  502 -0.00000000000E+00 -0.00000000000E+00 -0.76828951549E+01  0.76828951549E+01  0.00000000000E+00 0.  1.
          2    1    1    2  501    0  0.89463121914E+00 -0.22279715796E+02  0.12081476613E+04  0.12083534076E+04  0.00000000000E+00 0. -1.
         21    1    1    2  503  501 -0.89463121914E+00  0.22279715796E+02  0.88178888316E+01  0.23977932863E+02  0.00000000000E+00 0.  1.
</event>
<event>
 4    1  0.2243475E+005  0.3267409E+02  0.7546771E-02  0.1397696E+00
          2   -1    0    0  502    0  0.00000000000E+00  0.00000000000E+00  0.41108119995E+03  0.41108119995E+03  0.00000000000E+00 0. -1.
         21   -1    0    0  503  502 -0.00000000000E+00 -0.00000000000E+00 -0.16621927710E+02  0.16621927710E+02  0.00000000000E+00 0.  1.
          2    1    1    2  501    0 -0.16963812623E+02  0.27925346843E+02  0.39366576699E+03  0.39501940716E+03  0.00000000000E+00 0. -1.
         21    1    1    2  503  501  0.16963812623E+02 -0.27925346843E+02  0.79350524949E+00  0.32683720498E+02  0.00000000000E+00 0.  1.
</event>
<event>
 4    1  0.2243475E+005  0.3403472E+02  0.7546771E-02  0.1387479E+00
          2   -1    0    0  503    0  0.00000000000E+00  0.00000000000E+00  0.99722475904E+03  0.99722475904E+03  0.00000000000E+00 0. -1.
         21   -1    0    0  501  502 -0.00000000000E+00 -0.00000000000E+00 -0.29021162521E+01  0.29021162521E+01  0.00000000000E+00 0.  1.
          2    1    1    2  501    0 -0.33490352455E+02 -0.60628586713E+01  0.88442657438E+03  0.88508119821E+03  0.00000000000E+00 0. -1.
         21    1    1    2  503  502  0.33490352455E+02  0.60628586713E+01  0.10989606841E+03  0.11504567708E+03  0.00000000000E+00 0.  1.
</event>
<event>
 4    1  0.2243475E+005  0.2776410E+02  0.7546771E-02  0.1440080E+00
          2   -1    0    0  503    0  0.00000000000E+00  0.00000000000E+00  0.30340941041E+03  0.30340941041E+03  0.00000000000E+00 0. -1.
         21   -1    0    0  501  502 -0.00000000000E+00 -0.00000000000E+00 -0.70073017953E+01  0.70073017953E+01  0.00000000000E+00 0. -1.
          2    1    1    2  501    0  0.92551485019E+01  0.26176088241E+02  0.27211854753E+03  0.27353125832E+03  0.00000000000E+00 0. -1.
         21    1    1    2  503  502 -0.92551485019E+01 -0.26176088241E+02  0.24283561091E+02  0.36885453890E+02  0.00000000000E+00 0. -1.
</event>
<event>
 4    1  0.2243475E+005  0.2085890E+02  0.7546771E-02  0.1521289E+00
          2   -1    0    0  502    0  0.00000000000E+00  0.00000000000E+00  0.15054423651E+03  0.15054423651E+03  0.00000000000E+00 0.  1.
         21   -1    0    0  503  502 -0.00000000000E+00 -0.00000000000E+00 -0.80972439615E+01  0.80972439615E+01  0.00000000000E+00 0.  1.
          2    1    1    2  501    0  0.85741599751E+01 -0.19015193650E+02  0.13483216428E+03  0.13643608882E+03  0.00000000000E+00 0.  1.
         21    1    1    2  503  501 -0.85741599751E+01  0.19015193650E+02  0.76148282725E+01  0.22205391653E+02  0.00000000000E+00 0.  1.
</event>
<event>
 4    1  0.2243475E+005  0.2316804E+02  0.7546771E-02  0.1490399E+00
          2   -1    0    0  503    0  0.00000000000E+00  0.00000000000E+00  0.49454018829E+02  0.49454018829E+02  0.00000000000E+00 0.  1.
         21   -1    0    0  501  502 -0.00000000000E+00 -0.00000000000E+00 -0.35507663350E+02  0.35507663350E+02  0.00000000000E+00 0.  1.
          2    1    1    2  501    0 -0.19290135121E+02 -0.12831548554E+02  0.42370925876E+02  0.48291337845E+02  0.00000000000E+00 0.  1.
         21    1    1    2  503  502  0.19290135121E+02  0.12831548554E+02 -0.28424570398E+02  0.36670344334E+02  0.00000000000E+00 0.  1.
</event>
<event>
 4    1  0.2243475E+005  0.2724283E+02  0.7546771E-02  0.1445184E+00
          2   -1    0    0  502    0  0.00000000000E+00  0.00000000000E+00  0.80502587509E+03  0.80502587509E+03  0.00000000000E+00 0.  1.
         21   -1    0    0  503  502 -0.00000000000E+00 -0.00000000000E+00 -0.34531188932E+02  0.34531188932E+02  0.00000000000E+00 0. -1.
          2    1    1    2  501    0  0.16895309889E+02 -0.21371016046E+02  0.79938428527E+03  0.79984836523E+03  0.00000000000E+00 0.  1.
         21    1    1    2  503  501 -0.16895309889E+02  0.21371016046E+02 -0.28889599112E+02  0.39708698794E+02  0.00000000000E+00 0. -1.
</event>
<event>
 4    1  0.2243475E+005  0.3721163E+02  0.7546771E-02  0.1365649E+00
          2   -1    0    0  502    0  0.00000000000E+00  0.00000000000E+00  0.47854244462E+03  0.47854244462E+03  0.00000000000E+00 0.  1.
         21   -1    0    0  503  502 -0.00000000000E+00 -0.00000000000E+00 -0.67138232714E+03  0.67138232714E+03  0.00000000000E+00 0. -1.
          2    1    1    2  501    0 -0.37203848626E+01  0.37025180167E+02  0.47730209219E+03  0.47875044903E+03  0.00000000000E+00 0.  1.
         21    1    1    2  503  501  0.37203848626E+01 -0.37025180167E+02 -0.67014197471E+03  0.67117432273E+03  0.00000000000E+00 0. -1.
</event>
<event>
 4    1  0.2243475E+005  0.2603428E+02  0.7546771E-02  0.1457558E+00
          2   -1    0    0  502    0  0.00000000000E+00  0.00000000000E+00  0.74449863937E+03  0.74449863937E+03  0.00000000000E+00 0.  1.
         21   -1    0    0  503  502 -0.00000000000E+00 -0.00000000000E+00 -0.37929345421E+01  0.37929345421E+01  0.00000000000E+00 0.  1.
          2    1    1    2  501    0 -0.18506284168E+02 -0.18311235413E+02  0.69652075513E+03  0.69700713499E+03  0.00000000000E+00 0.  1.
         21    1    1    2  503  501  0.18506284168E+02  0.18311235413E+02  0.44184949699E+02  0.51284438926E+02  0.00000000000E+00 0.  1.
</event>
<event>
 4    1  0.2243475E+005  0.3357772E+02  0.7546771E-02  0.1390848E+00
          2   -1    0    0  503    0  0.00000000000E+00  0.00000000000E+00  0.59487974627E+03  0.59487974627E+03  0.00000000000E+00 0. -1.
         21   -1    0    0  501  502 -0.00000000000E+00 -0.00000000000E+00 -0.33414974622E+01  0.33414974622E+01  0.00000000000E+00 0.  1.
          2    1    1    2  501    0 -0.32671374074E+02  0.77488341595E+01  0.49254788123E+03  0.49369107590E+03  0.00000000000E+00 0. -1.
         21    1    1    2  503  502  0.32671374074E+02 -0.77488341595E+01  0.98990367574E+02  0.10453016783E+03  0.00000000000E+00 0.  1.
</event>
<event>
 4    1  0.2243475E+005  0.2111855E+02  0.7546771E-02  0.1517579E+00
          2   -1    0    0  502    0  0.00000000000E+00  0.00000000000E+00  0.29492332137E+02  0.29492332137E+02  0.00000000000E+00 0. -1.
         21   -1    0    0  503  502 -0.00000000000E+00 -0.00000000000E+00 -0.45150070175E+02  0.45150070175E+02  0.00000000000E+00 0.  1.
          2    1    1    2  501    0 -0.16447936676E+02  0.13246077819E+02  0.22607134086E+02  0.30936640252E+02  0.00000000000E+00 0. -1.
         21    1    1    2  503  501  0.16447936676E+02 -0.13246077819E+02 -0.38264872125E+02  0.43705762060E+02  0.00000000000E+00 0.  1.
</event>
<event>
 4    1  0.2243475E+005  0.2342360E+02  0.7546771E-02  0.1487246E+00
          2   -1    0    0  502    0  0.00000000000E+00  0.00000000000E+00  0.11110483942E+04  0.11110483942E+04  0.00000000000E+00 0.  1.
         21   -1    0    0  503  502 -0.00000000000E+00 -0.00000000000E+00 -0.54317487142E+00  0.54317487142E+00  0.00000000000E+00 0.  1.
          2    1    1    2  501    0  0.45271449969E+01  0.22981953535E+02  0.72277832005E+03  0.72315777335E+03  0.00000000000E+00 0.  1.
         21    1    1    2  503  501 -0.45271449969E+01 -0.22981953535E+02  0.38772689923E+03  0.38843379567E+03  0.00000000000E+00 0.  1.
</event>
<event>
 4    1  0.2243475E+005  0.3964623E+02  0.7546771E-02  0.1350571E+00
          2   -1    0    0  502    0  0.00000000000E+00  0.00000000000E+00  0.23477948465E+03  0.23477948465E+03  0.00000000000E+00 0. -1.
         21   -1    0    0  503  502 -0.00000000000E+00 -0.00000000000E+00 -0.57038082966E+02  0.57038082966E+02  0.00000000000E+00 0.  1.
          2    1    1    2  501    0 -0.39626512472E+02  0.12501367966E+01  0.22594920173E+03  0.22940110090E+03  0.00000000000E+00 0. -1.
         21    1    1    2  503  501  0.39626512472E+02 -0.12501367966E+01 -0.48207800042E+02  0.62416466718E+02  0.00000000000E+00 0.  1.
</event>
<event>
 4    1  0.2243475E+005  0.3080307E+02  0.7546771E-02  0.1412744E+00
          2   -1    0    0  502    0  0.00000000000E+00  0.00000000000E+00  0.14711913924E+04  0.14711913924E+04  0.00000000000E+00 0.  1.
         21   -1    0    0  503  502 -0.00000000000E+00 -0.00000000000E+00 -0.29877695950E+01  0.29877695950E+01  0.00000000000E+00 0.  1.
          2    1    1    2  501    0  0.22949674591E+01  0.30717453339E+02  0.13868071384E+04  0.13871491873E+04  0.00000000000E+00 0.  1.
         21    1    1    2  503  501 -0.22949674591E+01 -0.30717453339E+02  0.81396484404E+02  0.87029974656E+02  0.00000000000E+00 0.  1.
</event>
<event>
 4    1  0.2243475E+005  0.3504947E+02  0.7546771E-02  0.1380216E+00
          2   -1    0    0  503    0  0.00000000000E+00  0.00000000000E+00  0.96413346536E+02  0.96413346536E+02  0.00000000000E+00 0.  1.
         21   -1    0    0  501  502 -0.00000000000E+00 -0.00000000000E+00 -0.12741685083E+02  0.12741685083E+02  0.00000000000E+00 0.  1.
          2    1    1    2  501    0  0.19763009749E+02 -0.28946311548E+02  0.41921017489E+02  0.54642814842E+02  0.00000000000E+00 0.  1.
         21    1    1    2  503  502 -0.19763009749E+02  0.28946311548E+02  0.41750643964E+02  0.54512216777E+02  0.00000000000E+00 0.  1.
</event>
<event>
 4    1  0.2243475E+005  0.2681610E+02  0.7546771E-02  0.1449464E+00
          2   -1    0    0  502    0  0.00000000000E+00  0.00000000000E+00  0.85413354282E+03  0.85413354282E+03  0.00000000000E+00 0.  1.
         21   -1    0    0  503  502 -0.00000000000E+00 -0.00000000000E+00 -0.34606902886E+02  0.34606902886E+02  0.00000000000E+00 0. -1.
          2    1    1    2  501    0  0.11042163573E+01  0.26793357338E+02  0.84869498809E+03  0.84911853478E+03  0.00000000000E+00 0.  1.
         21    1    1    2  503  501 -0.11042163573E+01 -0.26793357338E+02 -0.29168348159E+02  0.39621910927E+02  0.00000000000E+00 0. -1.
</event>
<event>
 4    1  0.2243475E+005  0.2771459E+02  0.7546771E-02  0.1440559E+00
          2   -1    0    0  502    0  0.00000000000E+00  0.00000000000E+00  0.13125723867E+03  0.13125723867E+03  0.00000000000E+00 0. -1.
         21   -1    0    0  503  502 -0.00000000000E+00 -0.00000000000E+00 -0.21700920432E+02  0.21700920432E+02  0.00000000000E+00 0.  1.
          2    1    1    2  501    0  0.25427395377E+02 -0.11024783588E+02  0.12013716057E+03  0.12329248006E+03  0.00000000000E+00 0. -1.
         21    1    1    2  503  501 -0.25427395377E+02  0.11024783588E+02 -0.10580842331E+02  0.29665679046E+02  0.00000000000E+00 0.  1.
</event>
<event>
 4    1  0.2243475E+005  0.2641490E+02  0.7546771E-02  0.1453576E+00
          2   -1    0    0  503    0  0.00000000000E+00  0.00000000000E+00  0.51755359280E+03  0.51755359280E+03  0.00000000000E+00 0. -1.
         21   -1    0    0  501  502 -0.00000000000E+00 -0.00000000000E+00 -0.39828104617E+03  0.39828104617E+03  0.00000000000E+00 0. -1.
          2    1    1    2  501    0 -0.25065255270E+02 -0.83354664241E+01  0.51677792086E+03  0.51745257416E+03  0.00000000000E+00 0. -1.
         21    1    1    2  503  502  0.25065255270E+02  0.83354664241E+01 -0.39750537423E+03  0.39838206481E+03  0.00000000000E+00 0. -1.
</event>
<event>
 4    1  0.2243475E+005  0.2086870E+02  0.7546771E-02  0.1521148E+00
          2   -1    0    0  502    0  0.00000000000E+00  0.00000000000E+00  0.18861411892E+02  0.18861411892E+02  0.00000000000E+00 0.  1.
         21   -1    0    0  503  502 -0.00000000000E+00 -0.00000000000E+00 -0.90642561059E+02  0.90642561059E+02  0.00000000000E+00 0.  1.
          2    1    1    2  501    0  0.13431683333E+02 -0.15971617754E+02  0.11376198271E+02  0.23768057934E+02  0.00000000000E+00 0.  1.
         21    1    1    2  503  501 -0.13431683333E+02  0.15971617754E+02 -0.83157347438E+02  0.85735915017E+02  0.00000000000E+00 0.  1.
</event>
<event>
 4    1  0.2243475E+005  0.4216667E+02  0.7546771E-02  0.1336236E+00
          2   -1    0    0  503    0  0.00000000000E+00  0.00000000000E+00  0.12567557704E+03  0.12567557704E+03  0.00000000000E+00 0.  1.
         21   -1    0    0  501  502 -0.00000000000E+00 -0.00000000000E+00 -0.20211089193E+02  0.20211089193E+02  0.00000000000E+00 0. -1.
          2    1    1    2  501    0 -0.36106347039E+02 -0.21779806894E+02  0.92684950877E+02  0.10182597117E+03  0.00000000000E+00 0.  1.
         21    1    1    2  503  502  0.36106347039E+02  0.21779806894E+02  0.12779536974E+02  0.44060695070E+02  0.00000000000E+00 0. -1.
</event>
<event>
 4    1  0.2243475E+005  0.5101818E+02  0.7546771E-02  0.1293817E+00
          2   -1    0    0  502    0  0.00000000000E+00  0.00000000000E+00  0.10499297615E+04  0.10499297615E+04  0.00000000000E+00 0.  1.
         21   -1    0    0  503  502 -0.00000000000E+00 -0.00000000000E+00 -0.11858892139E+03  0.11858892139E+03  0.00000000000E+00 0. -1.
          2    1    1    2  501    0  0.20323840074E+02 -0.46795255708E+02  0.10437906023E+04  0.10450366864E+04  0.00000000000E+00 0.  1.
         21    1    1    2  503  501 -0.20323840074E+02  0.46795255708E+02 -0.11244976221E+03  0.12348199648E+03  0.00000000000E+00 0. -1.
</event>
<event>
 4    1  0.2243475E+005  0.2732612E+02  0.7546771E-02  0.1444359E+00
          2   -1    0    0  503    0  0.00000000000E+00  0.00000000000E+00  0.45360838742E+02  0.45360838742E+02  0.00000000000E+00 0.  1.
         21   -1    0    0  501  502 -0.00000000000E+00 -0.00000000000E+00 -0.13838402545E+03  0.13838402545E+03  0.00000000000E+00 0. -1.
          2    1    1    2  501    0  0.96933212560E+01  0.25549095384E+02  0.39723461346E+02  0.48214833124E+02  0.00000000000E+00 0.  1.
         21    1    1    2  503  502 -0.96933212560E+01 -0.25549095384E+02 -0.13274664806E+03  0.13553003107E+03  0.00000000000E+00 0. -1.
</event>
<event>
 4    1  0.2243475E+005  0.3734069E+02  0.7546771E-02  0.1364816E+00
          2   -1    0    0  503    0  0.00000000000E+00  0.00000000000E+00  0.92401169498E+03  0.92401169498E+03  0.00000000000E+00 0.  1.
         21   -1    0    0  501  502 -0.00000000000E+00 -0.00000000000E+00 -0.33724306873E+01  0.33724306873E+01  0.00000000000E+00 0. -1.
          2    1    1    2  501    0  0.31672540661E+02  0.19778196000E+02  0.80499926548E+03  0.80586484245E+03  0.00000000000E+00 0.  1.
         21    1    1    2  503  502 -0.31672540661E+02 -0.19778196000E+02  0.11563999881E+03  0.12151928322E+03  0.00000000000E+00 0. -1.
</event>
<event>
 4    1  0.2243475E+005  0.2702118E+02  0.7546771E-02  0.1447395E+00
          2   -1    0    0  503    0  0.00000000000E+00  0.00000000000E+00  0.71771971787E+03  0.71771971787E+03  0.00000000000E+00 0.  1.
         21   -1    0    0  501  502 -0.00000000000E+00 -0.00000000000E+00 -0.10822221781E+01  0.10822221781E+01  0.00000000000E+00 0. -1.
          2    1    1    2  501    0  0.80143357769E+00  0.27009291314E+02  0.44633867659E+03  0.44715585463E+03  0.00000000000E+00 0.  1.
         21    1    1    2  503  502 -0.80143357769E+00 -0.27009291314E+02  0.27029881911E+03  0.27164608542E+03  0.00000000000E+00 0. -1.
</event>
<event>
 4    1  0.2245958E+005  0.2374149E+02  0.7546771E-02  0.1483391E+00
          2   -1    0    0  502    0  0.00000000000E+00  0.00000000000E+00  0.80699115805E+03  0.80699115805E+03  0.00000000000E+00 0.  1.
         21   -1    0    0  503  502 -0.00000000000E+00 -0.00000000000E+00 -0.10289317222E+03  0.10289317222E+03  0.00000000000E+00 0. -1.
          2    1    1    2  501    0  0.63366686986E+01 -0.22880233859E+02  0.80544438779E+03  0.80579421709E+03  0.00000000000E+00 0.  1.
         21    1    1    2  503  501 -0.63366686986E+01  0.22880233859E+02 -0.10134640196E+03  0.10409011318E+03  0.00000000000E+00 0. -1.
</event>
<event>
 4    1  0.2243475E+005  0.3015483E+02  0.7546771E-02  0.1418256E+00
          2   -1    0    0  502    0  0.00000000000E+00  0.00000000000E+00  0.91204408833E+02  0.91204408833E+02  0.00000000000E+00 0. -1.
         21   -1    0    0  503  502 -0.00000000000E+00 -0.00000000000E+00 -0.39715606559E+02  0.39715606559E+02  0.00000000000E+00 0. -1.
          2    1    1    2  501    0 -0.60580067287E+01  0.29540049020E+02  0.82395245558E+02  0.87739902167E+02  0.00000000000E+00 0. -1.
         21    1    1    2  503  501  0.60580067287E+01 -0.29540049020E+02 -0.30906443284E+02  0.43180113225E+02  0.00000000000E+00 0. -1.
</event>
<event>
 4    1  0.2243475E+005  0.2164032E+02  0.7546771E-02  0.1510316E+00
          2   -1    0    0  503    0  0.00000000000E+00  0.00000000000E+00  0.19594462734E+02  0.19594462734E+02  0.00000000000E+00 0. -1.
         21   -1    0    0  501  502 -0.00000000000E+00 -0.00000000000E+00 -0.27455876154E+02  0.27455876154E+02  0.00000000000E+00 0. -1.
          2    1    1    2  501    0  0.19844365897E+01  0.21549145243E+02  0.45357348939E+01  0.22110552691E+02  0.00000000000E+00 0. -1.
         21    1    1    2  503  502 -0.19844365897E+01 -0.21549145243E+02 -0.12397148314E+02  0.24939786198E+02  0.00000000000E+00 0. -1.
</event>
<event>
 4    1  0.2243475E+005  0.2857614E+02  0.7546771E-02  0.1432387E+00
          2   -1    0    0  502    0  0.00000000000E+00  0.00000000000E+00  0.99534686829E+01  0.99534686829E+01  0.00000000000E+00 0.  1.
         21   -1    0    0  503  502 -0.00000000000E+00 -0.00000000000E+00 -0.17438111959E+03  0.17438111959E+03  0.00000000000E+00 0. -1.
          2    1    1    2  501    0  0.27903864287E+02  0.61619785000E+01 -0.15144862464E+02  0.32341343204E+02  0.00000000000E+00 0.  1.
         21    1    1    2  503  501 -0.27903864287E+02 -0.61619785000E+01 -0.14928278845E+03  0.15199324507E+03  0.00000000000E+00 0. -1.
</event>
<event>
 4    1  0.2243475E+005  0.2055118E+02  0.7546771E-02  0.1525770E+00
          2   -1    0    0  503    0  0.00000000000E+00  0.00000000000E+00  0.63709223047E+03  0.63709223047E+03  0.00000000000E+00 0.  1.
         21   -1    0    0  501  502 -0.00000000000E+00 -0.00000000000E+00 -0.31215405126E+01  0.31215405126E+01  0.00000000000E+00 0. -1.
          2    1    1    2  501    0 -0.18369622474E+02 -0.92145560541E+01  0.60107466486E+03  0.60142589220E+03  0.00000000000E+00 0.  1.
         21    1    1    2  503  502  0.18369622474E+02  0.92145560541E+01  0.32896025093E+02  0.38787878778E+02  0.00000000000E+00 0. -1.
</event>
<event>
 4    1  0.2243475E+005  0.3158096E+02  0.7546771E-02  0.1406338E+00
          2   -1    0    0  503    0  0.00000000000E+00  0.00000000000E+00  0.37028285353E+02  0.37028285353E+02  0.00000000000E+00 0.  1.
         21   -1    0    0  501  502 -0.00000000000E+00 -0.00000000000E+00 -0.11357910583E+03  0.11357910583E+03  0.00000000000E+00 0. -1.
          2    1    1    2  501    0 -0.23541519031E+02 -0.21051223843E+02  0.27495910167E+02  0.41873407068E+02  0.00000000000E+00 0.  1.
         21    1    1    2  503  502  0.23541519031E+02  0.21051223843E+02 -0.10404673064E+03  0.10873398411E+03  0.00000000000E+00 0. -1.
</event>
<event>
 4    1  0.2243475E+005  0.3003530E+02  0.7546771E-02  0.1419290E+00
          2   -1    0    0  503    0  0.00000000000E+00  0.00000000000E+00  0.15723937356E+04  0.15723937356E+04  0.00000000000E+00 0.  1.
         21   -1    0    0  501  502 -0.00000000000E+00 -0.00000000000E+00 -0.69688875684E+00  0.69688875684E+00  0.00000000000E+00 0.  1.
          2    1    1    2  501    0 -0.78049548303E+01  0.29003481371E+02  0.11165118109E+04  0.11169157279E+04  0.00000000000E+00 0.  1.
         21    1    1    2  503  502  0.78049548303E+01 -0.29003481371E+02  0.45518503594E+03  0.45617489650E+03  0.00000000000E+00 0.  1.
</event>
<event>
 4    1  0.2243475E+005  0.3889646E+02  0.7546771E-02  0.1355077E+00
          2   -1    0    0  502    0  0.00000000000E+00  0.00000000000E+00  0.45923029818E+03  0.45923029818E+03  0.00000000000E+00 0. -1.
         21   -1    0    0  503  502 -0.00000000000E+00 -0.00000000000E+00 -0.51096760963E+01  0.51096760963E+01  0.00000000000E+00 0. -1.
          2    1    1    2  501    0  0.34854211838E+02 -0.17266116410E+02  0.36543880723E+03  0.36750300228E+03  0.00000000000E+00 0. -1.
         21    1    1    2  503  501 -0.34854211838E+02  0.17266116410E+02  0.88681814854E+02  0.96836971991E+02  0.00000000000E+00 0. -1.
</event>
<event>
 4    1  0.2243475E+005  0.2386744E+02  0.7546771E-02  0.1481884E+00
          2   -1    0    0  503    0  0.00000000000E+00  0.00000000000E+00  0.74539894768E+02  0.74539894768E+02  0.00000000000E+00 0.  1.
         21   -1    0    0  501  502 -0.00000000000E+00 -0.00000000000E+00 -0.11878679272E+02  0.11878679272E+02  0.00000000000E+00 0.  1.
          2    1    1    2  501    0  0.24641499365E+01 -0.23739897250E+02  0.57134870649E+02  0.61919691540E+02  0.00000000000E+00 0.  1.
         21    1    1    2  503  502 -0.24641499365E+01  0.23739897250E+02  0.55263448477E+01  0.24498882500E+02  0.00000000000E+00 0.  1.
</event>
<event>
 4    1  0.2243475E+005  0.5374438E+02  0.7546771E-02  0.1282706E+00
          2   -1    0    0  502    0  0.00000000000E+00  0.00000000000E+00  0.61258678076E+03  0.61258678076E+03  0.00000000000E+00 0. -1.
         21   -1    0    0  503  502 -0.00000000000E+00 -0.00000000000E+00 -0.12106292364E+02  0.12106292364E+02  0.00000000000E+00 0.  1.
          2    1    1    2  501    0 -0.89942189648E+01  0.52986434278E+02  0.54429425985E+03  0.54694122124E+03  0.00000000000E+00 0. -1.
         21    1    1    2  503  501  0.89942189648E+01 -0.52986434278E+02  0.56186228545E+02  0.77751851878E+02  0.00000000000E+00 0.  1.
</event>
<event>
 4    1  0.2243475E+005  0.2028194E+02  0.7546771E-02  0.1529768E+00
          2   -1    0    0  503    0  0.00000000000E+00  0.00000000000E+00  0.47179528131E+01  0.47179528131E+01  0.00000000000E+00 0.  1.
         21   -1    0    0  501  502 -0.00000000000E+00 -0.00000000000E+00 -0.16314568684E+03  0.16314568684E+03  0.00000000000E+00 0. -1.
          2    1    1    2  501    0  0.72785707836E+01 -0.18930918587E+02 -0.21944864887E+02  0.29882007398E+02  0.00000000000E+00 0.  1.
         21    1    1    2  503  502 -0.72785707836E+01  0.18930918587E+02 -0.13648286914E+03  0.13798163226E+03  0.00000000000E+00 0. -1.
</event>
<event>
 4    1  0.2243475E+005  0.2873520E+02  0.7546771E-02  0.1430915E+00
          2   -1    0    0  503    0  0.00000000000E+00  0.00000000000E+00  0.33592135708E+01  0.33592135708E+01  0.00000000000E+00 0. -1.
         21   -1    0    0  501  502 -0.00000000000E+00 -0.00000000000E+00 -0.67811700283E+03  0.67811700283E+03  0.00000000000E+00 0. -1.
          2    1    1    2  501    0 -0.23917952237E+01  0.28635485851E+02 -0.65317448970E+02  0.71358817775E+02  0.00000000000E+00 0. -1.
         21    1    1    2  503  502  0.23917952237E+01 -0.28635485851E+02 -0.60944034029E+03  0.61011739862E+03  0.00000000000E+00 0. -1.
</event>
<event>
 4    1  0.2243475E+005  0.4122571E+02  0.7546771E-02  0.1341449E+00
          2   -1    0    0  503    0  0.00000000000E+00  0.00000000000E+00  0.27884466747E+04  0.27884466747E+04  0.00000000000E+00 0.  1.
         21   -1    0    0  501  502 -0.00000000000E+00 -0.00000000000E+00 -0.62454546653E+00  0.62454546653E+00  0.00000000000E+00 0.  1.
          2    1    1    2  501    0  0.28214531484E+02  0.30058266388E+02  0.11774670093E+04  0.11781884896E+04  0.00000000000E+00 0.  1.
         21    1    1    2  503  502 -0.28214531484E+02 -0.30058266388E+02  0.16103551199E+04  0.16108827305E+04  0.00000000000E+00 0.  1.
</event>
<event>
 4    1  0.2243475E+005  0.2625587E+02  0.7546771E-02  0.1455230E+00
          2   -1    0    0  502    0  0.00000000000E+00  0.00000000000E+00  0.17755160155E+04  0.17755160155E+04  0.00000000000E+00 0.  1.
         21   -1    0    0  503  502 -0.00000000000E+00 -0.00000000000E+00 -0.30158653550E+01  0.30158653550E+01  0.00000000000E+00 0.  1.
          2    1    1    2  501    0  0.80880567516E+00  0.26243413239E+02  0.17163021361E+04  0.17165029546E+04  0.00000000000E+00 0.  1.
         21    1    1    2  503  501 -0.80880567516E+00 -0.26243413239E+02  0.56198014064E+02  0.62028926235E+02  0.00000000000E+00 0.  1.
</event>
<event>
 4    1  0.2243475E+005  0.2015942E+02  0.7546771E-02  0.1531613E+00
          2   -1    0    0  502    0  0.00000000000E+00  0.00000000000E+00  0.17596173332E+03  0.17596173332E+03  0.00000000000E+00 0. -1.
         21   -1    0    0  503  502 -0.00000000000E+00 -0.00000000000E+00 -0.51997618082E+01  0.51997618082E+01  0.00000000000E+00 0.  1.
          2    1    1    2  501    0 -0.13367263552E+00  0.20158974806E+02  0.15291224752E+03  0.15423539663E+03  0.00000000000E+00 0. -1.
         21    1    1    2  503  501  0.13367263552E+00 -0.20158974806E+02  0.17849723998E+02  0.26926098499E+02  0.00000000000E+00 0.  1.
</event>
<event>
 4    1  0.2243475E+005  0.3449764E+02  0.7546771E-02  0.1384130E+00
          2   -1    0    0  503    0  0.00000000000E+00  0.00000000000E+00  0.11223577032E+04  0.11223577032E+04  0.00000000000E+00 0. -1.
         21   -1    0    0  501  502 -0.00000000000E+00 -0.00000000000E+00 -0.17781982120E+02  0.17781982120E+02  0.00000000000E+00 0.  1.
          2    1    1    2  501    0  0.31224278455E+02 -0.14667363816E+02  0.11050997449E+04  0.11056380662E+04  0.00000000000E+00 0. -1.
         21    1    1    2  503  502 -0.31224278455E+02  0.14667363816E+02 -0.52402379958E+00  0.34501619198E+02  0.00000000000E+00 0.  1.
</event>
<event>
 4    1  0.2243475E+005  0.3184823E+02  0.7546771E-02  0.1404187E+00
          2   -1    0    0  503    0  0.00000000000E+00  0.00000000000E+00  0.15637089538E+04  0.15637089538E+04  0.00000000000E+00 0.  1.
         21   -1    0    0  501  502 -0.00000000000E+00 -0.00000000000E+00 -0.19091706085E+02  0.19091706085E+02  0.00000000000E+00 0. -1.
          2    1    1    2  501    0  0.27223976933E+02  0.16527698496E+02  0.15501485398E+04  0.15504756707E+04  0.00000000000E+00 0.  1.
         21    1    1    2  503  502 -0.27223976933E+02 -0.16527698496E+02 -0.55312921015E+01  0.32324989249E+02  0.00000000000E+00 0. -1.
</event>
<event>
 4    1  0.2243475E+005  0.2686295E+02  0.7546771E-02  0.1448990E+00
          2   -1    0    0  502    0  0.00000000000E+00  0.00000000000E+00  0.85820039076E+03  0.85820039076E+03  0.00000000000E+00 0.  1.
         21   -1    0    0  503  502 -0.00000000000E+00 -0.00000000000E+00 -0.24957295055E+01  0.24957295055E+01  0.00000000000E+00 0.  1.
          2    1    1    2  501    0  0.26836431670E+02  0.11932873125E+01  0.77828472901E+03  0.77874818613E+03  0.00000000000E+00 0.  1.
         21    1    1    2  503  501 -0.26836431670E+02 -0.11932873125E+01  0.77419932246E+02  0.81947934132E+02  0.00000000000E+00 0.  1.
</event>
<event>
 4    1  0.2243475E+005  0.5332286E+02  0.7546771E-02  0.1284375E+00
          2   -1    0    0  503    0  0.00000000000E+00  0.00000000000E+00  0.23574825926E+04  0.23574825926E+04  0.00000000000E+00 0.  1.
         21   -1    0    0  501  502 -0.00000000000E+00 -0.00000000000E+00 -0.94003059488E+01  0.94003059488E+01  0.00000000000E+00 0.  1.
          2    1    1    2  501    0  0.22955394343E+02 -0.48128759400E+02  0.22789579526E+04  0.22795816891E+04  0.00000000000E+00 0.  1.
         21    1    1    2  503  502 -0.22955394343E+02  0.48128759400E+02  0.69124334039E+02  0.87301209425E+02  0.00000000000E+00 0.  1.
</event>
<event>
 4    1  0.2243475E+005  0.2149409E+02  0.7546771E-02  0.1512326E+00
          2   -1    0    0  503    0  0.00000000000E+00  0.00000000000E+00  0.27993202432E+03  0.27993202432E+03  0.00000000000E+00 0. -1.
         21   -1    0    0  501  502 -0.00000000000E+00 -0.00000000000E+00 -0.33048250285E+01  0.33048250285E+01  0.00000000000E+00 0.  1.
          2    1    1    2  501    0 -0.21445116224E+02 -0.14500886945E+01  0.23851434829E+03  0.23948087629E+03  0.00000000000E+00 0. -1.
         21    1    1    2  503  502  0.21445116224E+02  0.14500886945E+01  0.38112851001E+02  0.43755973061E+02  0.00000000000E+00 0.  1.
</event>
<event>
 4    1  0.2243475E+005  0.2220403E+02  0.7546771E-02  0.1502743E+00
          2   -1    0    0  502    0  0.00000000000E+00  0.00000000000E+00  0.77143638701E+02  0.77143638701E+02  0.00000000000E+00 0.  1.
         21   -1    0    0  503  502 -0.00000000000E+00 -0.00000000000E+00 -0.64774091550E+02  0.64774091550E+02  0.00000000000E+00 0.  1.
          2    1    1    2  501    0 -0.20981285216E+02 -0.72666809335E+01  0.73552180310E+02  0.76830607244E+02  0.00000000000E+00 0.  1.
         21    1    1    2  503  501  0.20981285216E+02  0.72666809335E+01 -0.61182633159E+02  0.65087123007E+02  0.00000000000E+00 0.  1.
</event>
<event>
 4    1  0.2243475E+005  0.2021265E+02  0.7546771E-02  0.1530810E+00
          2   -1    0    0  502    0  0.00000000000E+00  0.00000000000E+00  0.15297420876E+04  0.15297420876E+04  0.00000000000E+00 0.  1.
         21   -1    0    0  503  502 -0.00000000000E+00 -0.00000000000E+00 -0.16655637229E+01  0.16655637229E+01  0.00000000000E+00 0. -1.
          2    1    1    2  501    0 -0.13251963003E+02  0.15262259311E+02  0.14656715098E+04  0.14658108765E+04  0.00000000000E+00 0.  1.
         21    1    1    2  503  501  0.13251963003E+02 -0.15262259311E+02  0.62405014079E+02  0.65596774806E+02  0.00000000000E+00 0. -1.
</event>
<event>
 4    1  0.2243475E+005  0.2123964E+02  0.7546771E-02  0.1515871E+00
          2   -1    0    0  502    0  0.00000000000E+00  0.00000000000E+00  0.80798217822E+03  0.80798217822E+03  0.00000000000E+00 0.  1.
         21   -1    0    0  503  502 -0.00000000000E+00 -0.00000000000E+00 -0.50454314650E+01  0.50454314650E+01  0.00000000000E+00 0. -1.
          2    1    1    2  501    0  0.13744650562E+02 -0.16192806900E+02  0.78483030494E+03  0.78511765358E+03  0.00000000000E+00 0.  1.
         21    1    1    2  503  501 -0.13744650562E+02  0.16192806900E+02  0.18106441811E+02  0.27909956099E+02  0.00000000000E+00 0. -1.
</event>
<event>
 4    1  0.2243475E+005  0.2096369E+02  0.7546771E-02  0.1519784E+00
          2   -1    0    0  503    0  0.00000000000E+00  0.00000000000E+00  0.10281898839E+04  0.10281898839E+04  0.00000000000E+00 0. -1.
         21   -1    0    0  501  502 -0.00000000000E+00 -0.00000000000E+00 -0.17094364532E+02  0.17094364532E+02  0.00000000000E+00 0. -1.
          2    1    1    2  501    0  0.17710293515E+02 -0.11217039221E+02  0.10216144512E+04  0.10218295178E+04  0.00000000000E+00 0. -1.
         21    1    1    2  503  502 -0.17710293515E+02  0.11217039221E+02 -0.10518931813E+02  0.23454730690E+02  0.00000000000E+00 0. -1.
</event>
<event>
 4    1  0.2243475E+005  0.3698374E+02  0.7546771E-02  0.1367129E+00
          2   -1    0    0  503    0  0.00000000000E+00  0.00000000000E+00  0.55018789272E+03  0.55018789272E+03  0.00000000000E+00 0. -1.
         21   -1    0    0  501  502 -0.00000000000E+00 -0.00000000000E+00 -0.68168876670E+01  0.68168876670E+01  0.00000000000E+00 0. -1.
          2    1    1    2  501    0  0.27744343193E+02  0.24455031312E+02  0.49366945539E+03  0.49505285407E+03  0.00000000000E+00 0. -1.
         21    1    1    2  503  502 -0.27744343193E+02 -0.24455031312E+02  0.49701549660E+02  0.61951926316E+02  0.00000000000E+00 0. -1.
</event>
<event>
 4    1  0.2243475E+005  0.2765757E+02  0.7546771E-02  0.1441112E+00
          2   -1    0    0  503    0  0.00000000000E+00  0.00000000000E+00  0.17238758988E+04  0.17238758988E+04  0.00000000000E+00 0. -1.
         21   -1    0    0  501  502 -0.00000000000E+00 -0.00000000000E+00 -0.91573009875E+00  0.91573009875E+00  0.00000000000E+00 0. -1.
          2    1    1    2  501    0 -0.27366968445E+02 -0.39987579779E+01  0.14806252019E+04  0.14808834963E+04  0.00000000000E+00 0. -1.
         21    1    1    2  503  502  0.27366968445E+02  0.39987579779E+01  0.24233496680E+03  0.24390813263E+03  0.00000000000E+00 0. -1.
</event>
<event>
 4    1  0.2243475E+005  0.2070843E+02  0.7546771E-02  0.1523469E+00
          2   -1    0    0  503    0  0.00000000000E+00  0.00000000000E+00  0.19745377153E+03  0.19745377153E+03  0.00000000000E+00 0. -1.
         21   -1    0    0  501  502 -0.00000000000E+00 -0.00000000000E+00 -0.18699488804E+03  0.18699488804E+03  0.00000000000E+00 0.  1.
          2    1    1    2  501    0  0.20343416563E+02 -0.38709810626E+01  0.19633421993E+03  0.19742331425E+03  0.00000000000E+00 0. -1.
         21    1    1    2  503  502 -0.20343416563E+02  0.38709810626E+01 -0.18587533645E+03  0.18702534532E+03  0.00000000000E+00 0.  1.
</event>
<event>
 4    1  0.2243475E+005  0.2093856E+02  0.7546771E-02  0.1520144E+00
          2   -1    0    0  502    0  0.00000000000E+00  0.00000000000E+00  0.50994740689E+03  0.50994740689E+03  0.00000000000E+00 0. -1.
         21   -1    0    0  503  502 -0.00000000000E+00 -0.00000000000E+00 -0.52240554266E+02  0.52240554266E+02  0.00000000000E+00 0.  1.
          2    1    1    2  501    0 -0.20884879219E+02 -0.14983806630E+01  0.50762477704E+03  0.50805643151E+03  0.00000000000E+00 0. -1.
         21    1    1    2  503  501  0.20884879219E+02  0.14983806630E+01 -0.49917924417E+02  0.54131529654E+02  0.00000000000E+00 0.  1.
</event>
<event>
 4    1  0.2243475E+005  0.3474764E+02  0.7546771E-02  0.1382346E+00
          2   -1    0    0  503    0  0.00000000000E+00  0.00000000000E+00  0.21914073577E+04  0.21914073577E+04  0.00000000000E+00 0.  1.
         21   -1    0    0  501  502 -0.00000000000E+00 -0.00000000000E+00 -0.55327147130E+00  0.55327147130E+00  0.00000000000E+00 0.  1.
          2    1    1    2  501    0 -0.25645739523E+02  0.23445568219E+02  0.10247329387E+04  0.10253218979E+04  0.00000000000E+00 0.  1.
         21    1    1    2  503  502  0.25645739523E+02 -0.23445568219E+02  0.11661211476E+04  0.11666387313E+04  0.00000000000E+00 0.  1.
</event>
<event>
 4    1  0.2243475E+005  0.2503626E+02  0.7546771E-02  0.1468398E+00
          2   -1    0    0  503    0  0.00000000000E+00  0.00000000000E+00  0.68492490165E+02  0.68492490165E+02  0.00000000000E+00 0. -1.
         21   -1    0    0  501  502 -0.00000000000E+00 -0.00000000000E+00 -0.24156578715E+02  0.24156578715E+02  0.00000000000E+00 0. -1.
          2    1    1    2  501    0 -0.25017305367E+02 -0.97401287115E+00  0.58677917770E+02  0.63795864307E+02  0.00000000000E+00 0. -1.
         21    1    1    2  503  502  0.25017305367E+02  0.97401287115E+00 -0.14342006320E+02  0.28853204574E+02  0.00000000000E+00 0. -1.
</event>
<event>
 4    1  0.2243475E+005  0.7701904E+02  0.7546771E-02  0.1210942E+00
          2   -1    0    0  502    0  0.00000000000E+00  0.00000000000E+00  0.71908531139E+03  0.71908531139E+03  0.00000000000E+00 0. -1.
         21   -1    0    0  503  502 -0.00000000000E+00 -0.00000000000E+00 -0.53658901852E+03  0.53658901852E+03  0.00000000000E+00 0.  1.
          2    1    1    2  501    0 -0.76167755954E+02  0.11419551073E+02  0.71424057730E+03  0.71838119091E+03  0.00000000000E+00 0. -1.
         21    1    1    2  503  501  0.76167755954E+02 -0.11419551073E+02 -0.53174428443E+03  0.53729313900E+03  0.00000000000E+00 0.  1.
</event>
<event>
 4    1  0.2243475E+005  0.2269194E+02  0.7546771E-02  0.1496403E+00
          2   -1    0    0  502    0  0.00000000000E+00  0.00000000000E+00  0.18048495689E+03  0.18048495689E+03  0.00000000000E+00 0. -1.
         21   -1    0    0  503  502 -0.00000000000E+00 -0.00000000000E+00 -0.58478021144E+01  0.58478021144E+01  0.00000000000E+00 0. -1.
          2    1    1    2  501    0  0.70610018049E+01  0.21565397521E+02  0.15399107671E+03  0.15565402604E+03  0.00000000000E+00 0. -1.
         21    1    1    2  503  501 -0.70610018049E+01 -0.21565397521E+02  0.20646078066E+02  0.30678732963E+02  0.00000000000E+00 0. -1.
</event>
<event>
 4    1  0.2243475E+005  0.3658945E+02  0.7546771E-02  0.1369720E+00
          2   -1    0    0  503    0  0.00000000000E+00  0.00000000000E+00  0.51619741362E+03  0.51619741362E+03  0.00000000000E+00 0. -1.
         21   -1    0    0  501  502 -0.00000000000E+00 -0.00000000000E+00 -0.17394326480E+03  0.17394326480E+03  0.00000000000E+00 0.  1.
          2    1    1    2  501    0  0.13282305097E+02  0.34093521024E+02  0.51361518946E+03  0.51491683857E+03  0.00000000000E+00 0. -1.
         21    1    1    2  503  502 -0.13282305097E+02 -0.34093521024E+02 -0.17136104063E+03  0.17522383985E+03  0.00000000000E+00 0.  1.
</event>
<event>
 4    1  0.2243475E+005  0.3055696E+02  0.7546771E-02  0.1414817E+00
          2   -1    0    0  502    0  0.00000000000E+00  0.00000000000E+00  0.10503033556E+04  0.10503033556E+04  0.00000000000E+00 0. -1.
         21   -1    0    0  503  502 -0.00000000000E+00 -0.00000000000E+00 -0.18317599325E+01  0.18317599325E+01  0.00000000000E+00 0. -1.
          2    1    1    2  501    0 -0.27090811856E+02 -0.14135620254E+02  0.90163937336E+03  0.90215701929E+03  0.00000000000E+00 0. -1.
         21    1    1    2  503  501  0.27090811856E+02  0.14135620254E+02  0.14683222228E+03  0.14997809623E+03  0.00000000000E+00 0. -1.
</event>
<event>
 4    1  0.2243475E+005  0.2157150E+02  0.7546771E-02  0.1511260E+00
          2   -1    0    0  502    0  0.00000000000E+00  0.00000000000E+00  0.13504058129E+04  0.13504058129E+04  0.00000000000E+00 0. -1.
         21   -1    0    0  503  502 -0.00000000000E+00 -0.00000000000E+00 -0.21055127025E+01  0.21055127025E+01  0.00000000000E+00 0.  1.
          2    1    1    2  501    0 -0.49252140956E+01  0.21001710722E+02  0.12925975169E+04  0.12927775022E+04  0.00000000000E+00 0. -1.
         21    1    1    2  503  501  0.49252140956E+01 -0.21001710722E+02  0.55702783302E+02  0.59733823373E+02  0.00000000000E+00 0.  1.
</event>
<event>
 4    1  0.2243475E+005  0.2070893E+02  0.7546771E-02  0.1523461E+00
          2   -1    0    0  503    0  0.00000000000E+00  0.00000000000E+00  0.74096431371E+03  0.74096431371E+03  0.00000000000E+00 0.  1.
         21   -1    0    0  501  502 -0.00000000000E+00 -0.00000000000E+00 -0.31842750645E+01  0.31842750645E+01  0.00000000000E+00 0. -1.
          2    1    1    2  501    0  0.13875878338E+02  0.15372697179E+02  0.70545505807E+03  0.70575895232E+03  0.00000000000E+00 0.  1.
         21    1    1    2  503  502 -0.13875878338E+02 -0.15372697179E+02  0.32324980578E+02  0.38389636460E+02  0.00000000000E+00 0. -1.
</event>
<event>
 4    1  0.2243475E+005  0.6099863E+02  0.7546771E-02  0.1256477E+00
          2   -1    0    0  503    0  0.00000000000E+00  0.00000000000E+00  0.26635964481E+04  0.26635964481E+04  0.00000000000E+00 0. -1.
         21   -1    0    0  501  502 -0.00000000000E+00 -0.00000000000E+00 -0.77500111709E+01  0.77500111709E+01  0.00000000000E+00 0.  1.
          2    1    1    2  501    0 -0.49611257014E+02 -0.35490224947E+02  0.25372441752E+04  0.25379773123E+04  0.00000000000E+00 0. -1.
         21    1    1    2  503  502  0.49611257014E+02  0.35490224947E+02  0.11860226168E+03  0.13336914697E+03  0.00000000000E+00 0.  1.
</event>
<event>
 4    1  0.2243475E+005  0.3235107E+02  0.7546771E-02  0.1400208E+00
          2   -1    0    0  503    0  0.00000000000E+00  0.00000000000E+00  0.23014248800E+02  0.23014248800E+02  0.00000000000E+00 0. -1.
         21   -1    0    0  501  502 -0.00000000000E+00 -0.00000000000E+00 -0.46377920296E+02  0.46377920296E+02  0.00000000000E+00 0. -1.
          2    1    1    2  501    0  0.19691334113E+02 -0.25667934850E+02 -0.68428364006E+01  0.33066840318E+02  0.00000000000E+00 0. -1.
         21    1    1    2  503  502 -0.19691334113E+02  0.25667934850E+02 -0.16520835095E+02  0.36325328778E+02  0.00000000000E+00 0. -1.
</event>
<event>
 4    1  0.2243475E+005  0.2599990E+02  0.7546771E-02  0.1457921E+00
          2   -1    0    0  503    0  0.00000000000E+00  0.00000000000E+00  0.52025561019E+03  0.52025561019E+03  0.00000000000E+00 0. -1.
         21   -1    0    0  501  502 -0.00000000000E+00 -0.00000000000E+00 -0.11286151965E+03  0.11286151965E+03  0.00000000000E+00 0. -1.
          2    1    1    2  501    0 -0.25788207649E+01 -0.25871692347E+02  0.51842809849E+03  0.51907965485E+03  0.00000000000E+00 0. -1.
         21    1    1    2  503  502  0.25788207649E+01  0.25871692347E+02 -0.11103400794E+03  0.11403747499E+03  0.00000000000E+00 0. -1.
</event>
<event>
 4    1  0.2243475E+005  0.2160865E+02  0.7546771E-02  0.1510750E+00
          2   -1    0    0  502    0  0.00000000000E+00  0.00000000000E+00  0.12931103827E+04  0.12931103827E+04  0.00000000000E+00 0. -1.
         21   -1    0    0  503  502 -0.00000000000E+00 -0.00000000000E+00 -0.51719361886E+02  0.51719361886E+02  0.00000000000E+00 0. -1.
          2    1    1    2  501    0  0.77480989243E+01 -0.20171785039E+02  0.12907589420E+04  0.12909398050E+04  0.00000000000E+00 0. -1.
         21    1    1    2  503  501 -0.77480989243E+01  0.20171785039E+02 -0.49367921141E+02  0.53889939566E+02  0.00000000000E+00 0. -1.
</event>
<event>
 4    1  0.2243475E+005  0.2828873E+02  0.7546771E-02  0.1435075E+00
          2   -1    0    0  503    0  0.00000000000E+00  0.00000000000E+00  0.15549780449E+04  0.15549780449E+04  0.00000000000E+00 0.  1.
         21   -1    0    0  501  502 -0.00000000000E+00 -0.00000000000E+00 -0.41233329726E+01  0.41233329726E+01  0.00000000000E+00 0. -1.
          2    1    1    2  501    0 -0.27007095585E+02  0.84183726024E+01  0.15047088424E+04  0.15049747348E+04  0.00000000000E+00 0.  1.
         21    1    1    2  503  502  0.27007095585E+02 -0.84183726024E+01  0.46145869607E+02  0.54126643079E+02  0.00000000000E+00 0. -1.
</event>
<event>
 4    1  0.2243475E+005  0.2833151E+02  0.7546771E-02  0.1434673E+00
          2   -1    0    0  502    0  0.00000000000E+00  0.00000000000E+00  0.80119940032E+03  0.80119940032E+03  0.00000000000E+00 0. -1.
         21   -1    0    0  503  502 -0.00000000000E+00 -0.00000000000E+00 -0.10054714244E+01  0.10054714244E+01  0.00000000000E+00 0. -1.
          2    1    1    2  501    0  0.20993102021E+02  0.19025359074E+02  0.42419786713E+03  0.42514292314E+03  0.00000000000E+00 0. -1.
         21    1    1    2  503  501 -0.20993102021E+02 -0.19025359074E+02  0.37599606177E+03  0.37706194860E+03  0.00000000000E+00 0. -1.
</event>
<event>
 4    1  0.2243475E+005  0.2262996E+02  0.7546771E-02  0.1497198E+00
          2   -1    0    0  503    0  0.00000000000E+00  0.00000000000E+00  0.11310269999E+02  0.11310269999E+02  0.00000000000E+00 0. -1.
         21   -1    0    0  501  502 -0.00000000000E+00 -0.00000000000E+00 -0.17267013715E+03  0.17267013715E+03  0.00000000000E+00 0.  1.
          2    1    1    2  501    0 -0.87199431515E+01  0.20882474244E+02 -0.16661318243E+01  0.22691212712E+02  0.00000000000E+00 0. -1.
         21    1    1    2  503  502  0.87199431515E+01 -0.20882474244E+02 -0.15969373532E+03  0.16128919443E+03  0.00000000000E+00 0.  1.
</event>
<event>
 4    1  0.2243475E+005  0.2063288E+02  0.7546771E-02  0.1524572E+00
          2   -1    0    0  502    0  0.00000000000E+00  0.00000000000E+00  0.10546179973E+04  0.10546179973E+04  0.00000000000E+00 0. -1.
         21   -1    0    0  503  502 -0.00000000000E+00 -0.00000000000E+00 -0.81999926730E+00  0.81999926730E+00  0.00000000000E+00 0. -1.
          2    1    1    2  501    0  0.11543449421E+01 -0.20600560578E+02  0.90292292248E+03  0.90315863476E+03  0.00000000000E+00 0. -1.
         21    1    1    2  503  501 -0.11543449421E+01  0.20600560578E+02  0.15087507558E+03  0.15227936183E+03  0.00000000000E+00 0. -1.
</event>
<event>
 4    1  0.2243475E+005  0.7686713E+02  0.7546771E-02  0.1211313E+00
          2   -1    0    0  502    0  0.00000000000E+00  0.00000000000E+00  0.18307818932E+04  0.18307818932E+04  0.00000000000E+00 0. -1.
         21   -1    0    0  503  502 -0.00000000000E+00 -0.00000000000E+00 -0.39455262497E+01  0.39455262497E+01  0.00000000000E+00 0.  1.
          2    1    1    2  501    0 -0.59436243138E+02 -0.48743089870E+02  0.13048062696E+04  0.13070684592E+04  0.00000000000E+00 0. -1.
         21    1    1    2  503  501  0.59436243138E+02  0.48743089870E+02  0.52203009736E+03  0.52765896027E+03  0.00000000000E+00 0.  1.
</event>
<event>
 4    1  0.2243475E+005  0.2573062E+02  0.7546771E-02  0.1460794E+00
          2   -1    0    0  502    0  0.00000000000E+00  0.00000000000E+00  0.17232056932E+02  0.17232056932E+02  0.00000000000E+00 0.  1.
         21   -1    0    0  503  502 -0.00000000000E+00 -0.00000000000E+00 -0.29869089364E+03  0.29869089364E+03  0.00000000000E+00 0.  1.
          2    1    1    2  501    0  0.68391279910E+01 -0.24805059832E+02  0.67232221679E+01  0.26594480278E+02  0.00000000000E+00 0.  1.
         21    1    1    2  503  501 -0.68391279910E+01  0.24805059832E+02 -0.28818205888E+03  0.28932847029E+03  0.00000000000E+00 0.  1.
</event>
<event>
 4    1  0.2243475E+005  0.2861200E+02  0.7546771E-02  0.1432054E+00
          2   -1    0    0  503    0  0.00000000000E+00  0.00000000000E+00  0.58408156928E+03  0.58408156928E+03  0.00000000000E+00 0.  1.
         21   -1    0    0  501  502 -0.00000000000E+00 -0.00000000000E+00 -0.95849539671E+01  0.95849539671E+01  0.00000000000E+00 0. -1.
          2    1    1    2  501    0 -0.23914592926E+02  0.15707916445E+02  0.56152147563E+03  0.56224995686E+03  0.00000000000E+00 0.  1.
         21    1    1    2  503  502  0.23914592926E+02 -0.15707916445E+02  0.12975139683E+02  0.31416566389E+02  0.00000000000E+00 0. -1.
</event>
<event>
 4    1  0.2243475E+005  0.2340635E+02  0.7546771E-02  0.1487458E+00
          2   -1    0    0  503    0  0.00000000000E+00  0.00000000000E+00  0.23079744022E+03  0.23079744022E+03  0.00000000000E+00 0.  1.
         21   -1    0    0  501  502 -0.00000000000E+00 -0.00000000000E+00 -0.18078333101E+02  0.18078333101E+02  0.00000000000E+00 0. -1.
          2    1    1    2  501    0 -0.23243618462E+02  0.27552408099E+01  0.22234047031E+03  0.22356909869E+03  0.00000000000E+00 0.  1.
         21    1    1    2  503  502  0.23243618462E+02 -0.27552408099E+01 -0.96213631931E+01  0.25306674630E+02  0.00000000000E+00 0. -1.
</event>
<event>
 4    1  0.2243475E+005  0.2075669E+02  0.7546771E-02  0.1522767E+00
          2   -1    0    0  503    0  0.00000000000E+00  0.00000000000E+00  0.10227975715E+04  0.10227975715E+04  0.00000000000E+00 0. -1.
         21   -1    0    0  501  502 -0.00000000000E+00 -0.00000000000E+00 -0.48340562348E+00  0.48340562348E+00  0.00000000000E+00 0. -1.
          2    1    1    2  501    0  0.95034918534E+01  0.18453291004E+02  0.69463941547E+03  0.69494946423E+03  0.00000000000E+00 0. -1.
         21    1    1    2  503  502 -0.95034918534E+01 -0.18453291004E+02  0.32767475044E+03  0.32833151293E+03  0.00000000000E+00 0. -1.
</event>
<event>
 4    1  0.2243475E+005  0.2640586E+02  0.7546771E-02  0.1453669E+00
          2   -1    0    0  502    0  0.00000000000E+00  0.00000000000E+00  0.43750000855E+03  0.43750000855E+03  0.00000000000E+00 0. -1.
         21   -1    0    0  503  502 -0.00000000000E+00 -0.00000000000E+00 -0.23730078990E+02  0.23730078990E+02  0.00000000000E+00 0.  1.
          2    1    1    2  501    0 -0.24925372363E+02  0.87175289752E+01  0.42962113918E+03  0.43043186770E+03  0.00000000000E+00 0. -1.
         21    1    1    2  503  501  0.24925372363E+02 -0.87175289752E+01 -0.15851209623E+02  0.30798219841E+02  0.00000000000E+00 0.  1.
</event>
<event>
 4    1  0.2243475E+005  0.2844793E+02  0.7546771E-02  0.1433582E+00
          2   -1    0    0  502    0  0.00000000000E+00  0.00000000000E+00  0.77144059438E+02  0.77144059438E+02  0.00000000000E+00 0.  1.
         21   -1    0    0  503  502 -0.00000000000E+00 -0.00000000000E+00 -0.54920515329E+02  0.54920515329E+02  0.00000000000E+00 0.  1.
          2    1    1    2  501    0 -0.19733325339E+02 -0.20490983413E+02  0.70503637854E+02  0.76026623500E+02  0.00000000000E+00 0.  1.
         21    1    1    2  503  501  0.19733325339E+02  0.20490983413E+02 -0.48280093745E+02  0.56037951267E+02  0.00000000000E+00 0.  1.
</event>
<event>
 4    1  0.2243475E+005  0.3142481E+02  0.7546771E-02  0.1407606E+00
          2   -1    0    0  503    0  0.00000000000E+00  0.00000000000E+00  0.13318361473E+04  0.13318361473E+04  0.00000000000E+00 0. -1.
         21   -1    0    0  501  502 -0.00000000000E+00 -0.00000000000E+00 -0.38128711835E+02  0.38128711835E+02  0.00000000000E+00 0.  1.
          2    1    1    2  501    0  0.75373651402E+01 -0.30507487551E+02  0.13251431790E+04  0.13255157350E+04  0.00000000000E+00 0. -1.
         21    1    1    2  503  502 -0.75373651402E+01  0.30507487551E+02 -0.31435743548E+02  0.44449124202E+02  0.00000000000E+00 0.  1.
</event>
<event>
 4    1  0.2243475E+005  0.2390313E+02  0.7546771E-02  0.1481459E+00
          2   -1    0    0  503    0  0.00000000000E+00  0.00000000000E+00  0.14066484068E+04  0.14066484068E+04  0.00000000000E+00 0.  1.
         21   -1    0    0  501  502 -0.00000000000E+00 -0.00000000000E+00 -0.48253358375E+01  0.48253358375E+01  0.00000000000E+00 0. -1.
          2    1    1    2  501    0 -0.10464595248E+01  0.23880214264E+02  0.13762919153E+04  0.13764994718E+04  0.00000000000E+00 0.  1.
         21    1    1    2  503  502  0.10464595248E+01 -0.23880214264E+02  0.25531155599E+02  0.34974270786E+02  0.00000000000E+00 0. -1.
</event>
<event>
 4    1  0.2243475E+005  0.2939483E+02  0.7546771E-02  0.1424929E+00
          2   -1    0    0  502    0  0.00000000000E+00  0.00000000000E+00  0.28440564765E+03  0.28440564765E+03  0.00000000000E+00 0. -1.
         21   -1    0    0  503  502 -0.00000000000E+00 -0.00000000000E+00 -0.32207868426E+01  0.32207868426E+01  0.00000000000E+00 0. -1.
          2    1    1    2  501    0 -0.22252218537E+02 -0.19206641744E+02  0.10634273301E+03  0.11033056323E+03  0.00000000000E+00 0. -1.
         21    1    1    2  503  501  0.22252218537E+02  0.19206641744E+02  0.17484212780E+03  0.17729587127E+03  0.00000000000E+00 0. -1.
</event>
<event>
 4    1  0.2243475E+005  0.2365675E+02  0.7546771E-02  0.1484412E+00
          2   -1    0    0  502    0  0.00000000000E+00  0.00000000000E+00  0.14947736706E+03  0.14947736706E+03  0.00000000000E+00 0. -1.
         21   -1    0    0  503  502 -0.00000000000E+00 -0.00000000000E+00 -0.88477743331E+01  0.88477743331E+01  0.00000000000E+00 0.  1.
          2    1    1    2  501    0 -0.36661552162E+01  0.23370950418E+02  0.13043894729E+03  0.13256681707E+03  0.00000000000E+00 0. -1.
         21    1    1    2  503  501  0.36661552162E+01 -0.23370950418E+02  0.10190645434E+02  0.25758324322E+02  0.00000000000E+00 0.  1.
</event>
<event>
 4    1  0.2243475E+005  0.2491479E+02  0.7546771E-02  0.1469759E+00
          2   -1    0    0  502    0  0.00000000000E+00  0.00000000000E+00  0.30114046767E+03  0.30114046767E+03  0.00000000000E+00 0. -1.
         21   -1    0    0  503  502 -0.00000000000E+00 -0.00000000000E+00 -0.49915982570E+01  0.49915982570E+01  0.00000000000E+00 0. -1.
          2    1    1    2  501    0 -0.23754289872E+02 -0.75153634542E+01  0.26535158906E+03  0.26651869126E+03  0.00000000000E+00 0. -1.
         21    1    1    2  503  501  0.23754289872E+02  0.75153634542E+01  0.30797280349E+02  0.39613374661E+02  0.00000000000E+00 0. -1.
</event>
<event>
 4    1  0.2243475E+005  0.2110934E+02  0.7546771E-02  0.1517709E+00
          2   -1    0    0  503    0  0.00000000000E+00  0.00000000000E+00  0.14347795853E+04  0.14347795853E+04  0.00000000000E+00 0. -1.
         21   -1    0    0  501  502 -0.00000000000E+00 -0.00000000000E+00 -0.73523732946E+00  0.73523732946E+00  0.00000000000E+00 0. -1.
          2    1    1    2  501    0  0.15324430673E+02 -0.14517784004E+02  0.12625119940E+04  0.12626884570E+04  0.00000000000E+00 0. -1.
         21    1    1    2  503  502 -0.15324430673E+02  0.14517784004E+02  0.17153235389E+03  0.17282636564E+03  0.00000000000E+00 0. -1.
</event>
<event>
 4    1  0.2243475E+005  0.2779008E+02  0.7546771E-02  0.1439829E+00
          2   -1    0    0  503    0  0.00000000000E+00  0.00000000000E+00  0.89746961376E+01  0.89746961376E+01  0.00000000000E+00 0. -1.
         21   -1    0    0  501  502 -0.00000000000E+00 -0.00000000000E+00 -0.32659107233E+03  0.32659107233E+03  0.00000000000E+00 0.  1.
          2    1    1    2  501    0  0.16929158588E+02 -0.22038426944E+02 -0.14816140898E+02  0.31492962766E+02  0.00000000000E+00 0. -1.
         21    1    1    2  503  502 -0.16929158588E+02  0.22038426944E+02 -0.30280023530E+03  0.30407280570E+03  0.00000000000E+00 0.  1.
</event>
<event>
 4    1  0.2243475E+005  0.4179139E+02  0.7546771E-02  0.1338296E+00
          2   -1    0    0  503    0  0.00000000000E+00  0.00000000000E+00  0.12367080440E+04  0.12367080440E+04  0.00000000000E+00 0.  1.
         21   -1    0    0  501  502 -0.00000000000E+00 -0.00000000000E+00 -0.40408750108E+01  0.40408750108E+01  0.00000000000E+00 0.  1.
          2    1    1    2  501    0 -0.32317670555E+02 -0.26496956602E+02  0.11166927752E+04  0.11174745074E+04  0.00000000000E+00 0.  1.
         21    1    1    2  503  502  0.32317670555E+02  0.26496956602E+02  0.11597439378E+03  0.12327441159E+03  0.00000000000E+00 0.  1.
</event>
<event>
 4    1  0.2243475E+005  0.2003966E+02  0.7546771E-02  0.1533430E+00
          2   -1    0    0  503    0  0.00000000000E+00  0.00000000000E+00  0.10684839735E+01  0.10684839735E+01  0.00000000000E+00 0. -1.
         21   -1    0    0  501  502 -0.00000000000E+00 -0.00000000000E+00 -0.58074386338E+03  0.58074386338E+03  0.00000000000E+00 0. -1.
          2    1    1    2  501    0 -0.98141824243E+01  0.17471970375E+02 -0.11704440493E+03  0.11874755008E+03  0.00000000000E+00 0. -1.
         21    1    1    2  503  502  0.98141824243E+01 -0.17471970375E+02 -0.46263097448E+03  0.46306479728E+03  0.00000000000E+00 0. -1.
</event>
<event>
 4    1  0.2243475E+005  0.2723146E+02  0.7546771E-02  0.1445297E+00
          2   -1    0    0  502    0  0.00000000000E+00  0.00000000000E+00  0.25898335089E+03  0.25898335089E+03  0.00000000000E+00 0.  1.
         21   -1    0    0  503  502 -0.00000000000E+00 -0.00000000000E+00 -0.54162407578E+01  0.54162407578E+01  0.00000000000E+00 0.  1.
          2    1    1    2  501    0 -0.19356502840E+00 -0.27230775098E+02  0.21754478012E+03  0.21924252311E+03  0.00000000000E+00 0.  1.
         21    1    1    2  503  501  0.19356502840E+00  0.27230775098E+02  0.36022330011E+02  0.45157068542E+02  0.00000000000E+00 0.  1.
</event>
<event>
 4    1  0.2243475E+005  0.2495638E+02  0.7546771E-02  0.1469292E+00
          2   -1    0    0  502    0  0.00000000000E+00  0.00000000000E+00  0.29771374724E+03  0.29771374724E+03  0.00000000000E+00 0.  1.
         21   -1    0    0  503  502 -0.00000000000E+00 -0.00000000000E+00 -0.20921928249E+01  0.20921928249E+01  0.00000000000E+00 0.  1.
          2    1    1    2  501    0  0.24825817547E+02 -0.25494546845E+01  0.14641982239E+03  0.14853142874E+03  0.00000000000E+00 0.  1.
         21    1    1    2  503  501 -0.24825817547E+02  0.25494546845E+01  0.14920173203E+03  0.15127451133E+03  0.00000000000E+00 0.  1.
</event>
<event>
 4    1  0.2243475E+005  0.2842003E+02  0.7546771E-02  0.1433842E+00
          2   -1    0    0  502    0  0.00000000000E+00  0.00000000000E+00  0.16333240906E+02  0.16333240906E+02  0.00000000000E+00 0. -1.
         21   -1    0    0  503  502 -0.00000000000E+00 -0.00000000000E+00 -0.78200087353E+03  0.78200087353E+03  0.00000000000E+00 0.  1.
          2    1    1    2  501    0  0.27621466884E+02 -0.66897335627E+01  0.35061342738E+01  0.28635484028E+02  0.00000000000E+00 0. -1.
         21    1    1    2  503  501 -0.27621466884E+02  0.66897335627E+01 -0.76917376689E+03  0.76969863040E+03  0.00000000000E+00 0.  1.
</event>
<event>
 4    1  0.2243475E+005  0.2045823E+02  0.7546771E-02  0.1527142E+00
          2   -1    0    0  503    0  0.00000000000E+00  0.00000000000E+00  0.52784331190E+03  0.52784331190E+03  0.00000000000E+00 0. -1.
         21   -1    0    0  501  502 -0.00000000000E+00 -0.00000000000E+00 -0.20626758434E+01  0.20626758434E+01  0.00000000000E+00 0. -1.
          2    1    1    2  501    0  0.20448222117E+02 -0.63969501375E+00  0.47077044386E+03  0.47121475975E+03  0.00000000000E+00 0. -1.
         21    1    1    2  503  502 -0.20448222117E+02  0.63969501375E+00  0.55010192196E+02  0.58691227990E+02  0.00000000000E+00 0. -1.
</event>
<event>
 4    1  0.2243475E+005  0.2837279E+02  0.7546771E-02  0.1434285E+00
          2   -1    0    0  503    0  0.00000000000E+00  0.00000000000E+00  0.10914315429E+04  0.10914315429E+04  0.00000000000E+00 0.  1.
         21   -1    0    0  501  502 -0.00000000000E+00 -0.00000000000E+00 -0.12598943912E+02  0.12598943912E+02  0.00000000000E+00 0. -1.
          2    1    1    2  501    0 -0.75066770655E+00 -0.28362857717E+02  0.10750296120E+04  0.10754039622E+04  0.00000000000E+00 0.  1.
         21    1    1    2  503  502  0.75066770655E+00  0.28362857717E+02  0.38029869377E+01  0.28626524580E+02  0.00000000000E+00 0. -1.
</event>
<event>
 4    1  0.2243475E+005  0.2077053E+02  0.7546771E-02  0.1522566E+00
          2   -1    0    0  503    0  0.00000000000E+00  0.00000000000E+00  0.19845880382E+00  0.19845880382E+00  0.00000000000E+00 0. -1.
         21   -1    0    0  501  502 -0.00000000000E+00 -0.00000000000E+00 -0.22679177609E+04  0.22679177609E+04  0.00000000000E+00 0. -1.
          2    1    1    2  501    0  0.20437751105E+02 -0.37031540376E+01 -0.13648512307E+04  0.13650092663E+04  0.00000000000E+00 0. -1.
         21    1    1    2  503  502 -0.20437751105E+02  0.37031540376E+01 -0.90286807138E+03  0.90310695343E+03  0.00000000000E+00 0. -1.
</event>
<event>
 4    1  0.2243475E+005  0.4309087E+02  0.7546771E-02  0.1331267E+00
          2   -1    0    0  502    0  0.00000000000E+00  0.00000000000E+00  0.28923651569E+04  0.28923651569E+04  0.00000000000E+00 0. -1.
         21   -1    0    0  503  502 -0.00000000000E+00 -0.00000000000E+00 -0.46389850843E+03  0.46389850843E+03  0.00000000000E+00 0. -1.
          2    1    1    2  501    0 -0.28745887068E+02 -0.32101359534E+02  0.28912035989E+04  0.28915246971E+04  0.00000000000E+00 0. -1.
         21    1    1    2  503  501  0.28745887068E+02  0.32101359534E+02 -0.46273695046E+03  0.46473896827E+03  0.00000000000E+00 0. -1.
</event>
<event>
 4    1  0.2243475E+005  0.3472606E+02  0.7546771E-02  0.1382499E+00
          2   -1    0    0  503    0  0.00000000000E+00  0.00000000000E+00  0.63603718046E+03  0.63603718046E+03  0.00000000000E+00 0.  1.
         21   -1    0    0  501  502 -0.00000000000E+00 -0.00000000000E+00 -0.69975692912E+01  0.69975692912E+01  0.00000000000E+00 0. -1.
          2    1    1    2  501    0 -0.33440827277E+02 -0.93600291932E+01  0.58904649526E+03  0.59006921005E+03  0.00000000000E+00 0.  1.
         21    1    1    2  503  502  0.33440827277E+02  0.93600291932E+01  0.39993115913E+02  0.52965539702E+02  0.00000000000E+00 0. -1.
</event>
<event>
 4    1  0.2243475E+005  0.2409261E+02  0.7546771E-02  0.1479216E+00
          2   -1    0    0  503    0  0.00000000000E+00  0.00000000000E+00  0.49708944393E+03  0.49708944393E+03  0.00000000000E+00 0. -1.
         21   -1    0    0  501  502 -0.00000000000E+00 -0.00000000000E+00 -0.14862898554E+01  0.14862898554E+01  0.00000000000E+00 0.  1.
          2    1    1    2  501    0 -0.15739698773E+02 -0.18240502205E+02  0.36321641907E+03  0.36401458915E+03  0.00000000000E+00 0. -1.
         21    1    1    2  503  502  0.15739698773E+02  0.18240502205E+02  0.13238673501E+03  0.13456114463E+03  0.00000000000E+00 0.  1.
</event>
<event>
 4    1  0.2243475E+005  0.2192860E+02  0.7546771E-02  0.1506408E+00
          2   -1    0    0  503    0  0.00000000000E+00  0.00000000000E+00  0.47630743200E+03  0.47630743200E+03  0.00000000000E+00 0. -1.
         21   -1    0    0  501  502 -0.00000000000E+00 -0.00000000000E+00 -0.52678471611E+01  0.52678471611E+01  0.00000000000E+00 0. -1.
          2    1    1    2  501    0  0.12942337440E+02 -0.17701961807E+02  0.45200827607E+03  0.45253988243E+03  0.00000000000E+00 0. -1.
         21    1    1    2  503  502 -0.12942337440E+02  0.17701961807E+02  0.19031308773E+02  0.29035396740E+02  0.00000000000E+00 0. -1.
</event>
<event>
 4    1  0.2243475E+005  0.2003522E+02  0.7546771E-02  0.1533498E+00
          2   -1    0    0  503    0  0.00000000000E+00  0.00000000000E+00  0.15933867779E+03  0.15933867779E+03  0.00000000000E+00 0. -1.
         21   -1    0    0  501  502 -0.00000000000E+00 -0.00000000000E+00 -0.24005533313E+02  0.24005533313E+02  0.00000000000E+00 0.  1.
          2    1    1    2  501    0 -0.19996279343E+02  0.12484721185E+01  0.15439519216E+03  0.15568970818E+03  0.00000000000E+00 0. -1.
         21    1    1    2  503  502  0.19996279343E+02 -0.12484721185E+01 -0.19062047683E+02  0.27654502926E+02  0.00000000000E+00 0.  1.
</event>
<event>
 4    1  0.2243475E+005  0.2305724E+02  0.7546771E-02  0.1491781E+00
          2   -1    0    0  503    0  0.00000000000E+00  0.00000000000E+00  0.54369531003E+02  0.54369531003E+02  0.00000000000E+00 0. -1.
         21   -1    0    0  501  502 -0.00000000000E+00 -0.00000000000E+00 -0.16905917361E+02  0.16905917361E+02  0.00000000000E+00 0.  1.
          2    1    1    2  501    0  0.17440570539E+02 -0.15081876416E+02  0.41871928108E+02  0.47800573851E+02  0.00000000000E+00 0. -1.
         21    1    1    2  503  502 -0.17440570539E+02  0.15081876416E+02 -0.44083144670E+01  0.23474874513E+02  0.00000000000E+00 0.  1.
</event>
<event>
 4    1  0.2243475E+005  0.6791407E+02  0.7546771E-02  0.1235081E+00
          2   -1    0    0  503    0  0.00000000000E+00  0.00000000000E+00  0.14826995463E+04  0.14826995463E+04  0.00000000000E+00 0. -1.
         21   -1    0    0  501  502 -0.00000000000E+00 -0.00000000000E+00 -0.56418052951E+01  0.56418052951E+01  0.00000000000E+00 0.  1.
          2    1    1    2  501    0  0.47334557789E+02 -0.48700720576E+02  0.12369696583E+04  0.12388326183E+04  0.00000000000E+00 0. -1.
         21    1    1    2  503  502 -0.47334557789E+02  0.48700720576E+02  0.24008808267E+03  0.24950873328E+03  0.00000000000E+00 0.  1.
</event>
<event>
 4    1  0.2243475E+005  0.3496088E+02  0.7546771E-02  0.1380838E+00
          2   -1    0    0  502    0  0.00000000000E+00  0.00000000000E+00  0.38547016632E+03  0.38547016632E+03  0.00000000000E+00 0. -1.
         21   -1    0    0  503  502 -0.00000000000E+00 -0.00000000000E+00 -0.31709283516E+01  0.31709283516E+01  0.00000000000E+00 0. -1.
          2    1    1    2  501    0  0.21012542972E+02  0.27941659034E+02  0.19010967486E+03  0.19329757305E+03  0.00000000000E+00 0. -1.
         21    1    1    2  503  501 -0.21012542972E+02 -0.27941659034E+02  0.19218956311E+03  0.19534352162E+03  0.00000000000E+00 0. -1.
</event>
<event>
 4    1  0.2243475E+005  0.3165425E+02  0.7546771E-02  0.1405746E+00
          2   -1    0    0  503    0  0.00000000000E+00  0.00000000000E+00  0.43788697420E+03  0.43788697420E+03  0.00000000000E+00 0. -1.
         21   -1    0    0  501  502 -0.00000000000E+00 -0.00000000000E+00 -0.25454955236E+01  0.25454955236E+01  0.00000000000E+00 0.  1.
          2    1    1    2  501    0  0.17575229283E+02  0.26326850829E+02  0.28767799803E+03  0.28941427454E+03  0.00000000000E+00 0. -1.
         21    1    1    2  503  502 -0.17575229283E+02 -0.26326850829E+02  0.14766348064E+03  0.15101819518E+03  0.00000000000E+00 0.  1.
</event>
<event>
 4    1  0.2243475E+005  0.2724008E+02  0.7546771E-02  0.1445211E+00
          2   -1    0    0  503    0  0.00000000000E+00  0.00000000000E+00  0.17560972302E+04  0.17560972302E+04  0.00000000000E+00 0.  1.
         21   -1    0    0  501  502 -0.00000000000E+00 -0.00000000000E+00 -0.23246250002E+01  0.23246250002E+01  0.00000000000E+00 0.  1.
          2    1    1    2  501    0  0.24097332030E+02  0.12701999965E+02  0.16721873010E+04  0.16724091580E+04  0.00000000000E+00 0.  1.
         21    1    1    2  503  502 -0.24097332030E+02 -0.12701999965E+02  0.81585304175E+02  0.86012697152E+02  0.00000000000E+00 0.  1.
</event>
<event>
 4    1  0.2243475E+005  0.5460915E+02  0.7546771E-02  0.1279337E+00
          2   -1    0    0  503    0  0.00000000000E+00  0.00000000000E+00  0.28087666845E+04  0.28087666845E+04  0.00000000000E+00 0. -1.
         21   -1    0    0  501  502 -0.00000000000E+00 -0.00000000000E+00 -0.20363096750E+01  0.20363096750E+01  0.00000000000E+00 0.  1.
          2    1    1    2  501    0  0.48124275538E+02  0.25811099241E+02  0.23756346108E+04  0.23762621831E+04  0.00000000000E+00 0. -1.
         21    1    1    2  503  502 -0.48124275538E+02 -0.25811099241E+02  0.43109576397E+03  0.43454081103E+03  0.00000000000E+00 0.  1.
</event>
<event>
 4    1  0.2243475E+005  0.2686455E+02  0.7546771E-02  0.1448973E+00
          2   -1    0    0  503    0  0.00000000000E+00  0.00000000000E+00  0.24259890591E+03  0.24259890591E+03  0.00000000000E+00 0. -1.
         21   -1    0    0  501  502 -0.00000000000E+00 -0.00000000000E+00 -0.38650360800E+02  0.38650360800E+02  0.00000000000E+00 0. -1.
          2    1    1    2  501    0 -0.26624915726E+02  0.35802115122E+01  0.23707867743E+03  0.23859589967E+03  0.00000000000E+00 0. -1.
         21    1    1    2  503  502  0.26624915726E+02 -0.35802115122E+01 -0.33130132317E+02  0.42653367033E+02  0.00000000000E+00 0. -1.
</event>
<event>
 4    1  0.2243475E+005  0.2104172E+02  0.7546771E-02  0.1518670E+00
          2   -1    0    0  503    0  0.00000000000E+00  0.00000000000E+00  0.13188821719E+03  0.13188821719E+03  0.00000000000E+00 0.  1.
         21   -1    0    0  501  502 -0.00000000000E+00 -0.00000000000E+00 -0.52404374640E+01  0.52404374640E+01  0.00000000000E+00 0. -1.
          2    1    1    2  501    0  0.44036840034E+00 -0.21037107948E+02  0.10442803316E+03  0.10652684143E+03  0.00000000000E+00 0.  1.
         21    1    1    2  503  502 -0.44036840034E+00  0.21037107948E+02  0.22219746562E+02  0.30601813221E+02  0.00000000000E+00 0. -1.
</event>
<event>
 4    1  0.2243475E+005  0.2028706E+02  0.7546771E-02  0.1529692E+00
          2   -1    0    0  502    0  0.00000000000E+00  0.00000000000E+00  0.95991985754E+02  0.95991985754E+02  0.00000000000E+00 0. -1.
         21   -1    0    0  503  502 -0.00000000000E+00 -0.00000000000E+00 -0.24223986991E+02  0.24223986991E+02  0.00000000000E+00 0.  1.
          2    1    1    2  501    0 -0.38636196757E+00  0.20283384910E+02  0.90413781034E+02  0.92661841013E+02  0.00000000000E+00 0. -1.
         21    1    1    2  503  501  0.38636196757E+00 -0.20283384910E+02 -0.18645782271E+02  0.27554131731E+02  0.00000000000E+00 0.  1.
</event>
<event>
 4    1  0.2243475E+005  0.4843154E+02  0.7546771E-02  0.1305120E+00
          2   -1    0    0  503    0  0.00000000000E+00  0.00000000000E+00  0.93830459720E+03  0.93830459720E+03  0.00000000000E+00 0. -1.
         21   -1    0    0  501  502 -0.00000000000E+00 -0.00000000000E+00 -0.33826700031E+01  0.33826700031E+01  0.00000000000E+00 0.  1.
          2    1    1    2  501    0  0.28967126076E+02  0.38813914084E+02  0.70799949436E+03  0.70965406948E+03  0.00000000000E+00 0. -1.
         21    1    1    2  503  502 -0.28967126076E+02 -0.38813914084E+02  0.22692243283E+03  0.23203319772E+03  0.00000000000E+00 0.  1.
</event>
<event>
 4    1  0.2243475E+005  0.2539620E+02  0.7546771E-02  0.1464420E+00
          2   -1    0    0  502    0  0.00000000000E+00  0.00000000000E+00  0.61286828472E+03  0.61286828472E+03  0.00000000000E+00 0.  1.
         21   -1    0    0  503  502 -0.00000000000E+00 -0.00000000000E+00 -0.39453485058E+01  0.39453485058E+01  0.00000000000E+00 0. -1.
          2    1    1    2  501    0 -0.23371916608E+02  0.99358136083E+01  0.56855244173E+03  0.56911935996E+03  0.00000000000E+00 0.  1.
         21    1    1    2  503  501  0.23371916608E+02 -0.99358136083E+01  0.40370494484E+02  0.47694273271E+02  0.00000000000E+00 0. -1.
</event>
<event>
 4    1  0.2243475E+005  0.3749928E+02  0.7546771E-02  0.1363798E+00
          2   -1    0    0  502    0  0.00000000000E+00  0.00000000000E+00  0.18654713195E+04  0.18654713195E+04  0.00000000000E+00 0. -1.
         21   -1    0    0  503  502 -0.00000000000E+00 -0.00000000000E+00 -0.76778738708E+00  0.76778738708E+00  0.00000000000E+00 0. -1.
          2    1    1    2  501    0 -0.12963187135E+02 -0.35187379512E+02  0.80641428641E+03  0.80728569739E+03  0.00000000000E+00 0. -1.
         21    1    1    2  503  501  0.12963187135E+02  0.35187379512E+02  0.10582892457E+04  0.10589534095E+04  0.00000000000E+00 0. -1.
</event>
<event>
 4    1  0.2243475E+005  0.2223917E+02  0.7546771E-02  0.1502279E+00
          2   -1    0    0  503    0  0.00000000000E+00  0.00000000000E+00  0.11528688524E+01  0.11528688524E+01  0.00000000000E+00 0. -1.
         21   -1    0    0  501  502 -0.00000000000E+00 -0.00000000000E+00 -0.47599720818E+03  0.47599720818E+03  0.00000000000E+00 0. -1.
          2    1    1    2  501    0  0.21733227210E+02  0.47167207366E+01 -0.16245703879E+03  0.16397216249E+03  0.00000000000E+00 0. -1.
         21    1    1    2  503  502 -0.21733227210E+02 -0.47167207366E+01 -0.31238730054E+03  0.31317791454E+03  0.00000000000E+00 0. -1.
</event>
<event>
 4    1  0.2243475E+005  0.2141805E+02  0.7546771E-02  0.1513379E+00
          2   -1    0    0  502    0  0.00000000000E+00  0.00000000000E+00  0.90882982783E+02  0.90882982783E+02  0.00000000000E+00 0. -1.
         21   -1    0    0  503  502 -0.00000000000E+00 -0.00000000000E+00 -0.41224944295E+02  0.41224944295E+02  0.00000000000E+00 0.  1.
          2    1    1    2  501    0 -0.16253323918E+02 -0.13948566040E+02  0.86707224343E+02  0.89313357266E+02  0.00000000000E+00 0. -1.
         21    1    1    2  503  501  0.16253323918E+02  0.13948566040E+02 -0.37049185855E+02  0.42794569813E+02  0.00000000000E+00 0.  1.
</event>
<event>
 4    1  0.2243475E+005  0.2402367E+02  0.7546771E-02  0.1480029E+00
          2   -1    0    0  503    0  0.00000000000E+00  0.00000000000E+00  0.34340003803E+01  0.34340003803E+01  0.00000000000E+00 0.  1.
         21   -1    0    0  501  502 -0.00000000000E+00 -0.00000000000E+00 -0.17899255534E+03  0.17899255534E+03  0.00000000000E+00 0.  1.
          2    1    1    2  501    0  0.21032870572E+02 -0.11608415679E+02 -0.65242473132E+02  0.69524939838E+02  0.00000000000E+00 0.  1.
         21    1    1    2  503  502 -0.21032870572E+02  0.11608415679E+02 -0.11031608182E+03  0.11290161588E+03  0.00000000000E+00 0.  1.
</event>
<event>
 4    1  0.2243475E+005  0.4053936E+02  0.7546771E-02  0.1345354E+00
          2   -1    0    0  503    0  0.00000000000E+00  0.00000000000E+00  0.78502148076E+02  0.78502148076E+02  0.00000000000E+00 0.  1.
         21   -1    0    0  501  502 -0.00000000000E+00 -0.00000000000E+00 -0.23838072913E+02  0.23838072913E+02  0.00000000000E+00 0.  1.
          2    1    1    2  501    0 -0.39852204152E+02 -0.74324875959E+01  0.45189184129E+02  0.60708338883E+02  0.00000000000E+00 0.  1.
         21    1    1    2  503  502  0.39852204152E+02  0.74324875959E+01  0.94748910335E+01  0.41631882106E+02  0.00000000000E+00 0.  1.
</event>
<event>
 4    1  0.2243475E+005  0.5178066E+02  0.7546771E-02  0.1290631E+00
          2   -1    0    0  503    0  0.00000000000E+00  0.00000000000E+00  0.85080706539E+03  0.85080706539E+03  0.00000000000E+00 0.  1.
         21   -1    0    0  501  502 -0.00000000000E+00 -0.00000000000E+00 -0.73807262965E+01  0.73807262965E+01  0.00000000000E+00 0. -1.
          2    1    1    2  501    0  0.35298597090E+02 -0.37884635868E+02  0.74652974937E+03  0.74832339485E+03  0.00000000000E+00 0.  1.
         21    1    1    2  503  502 -0.35298597090E+02  0.37884635868E+02  0.96896589726E+02  0.10986439683E+03  0.00000000000E+00 0. -1.
</event>
<event>
 4    1  0.2243475E+005  0.2112437E+02  0.7546771E-02  0.1517496E+00
          2   -1    0    0  502    0  0.00000000000E+00  0.00000000000E+00  0.34754269311E+03  0.34754269311E+03  0.00000000000E+00 0.  1.
         21   -1    0    0  503  502 -0.00000000000E+00 -0.00000000000E+00 -0.48009056636E+01  0.48009056636E+01  0.00000000000E+00 0. -1.
          2    1    1    2  501    0 -0.21101750573E+02  0.97730464759E+00  0.32215521897E+03  0.32284705994E+03  0.00000000000E+00 0.  1.
         21    1    1    2  503  501  0.21101750573E+02 -0.97730464759E+00  0.20586568479E+02  0.29496538837E+02  0.00000000000E+00 0. -1.
</event>
<event>
 4    1  0.2243475E+005  0.2536250E+02  0.7546771E-02  0.1464789E+00
          2   -1    0    0  502    0  0.00000000000E+00  0.00000000000E+00  0.69841636506E+03  0.69841636506E+03  0.00000000000E+00 0.  1.
         21   -1    0    0  503  502 -0.00000000000E+00 -0.00000000000E+00 -0.82528886317E+01  0.82528886317E+01  0.00000000000E+00 0.  1.
          2    1    1    2  501    0 -0.23924332556E+02 -0.84191926146E+01  0.67811721621E+03  0.67859134640E+03  0.00000000000E+00 0.  1.
         21    1    1    2  503  501  0.23924332556E+02  0.84191926146E+01  0.12046260221E+02  0.28077907291E+02  0.00000000000E+00 0.  1.
</event>
<event>
 4    1  0.2243475E+005  0.3870216E+02  0.7546771E-02  0.1356264E+00
          2   -1    0    0  502    0  0.00000000000E+00  0.00000000000E+00  0.17036477583E+04  0.17036477583E+04  0.00000000000E+00 0.  1.
         21   -1    0    0  503  502 -0.00000000000E+00 -0.00000000000E+00 -0.13622135821E+01  0.13622135821E+01  0.00000000000E+00 0.  1.
          2    1    1    2  501    0  0.17907683368E+02 -0.34309940835E+02  0.13587775211E+04  0.13593285875E+04  0.00000000000E+00 0.  1.
         21    1    1    2  503  501 -0.17907683368E+02  0.34309940835E+02  0.34350802363E+03  0.34568138432E+03  0.00000000000E+00 0.  1.
</event>
<event>
 4    1  0.2243475E+005  0.2893247E+02  0.7546771E-02  0.1429106E+00
          2   -1    0    0  502    0  0.00000000000E+00  0.00000000000E+00  0.22277220892E+03  0.22277220892E+03  0.00000000000E+00 0. -1.
         21   -1    0    0  503  502 -0.00000000000E+00 -0.00000000000E+00 -0.28544429496E+02  0.28544429496E+02  0.00000000000E+00 0.  1.
          2    1    1    2  501    0 -0.26028054025E+02  0.12634401802E+02  0.21420963022E+03  0.21615469781E+03  0.00000000000E+00 0. -1.
         21    1    1    2  503  501  0.26028054025E+02 -0.12634401802E+02 -0.19981850804E+02  0.35161940601E+02  0.00000000000E+00 0.  1.
</event>
<event>
 4    1  0.2243475E+005  0.2019536E+02  0.7546771E-02  0.1531070E+00
          2   -1    0    0  503    0  0.00000000000E+00  0.00000000000E+00  0.83713473067E+03  0.83713473067E+03  0.00000000000E+00 0.  1.
         21   -1    0    0  501  502 -0.00000000000E+00 -0.00000000000E+00 -0.12990948669E+01  0.12990948669E+01  0.00000000000E+00 0. -1.
          2    1    1    2  501    0  0.18046203368E+02  0.90657213690E+01  0.74932966563E+03  0.74960176131E+03  0.00000000000E+00 0.  1.
         21    1    1    2  503  502 -0.18046203368E+02 -0.90657213690E+01  0.86505970170E+02  0.88832064228E+02  0.00000000000E+00 0. -1.
</event>
<event>
 4    1  0.2243475E+005  0.2398342E+02  0.7546771E-02  0.1480505E+00
          2   -1    0    0  502    0  0.00000000000E+00  0.00000000000E+00  0.42018385057E+02  0.42018385057E+02  0.00000000000E+00 0. -1.
         21   -1    0    0  503  502 -0.00000000000E+00 -0.00000000000E+00 -0.28223429684E+02  0.28223429684E+02  0.00000000000E+00 0.  1.
          2    1    1    2  501    0  0.17258683115E+02  0.16653598884E+02  0.32100612348E+02  0.40070610324E+02  0.00000000000E+00 0. -1.
         21    1    1    2  503  501 -0.17258683115E+02 -0.16653598884E+02 -0.18305656975E+02  0.30171204416E+02  0.00000000000E+00 0.  1.
</event>
<event>
 4    1  0.2243475E+005  0.2106626E+02  0.7546771E-02  0.1518321E+00
          2   -1    0    0  502    0  0.00000000000E+00  0.00000000000E+00  0.11250841866E+03  0.11250841866E+03  0.00000000000E+00 0.  1.
         21   -1    0    0  503  502 -0.00000000000E+00 -0.00000000000E+00 -0.12519735300E+02  0.12519735300E+02  0.00000000000E+00 0.  1.
          2    1    1    2  501    0  0.11550330241E+02 -0.17617520965E+02  0.10173164478E+03  0.10388991637E+03  0.00000000000E+00 0.  1.
         21    1    1    2  503  501 -0.11550330241E+02  0.17617520965E+02 -0.17429614255E+01  0.21138237584E+02  0.00000000000E+00 0.  1.
</event>
<event>
 4    1  0.2243475E+005  0.2131533E+02  0.7546771E-02  0.1514810E+00
          2   -1    0    0  503    0  0.00000000000E+00  0.00000000000E+00  0.10802772549E+03  0.10802772549E+03  0.00000000000E+00 0. -1.
         21   -1    0    0  501  502 -0.00000000000E+00 -0.00000000000E+00 -0.57182866903E+01  0.57182866903E+01  0.00000000000E+00 0. -1.
          2    1    1    2  501    0  0.14735481979E+02  0.15401581529E+02  0.80404244755E+02  0.83181642911E+02  0.00000000000E+00 0. -1.
         21    1    1    2  503  502 -0.14735481979E+02 -0.15401581529E+02  0.21905194046E+02  0.30564369271E+02  0.00000000000E+00 0. -1.
</event>
<event>
 4    1  0.2243475E+005  0.2519781E+02  0.7546771E-02  0.1466603E+00
          2   -1    0    0  503    0  0.00000000000E+00  0.00000000000E+00  0.25914842880E+03  0.25914842880E+03  0.00000000000E+00 0.  1.
         21   -1    0    0  501  502 -0.00000000000E+00 -0.00000000000E+00 -0.59238330304E+02  0.59238330304E+02  0.00000000000E+00 0. -1.
          2    1    1    2  501    0  0.21102411315E+02 -0.13770176277E+02  0.25582159606E+03  0.25705956222E+03  0.00000000000E+00 0.  1.
         21    1    1    2  503  502 -0.21102411315E+02  0.13770176277E+02 -0.55911497563E+02  0.61327196884E+02  0.00000000000E+00 0. -1.
</event>
<event>
 4    1  0.2243475E+005  0.2424855E+02  0.7546771E-02  0.1477388E+00
          2   -1    0    0  503    0  0.00000000000E+00  0.00000000000E+00  0.17322541889E+03  0.17322541889E+03  0.00000000000E+00 0. -1.
         21   -1    0    0  501  502 -0.00000000000E+00 -0.00000000000E+00 -0.39516376500E+02  0.39516376500E+02  0.00000000000E+00 0.  1.
          2    1    1    2  501    0  0.22396551686E+02  0.92944425692E+01  0.16855433662E+03  0.17028962559E+03  0.00000000000E+00 0. -1.
         21    1    1    2  503  502 -0.22396551686E+02 -0.92944425692E+01 -0.34845294234E+02  0.42452169796E+02  0.00000000000E+00 0.  1.
</event>
<event>
 4    1  0.2243475E+005  0.2428956E+02  0.7546771E-02  0.1476910E+00
          2   -1    0    0  503    0  0.00000000000E+00  0.00000000000E+00  0.13666915497E+02  0.13666915497E+02  0.00000000000E+00 0. -1.
         21   -1    0    0  501  502 -0.00000000000E+00 -0.00000000000E+00 -0.58709262868E+02  0.58709262868E+02  0.00000000000E+00 0. -1.
          2    1    1    2  501    0  0.11711612146E+02  0.21279582451E+02 -0.39026085682E+01  0.24601074000E+02  0.00000000000E+00 0. -1.
         21    1    1    2  503  502 -0.11711612146E+02 -0.21279582451E+02 -0.41139738802E+02  0.47775104365E+02  0.00000000000E+00 0. -1.
</event>
<event>
 4    1  0.2243475E+005  0.3628507E+02  0.7546771E-02  0.1371747E+00
          2   -1    0    0  503    0  0.00000000000E+00  0.00000000000E+00  0.55173316081E+02  0.55173316081E+02  0.00000000000E+00 0. -1.
         21   -1    0    0  501  502 -0.00000000000E+00 -0.00000000000E+00 -0.44372175887E+02  0.44372175887E+02  0.00000000000E+00 0.  1.
          2    1    1    2  501    0  0.22014964541E+02  0.28843501192E+02  0.39238930409E+02  0.53444362513E+02  0.00000000000E+00 0. -1.
         21    1    1    2  503  502 -0.22014964541E+02 -0.28843501192E+02 -0.28437790214E+02  0.46101129455E+02  0.00000000000E+00 0.  1.
</event>
<event>
 4    1  0.2243475E+005  0.8299716E+02  0.7546771E-02  0.1197055E+00
          2   -1    0    0  503    0  0.00000000000E+00  0.00000000000E+00  0.16298077391E+04  0.16298077391E+04  0.00000000000E+00 0.  1.
         21   -1    0    0  501  502 -0.00000000000E+00 -0.00000000000E+00 -0.25368466378E+02  0.25368466378E+02  0.00000000000E+00 0. -1.
          2    1    1    2  501    0  0.37294798076E+02  0.74145986455E+02  0.15577273373E+04  0.15599368534E+04  0.00000000000E+00 0.  1.
         21    1    1    2  503  502 -0.37294798076E+02 -0.74145986455E+02  0.46711935426E+02  0.95239352067E+02  0.00000000000E+00 0. -1.
</event>
<event>
 4    1  0.2243475E+005  0.3947064E+02  0.7546771E-02  0.1351616E+00
          2   -1    0    0  503    0  0.00000000000E+00  0.00000000000E+00  0.24554370846E+04  0.24554370846E+04  0.00000000000E+00 0. -1.
         21   -1    0    0  501  502 -0.00000000000E+00 -0.00000000000E+00 -0.64223788217E+00  0.64223788217E+00  0.00000000000E+00 0. -1.
          2    1    1    2  501    0  0.37060449269E+02 -0.13581415682E+02  0.13623456769E+04  0.13629173398E+04  0.00000000000E+00 0. -1.
         21    1    1    2  503  502 -0.37060449269E+02  0.13581415682E+02  0.10924491699E+04  0.10931619827E+04  0.00000000000E+00 0. -1.
</event>
<event>
 4    1  0.2243475E+005  0.3737837E+02  0.7546771E-02  0.1364573E+00
          2   -1    0    0  503    0  0.00000000000E+00  0.00000000000E+00  0.15318423776E+04  0.15318423776E+04  0.00000000000E+00 0.  1.
         21   -1    0    0  501  502 -0.00000000000E+00 -0.00000000000E+00 -0.11105901745E+02  0.11105901745E+02  0.00000000000E+00 0.  1.
          2    1    1    2  501    0 -0.33824981023E+02 -0.15906399114E+02  0.14994853444E+04  0.14999511461E+04  0.00000000000E+00 0.  1.
         21    1    1    2  503  502  0.33824981023E+02  0.15906399114E+02  0.21251131505E+02  0.42997133209E+02  0.00000000000E+00 0.  1.
</event>
<event>
 4    1  0.2243475E+005  0.2382421E+02  0.7546771E-02  0.1482400E+00
          2   -1    0    0  503    0  0.00000000000E+00  0.00000000000E+00  0.12077598671E+04  0.12077598671E+04  0.00000000000E+00 0. -1.
         21   -1    0    0  501  502 -0.00000000000E+00 -0.00000000000E+00 -0.47817310761E+00  0.47817310761E+00  0.00000000000E+00 0. -1.
          2    1    1    2  501    0 -0.92988658054E+01 -0.21934536363E+02  0.52444255876E+03  0.52498341900E+03  0.00000000000E+00 0. -1.
         21    1    1    2  503  502  0.92988658054E+01  0.21934536363E+02  0.68283913523E+03  0.68325462120E+03  0.00000000000E+00 0. -1.
</event>
<event>
 4    1  0.2243475E+005  0.2031921E+02  0.7546771E-02  0.1529211E+00
          2   -1    0    0  502    0  0.00000000000E+00  0.00000000000E+00  0.13270355301E+04  0.13270355301E+04  0.00000000000E+00 0.  1.
         21   -1    0    0  503  502 -0.00000000000E+00 -0.00000000000E+00 -0.41492697710E+00  0.41492697710E+00  0.00000000000E+00 0. -1.
          2    1    1    2  501    0 -0.93224908500E+01  0.18054406890E+02  0.99528944264E+03  0.99549683329E+03  0.00000000000E+00 0.  1.
         21    1    1    2  503  501  0.93224908500E+01 -0.18054406890E+02  0.33133116052E+03  0.33195362383E+03  0.00000000000E+00 0. -1.
</event>
<event>
 4    1  0.2243475E+005  0.3025830E+02  0.7546771E-02  0.1417365E+00
          2   -1    0    0  502    0  0.00000000000E+00  0.00000000000E+00  0.30365056267E+02  0.30365056267E+02  0.00000000000E+00 0. -1.
         21   -1    0    0  503  502 -0.00000000000E+00 -0.00000000000E+00 -0.33238607035E+02  0.33238607035E+02  0.00000000000E+00 0.  1.
          2    1    1    2  501    0  0.89525095757E+00 -0.30245051402E+02  0.82544199485E+01  0.31363993006E+02  0.00000000000E+00 0. -1.
         21    1    1    2  503  501 -0.89525095757E+00  0.30245051402E+02 -0.11127970716E+02  0.32239670297E+02  0.00000000000E+00 0.  1.
</event>
<event>
 4    1  0.2243475E+005  0.3596192E+02  0.7546771E-02  0.1373924E+00
          2   -1    0    0  503    0  0.00000000000E+00  0.00000000000E+00  0.83243662028E+02  0.83243662028E+02  0.00000000000E+00 0. -1.
         21   -1    0    0  501  502 -0.00000000000E+00 -0.00000000000E+00 -0.38423941418E+02  0.38423941418E+02  0.00000000000E+00 0. -1.
          2    1    1    2  501    0  0.33157275465E+02  0.13923183847E+02  0.69361300154E+02  0.78129699371E+02  0.00000000000E+00 0. -1.
         21    1    1    2  503  502 -0.33157275465E+02 -0.13923183847E+02 -0.24541579545E+02  0.43537904075E+02  0.00000000000E+00 0. -1.
</event>
<event>
 4    1  0.2243475E+005  0.2687436E+02  0.7546771E-02  0.1448874E+00
          2   -1    0    0  503    0  0.00000000000E+00  0.00000000000E+00  0.32894749248E+03  0.32894749248E+03  0.00000000000E+00 0. -1.
         21   -1    0    0  501  502 -0.00000000000E+00 -0.00000000000E+00 -0.21956803608E+01  0.21956803608E+01  0.00000000000E+00 0. -1.
          2    1    1    2  501    0 -0.76921317248E+01 -0.25749991880E+02  0.16226394070E+03  0.16447436707E+03  0.00000000000E+00 0. -1.
         21    1    1    2  503  502  0.76921317248E+01  0.25749991880E+02  0.16448787142E+03  0.16666880577E+03  0.00000000000E+00 0. -1.
</event>
<event>
 4    1  0.2243475E+005  0.2967426E+02  0.7546771E-02  0.1422449E+00
          2   -1    0    0  502    0  0.00000000000E+00  0.00000000000E+00  0.78010389525E+03  0.78010389525E+03  0.00000000000E+00 0.  1.
         21   -1    0    0  503  502 -0.00000000000E+00 -0.00000000000E+00 -0.19254891284E+02  0.19254891284E+02  0.00000000000E+00 0. -1.
          2    1    1    2  501    0 -0.12431937418E+02  0.26944548162E+02  0.76821182116E+03  0.76878473184E+03  0.00000000000E+00 0.  1.
         21    1    1    2  503  501  0.12431937418E+02 -0.26944548162E+02 -0.73628171898E+01  0.30574054696E+02  0.00000000000E+00 0. -1.
</event>
<event>
 4    1  0.2243475E+005  0.6395250E+02  0.7546771E-02  0.1246964E+00
          2   -1    0    0  502    0  0.00000000000E+00  0.00000000000E+00  0.95994851823E+03  0.95994851823E+03  0.00000000000E+00 0.  1.
         21   -1    0    0  503  502 -0.00000000000E+00 -0.00000000000E+00 -0.65804065764E+01  0.65804065764E+01  0.00000000000E+00 0.  1.
          2    1    1    2  501    0  0.55015513051E+02  0.32606990636E+02  0.76362182188E+03  0.76629511897E+03  0.00000000000E+00 0.  1.
         21    1    1    2  503  501 -0.55015513051E+02 -0.32606990636E+02  0.18974628977E+03  0.20023380583E+03  0.00000000000E+00 0.  1.
</event>
<event>
 4    1  0.2243475E+005  0.2726295E+02  0.7546771E-02  0.1444984E+00
          2   -1    0    0  502    0  0.00000000000E+00  0.00000000000E+00  0.15857932875E+04  0.15857932875E+04  0.00000000000E+00 0.  1.
         21   -1    0    0  503  502 -0.00000000000E+00 -0.00000000000E+00 -0.28166318502E+01  0.28166318502E+01  0.00000000000E+00 0.  1.
          2    1    1    2  501    0  0.22781555948E+02 -0.14975623509E+02  0.15166996078E+04  0.15169446163E+04  0.00000000000E+00 0.  1.
         21    1    1    2  503  501 -0.22781555948E+02  0.14975623509E+02  0.66277047841E+02  0.71665303051E+02  0.00000000000E+00 0.  1.
</event>
<event>
 4    1  0.2243475E+005  0.2051339E+02  0.7546771E-02  0.1526327E+00
          2   -1    0    0  503    0  0.00000000000E+00  0.00000000000E+00  0.46097723122E+03  0.46097723122E+03  0.00000000000E+00 0. -1.
         21   -1    0    0  501  502 -0.00000000000E+00 -0.00000000000E+00 -0.11217224948E+02  0.11217224948E+02  0.00000000000E+00 0. -1.
          2    1    1    2  501    0  0.12993345060E+02 -0.15873628479E+02  0.45116678263E+03  0.45163288725E+03  0.00000000000E+00 0. -1.
         21    1    1    2  503  502 -0.12993345060E+02  0.15873628479E+02 -0.14067763515E+01  0.20561568925E+02  0.00000000000E+00 0. -1.
</event>
<event>
 4    1  0.2243475E+005  0.4066750E+02  0.7546771E-02  0.1344618E+00
          2   -1    0    0  503    0  0.00000000000E+00  0.00000000000E+00  0.14431651907E+03  0.14431651907E+03  0.00000000000E+00 0.  1.
         21   -1    0    0  501  502 -0.00000000000E+00 -0.00000000000E+00 -0.35563016991E+02  0.35563016991E+02  0.00000000000E+00 0. -1.
          2    1    1    2  501    0  0.39228832339E+02 -0.10721199090E+02  0.12842069370E+03  0.13470605022E+03  0.00000000000E+00 0.  1.
         21    1    1    2  503  502 -0.39228832339E+02  0.10721199090E+02 -0.19667191620E+02  0.45173485839E+02  0.00000000000E+00 0. -1.
</event>
<event>
 4    1  0.2243475E+005  0.3801433E+02  0.7546771E-02  0.1360532E+00
          2   -1    0    0  503    0  0.00000000000E+00  0.00000000000E+00  0.51787076252E+03  0.51787076252E+03  0.00000000000E+00 0.  1.
         21   -1    0    0  501  502 -0.00000000000E+00 -0.00000000000E+00 -0.91797607495E+02  0.91797607495E+02  0.00000000000E+00 0. -1.
          2    1    1    2  501    0 -0.20763403642E+02 -0.31842903890E+02  0.51320186524E+03  0.51460785453E+03  0.00000000000E+00 0.  1.
         21    1    1    2  503  502  0.20763403642E+02  0.31842903890E+02 -0.87128710219E+02  0.95060515480E+02  0.00000000000E+00 0. -1.
</event>
<event>
 4    1  0.2243475E+005  0.2191725E+02  0.7546771E-02  0.1506561E+00
          2   -1    0    0  503    0  0.00000000000E+00  0.00000000000E+00  0.16715961808E+04  0.16715961808E+04  0.00000000000E+00 0.  1.
         21   -1    0    0  501  502 -0.00000000000E+00 -0.00000000000E+00 -0.30045903158E+00  0.30045903158E+00  0.00000000000E+00 0.  1.
          2    1    1    2  501    0 -0.21896947250E+02  0.94312518558E+00  0.66116667711E+03  0.66152984869E+03  0.00000000000E+00 0.  1.
         21    1    1    2  503  502  0.21896947250E+02 -0.94312518558E+00  0.10101290446E+04  0.10103667911E+04  0.00000000000E+00 0.  1.
</event>
<event>
 4    1  0.2243475E+005  0.2131587E+02  0.7546771E-02  0.1514803E+00
          2   -1    0    0  503    0  0.00000000000E+00  0.00000000000E+00  0.41587392592E+03  0.41587392592E+03  0.00000000000E+00 0. -1.
         21   -1    0    0  501  502 -0.00000000000E+00 -0.00000000000E+00 -0.44151513617E+02  0.44151513617E+02  0.00000000000E+00 0.  1.
          2    1    1    2  501    0 -0.18936438242E+02  0.97866077758E+01  0.41301019132E+03  0.41355989230E+03  0.00000000000E+00 0. -1.
         21    1    1    2  503  502  0.18936438242E+02 -0.97866077758E+01 -0.41287779011E+02  0.46465547244E+02  0.00000000000E+00 0.  1.
</event>
<event>
 4    1  0.2243475E+005  0.2815605E+02  0.7546771E-02  0.1436329E+00
          2   -1    0    0  503    0  0.00000000000E+00  0.00000000000E+00  0.73756955906E+03  0.73756955906E+03  0.00000000000E+00 0. -1.
         21   -1    0    0  501  502 -0.00000000000E+00 -0.00000000000E+00 -0.12019258387E+01  0.12019258387E+01  0.00000000000E+00 0. -1.
          2    1    1    2  501    0 -0.28828096166E+01 -0.28008081104E+02  0.48830066415E+03  0.48911174777E+03  0.00000000000E+00 0. -1.
         21    1    1    2  503  502  0.28828096166E+01  0.28008081104E+02  0.24806696907E+03  0.24965973713E+03  0.00000000000E+00 0. -1.
</event>
<event>
 4    1  0.2243475E+005  0.2590420E+02  0.7546771E-02  0.1458937E+00
          2   -1    0    0  502    0  0.00000000000E+00  0.00000000000E+00  0.65736438574E+02  0.65736438574E+02  0.00000000000E+00 0.  1.
         21   -1    0    0  503  502 -0.00000000000E+00 -0.00000000000E+00 -0.15420730673E+02  0.15420730673E+02  0.00000000000E+00 0. -1.
          2    1    1    2  501    0  0.10553381442E+02 -0.23657004820E+02  0.48750860596E+02  0.55205743775E+02  0.00000000000E+00 0.  1.
         21    1    1    2  503  501 -0.10553381442E+02  0.23657004820E+02  0.15648473047E+01  0.25951425472E+02  0.00000000000E+00 0. -1.
</event>
<event>
 4    1  0.2243475E+005  0.3239535E+02  0.7546771E-02  0.1399862E+00
          2   -1    0    0  503    0  0.00000000000E+00  0.00000000000E+00  0.32512202836E+03  0.32512202836E+03  0.00000000000E+00 0.  1.
         21   -1    0    0  501  502 -0.00000000000E+00 -0.00000000000E+00 -0.20416434149E+03  0.20416434149E+03  0.00000000000E+00 0. -1.
          2    1    1    2  501    0 -0.13492566622E+02 -0.29451809638E+02  0.32302165490E+03  0.32464203052E+03  0.00000000000E+00 0.  1.
         21    1    1    2  503  502  0.13492566622E+02  0.29451809638E+02 -0.20206396803E+03  0.20464433933E+03  0.00000000000E+00 0. -1.
</event>
<event>
 4    1  0.2243475E+005  0.2043117E+02  0.7546771E-02  0.1527543E+00
          2   -1    0    0  503    0  0.00000000000E+00  0.00000000000E+00  0.26826445648E+01  0.26826445648E+01  0.00000000000E+00 0.  1.
         21   -1    0    0  501  502 -0.00000000000E+00 -0.00000000000E+00 -0.71959007450E+03  0.71959007450E+03  0.00000000000E+00 0. -1.
          2    1    1    2  501    0 -0.14501025467E+02 -0.14392806838E+02 -0.38739107620E+02  0.43796701788E+02  0.00000000000E+00 0.  1.
         21    1    1    2  503  502  0.14501025467E+02  0.14392806838E+02 -0.67816832231E+03  0.67847601728E+03  0.00000000000E+00 0. -1.
</event>
<event>
 4    1  0.2243475E+005  0.2012383E+02  0.7546771E-02  0.1532151E+00
          2   -1    0    0  502    0  0.00000000000E+00  0.00000000000E+00  0.13577232968E+04  0.13577232968E+04  0.00000000000E+00 0.  1.
         21   -1    0    0  503  502 -0.00000000000E+00 -0.00000000000E+00 -0.35623592410E+01  0.35623592410E+01  0.00000000000E+00 0. -1.
          2    1    1    2  501    0  0.19320040994E+02 -0.56306766026E+01  0.13286059560E+04  0.13287583508E+04  0.00000000000E+00 0.  1.
         21    1    1    2  503  501 -0.19320040994E+02  0.56306766026E+01  0.25554981508E+02  0.32527305190E+02  0.00000000000E+00 0. -1.
</event>
<event>
 4    1  0.2243475E+005  0.4784531E+02  0.7546771E-02  0.1307795E+00
          2   -1    0    0  503    0  0.00000000000E+00  0.00000000000E+00  0.91749541721E+01  0.91749541721E+01  0.00000000000E+00 0. -1.
         21   -1    0    0  501  502 -0.00000000000E+00 -0.00000000000E+00 -0.27696310430E+03  0.27696310430E+03  0.00000000000E+00 0.  1.
          2    1    1    2  501    0  0.26642725630E+01 -0.47771073170E+02 -0.88844581957E+02  0.10090854039E+03  0.00000000000E+00 0. -1.
         21    1    1    2  503  502 -0.26642725630E+01  0.47771073170E+02 -0.17894356817E+03  0.18522951808E+03  0.00000000000E+00 0.  1.
</event>
<event>
 4    1  0.2243475E+005  0.2047057E+02  0.7546771E-02  0.1526960E+00
          2   -1    0    0  502    0  0.00000000000E+00  0.00000000000E+00  0.11825890565E+04  0.11825890565E+04  0.00000000000E+00 0. -1.
         21   -1    0    0  503  502 -0.00000000000E+00 -0.00000000000E+00 -0.52605113431E+00  0.52605113431E+00  0.00000000000E+00 0. -1.
          2    1    1    2  501    0 -0.19774471106E+02  0.52928692790E+01  0.92900006138E+03  0.92922556908E+03  0.00000000000E+00 0. -1.
         21    1    1    2  503  501  0.19774471106E+02 -0.52928692790E+01  0.25306294395E+03  0.25388953852E+03  0.00000000000E+00 0. -1.
</event>
<event>
 4    1  0.2243475E+005  0.6566171E+02  0.7546771E-02  0.1241721E+00
          2   -1    0    0  502    0  0.00000000000E+00  0.00000000000E+00  0.13595252736E+04  0.13595252736E+04  0.00000000000E+00 0. -1.
         21   -1    0    0  503  502 -0.00000000000E+00 -0.00000000000E+00 -0.85423434699E+01  0.85423434699E+01  0.00000000000E+00 0.  1.
          2    1    1    2  501    0  0.61745813723E+02 -0.22336398597E+02  0.12178899331E+04  0.12196587020E+04  0.00000000000E+00 0. -1.
         21    1    1    2  503  501 -0.61745813723E+02  0.22336398597E+02  0.13309299704E+03  0.14840891508E+03  0.00000000000E+00 0.  1.
</event>
<event>
 4    1  0.2243475E+005  0.2264576E+02  0.7546771E-02  0.1496995E+00
          2   -1    0    0  502    0  0.00000000000E+00  0.00000000000E+00  0.66966507677E+02  0.66966507677E+02  0.00000000000E+00 0.  1.
         21   -1    0    0  503  502 -0.00000000000E+00 -0.00000000000E+00 -0.11775063181E+03  0.11775063181E+03  0.00000000000E+00 0.  1.
          2    1    1    2  501    0 -0.18284473939E+02 -0.13360712183E+02  0.63912710808E+02  0.67806085421E+02  0.00000000000E+00 0.  1.
         21    1    1    2  503  501  0.18284473939E+02  0.13360712183E+02 -0.11469683495E+03  0.11691105407E+03  0.00000000000E+00 0.  1.
</event>
<event>
 4    1  0.2243475E+005  0.2448934E+02  0.7546771E-02  0.1474598E+00
          2   -1    0    0  503    0  0.00000000000E+00  0.00000000000E+00  0.16962783695E+02  0.16962783695E+02  0.00000000000E+00 0. -1.
         21   -1    0    0  501  502 -0.00000000000E+00 -0.00000000000E+00 -0.45464510547E+02  0.45464510547E+02  0.00000000000E+00 0. -1.
          2    1    1    2  501    0  0.71722609689E+01 -0.23415516970E+02  0.46760094001E+00  0.24493803563E+02  0.00000000000E+00 0. -1.
         21    1    1    2  503  502 -0.71722609689E+01  0.23415516970E+02 -0.28969327792E+02  0.37933490679E+02  0.00000000000E+00 0. -1.
</event>
<event>
 4    1  0.2243475E+005  0.2996290E+02  0.7546771E-02  0.1419919E+00
          2   -1    0    0  502    0  0.00000000000E+00  0.00000000000E+00  0.58797515576E+02  0.58797515576E+02  0.00000000000E+00 0. -1.
         21   -1    0    0  503  502 -0.00000000000E+00 -0.00000000000E+00 -0.18919064256E+02  0.18919064256E+02  0.00000000000E+00 0. -1.
          2    1    1    2  501    0 -0.92324326607E+01  0.28505041021E+02  0.37007446369E+02  0.47616449502E+02  0.00000000000E+00 0. -1.
         21    1    1    2  503  501  0.92324326607E+01 -0.28505041021E+02  0.28710049511E+01  0.30100130329E+02  0.00000000000E+00 0. -1.
</event>
<event>
 4    1  0.2243475E+005  0.2059770E+02  0.7546771E-02  0.1525087E+00
          2   -1    0    0  502    0  0.00000000000E+00  0.00000000000E+00  0.19300050485E+03  0.19300050485E+03  0.00000000000E+00 0.  1.
         21   -1    0    0  503  502 -0.00000000000E+00 -0.00000000000E+00 -0.46315426285E+01  0.46315426285E+01  0.00000000000E+00 0.  1.
          2    1    1    2  501    0  0.17170350074E+02  0.11377363361E+02  0.16580884962E+03  0.16708333229E+03  0.00000000000E+00 0.  1.
         21    1    1    2  503  501 -0.17170350074E+02 -0.11377363361E+02  0.22560112600E+02  0.30548715181E+02  0.00000000000E+00 0.  1.
</event>
<event>
 4    1  0.2243475E+005  0.3269756E+02  0.7546771E-02  0.1397515E+00
          2   -1    0    0  503    0  0.00000000000E+00  0.00000000000E+00  0.22750002309E+03  0.22750002309E+03  0.00000000000E+00 0.  1.
         21   -1    0    0  501  502 -0.00000000000E+00 -0.00000000000E+00 -0.75682590008E+01  0.75682590008E+01  0.00000000000E+00 0. -1.
          2    1    1    2  501    0  0.32376587456E+02 -0.45702066758E+01  0.18232864240E+03  0.18523731817E+03  0.00000000000E+00 0.  1.
         21    1    1    2  503  502 -0.32376587456E+02  0.45702066758E+01  0.37603121692E+02  0.49830963922E+02  0.00000000000E+00 0. -1.
</event>
<event>
 4    1  0.2243475E+005  0.3007501E+02  0.7546771E-02  0.1418946E+00
          2   -1    0    0  502    0  0.00000000000E+00  0.00000000000E+00  0.45986011718E+03  0.45986011718E+03  0.00000000000E+00 0.  1.
         21   -1    0    0  503  502 -0.00000000000E+00 -0.00000000000E+00 -0.32969146613E+01  0.32969146613E+01  0.00000000000E+00 0. -1.
          2    1    1    2  501    0 -0.21926999836E+02  0.20584292731E+02  0.37536712863E+03  0.37657003026E+03  0.00000000000E+00 0.  1.
         21    1    1    2  503  501  0.21926999836E+02 -0.20584292731E+02  0.81196073887E+02  0.86587001586E+02  0.00000000000E+00 0. -1.
</event>
<event>
 4    1  0.2243475E+005  0.4663717E+02  0.7546771E-02  0.1313450E+00
          2   -1    0    0  502    0  0.00000000000E+00  0.00000000000E+00  0.46035826391E+03  0.46035826391E+03  0.00000000000E+00 0. -1.
         21   -1    0    0  503  502 -0.00000000000E+00 -0.00000000000E+00 -0.12271122990E+02  0.12271122990E+02  0.00000000000E+00 0.  1.
          2    1    1    2  501    0 -0.16503751951E+02 -0.43619397798E+02  0.40936300059E+03  0.41201103376E+03  0.00000000000E+00 0. -1.
         21    1    1    2  503  501  0.16503751951E+02  0.43619397798E+02  0.38724140336E+02  0.60618353140E+02  0.00000000000E+00 0.  1.
</event>
<event>
 4    1  0.2243475E+005  0.2216192E+02  0.7546771E-02  0.1503299E+00
          2   -1    0    0  502    0  0.00000000000E+00  0.00000000000E+00  0.23571367661E+02  0.23571367661E+02  0.00000000000E+00 0.  1.
         21   -1    0    0  503  502 -0.00000000000E+00 -0.00000000000E+00 -0.21192752884E+02  0.21192752884E+02  0.00000000000E+00 0. -1.
          2    1    1    2  501    0 -0.19832749635E+02 -0.98900251636E+01  0.40902339665E+01  0.22536205752E+02  0.00000000000E+00 0.  1.
         21    1    1    2  503  501  0.19832749635E+02  0.98900251636E+01 -0.17116191896E+01  0.22227914793E+02  0.00000000000E+00 0. -1.
</event>
<event>
 4    1  0.2243475E+005  0.4860200E+02  0.7546771E-02  0.1304350E+00
          2   -1    0    0  503    0  0.00000000000E+00  0.00000000000E+00  0.51015030521E+03  0.51015030521E+03  0.00000000000E+00 0.  1.
         21   -1    0    0  501  502 -0.00000000000E+00 -0.00000000000E+00 -0.76848861472E+01  0.76848861472E+01  0.00000000000E+00 0. -1.
          2    1    1    2  501    0  0.45007805995E+02 -0.18342632028E+02  0.41446956813E+03  0.41730945072E+03  0.00000000000E+00 0.  1.
         21    1    1    2  503  502 -0.45007805995E+02  0.18342632028E+02  0.87995850928E+02  0.10052574064E+03  0.00000000000E+00 0. -1.
</event>
<event>
 4    1  0.2243475E+005  0.2360384E+02  0.7546771E-02  0.1485052E+00
          2   -1    0    0  503    0  0.00000000000E+00  0.00000000000E+00  0.28022757395E+02  0.28022757395E+02  0.00000000000E+00 0.  1.
         21   -1    0    0  501  502 -0.00000000000E+00 -0.00000000000E+00 -0.65297787555E+02  0.65297787555E+02  0.00000000000E+00 0. -1.
          2    1    1    2  501    0 -0.62169927875E+01  0.22770384023E+02  0.20276197710E+02  0.31116966135E+02  0.00000000000E+00 0.  1.
         21    1    1    2  503  502  0.62169927875E+01 -0.22770384023E+02 -0.57551227871E+02  0.62203578814E+02  0.00000000000E+00 0. -1.
</event>
<event>
 4    1  0.2243475E+005  0.2294674E+02  0.7546771E-02  0.1493168E+00
          2   -1    0    0  502    0  0.00000000000E+00  0.00000000000E+00  0.11319360278E+03  0.11319360278E+03  0.00000000000E+00 0.  1.
         21   -1    0    0  503  502 -0.00000000000E+00 -0.00000000000E+00 -0.78064663336E+01  0.78064663336E+01  0.00000000000E+00 0.  1.
          2    1    1    2  501    0 -0.11555566966E+01  0.22917629261E+02  0.91153249070E+02  0.93997169416E+02  0.00000000000E+00 0.  1.
         21    1    1    2  503  501  0.11555566966E+01 -0.22917629261E+02  0.14233887376E+02  0.27002899697E+02  0.00000000000E+00 0.  1.
</event>
<event>
 4    1  0.2243475E+005  0.2595645E+02  0.7546771E-02  0.1458382E+00
          2   -1    0    0  503    0  0.00000000000E+00  0.00000000000E+00  0.29280555356E+03  0.29280555356E+03  0.00000000000E+00 0. -1.
         21   -1    0    0  501  502 -0.00000000000E+00 -0.00000000000E+00 -0.32581131534E+02  0.32581131534E+02  0.00000000000E+00 0.  1.
          2    1    1    2  501    0 -0.31168523497E+01  0.25768634138E+02  0.28695544277E+03  0.28812699181E+03  0.00000000000E+00 0. -1.
         21    1    1    2  503  502  0.31168523497E+01 -0.25768634138E+02 -0.26731020742E+02  0.37259693286E+02  0.00000000000E+00 0.  1.
</event>
<event>
 4    1  0.2243475E+005  0.2996779E+02  0.7546771E-02  0.1419877E+00
          2   -1    0    0  503    0  0.00000000000E+00  0.00000000000E+00  0.42680015596E+03  0.42680015596E+03  0.00000000000E+00 0.  1.
         21   -1    0    0  501  502 -0.00000000000E+00 -0.00000000000E+00 -0.10076052228E+02  0.10076052228E+02  0.00000000000E+00 0. -1.
          2    1    1    2  501    0  0.24492459405E+02  0.17268122875E+02  0.40265770513E+03  0.40377134140E+03  0.00000000000E+00 0.  1.
         21    1    1    2  503  502 -0.24492459405E+02 -0.17268122875E+02  0.14066398599E+02  0.33104866786E+02  0.00000000000E+00 0. -1.
</event>
<event>
 4    1  0.2243475E+005  0.2237421E+02  0.7546771E-02  0.1500509E+00
          2   -1    0    0  503    0  0.00000000000E+00  0.00000000000E+00  0.88682779436E+01  0.88682779436E+01  0.00000000000E+00 0. -1.
         21   -1    0    0  501  502 -0.00000000000E+00 -0.00000000000E+00 -0.12574713101E+03  0.12574713101E+03  0.00000000000E+00 0.  1.
          2    1    1    2  501    0 -0.90055667029E+01  0.20481821505E+02 -0.84731991101E+01  0.23924889696E+02  0.00000000000E+00 0. -1.
         21    1    1    2  503  502  0.90055667029E+01 -0.20481821505E+02 -0.10840565396E+03  0.11069051926E+03  0.00000000000E+00 0.  1.
</event>
<event>
 4    1  0.2243475E+005  0.6209264E+02  0.7546771E-02  0.1252884E+00
          2   -1    0    0  503    0  0.00000000000E+00  0.00000000000E+00  0.73628099638E+03  0.73628099638E+03  0.00000000000E+00 0. -1.
         21   -1    0    0  501  502 -0.00000000000E+00 -0.00000000000E+00 -0.20475870732E+02  0.20475870732E+02  0.00000000000E+00 0. -1.
          2    1    1    2  501    0  0.46233777128E+02 -0.41447960052E+02  0.68433211913E+03  0.68714332189E+03  0.00000000000E+00 0. -1.
         21    1    1    2  503  502 -0.46233777128E+02  0.41447960052E+02  0.31473006523E+02  0.69613545231E+02  0.00000000000E+00 0. -1.
</event>
<event>
 4    1  0.2243475E+005  0.2032021E+02  0.7546771E-02  0.1529196E+00
          2   -1    0    0  502    0  0.00000000000E+00  0.00000000000E+00  0.52007511891E+02  0.52007511891E+02  0.00000000000E+00 0.  1.
         21   -1    0    0  503  502 -0.00000000000E+00 -0.00000000000E+00 -0.53065790851E+03  0.53065790851E+03  0.00000000000E+00 0.  1.
          2    1    1    2  501    0 -0.17094235357E+02 -0.10986274566E+02  0.49819907822E+02  0.53804593918E+02  0.00000000000E+00 0.  1.
         21    1    1    2  503  501  0.17094235357E+02  0.10986274566E+02 -0.52847030444E+03  0.52886082648E+03  0.00000000000E+00 0.  1.
</event>
<event>
 4    1  0.2243475E+005  0.2244031E+02  0.7546771E-02  0.1499648E+00
          2   -1    0    0  502    0  0.00000000000E+00  0.00000000000E+00  0.12929588490E+04  0.12929588490E+04  0.00000000000E+00 0. -1.
         21   -1    0    0  503  502 -0.00000000000E+00 -0.00000000000E+00 -0.80292039409E+00  0.80292039409E+00  0.00000000000E+00 0. -1.
          2    1    1    2  501    0 -0.19417970820E+02 -0.11247670126E+02  0.11102726759E+04  0.11104994293E+04  0.00000000000E+00 0. -1.
         21    1    1    2  503  501  0.19417970820E+02  0.11247670126E+02  0.18188325277E+03  0.18326234013E+03  0.00000000000E+00 0. -1.
</event>
<event>
 4    1  0.2243475E+005  0.2364085E+02  0.7546771E-02  0.1484604E+00
          2   -1    0    0  503    0  0.00000000000E+00  0.00000000000E+00  0.45076431916E+01  0.45076431916E+01  0.00000000000E+00 0. -1.
         21   -1    0    0  501  502 -0.00000000000E+00 -0.00000000000E+00 -0.24827624300E+03  0.24827624300E+03  0.00000000000E+00 0. -1.
          2    1    1    2  501    0  0.88802854972E+01 -0.21909592759E+02 -0.32457362239E+02  0.40154328396E+02  0.00000000000E+00 0. -1.
         21    1    1    2  503  502 -0.88802854972E+01  0.21909592759E+02 -0.21131123757E+03  0.21262955780E+03  0.00000000000E+00 0. -1.
</event>
<event>
 4    1  0.2243475E+005  0.3141954E+02  0.7546771E-02  0.1407649E+00
          2   -1    0    0  502    0  0.00000000000E+00  0.00000000000E+00  0.95212311996E+03  0.95212311996E+03  0.00000000000E+00 0.  1.
         21   -1    0    0  503  502 -0.00000000000E+00 -0.00000000000E+00 -0.21065300434E+01  0.21065300434E+01  0.00000000000E+00 0.  1.
          2    1    1    2  501    0 -0.16157234424E+02 -0.26946824637E+02  0.81500175652E+03  0.81560716691E+03  0.00000000000E+00 0.  1.
         21    1    1    2  503  501  0.16157234424E+02  0.26946824637E+02  0.13501483340E+03  0.13862248310E+03  0.00000000000E+00 0.  1.
</event>
<event>
 4    1  0.2243475E+005  0.2515716E+02  0.7546771E-02  0.1467053E+00
          2   -1    0    0  502    0  0.00000000000E+00  0.00000000000E+00  0.19220787263E+04  0.19220787263E+04  0.00000000000E+00 0. -1.
         21   -1    0    0  503  502 -0.00000000000E+00 -0.00000000000E+00 -0.20569062354E+01  0.20569062354E+01  0.00000000000E+00 0.  1.
          2    1    1    2  501    0  0.21013451581E+02 -0.13831762980E+02  0.18417185308E+04  0.18418903414E+04  0.00000000000E+00 0. -1.
         21    1    1    2  503  501 -0.21013451581E+02  0.13831762980E+02  0.78303289219E+02  0.82245291154E+02  0.00000000000E+00 0.  1.
</event>
<event>
 4    1  0.2243475E+005  0.3779323E+02  0.7546771E-02  0.1361926E+00
          2   -1    0    0  503    0  0.00000000000E+00  0.00000000000E+00  0.26367525323E+03  0.26367525323E+03  0.00000000000E+00 0.  1.
         21   -1    0    0  501  502 -0.00000000000E+00 -0.00000000000E+00 -0.55131943134E+01  0.55131943134E+01  0.00000000000E+00 0.  1.
          2    1    1    2  501    0  0.37703023970E+02  0.26097006395E+01  0.11130224852E+03  0.11754369009E+03  0.00000000000E+00 0.  1.
         21    1    1    2  503  502 -0.37703023970E+02 -0.26097006395E+01  0.14685981039E+03  0.15164475745E+03  0.00000000000E+00 0.  1.
</event>
<event>
 4    1  0.2243475E+005  0.3082137E+02  0.7546771E-02  0.1412590E+00
          2   -1    0    0  502    0  0.00000000000E+00  0.00000000000E+00  0.15925391220E+04  0.15925391220E+04  0.00000000000E+00 0.  1.
         21   -1    0    0  503  502 -0.00000000000E+00 -0.00000000000E+00 -0.52477770698E+01  0.52477770698E+01  0.00000000000E+00 0.  1.
          2    1    1    2  501    0  0.30762841640E+02 -0.18985063497E+01  0.15457655500E+04  0.15460727966E+04  0.00000000000E+00 0.  1.
         21    1    1    2  503  501 -0.30762841640E+02  0.18985063497E+01  0.41525794938E+02  0.51714102500E+02  0.00000000000E+00 0.  1.
</event>
<event>
 4    1  0.2243475E+005  0.2034107E+02  0.7546771E-02  0.1528884E+00
          2   -1    0    0  503    0  0.00000000000E+00  0.00000000000E+00  0.85387203798E+03  0.85387203798E+03  0.00000000000E+00 0. -1.
         21   -1    0    0  501  502 -0.00000000000E+00 -0.00000000000E+00 -0.13721700744E+01  0.13721700744E+01  0.00000000000E+00 0. -1.
          2    1    1    2  501    0  0.14290824822E+02  0.14475207006E+02  0.77017613588E+03  0.77044470247E+03  0.00000000000E+00 0. -1.
         21    1    1    2  503  502 -0.14290824822E+02 -0.14475207006E+02  0.82323732023E+02  0.84799505577E+02  0.00000000000E+00 0. -1.
</event>
<event>
 4    1  0.2243475E+005  0.2188103E+02  0.7546771E-02  0.1507048E+00
          2   -1    0    0  502    0  0.00000000000E+00  0.00000000000E+00  0.81079920631E+03  0.81079920631E+03  0.00000000000E+00 0.  1.
         21   -1    0    0  503  502 -0.00000000000E+00 -0.00000000000E+00 -0.59880894627E+00  0.59880894627E+00  0.00000000000E+00 0.  1.
          2    1    1    2  501    0 -0.52274774724E+01 -0.21247421465E+02  0.45288083356E+03  0.45340911862E+03  0.00000000000E+00 0.  1.
         21    1    1    2  503  501  0.52274774724E+01  0.21247421465E+02  0.35731956381E+03  0.35798889664E+03  0.00000000000E+00 0.  1.
</event>
<event>
 4    1  0.2243475E+005  0.2509412E+02  0.7546771E-02  0.1467753E+00
          2   -1    0    0  502    0  0.00000000000E+00  0.00000000000E+00  0.14805770623E+04  0.14805770623E+04  0.00000000000E+00 0. -1.
         21   -1    0    0  503  502 -0.00000000000E+00 -0.00000000000E+00 -0.23124774414E+01  0.23124774414E+01  0.00000000000E+00 0.  1.
          2    1    1    2  501    0  0.19384617171E+02  0.15935849857E+02  0.14089312357E+04  0.14091546905E+04  0.00000000000E+00 0. -1.
         21    1    1    2  503  501 -0.19384617171E+02 -0.15935849857E+02  0.69333349098E+02  0.73734849228E+02  0.00000000000E+00 0.  1.
</event>
<event>
 4    1  0.2243475E+005  0.2009344E+02  0.7546771E-02  0.1532612E+00
          2   -1    0    0  503    0  0.00000000000E+00  0.00000000000E+00  0.10985316557E+04  0.10985316557E+04  0.00000000000E+00 0. -1.
         21   -1    0    0  501  502 -0.00000000000E+00 -0.00000000000E+00 -0.86878670299E+01  0.86878670299E+01  0.00000000000E+00 0.  1.
          2    1    1    2  501    0  0.17112700686E+02 -0.10530994014E+02  0.10866951268E+04  0.10868808789E+04  0.00000000000E+00 0. -1.
         21    1    1    2  503  502 -0.17112700686E+02  0.10530994014E+02  0.31486618529E+01  0.20338643789E+02  0.00000000000E+00 0.  1.
</event>
<event>
 4    1  0.2243475E+005  0.2005520E+02  0.7546771E-02  0.1533193E+00
          2   -1    0    0  503    0  0.00000000000E+00  0.00000000000E+00  0.53247538872E+03  0.53247538872E+03  0.00000000000E+00 0. -1.
         21   -1    0    0  501  502 -0.00000000000E+00 -0.00000000000E+00 -0.34260988619E+01  0.34260988619E+01  0.00000000000E+00 0. -1.
          2    1    1    2  501    0 -0.13281140331E+02  0.15027388918E+02  0.50110063088E+03  0.50150179798E+03  0.00000000000E+00 0. -1.
         21    1    1    2  503  502  0.13281140331E+02 -0.15027388918E+02  0.27948658975E+02  0.34399689602E+02  0.00000000000E+00 0. -1.
</event>
<event>
 4    1  0.2243475E+005  0.2376856E+02  0.7546771E-02  0.1483066E+00
          2   -1    0    0  502    0  0.00000000000E+00  0.00000000000E+00  0.12299371312E+04  0.12299371312E+04  0.00000000000E+00 0.  1.
         21   -1    0    0  503  502 -0.00000000000E+00 -0.00000000000E+00 -0.48365168116E+00  0.48365168116E+00  0.00000000000E+00 0.  1.
          2    1    1    2  501    0  0.12618541943E+02  0.20142418039E+02  0.75269260629E+03  0.75306779520E+03  0.00000000000E+00 0.  1.
         21    1    1    2  503  501 -0.12618541943E+02 -0.20142418039E+02  0.47676087323E+03  0.47735298768E+03  0.00000000000E+00 0.  1.
</event>
<event>
 4    1  0.2243475E+005  0.4392857E+02  0.7546771E-02  0.1326884E+00
          2   -1    0    0  503    0  0.00000000000E+00  0.00000000000E+00  0.29912823006E+03  0.29912823006E+03  0.00000000000E+00 0. -1.
         21   -1    0    0  501  502 -0.00000000000E+00 -0.00000000000E+00 -0.71490419691E+01  0.71490419691E+01  0.00000000000E+00 0. -1.
          2    1    1    2  501    0  0.33166462707E+02  0.28804600056E+02  0.98142355896E+02  0.10752507267E+03  0.00000000000E+00 0. -1.
         21    1    1    2  503  502 -0.33166462707E+02 -0.28804600056E+02  0.19383683219E+03  0.19875219935E+03  0.00000000000E+00 0. -1.
</event>
<event>
 4    1  0.2243475E+005  0.2394823E+02  0.7546771E-02  0.1480923E+00
          2   -1    0    0  502    0  0.00000000000E+00  0.00000000000E+00  0.20530184757E+03  0.20530184757E+03  0.00000000000E+00 0.  1.
         21   -1    0    0  503  502 -0.00000000000E+00 -0.00000000000E+00 -0.15757921581E+03  0.15757921581E+03  0.00000000000E+00 0.  1.
          2    1    1    2  501    0 -0.22627050532E+02 -0.78443691790E+01  0.20368638491E+03  0.20508939743E+03  0.00000000000E+00 0.  1.
         21    1    1    2  503  501  0.22627050532E+02  0.78443691790E+01 -0.15596375315E+03  0.15779166594E+03  0.00000000000E+00 0.  1.
</event>
<event>
 4    1  0.2243475E+005  0.2026308E+02  0.7546771E-02  0.1530051E+00
          2   -1    0    0  502    0  0.00000000000E+00  0.00000000000E+00  0.10283083883E+04  0.10283083883E+04  0.00000000000E+00 0. -1.
         21   -1    0    0  503  502 -0.00000000000E+00 -0.00000000000E+00 -0.98555551619E+01  0.98555551619E+01  0.00000000000E+00 0.  1.
          2    1    1    2  501    0  0.18502808969E+02 -0.82606637661E+01  0.10176845944E+04  0.10178863032E+04  0.00000000000E+00 0. -1.
         21    1    1    2  503  501 -0.18502808969E+02  0.82606637661E+01  0.76823875354E+00  0.20277640306E+02  0.00000000000E+00 0.  1.
</event>
<event>
 4    1  0.2243475E+005  0.5333078E+02  0.7546771E-02  0.1284343E+00
          2   -1    0    0  502    0  0.00000000000E+00  0.00000000000E+00  0.13572612855E+04  0.13572612855E+04  0.00000000000E+00 0. -1.
         21   -1    0    0  503  502 -0.00000000000E+00 -0.00000000000E+00 -0.42454708678E+01  0.42454708678E+01  0.00000000000E+00 0.  1.
          2    1    1    2  501    0  0.36949614488E+02  0.38456449068E+02  0.11609488259E+04  0.11621731149E+04  0.00000000000E+00 0. -1.
         21    1    1    2  503  501 -0.36949614488E+02 -0.38456449068E+02  0.19206698870E+03  0.19933364150E+03  0.00000000000E+00 0.  1.
</event>
<event>
 4    1  0.2243475E+005  0.2005384E+02  0.7546771E-02  0.1533214E+00
          2   -1    0    0  503    0  0.00000000000E+00  0.00000000000E+00  0.34575843913E+03  0.34575843913E+03  0.00000000000E+00 0.  1.
         21   -1    0    0  501  502 -0.00000000000E+00 -0.00000000000E+00 -0.19067681489E+01  0.19067681489E+01  0.00000000000E+00 0. -1.
          2    1    1    2  501    0  0.91142524586E+01 -0.17863000945E+02  0.28048534220E+03  0.28120132217E+03  0.00000000000E+00 0.  1.
         21    1    1    2  503  502 -0.91142524586E+01  0.17863000945E+02  0.63366328776E+02  0.66463885105E+02  0.00000000000E+00 0. -1.
</event>
<event>
 4    1  0.2243475E+005  0.2293771E+02  0.7546771E-02  0.1493282E+00
          2   -1    0    0  503    0  0.00000000000E+00  0.00000000000E+00  0.22662965065E+03  0.22662965065E+03  0.00000000000E+00 0. -1.
         21   -1    0    0  501  502 -0.00000000000E+00 -0.00000000000E+00 -0.32867253910E+01  0.32867253910E+01  0.00000000000E+00 0. -1.
          2    1    1    2  501    0  0.22912605685E+02  0.10729093069E+01  0.17396669346E+03  0.17547235984E+03  0.00000000000E+00 0. -1.
         21    1    1    2  503  502 -0.22912605685E+02 -0.10729093069E+01  0.49376231797E+02  0.54444016202E+02  0.00000000000E+00 0. -1.
</event>
<event>
 4    1  0.2243475E+005  0.2829143E+02  0.7546771E-02  0.1435050E+00
          2   -1    0    0  503    0  0.00000000000E+00  0.00000000000E+00  0.13701892381E+02  0.13701892381E+02  0.00000000000E+00 0. -1.
         21   -1    0    0  501  502 -0.00000000000E+00 -0.00000000000E+00 -0.96835240029E+02  0.96835240029E+02  0.00000000000E+00 0. -1.
          2    1    1    2  501    0 -0.31532335904E+01  0.28115153922E+02 -0.67539566444E+01  0.29086434854E+02  0.00000000000E+00 0. -1.
         21    1    1    2  503  502  0.31532335904E+01 -0.28115153922E+02 -0.76379391004E+02  0.81450697555E+02  0.00000000000E+00 0. -1.
</event>
<event>
 4    1  0.2243475E+005  0.2043940E+02  0.7546771E-02  0.1527421E+00
          2   -1    0    0  502    0  0.00000000000E+00  0.00000000000E+00  0.34952774410E+03  0.34952774410E+03  0.00000000000E+00 0.  1.
         21   -1    0    0  503  502 -0.00000000000E+00 -0.00000000000E+00 -0.13623619510E+03  0.13623619510E+03  0.00000000000E+00 0. -1.
          2    1    1    2  501    0  0.14233031465E+02  0.14669354373E+02  0.34845996067E+03  0.34905889666E+03  0.00000000000E+00 0.  1.
         21    1    1    2  503  501 -0.14233031465E+02 -0.14669354373E+02 -0.13516841167E+03  0.13670504254E+03  0.00000000000E+00 0. -1.
</event>
<event>
 4    1  0.2243475E+005  0.2665006E+02  0.7546771E-02  0.1451155E+00
          2   -1    0    0  503    0  0.00000000000E+00  0.00000000000E+00  0.26976763501E+02  0.26976763501E+02  0.00000000000E+00 0.  1.
         21   -1    0    0  501  502 -0.00000000000E+00 -0.00000000000E+00 -0.32764901724E+03  0.32764901724E+03  0.00000000000E+00 0.  1.
          2    1    1    2  501    0  0.24962905007E+02  0.93316039063E+01  0.19703870026E+02  0.33143143361E+02  0.00000000000E+00 0.  1.
         21    1    1    2  503  502 -0.24962905007E+02 -0.93316039063E+01 -0.32037612376E+03  0.32148263738E+03  0.00000000000E+00 0.  1.
</event>
<event>
 4    1  0.2243475E+005  0.7465906E+02  0.7546771E-02  0.1216821E+00
          2   -1    0    0  503    0  0.00000000000E+00  0.00000000000E+00  0.35695572170E+03  0.35695572170E+03  0.00000000000E+00 0. -1.
         21   -1    0    0  501  502 -0.00000000000E+00 -0.00000000000E+00 -0.77514748441E+03  0.77514748441E+03  0.00000000000E+00 0.  1.
          2    1    1    2  501    0  0.74591537245E+02 -0.31744776182E+01  0.35122517236E+03  0.35907255038E+03  0.00000000000E+00 0. -1.
         21    1    1    2  503  502 -0.74591537245E+02  0.31744776182E+01 -0.76941693507E+03  0.77303065573E+03  0.00000000000E+00 0.  1.
</event>
<event>
 4    1  0.2243475E+005  0.2348088E+02  0.7546771E-02  0.1486546E+00
          2   -1    0    0  502    0  0.00000000000E+00  0.00000000000E+00  0.16936257747E+03  0.16936257747E+03  0.00000000000E+00 0.  1.
         21   -1    0    0  503  502 -0.00000000000E+00 -0.00000000000E+00 -0.66803485356E+01  0.66803485356E+01  0.00000000000E+00 0. -1.
          2    1    1    2  501    0  0.14775342821E+02 -0.18249404223E+02  0.14436611190E+03  0.14626320718E+03  0.00000000000E+00 0.  1.
         21    1    1    2  503  501 -0.14775342821E+02  0.18249404223E+02  0.18316117033E+02  0.29779718822E+02  0.00000000000E+00 0. -1.
</event>
<event>
 4    1  0.2243475E+005  0.2101975E+02  0.7546771E-02  0.1518983E+00
          2   -1    0    0  502    0  0.00000000000E+00  0.00000000000E+00  0.11018956231E+04  0.11018956231E+04  0.00000000000E+00 0. -1.
         21   -1    0    0  503  502 -0.00000000000E+00 -0.00000000000E+00 -0.16571223272E+02  0.16571223272E+02  0.00000000000E+00 0.  1.
          2    1    1    2  501    0  0.20990645866E+02  0.11057324074E+01  0.10950883297E+04  0.10952900436E+04  0.00000000000E+00 0. -1.
         21    1    1    2  503  501 -0.20990645866E+02 -0.11057324074E+01 -0.97639298744E+01  0.23176802726E+02  0.00000000000E+00 0.  1.
</event>
<event>
 4    1  0.2243475E+005  0.3074061E+02  0.7546771E-02  0.1413268E+00
          2   -1    0    0  502    0  0.00000000000E+00  0.00000000000E+00  0.25533766996E+03  0.25533766996E+03  0.00000000000E+00 0. -1.
         21   -1    0    0  503  502 -0.00000000000E+00 -0.00000000000E+00 -0.55192139521E+01  0.55192139521E+01  0.00000000000E+00 0. -1.
          2    1    1    2  501    0  0.26394570262E+02  0.15757911084E+02  0.19977190606E+03  0.20212322863E+03  0.00000000000E+00 0. -1.
         21    1    1    2  503  501 -0.26394570262E+02 -0.15757911084E+02  0.50046549947E+02  0.58733655281E+02  0.00000000000E+00 0. -1.
</event>
<event>
 4    1  0.2243475E+005  0.2133066E+02  0.7546771E-02  0.1514596E+00
          2   -1    0    0  503    0  0.00000000000E+00  0.00000000000E+00  0.12513905599E+03  0.12513905599E+03  0.00000000000E+00 0. -1.
         21   -1    0    0  501  502 -0.00000000000E+00 -0.00000000000E+00 -0.97368831670E+02  0.97368831670E+02  0.00000000000E+00 0. -1.
          2    1    1    2  501    0 -0.16623083078E+02  0.13366756906E+02  0.12304207971E+03  0.12487734166E+03  0.00000000000E+00 0. -1.
         21    1    1    2  503  502  0.16623083078E+02 -0.13366756906E+02 -0.95271855393E+02  0.97630545995E+02  0.00000000000E+00 0. -1.
</event>
<event>
 4    1  0.2243475E+005  0.2828924E+02  0.7546771E-02  0.1435070E+00
          2   -1    0    0  502    0  0.00000000000E+00  0.00000000000E+00  0.46619630495E+03  0.46619630495E+03  0.00000000000E+00 0.  1.
         21   -1    0    0  503  502 -0.00000000000E+00 -0.00000000000E+00 -0.42851312732E+01  0.42851312732E+01  0.00000000000E+00 0. -1.
          2    1    1    2  501    0 -0.97687799840E+01  0.26549054205E+02  0.41308130219E+03  0.41404884200E+03  0.00000000000E+00 0.  1.
         21    1    1    2  503  501  0.97687799840E+01 -0.26549054205E+02  0.48829871491E+02  0.56432594229E+02  0.00000000000E+00 0. -1.
</event>
<event>
 4    1  0.2243475E+005  0.3304088E+02  0.7546771E-02  0.1394885E+00
          2   -1    0    0  502    0  0.00000000000E+00  0.00000000000E+00  0.99033571235E+01  0.99033571235E+01  0.00000000000E+00 0. -1.
         21   -1    0    0  503  502 -0.00000000000E+00 -0.00000000000E+00 -0.23620837147E+03  0.23620837147E+03  0.00000000000E+00 0. -1.
          2    1    1    2  501    0  0.83971254040E+01  0.31956033602E+02 -0.23286905330E+02  0.40422515489E+02  0.00000000000E+00 0. -1.
         21    1    1    2  503  501 -0.83971254040E+01 -0.31956033602E+02 -0.20301810902E+03  0.20568921311E+03  0.00000000000E+00 0. -1.
</event>
<event>
 4    1  0.2243475E+005  0.7744934E+02  0.7546771E-02  0.1209896E+00
          2   -1    0    0  503    0  0.00000000000E+00  0.00000000000E+00  0.88870257191E+02  0.88870257191E+02  0.00000000000E+00 0.  1.
         21   -1    0    0  501  502 -0.00000000000E+00 -0.00000000000E+00 -0.74962290404E+02  0.74962290404E+02  0.00000000000E+00 0.  1.
          2    1    1    2  501    0  0.74079848736E+02  0.22595948687E+02  0.32806130607E+02  0.84110897577E+02  0.00000000000E+00 0.  1.
         21    1    1    2  503  502 -0.74079848736E+02 -0.22595948687E+02 -0.18898163820E+02  0.79721650018E+02  0.00000000000E+00 0.  1.
</event>
<event>
 4    1  0.2243475E+005  0.2288149E+02  0.7546771E-02  0.1493992E+00
          2   -1    0    0  503    0  0.00000000000E+00  0.00000000000E+00  0.12619033309E+04  0.12619033309E+04  0.00000000000E+00 0. -1.
         21   -1    0    0  501  502 -0.00000000000E+00 -0.00000000000E+00 -0.55143914728E+00  0.55143914728E+00  0.00000000000E+00 0. -1.
          2    1    1    2  501    0 -0.39022642966E+01  0.22546287001E+02  0.94477515862E+03  0.94505220124E+03  0.00000000000E+00 0. -1.
         21    1    1    2  503  502  0.39022642966E+01 -0.22546287001E+02  0.31657673317E+03  0.31740256885E+03  0.00000000000E+00 0. -1.
</event>
<event>
 4    1  0.2243475E+005  0.2083807E+02  0.7546771E-02  0.1521589E+00
          2   -1    0    0  503    0  0.00000000000E+00  0.00000000000E+00  0.11463253518E+02  0.11463253518E+02  0.00000000000E+00 0. -1.
         21   -1    0    0  501  502 -0.00000000000E+00 -0.00000000000E+00 -0.20606129644E+03  0.20606129644E+03  0.00000000000E+00 0.  1.
          2    1    1    2  501    0  0.77892256803E+01 -0.19327525205E+02  0.95927488872E+00  0.20860140833E+02  0.00000000000E+00 0. -1.
         21    1    1    2  503  502 -0.77892256803E+01  0.19327525205E+02 -0.19555731781E+03  0.19666440913E+03  0.00000000000E+00 0.  1.
</event>
<event>
 4    1  0.2243475E+005  0.2020673E+02  0.7546771E-02  0.1530899E+00
          2   -1    0    0  502    0  0.00000000000E+00  0.00000000000E+00  0.14070796194E+03  0.14070796194E+03  0.00000000000E+00 0. -1.
         21   -1    0    0  503  502 -0.00000000000E+00 -0.00000000000E+00 -0.21952639768E+02  0.21952639768E+02  0.00000000000E+00 0. -1.
          2    1    1    2  501    0 -0.16289513579E+02  0.11956749421E+02  0.13514213294E+03  0.13664445910E+03  0.00000000000E+00 0. -1.
         21    1    1    2  503  501  0.16289513579E+02 -0.11956749421E+02 -0.16386810759E+02  0.26016142608E+02  0.00000000000E+00 0. -1.
</event>
<event>
 4    1  0.2243475E+005  0.2099342E+02  0.7546771E-02  0.1519359E+00
          2   -1    0    0  502    0  0.00000000000E+00  0.00000000000E+00  0.40587606916E+03  0.40587606916E+03  0.00000000000E+00 0. -1.
         21   -1    0    0  503  502 -0.00000000000E+00 -0.00000000000E+00 -0.33304753490E+02  0.33304753490E+02  0.00000000000E+00 0.  1.
          2    1    1    2  501    0 -0.19188783038E+02 -0.85155373306E+01  0.40226667622E+03  0.40281410423E+03  0.00000000000E+00 0. -1.
         21    1    1    2  503  501  0.19188783038E+02  0.85155373306E+01 -0.29695360549E+02  0.36366718420E+02  0.00000000000E+00 0.  1.
</event>
<event>
 4    1  0.2243475E+005  0.2067514E+02  0.7546771E-02  0.1523954E+00
          2   -1    0    0  502    0  0.00000000000E+00  0.00000000000E+00  0.37808217165E+03  0.37808217165E+03  0.00000000000E+00 0.  1.
         21   -1    0    0  503  502 -0.00000000000E+00 -0.00000000000E+00 -0.11876106209E+01  0.11876106209E+01  0.00000000000E+00 0.  1.
          2    1    1    2  501    0  0.14238866348E+02 -0.14990531059E+02  0.14689999605E+03  0.14834780138E+03  0.00000000000E+00 0.  1.
         21    1    1    2  503  501 -0.14238866348E+02  0.14990531059E+02  0.22999456498E+03  0.23092198089E+03  0.00000000000E+00 0.  1.
</event>
<event>
 4    1  0.2243475E+005  0.2747610E+02  0.7546771E-02  0.1442883E+00
          2   -1    0    0  502    0  0.00000000000E+00  0.00000000000E+00  0.11900222850E+04  0.11900222850E+04  0.00000000000E+00 0.  1.
         21   -1    0    0  503  502 -0.00000000000E+00 -0.00000000000E+00 -0.56093388256E+01  0.56093388256E+01  0.00000000000E+00 0. -1.
          2    1    1    2  501    0 -0.55262247812E+01 -0.26914626050E+02  0.11552032938E+04  0.11555300024E+04  0.00000000000E+00 0.  1.
         21    1    1    2  503  501  0.55262247812E+01  0.26914626050E+02  0.29209652383E+02  0.40101621514E+02  0.00000000000E+00 0. -1.
</event>
<event>
 4    1  0.2243475E+005  0.3461742E+02  0.7546771E-02  0.1383273E+00
          2   -1    0    0  503    0  0.00000000000E+00  0.00000000000E+00  0.33389453689E+03  0.33389453689E+03  0.00000000000E+00 0. -1.
         21   -1    0    0  501  502 -0.00000000000E+00 -0.00000000000E+00 -0.52443194407E+01  0.52443194407E+01  0.00000000000E+00 0.  1.
          2    1    1    2  501    0  0.30048811717E+02  0.17188205108E+02  0.25959086677E+03  0.26188887642E+03  0.00000000000E+00 0. -1.
         21    1    1    2  503  502 -0.30048811717E+02 -0.17188205108E+02  0.69059350678E+02  0.77249979912E+02  0.00000000000E+00 0.  1.
</event>
<event>
 4    1  0.2243475E+005  0.2209074E+02  0.7546771E-02  0.1504243E+00
          2   -1    0    0  503    0  0.00000000000E+00  0.00000000000E+00  0.50822185952E+02  0.50822185952E+02  0.00000000000E+00 0. -1.
         21   -1    0    0  501  502 -0.00000000000E+00 -0.00000000000E+00 -0.13149406327E+02  0.13149406327E+02  0.00000000000E+00 0. -1.
          2    1    1    2  501    0 -0.16243183296E+02 -0.14971961224E+02  0.35449553230E+02  0.41769264426E+02  0.00000000000E+00 0. -1.
         21    1    1    2  503  502  0.16243183296E+02  0.14971961224E+02  0.22232263945E+01  0.22202327853E+02  0.00000000000E+00 0. -1.
</event>
<event>
 4    1  0.2243475E+005  0.3592836E+02  0.7546771E-02  0.1374151E+00
          2   -1    0    0  503    0  0.00000000000E+00  0.00000000000E+00  0.10468982219E+04  0.10468982219E+04  0.00000000000E+00 0. -1.
         21   -1    0    0  501  502 -0.00000000000E+00 -0.00000000000E+00 -0.91860770412E+01  0.91860770412E+01  0.00000000000E+00 0.  1.
          2    1    1    2  501    0 -0.15523290242E+02 -0.32401767174E+02  0.10101830166E+04  0.10108217321E+04  0.00000000000E+00 0. -1.
         21    1    1    2  503  502  0.15523290242E+02  0.32401767174E+02  0.27529128300E+02  0.45262566884E+02  0.00000000000E+00 0.  1.
</event>
<event>
 4    1  0.2243475E+005  0.2058192E+02  0.7546771E-02  0.1525318E+00
          2   -1    0    0  503    0  0.00000000000E+00  0.00000000000E+00  0.19315291967E+01  0.19315291967E+01  0.00000000000E+00 0.  1.
         21   -1    0    0  501  502 -0.00000000000E+00 -0.00000000000E+00 -0.24675473206E+03  0.24675473206E+03  0.00000000000E+00 0.  1.
          2    1    1    2  501    0  0.75336897647E+01  0.19153562357E+02 -0.80947681755E+02  0.83523305813E+02  0.00000000000E+00 0.  1.
         21    1    1    2  503  502 -0.75336897647E+01 -0.19153562357E+02 -0.16387552111E+03  0.16516295544E+03  0.00000000000E+00 0.  1.
</event>
<event>
 4    1  0.2243475E+005  0.2381107E+02  0.7546771E-02  0.1482557E+00
          2   -1    0    0  503    0  0.00000000000E+00  0.00000000000E+00  0.99422989940E+03  0.99422989940E+03  0.00000000000E+00 0.  1.
         21   -1    0    0  501  502 -0.00000000000E+00 -0.00000000000E+00 -0.76553570903E+01  0.76553570903E+01  0.00000000000E+00 0. -1.
          2    1    1    2  501    0 -0.10451592933E+02  0.21394649995E+02  0.97521093222E+03  0.97550157825E+03  0.00000000000E+00 0.  1.
         21    1    1    2  503  502  0.10451592933E+02 -0.21394649995E+02  0.11363610087E+02  0.26383678239E+02  0.00000000000E+00 0. -1.
</event>
<event>
 4    1  0.2243475E+005  0.3138613E+02  0.7546771E-02  0.1407922E+00
          2   -1    0    0  503    0  0.00000000000E+00  0.00000000000E+00  0.50124232595E+02  0.50124232595E+02  0.00000000000E+00 0.  1.
         21   -1    0    0  501  502 -0.00000000000E+00 -0.00000000000E+00 -0.35709632820E+02  0.35709632820E+02  0.00000000000E+00 0.  1.
          2    1    1    2  501    0 -0.97142979172E+01  0.29844954198E+02  0.35985520714E+02  0.47749833258E+02  0.00000000000E+00 0.  1.
         21    1    1    2  503  502  0.97142979172E+01 -0.29844954198E+02 -0.21570920939E+02  0.38084032156E+02  0.00000000000E+00 0.  1.
</event>
<event>
 4    1  0.2243475E+005  0.3154398E+02  0.7546771E-02  0.1406637E+00
          2   -1    0    0  503    0  0.00000000000E+00  0.00000000000E+00  0.12201245790E+04  0.12201245790E+04  0.00000000000E+00 0.  1.
         21   -1    0    0  501  502 -0.00000000000E+00 -0.00000000000E+00 -0.17386309919E+01  0.17386309919E+01  0.00000000000E+00 0. -1.
          2    1    1    2  501    0 -0.28961119510E+02 -0.12501046052E+02  0.10543553269E+04  0.10548270844E+04  0.00000000000E+00 0.  1.
         21    1    1    2  503  502  0.28961119510E+02  0.12501046052E+02  0.16403062109E+03  0.16703612559E+03  0.00000000000E+00 0. -1.
</event>
<event>
 4    1  0.2243475E+005  0.2085218E+02  0.7546771E-02  0.1521386E+00
          2   -1    0    0  503    0  0.00000000000E+00  0.00000000000E+00  0.82890225468E+03  0.82890225468E+03  0.00000000000E+00 0.  1.
         21   -1    0    0  501  502 -0.00000000000E+00 -0.00000000000E+00 -0.27637093597E+01  0.27637093597E+01  0.00000000000E+00 0. -1.
          2    1    1    2  501    0  0.20790503553E+02 -0.16026692871E+01  0.78736402585E+03  0.78764009725E+03  0.00000000000E+00 0.  1.
         21    1    1    2  503  502 -0.20790503553E+02  0.16026692871E+01  0.38774519473E+02  0.44025866797E+02  0.00000000000E+00 0. -1.
</event>
<event>
 4    1  0.2243475E+005  0.3984970E+02  0.7546771E-02  0.1349369E+00
          2   -1    0    0  503    0  0.00000000000E+00  0.00000000000E+00  0.10772216491E+04  0.10772216491E+04  0.00000000000E+00 0.  1.
         21   -1    0    0  501  502 -0.00000000000E+00 -0.00000000000E+00 -0.29161327459E+01  0.29161327459E+01  0.00000000000E+00 0. -1.
          2    1    1    2  501    0  0.39495841316E+02 -0.52987641807E+01  0.91692556016E+03  0.91779108803E+03  0.00000000000E+00 0.  1.
         21    1    1    2  503  502 -0.39495841316E+02  0.52987641807E+01  0.15737995621E+03  0.16234669384E+03  0.00000000000E+00 0. -1.
</event>
<event>
 4    1  0.2243475E+005  0.2042300E+02  0.7546771E-02  0.1527665E+00
          2   -1    0    0  502    0  0.00000000000E+00  0.00000000000E+00  0.11089255783E+03  0.11089255783E+03  0.00000000000E+00 0.  1.
         21   -1    0    0  503  502 -0.00000000000E+00 -0.00000000000E+00 -0.73003752262E+01  0.73003752262E+01  0.00000000000E+00 0. -1.
          2    1    1    2  501    0 -0.59474070902E+01 -0.19537840680E+02  0.92942747142E+02  0.95160144576E+02  0.00000000000E+00 0.  1.
         21    1    1    2  503  501  0.59474070902E+01  0.19537840680E+02  0.10649435463E+02  0.23032788481E+02  0.00000000000E+00 0. -1.
</event>
<event>
 4    1  0.2243475E+005  0.2717558E+02  0.7546771E-02  0.1445852E+00
          2   -1    0    0  503    0  0.00000000000E+00  0.00000000000E+00  0.13544841196E+04  0.13544841196E+04  0.00000000000E+00 0. -1.
         21   -1    0    0  501  502 -0.00000000000E+00 -0.00000000000E+00 -0.91694910592E+00  0.91694910592E+00  0.00000000000E+00 0.  1.
          2    1    1    2  501    0 -0.21172933746E+02 -0.17035815409E+02  0.11082725981E+04  0.11086057297E+04  0.00000000000E+00 0. -1.
         21    1    1    2  503  502  0.21172933746E+02  0.17035815409E+02  0.24529457241E+03  0.24679533906E+03  0.00000000000E+00 0.  1.
</event>
<event>
 4    1  0.2243475E+005  0.4926655E+02  0.7546771E-02  0.1301384E+00
          2   -1    0    0  503    0  0.00000000000E+00  0.00000000000E+00  0.28907560345E+04  0.28907560345E+04  0.00000000000E+00 0. -1.
         21   -1    0    0  501  502 -0.00000000000E+00 -0.00000000000E+00 -0.93655904272E+00  0.93655904272E+00  0.00000000000E+00 0. -1.
          2    1    1    2  501    0 -0.18929347199E+02  0.45484863807E+02  0.19100245501E+04  0.19106598271E+04  0.00000000000E+00 0. -1.
         21    1    1    2  503  502  0.18929347199E+02 -0.45484863807E+02  0.97979492538E+03  0.98103276643E+03  0.00000000000E+00 0. -1.
</event>
<event>
 4    1  0.2243475E+005  0.3650832E+02  0.7546771E-02  0.1370258E+00
          2   -1    0    0  503    0  0.00000000000E+00  0.00000000000E+00  0.17344642525E+04  0.17344642525E+04  0.00000000000E+00 0. -1.
         21   -1    0    0  501  502 -0.00000000000E+00 -0.00000000000E+00 -0.28861643077E+01  0.28861643077E+01  0.00000000000E+00 0.  1.
          2    1    1    2  501    0  0.28655514438E+02 -0.22621206180E+02  0.16098869612E+04  0.16103008679E+04  0.00000000000E+00 0. -1.
         21    1    1    2  503  502 -0.28655514438E+02  0.22621206180E+02  0.12169112702E+03  0.12704954889E+03  0.00000000000E+00 0.  1.
</event>
<event>
 4    1  0.2243475E+005  0.2346169E+02  0.7546771E-02  0.1486781E+00
          2   -1    0    0  502    0  0.00000000000E+00  0.00000000000E+00  0.25058230569E+03  0.25058230569E+03  0.00000000000E+00 0.  1.
         21   -1    0    0  503  502 -0.00000000000E+00 -0.00000000000E+00 -0.57245382977E+01  0.57245382977E+01  0.00000000000E+00 0.  1.
          2    1    1    2  501    0  0.99765522165E+01  0.21234858677E+02  0.22303285599E+03  0.22426347377E+03  0.00000000000E+00 0.  1.
         21    1    1    2  503  501 -0.99765522165E+01 -0.21234858677E+02  0.21824911406E+02  0.32043370219E+02  0.00000000000E+00 0.  1.
</event>
<event>
 4    1  0.2243475E+005  0.2726531E+02  0.7546771E-02  0.1444961E+00
          2   -1    0    0  502    0  0.00000000000E+00  0.00000000000E+00  0.29841599767E+03  0.29841599767E+03  0.00000000000E+00 0.  1.
         21   -1    0    0  503  502 -0.00000000000E+00 -0.00000000000E+00 -0.28342900108E+03  0.28342900108E+03  0.00000000000E+00 0.  1.
          2    1    1    2  501    0  0.22255101043E+02  0.15751438463E+02  0.29713467245E+03  0.29838299366E+03  0.00000000000E+00 0.  1.
         21    1    1    2  503  501 -0.22255101043E+02 -0.15751438463E+02 -0.28214767586E+03  0.28346200509E+03  0.00000000000E+00 0.  1.
</event>
<event>
 4    1  0.2243475E+005  0.1533678E+03  0.7546771E-02  0.1094214E+00
          2   -1    0    0  503    0  0.00000000000E+00  0.00000000000E+00  0.29957278380E+04  0.29957278380E+04  0.00000000000E+00 0. -1.
         21   -1    0    0  501  502 -0.00000000000E+00 -0.00000000000E+00 -0.52039628721E+02  0.52039628721E+02  0.00000000000E+00 0.  1.
          2    1    1    2  501    0 -0.92064212872E+01  0.15309122564E+03  0.28760679881E+04  0.28801542934E+04  0.00000000000E+00 0. -1.
         21    1    1    2  503  502  0.92064212872E+01 -0.15309122564E+03  0.67620221178E+02  0.16761317333E+03  0.00000000000E+00 0.  1.
</event>
<event>
 4    1  0.2243475E+005  0.2205503E+02  0.7546771E-02  0.1504718E+00
          2   -1    0    0  503    0  0.00000000000E+00  0.00000000000E+00  0.77579276611E+02  0.77579276611E+02  0.00000000000E+00 0.  1.
         21   -1    0    0  501  502 -0.00000000000E+00 -0.00000000000E+00 -0.25803482858E+02  0.25803482858E+02  0.00000000000E+00 0. -1.
          2    1    1    2  501    0  0.53851642681E+01  0.21387479559E+02  0.70862618683E+02  0.74215463366E+02  0.00000000000E+00 0.  1.
         21    1    1    2  503  502 -0.53851642681E+01 -0.21387479559E+02 -0.19086824929E+02  0.29167296103E+02  0.00000000000E+00 0. -1.
</event>
<event>
 4    1  0.2243475E+005  0.2074691E+02  0.7546771E-02  0.1522909E+00
          2   -1    0    0  503    0  0.00000000000E+00  0.00000000000E+00  0.68901703668E+02  0.68901703668E+02  0.00000000000E+00 0.  1.
         21   -1    0    0  501  502 -0.00000000000E+00 -0.00000000000E+00 -0.21538904809E+02  0.21538904809E+02  0.00000000000E+00 0.  1.
          2    1    1    2  501    0  0.15711725122E+02  0.13549025579E+02  0.61783712370E+02  0.65174086221E+02  0.00000000000E+00 0.  1.
         21    1    1    2  503  502 -0.15711725122E+02 -0.13549025579E+02 -0.14420913511E+02  0.25266522256E+02  0.00000000000E+00 0.  1.
</event>
<event>
 4    1  0.2243475E+005  0.2535459E+02  0.7546771E-02  0.1464875E+00
          2   -1    0    0  502    0  0.00000000000E+00  0.00000000000E+00  0.18728549046E+04  0.18728549046E+04  0.00000000000E+00 0.  1.
         21   -1    0    0  503  502 -0.00000000000E+00 -0.00000000000E+00 -0.87819858613E+01  0.87819858613E+01  0.00000000000E+00 0. -1.
          2    1    1    2  501    0  0.14535021782E+02 -0.20774709442E+02  0.18542854344E+04  0.18544587695E+04  0.00000000000E+00 0.  1.
         21    1    1    2  503  501 -0.14535021782E+02  0.20774709442E+02  0.97874843186E+01  0.27178120978E+02  0.00000000000E+00 0. -1.
</event>
<event>
 4    1  0.2243475E+005  0.2090057E+02  0.7546771E-02  0.1520689E+00
          2   -1    0    0  502    0  0.00000000000E+00  0.00000000000E+00  0.19906027007E+03  0.19906027007E+03  0.00000000000E+00 0. -1.
         21   -1    0    0  503  502 -0.00000000000E+00 -0.00000000000E+00 -0.36313620802E+02  0.36313620802E+02  0.00000000000E+00 0.  1.
          2    1    1    2  501    0  0.20900553022E+02 -0.22605588596E-01  0.19544887211E+03  0.19656320926E+03  0.00000000000E+00 0. -1.
         21    1    1    2  503  501 -0.20900553022E+02  0.22605588596E-01 -0.32702222844E+02  0.38810681604E+02  0.00000000000E+00 0.  1.
</event>
<event>
 4    1  0.2243475E+005  0.2048067E+02  0.7546771E-02  0.1526810E+00
          2   -1    0    0  503    0  0.00000000000E+00  0.00000000000E+00  0.15251437558E+03  0.15251437558E+03  0.00000000000E+00 0. -1.
         21   -1    0    0  501  502 -0.00000000000E+00 -0.00000000000E+00 -0.27504256541E+01  0.27504256541E+01  0.00000000000E+00 0. -1.
          2    1    1    2  501    0 -0.13291545544E+02  0.15581803974E+02  0.75439736640E+02  0.78170401447E+02  0.00000000000E+00 0. -1.
         21    1    1    2  503  502  0.13291545544E+02 -0.15581803974E+02  0.74324213282E+02  0.77094399784E+02  0.00000000000E+00 0. -1.
</event>
<event>
 4    1  0.2243475E+005  0.2435761E+02  0.7546771E-02  0.1476120E+00
          2   -1    0    0  503    0  0.00000000000E+00  0.00000000000E+00  0.13218384726E+04  0.13218384726E+04  0.00000000000E+00 0.  1.
         21   -1    0    0  501  502 -0.00000000000E+00 -0.00000000000E+00 -0.97170498715E+00  0.97170498715E+00  0.00000000000E+00 0. -1.
          2    1    1    2  501    0  0.19899023959E+02 -0.14047133699E+02  0.11456049792E+04  0.11458638931E+04  0.00000000000E+00 0.  1.
         21    1    1    2  503  502 -0.19899023959E+02  0.14047133699E+02  0.17526178843E+03  0.17694628451E+03  0.00000000000E+00 0. -1.
</event>
<event>
 4    1  0.2243475E+005  0.2632193E+02  0.7546771E-02  0.1454541E+00
          2   -1    0    0  503    0  0.00000000000E+00  0.00000000000E+00  0.66298824182E+03  0.66298824182E+03  0.00000000000E+00 0.  1.
         21   -1    0    0  501  502 -0.00000000000E+00 -0.00000000000E+00 -0.45718959031E+02  0.45718959031E+02  0.00000000000E+00 0.  1.
          2    1    1    2  501    0  0.12996281270E+02 -0.22889755228E+02  0.65891496816E+03  0.65944050489E+03  0.00000000000E+00 0.  1.
         21    1    1    2  503  502 -0.12996281270E+02  0.22889755228E+02 -0.41645685370E+02  0.49266695964E+02  0.00000000000E+00 0.  1.
</event>
<event>
 4    1  0.2243475E+005  0.2361320E+02  0.7546771E-02  0.1484938E+00
          2   -1    0    0  502    0  0.00000000000E+00  0.00000000000E+00  0.13094099171E+04  0.13094099171E+04  0.00000000000E+00 0.  1.
         21   -1    0    0  503  502 -0.00000000000E+00 -0.00000000000E+00 -0.47215933187E+02  0.47215933187E+02  0.00000000000E+00 0. -1.
          2    1    1    2  501    0 -0.39060444780E+01  0.23287898249E+02  0.13063442271E+04  0.13065576233E+04  0.00000000000E+00 0.  1.
         21    1    1    2  503  501  0.39060444780E+01 -0.23287898249E+02 -0.44150243131E+02  0.50068227020E+02  0.00000000000E+00 0. -1.
</event>
<event>
 4    1  0.2243475E+005  0.2895353E+02  0.7546771E-02  0.1428913E+00
          2   -1    0    0  503    0  0.00000000000E+00  0.00000000000E+00  0.21791112066E+03  0.21791112066E+03  0.00000000000E+00 0.  1.
         21   -1    0    0  501  502 -0.00000000000E+00 -0.00000000000E+00 -0.74423004242E+01  0.74423004242E+01  0.00000000000E+00 0.  1.
          2    1    1    2  501    0 -0.10181938612E+02  0.27104154218E+02  0.18354983913E+03  0.18581940291E+03  0.00000000000E+00 0.  1.
         21    1    1    2  503  502  0.10181938612E+02 -0.27104154218E+02  0.26918981098E+02  0.39534018175E+02  0.00000000000E+00 0.  1.
</event>
<event>
 4    1  0.2243475E+005  0.2358289E+02  0.7546771E-02  0.1485306E+00
          2   -1    0    0  503    0  0.00000000000E+00  0.00000000000E+00  0.85747027069E+03  0.85747027069E+03  0.00000000000E+00 0.  1.
         21   -1    0    0  501  502 -0.00000000000E+00 -0.00000000000E+00 -0.32393728960E+01  0.32393728960E+01  0.00000000000E+00 0. -1.
          2    1    1    2  501    0 -0.38192854724E+01  0.23271563981E+02  0.81198284933E+03  0.81232524289E+03  0.00000000000E+00 0.  1.
         21    1    1    2  503  502  0.38192854724E+01 -0.23271563981E+02  0.42248048468E+02  0.48384400699E+02  0.00000000000E+00 0. -1.
</event>
<event>
 4    1  0.2243475E+005  0.3615550E+02  0.7546771E-02  0.1372617E+00
          2   -1    0    0  503    0  0.00000000000E+00  0.00000000000E+00  0.21561977487E+04  0.21561977487E+04  0.00000000000E+00 0.  1.
         21   -1    0    0  501  502 -0.00000000000E+00 -0.00000000000E+00 -0.51850267419E+02  0.51850267419E+02  0.00000000000E+00 0.  1.
          2    1    1    2  501    0 -0.19350584652E+02 -0.30541361340E+02  0.21497243451E+04  0.21500283672E+04  0.00000000000E+00 0.  1.
         21    1    1    2  503  502  0.19350584652E+02  0.30541361340E+02 -0.45376863872E+02  0.58019648859E+02  0.00000000000E+00 0.  1.
</event>
<event>
 4    1  0.2243475E+005  0.2347205E+02  0.7546771E-02  0.1486654E+00
          2   -1    0    0  502    0  0.00000000000E+00  0.00000000000E+00  0.11570379119E+03  0.11570379119E+03  0.00000000000E+00 0.  1.
         21   -1    0    0  503  502 -0.00000000000E+00 -0.00000000000E+00 -0.17341495702E+02  0.17341495702E+02  0.00000000000E+00 0.  1.
          2    1    1    2  501    0 -0.52344727042E+01 -0.22880942995E+02  0.10583956411E+03  0.10841102614E+03  0.00000000000E+00 0.  1.
         21    1    1    2  503  501  0.52344727042E+01  0.22880942995E+02 -0.74772686242E+01  0.24634260754E+02  0.00000000000E+00 0.  1.
</event>
<event>
 4    1  0.2243475E+005  0.2228256E+02  0.7546771E-02  0.1501709E+00
          2   -1    0    0  502    0  0.00000000000E+00  0.00000000000E+00  0.20982466319E+03  0.20982466319E+03  0.00000000000E+00 0.  1.
         21   -1    0    0  503  502 -0.00000000000E+00 -0.00000000000E+00 -0.72577790584E+02  0.72577790584E+02  0.00000000000E+00 0. -1.
          2    1    1    2  501    0  0.20472066588E+02  0.87981316448E+01  0.20750373071E+03  0.20869669592E+03  0.00000000000E+00 0.  1.
         21    1    1    2  503  501 -0.20472066588E+02 -0.87981316448E+01 -0.70256858100E+02  0.73705757854E+02  0.00000000000E+00 0. -1.
</event>
<event>
 4    1  0.2243475E+005  0.2116175E+02  0.7546771E-02  0.1516968E+00
          2   -1    0    0  502    0  0.00000000000E+00  0.00000000000E+00  0.26236923335E+03  0.26236923335E+03  0.00000000000E+00 0. -1.
         21   -1    0    0  503  502 -0.00000000000E+00 -0.00000000000E+00 -0.47538539076E+02  0.47538539076E+02  0.00000000000E+00 0.  1.
          2    1    1    2  501    0 -0.48472949758E+01  0.20599109708E+02  0.25956206391E+03  0.26042327971E+03  0.00000000000E+00 0. -1.
         21    1    1    2  503  501  0.48472949758E+01 -0.20599109708E+02 -0.44731369643E+02  0.49484492718E+02  0.00000000000E+00 0.  1.
</event>
<event>
 4    1  0.2243475E+005  0.3037217E+02  0.7546771E-02  0.1416389E+00
          2   -1    0    0  502    0  0.00000000000E+00  0.00000000000E+00  0.13761763459E+03  0.13761763459E+03  0.00000000000E+00 0. -1.
         21   -1    0    0  503  502 -0.00000000000E+00 -0.00000000000E+00 -0.83328264458E+03  0.83328264458E+03  0.00000000000E+00 0.  1.
          2    1    1    2  501    0 -0.30370207395E+02  0.34492216284E+00  0.13566115294E+03  0.13901948384E+03  0.00000000000E+00 0. -1.
         21    1    1    2  503  501  0.30370207395E+02 -0.34492216284E+00 -0.83132616294E+03  0.83188079534E+03  0.00000000000E+00 0.  1.
</event>
<event>
 4    1  0.2243475E+005  0.3026387E+02  0.7546771E-02  0.1417317E+00
          2   -1    0    0  502    0  0.00000000000E+00  0.00000000000E+00  0.86207272973E+03  0.86207272973E+03  0.00000000000E+00 0.  1.
         21   -1    0    0  503  502 -0.00000000000E+00 -0.00000000000E+00 -0.78221636707E+01  0.78221636707E+01  0.00000000000E+00 0.  1.
          2    1    1    2  501    0  0.30263419456E+02  0.16551605309E+00  0.83145694924E+03  0.83200754828E+03  0.00000000000E+00 0.  1.
         21    1    1    2  503  501 -0.30263419456E+02 -0.16551605309E+00  0.22793616820E+02  0.37887345123E+02  0.00000000000E+00 0.  1.
</event>
<event>
 4    1  0.2243475E+005  0.2403531E+02  0.7546771E-02  0.1479891E+00
          2   -1    0    0  503    0  0.00000000000E+00  0.00000000000E+00  0.20653586655E+02  0.20653586655E+02  0.00000000000E+00 0. -1.
         21   -1    0    0  501  502 -0.00000000000E+00 -0.00000000000E+00 -0.85391039220E+03  0.85391039220E+03  0.00000000000E+00 0.  1.
          2    1    1    2  501    0 -0.17558728620E+02 -0.16413011763E+02  0.13432142701E+02  0.27533949288E+02  0.00000000000E+00 0. -1.
         21    1    1    2  503  502  0.17558728620E+02  0.16413011763E+02 -0.84668894824E+03  0.84703002956E+03  0.00000000000E+00 0.  1.
</event>
<event>
 4    1  0.2243475E+005  0.2116072E+02  0.7546771E-02  0.1516982E+00
          2   -1    0    0  503    0  0.00000000000E+00  0.00000000000E+00  0.52379256198E+03  0.52379256198E+03  0.00000000000E+00 0. -1.
         21   -1    0    0  501  502 -0.00000000000E+00 -0.00000000000E+00 -0.85693922631E+00  0.85693922631E+00  0.00000000000E+00 0. -1.
          2    1    1    2  501    0 -0.18554657858E+02 -0.10173529277E+02  0.27434947030E+03  0.27516432886E+03  0.00000000000E+00 0. -1.
         21    1    1    2  503  502  0.18554657858E+02  0.10173529277E+02  0.24858615246E+03  0.24948517235E+03  0.00000000000E+00 0. -1.
</event>
<event>
 4    1  0.2243475E+005  0.2578987E+02  0.7546771E-02  0.1460158E+00
          2   -1    0    0  502    0  0.00000000000E+00  0.00000000000E+00  0.67727323906E+03  0.67727323906E+03  0.00000000000E+00 0. -1.
         21   -1    0    0  503  502 -0.00000000000E+00 -0.00000000000E+00 -0.24087112433E+02  0.24087112433E+02  0.00000000000E+00 0. -1.
          2    1    1    2  501    0  0.21998455377E+02 -0.13460517729E+02  0.67005008493E+03  0.67054622055E+03  0.00000000000E+00 0. -1.
         21    1    1    2  503  501 -0.21998455377E+02  0.13460517729E+02 -0.16863958300E+02  0.30814130947E+02  0.00000000000E+00 0. -1.
</event>
<event>
 4    1  0.2243475E+005  0.2870940E+02  0.7546771E-02  0.1431153E+00
          2   -1    0    0  503    0  0.00000000000E+00  0.00000000000E+00  0.85940801802E+02  0.85940801802E+02  0.00000000000E+00 0. -1.
         21   -1    0    0  501  502 -0.00000000000E+00 -0.00000000000E+00 -0.15889100060E+02  0.15889100060E+02  0.00000000000E+00 0.  1.
          2    1    1    2  501    0  0.28531980682E+02 -0.31867697087E+01  0.67082049053E+02  0.72967326441E+02  0.00000000000E+00 0. -1.
         21    1    1    2  503  502 -0.28531980682E+02  0.31867697087E+01  0.29696526891E+01  0.28862575421E+02  0.00000000000E+00 0.  1.
</event>
<event>
 4    1  0.2243475E+005  0.2278173E+02  0.7546771E-02  0.1495257E+00
          2   -1    0    0  503    0  0.00000000000E+00  0.00000000000E+00  0.35509908898E+03  0.35509908898E+03  0.00000000000E+00 0. -1.
         21   -1    0    0  501  502 -0.00000000000E+00 -0.00000000000E+00 -0.19728522484E+01  0.19728522484E+01  0.00000000000E+00 0. -1.
          2    1    1    2  501    0 -0.14575021398E+02 -0.17509305708E+02  0.26745037467E+03  0.26841890758E+03  0.00000000000E+00 0. -1.
         21    1    1    2  503  502  0.14575021398E+02  0.17509305708E+02  0.85675862060E+02  0.88653033648E+02  0.00000000000E+00 0. -1.
</event>
<event>
 4    1  0.2243475E+005  0.2597435E+02  0.7546771E-02  0.1458192E+00
          2   -1    0    0  503    0  0.00000000000E+00  0.00000000000E+00  0.27060231538E+03  0.27060231538E+03  0.00000000000E+00 0.  1.
         21   -1    0    0  501  502 -0.00000000000E+00 -0.00000000000E+00 -0.56972392052E+01  0.56972392052E+01  0.00000000000E+00 0. -1.
          2    1    1    2  501    0  0.12698077680E+02  0.22658901753E+02  0.23605415752E+03  0.23747890914E+03  0.00000000000E+00 0.  1.
         21    1    1    2  503  502 -0.12698077680E+02 -0.22658901753E+02  0.28850918660E+02  0.38820645447E+02  0.00000000000E+00 0. -1.
</event>
<event>
 4    1  0.2243475E+005  0.3007856E+02  0.7546771E-02  0.1418915E+00
          2   -1    0    0  502    0  0.00000000000E+00  0.00000000000E+00  0.12901375698E+04  0.12901375698E+04  0.00000000000E+00 0.  1.
         21   -1    0    0  503  502 -0.00000000000E+00 -0.00000000000E+00 -0.28440107404E+02  0.28440107404E+02  0.00000000000E+00 0. -1.
          2    1    1    2  501    0 -0.89377515437E+01 -0.28719959932E+02  0.12819586742E+04  0.12823114917E+04  0.00000000000E+00 0.  1.
         21    1    1    2  503  501  0.89377515437E+01  0.28719959932E+02 -0.20261211830E+02  0.36266185435E+02  0.00000000000E+00 0. -1.
</event>
<event>
 4    1  0.2243475E+005  0.2144618E+02  0.7546771E-02  0.1512989E+00
          2   -1    0    0  503    0  0.00000000000E+00  0.00000000000E+00  0.85559543588E+03  0.85559543588E+03  0.00000000000E+00 0.  1.
         21   -1    0    0  501  502 -0.00000000000E+00 -0.00000000000E+00 -0.18272655279E+01  0.18272655279E+01  0.00000000000E+00 0. -1.
          2    1    1    2  501    0 -0.21139738401E+02  0.36124992494E+01  0.78705487324E+03  0.78734700874E+03  0.00000000000E+00 0.  1.
         21    1    1    2  503  502  0.21139738401E+02 -0.36124992494E+01  0.66713297115E+02  0.70075692664E+02  0.00000000000E+00 0. -1.
</event>
<event>
 4    1  0.2243475E+005  0.2092454E+02  0.7546771E-02  0.1520345E+00
          2   -1    0    0  502    0  0.00000000000E+00  0.00000000000E+00  0.27015608748E+03  0.27015608748E+03  0.00000000000E+00 0.  1.
         21   -1    0    0  503  502 -0.00000000000E+00 -0.00000000000E+00 -0.77257689508E+02  0.77257689508E+02  0.00000000000E+00 0. -1.
          2    1    1    2  501    0 -0.13355642602E+02  0.16107854610E+02  0.26832445665E+03  0.26913909081E+03  0.00000000000E+00 0.  1.
         21    1    1    2  503  501  0.13355642602E+02 -0.16107854610E+02 -0.75426058672E+02  0.78274686178E+02  0.00000000000E+00 0. -1.
</event>
<event>
 4    1  0.2243475E+005  0.3987333E+02  0.7546771E-02  0.1349230E+00
          2   -1    0    0  502    0  0.00000000000E+00  0.00000000000E+00  0.31495515796E+03  0.31495515796E+03  0.00000000000E+00 0. -1.
         21   -1    0    0  503  502 -0.00000000000E+00 -0.00000000000E+00 -0.79609081778E+01  0.79609081778E+01  0.00000000000E+00 0.  1.
          2    1    1    2  501    0  0.20845767347E+02  0.33990234378E+02  0.25116336981E+03  0.25430871079E+03  0.00000000000E+00 0. -1.
         21    1    1    2  503  501 -0.20845767347E+02 -0.33990234378E+02  0.55830879971E+02  0.68607355346E+02  0.00000000000E+00 0.  1.
</event>
<event>
 4    1  0.2243475E+005  0.2301987E+02  0.7546771E-02  0.1492249E+00
          2   -1    0    0  502    0  0.00000000000E+00  0.00000000000E+00  0.16634173248E+04  0.16634173248E+04  0.00000000000E+00 0. -1.
         21   -1    0    0  503  502 -0.00000000000E+00 -0.00000000000E+00 -0.63841923663E+01  0.63841923663E+01  0.00000000000E+00 0.  1.
          2    1    1    2  501    0 -0.16868495462E+01  0.22957982011E+02  0.16423200928E+04  0.16424814159E+04  0.00000000000E+00 0. -1.
         21    1    1    2  503  501  0.16868495462E+01 -0.22957982011E+02  0.14713039717E+02  0.27320101338E+02  0.00000000000E+00 0.  1.
</event>
<event>
 4    1  0.2243475E+005  0.3792542E+02  0.7546771E-02  0.1361091E+00
          2   -1    0    0  503    0  0.00000000000E+00  0.00000000000E+00  0.12884424934E+04  0.12884424934E+04  0.00000000000E+00 0. -1.
         21   -1    0    0  501  502 -0.00000000000E+00 -0.00000000000E+00 -0.37047591097E+01  0.37047591097E+01  0.00000000000E+00 0. -1.
          2    1    1    2  501    0  0.21192853594E+02  0.31451557356E+02  0.11824008483E+04  0.11830089195E+04  0.00000000000E+00 0. -1.
         21    1    1    2  503  502 -0.21192853594E+02 -0.31451557356E+02  0.10233688605E+03  0.10913833309E+03  0.00000000000E+00 0. -1.
</event>
<event>
 4    1  0.2243475E+005  0.2262143E+02  0.7546771E-02  0.1497307E+00
          2   -1    0    0  502    0  0.00000000000E+00  0.00000000000E+00  0.90127989241E+03  0.90127989241E+03  0.00000000000E+00 0. -1.
         21   -1    0    0  503  502 -0.00000000000E+00 -0.00000000000E+00 -0.23258899217E+01  0.23258899217E+01  0.00000000000E+00 0.  1.
          2    1    1    2  501    0  0.80696023566E+01  0.21133162733E+02  0.84228234874E+03  0.84258606923E+03  0.00000000000E+00 0. -1.
         21    1    1    2  503  501 -0.80696023566E+01 -0.21133162733E+02  0.56671653747E+02  0.61019713108E+02  0.00000000000E+00 0.  1.
</event>
<event>
 4    1  0.2243475E+005  0.2859010E+02  0.7546771E-02  0.1432257E+00
          2   -1    0    0  503    0  0.00000000000E+00  0.00000000000E+00  0.24008954322E+03  0.24008954322E+03  0.00000000000E+00 0. -1.
         21   -1    0    0  501  502 -0.00000000000E+00 -0.00000000000E+00 -0.83589480620E+02  0.83589480620E+02  0.00000000000E+00 0. -1.
          2    1    1    2  501    0 -0.13717638460E+02 -0.25084264841E+02  0.23675948103E+03  0.23847944524E+03  0.00000000000E+00 0. -1.
         21    1    1    2  503  502  0.13717638460E+02  0.25084264841E+02 -0.80259418425E+02  0.85199578599E+02  0.00000000000E+00 0. -1.
</event>
<event>
 4    1  0.2243475E+005  0.3418309E+02  0.7546771E-02  0.1386399E+00
          2   -1    0    0  502    0  0.00000000000E+00  0.00000000000E+00  0.13720895305E+04  0.13720895305E+04  0.00000000000E+00 0. -1.
         21   -1    0    0  503  502 -0.00000000000E+00 -0.00000000000E+00 -0.21617636107E+01  0.21617636107E+01  0.00000000000E+00 0. -1.
          2    1    1    2  501    0 -0.18573462646E+01  0.34132589729E+02  0.12198894781E+04  0.12203683141E+04  0.00000000000E+00 0. -1.
         21    1    1    2  503  501  0.18573462646E+01 -0.34132589729E+02  0.15003828877E+03  0.15388297994E+03  0.00000000000E+00 0. -1.
</event>
<event>
 4    1  0.2243475E+005  0.4130879E+02  0.7546771E-02  0.1340982E+00
          2   -1    0    0  503    0  0.00000000000E+00  0.00000000000E+00  0.14032969201E+04  0.14032969201E+04  0.00000000000E+00 0. -1.
         21   -1    0    0  501  502 -0.00000000000E+00 -0.00000000000E+00 -0.12095332695E+02  0.12095332695E+02  0.00000000000E+00 0.  1.
          2    1    1    2  501    0 -0.10125360472E+02 -0.40048637046E+02  0.13667806839E+04  0.13674047879E+04  0.00000000000E+00 0. -1.
         21    1    1    2  503  502  0.10125360472E+02  0.40048637046E+02  0.24420903517E+02  0.47987464848E+02  0.00000000000E+00 0.  1.
</event>
<event>
 4    1  0.2243475E+005  0.2544041E+02  0.7546771E-02  0.1463936E+00
          2   -1    0    0  502    0  0.00000000000E+00  0.00000000000E+00  0.13017290106E+04  0.13017290106E+04  0.00000000000E+00 0.  1.
         21   -1    0    0  503  502 -0.00000000000E+00 -0.00000000000E+00 -0.15441163843E+01  0.15441163843E+01  0.00000000000E+00 0.  1.
          2    1    1    2  501    0 -0.23756486023E+02 -0.91018452419E+01  0.11866573918E+04  0.11869300653E+04  0.00000000000E+00 0.  1.
         21    1    1    2  503  501  0.23756486023E+02  0.91018452419E+01  0.11352750234E+03  0.11634306168E+03  0.00000000000E+00 0.  1.
</event>
<event>
 4    1  0.2243475E+005  0.2720562E+02  0.7546771E-02  0.1445554E+00
          2   -1    0    0  503    0  0.00000000000E+00  0.00000000000E+00  0.19463680138E+03  0.19463680138E+03  0.00000000000E+00 0. -1.
         21   -1    0    0  501  502 -0.00000000000E+00 -0.00000000000E+00 -0.73074279134E+01  0.73074279134E+01  0.00000000000E+00 0. -1.
          2    1    1    2  501    0  0.35945954904E+00  0.27203242882E+02  0.16359190460E+03  0.16583864714E+03  0.00000000000E+00 0. -1.
         21    1    1    2  503  502 -0.35945954904E+00 -0.27203242882E+02  0.23737468867E+02  0.36105582154E+02  0.00000000000E+00 0. -1.
</event>
<event>
 4    1  0.2243475E+005  0.2511698E+02  0.7546771E-02  0.1467499E+00
          2   -1    0    0  503    0  0.00000000000E+00  0.00000000000E+00  0.54981027502E+03  0.54981027502E+03  0.00000000000E+00 0. -1.
         21   -1    0    0  501  502 -0.00000000000E+00 -0.00000000000E+00 -0.39679912159E+01  0.39679912159E+01  0.00000000000E+00 0. -1.
          2    1    1    2  501    0 -0.68797228120E+01 -0.24156408986E+02  0.50636861794E+03  0.50699116355E+03  0.00000000000E+00 0. -1.
         21    1    1    2  503  502  0.68797228120E+01  0.24156408986E+02  0.39473665858E+02  0.46787102682E+02  0.00000000000E+00 0. -1.
</event>
<event>
 4    1  0.2243475E+005  0.3944991E+02  0.7546771E-02  0.1351740E+00
          2   -1    0    0  503    0  0.00000000000E+00  0.00000000000E+00  0.68577278850E+03  0.68577278850E+03  0.00000000000E+00 0.  1.
         21   -1    0    0  501  502 -0.00000000000E+00 -0.00000000000E+00 -0.11936657710E+03  0.11936657710E+03  0.00000000000E+00 0. -1.
          2    1    1    2  501    0 -0.36147766309E+02 -0.15799817031E+02  0.68192758661E+03  0.68306773354E+03  0.00000000000E+00 0.  1.
         21    1    1    2  503  502  0.36147766309E+02  0.15799817031E+02 -0.11552137520E+03  0.12207163206E+03  0.00000000000E+00 0. -1.
</event>
<event>
 4    1  0.2243475E+005  0.2061365E+02  0.7546771E-02  0.1524853E+00
          2   -1    0    0  503    0  0.00000000000E+00  0.00000000000E+00  0.17421775410E+03  0.17421775410E+03  0.00000000000E+00 0. -1.
         21   -1    0    0  501  502 -0.00000000000E+00 -0.00000000000E+00 -0.16564718491E+02  0.16564718491E+02  0.00000000000E+00 0. -1.
          2    1    1    2  501    0  0.19613656099E+02 -0.63424811143E+01  0.16691542827E+03  0.16818347948E+03  0.00000000000E+00 0. -1.
         21    1    1    2  503  502 -0.19613656099E+02  0.63424811143E+01 -0.92623926610E+01  0.22598993121E+02  0.00000000000E+00 0. -1.
</event>
<event>
 4    1  0.2243475E+005  0.2109546E+02  0.7546771E-02  0.1517906E+00
          2   -1    0    0  502    0  0.00000000000E+00  0.00000000000E+00  0.28529043689E+03  0.28529043689E+03  0.00000000000E+00 0. -1.
         21   -1    0    0  503  502 -0.00000000000E+00 -0.00000000000E+00 -0.68195162904E+03  0.68195162904E+03  0.00000000000E+00 0.  1.
          2    1    1    2  501    0  0.16690324853E+02  0.12901602439E+02  0.28473700928E+03  0.28551739482E+03  0.00000000000E+00 0. -1.
         21    1    1    2  503  501 -0.16690324853E+02 -0.12901602439E+02 -0.68139820143E+03  0.68172467111E+03  0.00000000000E+00 0.  1.
</event>
<event>
 4    1  0.2243475E+005  0.2422534E+02  0.7546771E-02  0.1477659E+00
          2   -1    0    0  502    0  0.00000000000E+00  0.00000000000E+00  0.20742171546E+03  0.20742171546E+03  0.00000000000E+00 0. -1.
         21   -1    0    0  503  502 -0.00000000000E+00 -0.00000000000E+00 -0.14405695953E+02  0.14405695953E+02  0.00000000000E+00 0.  1.
          2    1    1    2  501    0 -0.16782647838E+02  0.17470258274E+02  0.19593492649E+03  0.19742685382E+03  0.00000000000E+00 0. -1.
         21    1    1    2  503  501  0.16782647838E+02 -0.17470258274E+02 -0.29189069827E+01  0.24400557587E+02  0.00000000000E+00 0.  1.
</event>
<event>
 4    1  0.2243475E+005  0.3878425E+02  0.7546771E-02  0.1355761E+00
          2   -1    0    0  503    0  0.00000000000E+00  0.00000000000E+00  0.96716714254E+03  0.96716714254E+03  0.00000000000E+00 0. -1.
         21   -1    0    0  501  502 -0.00000000000E+00 -0.00000000000E+00 -0.17923405344E+02  0.17923405344E+02  0.00000000000E+00 0. -1.
          2    1    1    2  501    0  0.19823147984E+02 -0.33335574410E+02  0.94531226410E+03  0.94610754905E+03  0.00000000000E+00 0. -1.
         21    1    1    2  503  502 -0.19823147984E+02  0.33335574410E+02  0.39314730983E+01  0.38982998833E+02  0.00000000000E+00 0. -1.
</event>
<event>
 4    1  0.2243475E+005  0.2121780E+02  0.7546771E-02  0.1516178E+00
          2   -1    0    0  503    0  0.00000000000E+00  0.00000000000E+00  0.27850830604E+03  0.27850830604E+03  0.00000000000E+00 0. -1.
         21   -1    0    0  501  502 -0.00000000000E+00 -0.00000000000E+00 -0.72612803114E+01  0.72612803114E+01  0.00000000000E+00 0. -1.
          2    1    1    2  501    0 -0.20661316633E+02 -0.48275178239E+01  0.26160444859E+03  0.26246348785E+03  0.00000000000E+00 0. -1.
         21    1    1    2  503  502  0.20661316633E+02  0.48275178239E+01  0.96425771364E+01  0.23306098497E+02  0.00000000000E+00 0. -1.
</event>
<event>
 4    1  0.2243475E+005  0.2630922E+02  0.7546771E-02  0.1454673E+00
          2   -1    0    0  502    0  0.00000000000E+00  0.00000000000E+00  0.48077724143E+03  0.48077724143E+03  0.00000000000E+00 0. -1.
         21   -1    0    0  503  502 -0.00000000000E+00 -0.00000000000E+00 -0.88632196120E+02  0.88632196120E+02  0.00000000000E+00 0. -1.
          2    1    1    2  501    0 -0.25905050311E+02 -0.45938280468E+01  0.47845546950E+03  0.47917826660E+03  0.00000000000E+00 0. -1.
         21    1    1    2  503  501  0.25905050311E+02  0.45938280468E+01 -0.86310424188E+02  0.90231170952E+02  0.00000000000E+00 0. -1.
</event>
<event>
 4    1  0.2243475E+005  0.2000440E+02  0.7546771E-02  0.1533968E+00
          2   -1    0    0  502    0  0.00000000000E+00  0.00000000000E+00  0.83484796343E+03  0.83484796343E+03  0.00000000000E+00 0.  1.
         21   -1    0    0  503  502 -0.00000000000E+00 -0.00000000000E+00 -0.79722954951E+02  0.79722954951E+02  0.00000000000E+00 0.  1.
          2    1    1    2  501    0  0.18956965508E+01 -0.19914371616E+02  0.83347116047E+03  0.83371119172E+03  0.00000000000E+00 0.  1.
         21    1    1    2  503  501 -0.18956965508E+01  0.19914371616E+02 -0.78346151997E+02  0.80859726657E+02  0.00000000000E+00 0.  1.
</event>
<event>
 4    1  0.2243475E+005  0.2865901E+02  0.7546771E-02  0.1431619E+00
          2   -1    0    0  502    0  0.00000000000E+00  0.00000000000E+00  0.21889721738E+04  0.21889721738E+04  0.00000000000E+00 0. -1.
         21   -1    0    0  503  502 -0.00000000000E+00 -0.00000000000E+00 -0.11988618331E+01  0.11988618331E+01  0.00000000000E+00 0.  1.
          2    1    1    2  501    0  0.20716429954E+01  0.28584034829E+02  0.20015683075E+04  0.20017734708E+04  0.00000000000E+00 0. -1.
         21    1    1    2  503  501 -0.20716429954E+01 -0.28584034829E+02  0.18620500442E+03  0.18839756480E+03  0.00000000000E+00 0.  1.
</event>
<event>
 4    1  0.2243475E+005  0.2744224E+02  0.7546771E-02  0.1443216E+00
          2   -1    0    0  503    0  0.00000000000E+00  0.00000000000E+00  0.15920718833E+04  0.15920718833E+04  0.00000000000E+00 0. -1.
         21   -1    0    0  501  502 -0.00000000000E+00 -0.00000000000E+00 -0.18321356658E+02  0.18321356658E+02  0.00000000000E+00 0.  1.
          2    1    1    2  501    0  0.10676282611E+02  0.25280294775E+02  0.15816097247E+04  0.15818477796E+04  0.00000000000E+00 0. -1.
         21    1    1    2  503  502 -0.10676282611E+02 -0.25280294775E+02 -0.78591981005E+01  0.28545460394E+02  0.00000000000E+00 0.  1.
</event>
<event>
 4    1  0.2243475E+005  0.2945807E+02  0.7546771E-02  0.1424365E+00
          2   -1    0    0  502    0  0.00000000000E+00  0.00000000000E+00  0.62432248918E+03  0.62432248918E+03  0.00000000000E+00 0. -1.
         21   -1    0    0  503  502 -0.00000000000E+00 -0.00000000000E+00 -0.89866112067E+01  0.89866112067E+01  0.00000000000E+00 0. -1.
          2    1    1    2  501    0  0.27027337382E+02 -0.11717547613E+02  0.59880607495E+03  0.59953022717E+03  0.00000000000E+00 0. -1.
         21    1    1    2  503  501 -0.27027337382E+02  0.11717547613E+02  0.16529803020E+02  0.33778873218E+02  0.00000000000E+00 0. -1.
</event>
<event>
 4    1  0.2243475E+005  0.2182308E+02  0.7546771E-02  0.1507830E+00
          2   -1    0    0  502    0  0.00000000000E+00  0.00000000000E+00  0.14987329539E+03  0.14987329539E+03  0.00000000000E+00 0.  1.
         21   -1    0    0  503  502 -0.00000000000E+00 -0.00000000000E+00 -0.37626623200E+01  0.37626623200E+01  0.00000000000E+00 0.  1.
          2    1    1    2  501    0  0.31448877498E+01  0.21595291792E+02  0.10334485354E+03  0.10562388792E+03  0.00000000000E+00 0.  1.
         21    1    1    2  503  501 -0.31448877498E+01 -0.21595291792E+02  0.42765779534E+02  0.48012069792E+02  0.00000000000E+00 0.  1.
</event>
<event>
 4    1  0.2243475E+005  0.3024138E+02  0.7546771E-02  0.1417510E+00
          2   -1    0    0  503    0  0.00000000000E+00  0.00000000000E+00  0.51046914816E+02  0.51046914816E+02  0.00000000000E+00 0. -1.
         21   -1    0    0  501  502 -0.00000000000E+00 -0.00000000000E+00 -0.11500702737E+03  0.11500702737E+03  0.00000000000E+00 0. -1.
          2    1    1    2  501    0 -0.21366259387E+02 -0.21401498327E+02  0.44306362323E+02  0.53643218706E+02  0.00000000000E+00 0. -1.
         21    1    1    2  503  502  0.21366259387E+02  0.21401498327E+02 -0.10826647488E+03  0.11241072348E+03  0.00000000000E+00 0. -1.
</event>
<event>
 4    1  0.2243475E+005  0.2171599E+02  0.7546771E-02  0.1509283E+00
          2   -1    0    0  503    0  0.00000000000E+00  0.00000000000E+00  0.61651266840E+01  0.61651266840E+01  0.00000000000E+00 0.  1.
         21   -1    0    0  501  502 -0.00000000000E+00 -0.00000000000E+00 -0.12813526271E+03  0.12813526271E+03  0.00000000000E+00 0. -1.
          2    1    1    2  501    0 -0.10564227067E+02  0.18973169361E+02 -0.18354710331E+02  0.28433772885E+02  0.00000000000E+00 0.  1.
         21    1    1    2  503  502  0.10564227067E+02 -0.18973169361E+02 -0.10361542570E+03  0.10586661651E+03  0.00000000000E+00 0. -1.
</event>
<event>
 4    1  0.2243475E+005  0.4322619E+02  0.7546771E-02  0.1330551E+00
          2   -1    0    0  502    0  0.00000000000E+00  0.00000000000E+00  0.91049526030E+03  0.91049526030E+03  0.00000000000E+00 0.  1.
         21   -1    0    0  503  502 -0.00000000000E+00 -0.00000000000E+00 -0.53708165383E+03  0.53708165383E+03  0.00000000000E+00 0. -1.
          2    1    1    2  501    0  0.39538624429E+02  0.17469998475E+02  0.90911114248E+03  0.91013821645E+03  0.00000000000E+00 0.  1.
         21    1    1    2  503  501 -0.39538624429E+02 -0.17469998475E+02 -0.53569753601E+03  0.53743869767E+03  0.00000000000E+00 0. -1.
</event>
<event>
 4    1  0.2243475E+005  0.2333186E+02  0.7546771E-02  0.1488373E+00
          2   -1    0    0  502    0  0.00000000000E+00  0.00000000000E+00  0.30494327330E+03  0.30494327330E+03  0.00000000000E+00 0.  1.
         21   -1    0    0  503  502 -0.00000000000E+00 -0.00000000000E+00 -0.25652046830E+01  0.25652046830E+01  0.00000000000E+00 0.  1.
          2    1    1    2  501    0  0.23035331006E+02  0.37079794802E+01  0.23597481820E+03  0.23712547398E+03  0.00000000000E+00 0.  1.
         21    1    1    2  503  501 -0.23035331006E+02 -0.37079794802E+01  0.66403250421E+02  0.70383004006E+02  0.00000000000E+00 0.  1.
</event>
<event>
 4    1  0.2243475E+005  0.4663946E+02  0.7546771E-02  0.1313439E+00
          2   -1    0    0  503    0  0.00000000000E+00  0.00000000000E+00  0.18163672557E+04  0.18163672557E+04  0.00000000000E+00 0.  1.
         21   -1    0    0  501  502 -0.00000000000E+00 -0.00000000000E+00 -0.12544192105E+01  0.12544192105E+01  0.00000000000E+00 0.  1.
          2    1    1    2  501    0  0.65537999790E+01  0.46176691554E+02  0.71409752222E+03  0.71561897011E+03  0.00000000000E+00 0.  1.
         21    1    1    2  503  502 -0.65537999790E+01 -0.46176691554E+02  0.11010153142E+04  0.11020027048E+04  0.00000000000E+00 0.  1.
</event>
<event>
 4    1  0.2243475E+005  0.2339167E+02  0.7546771E-02  0.1487638E+00
          2   -1    0    0  503    0  0.00000000000E+00  0.00000000000E+00  0.35546443909E+03  0.35546443909E+03  0.00000000000E+00 0. -1.
         21   -1    0    0  501  502 -0.00000000000E+00 -0.00000000000E+00 -0.22596172310E+01  0.22596172310E+01  0.00000000000E+00 0. -1.
          2    1    1    2  501    0  0.14637493327E+02  0.18245931584E+02  0.27758799346E+03  0.27857182977E+03  0.00000000000E+00 0. -1.
         21    1    1    2  503  502 -0.14637493327E+02 -0.18245931584E+02  0.75616828397E+02  0.79152226546E+02  0.00000000000E+00 0. -1.
</event>
<event>
 4    1  0.2243475E+005  0.2379017E+02  0.7546771E-02  0.1482807E+00
          2   -1    0    0  503    0  0.00000000000E+00  0.00000000000E+00  0.53466159827E+03  0.53466159827E+03  0.00000000000E+00 0.  1.
         21   -1    0    0  501  502 -0.00000000000E+00 -0.00000000000E+00 -0.20135655024E+02  0.20135655024E+02  0.00000000000E+00 0.  1.
          2    1    1    2  501    0  0.76364481184E+01  0.22531243376E+02  0.52727152885E+03  0.52780795504E+03  0.00000000000E+00 0.  1.
         21    1    1    2  503  502 -0.76364481184E+01 -0.22531243376E+02 -0.12745585603E+02  0.26989298255E+02  0.00000000000E+00 0.  1.
</event>
<event>
 4    1  0.2243475E+005  0.3579076E+02  0.7546771E-02  0.1375088E+00
          2   -1    0    0  502    0  0.00000000000E+00  0.00000000000E+00  0.75056695884E+03  0.75056695884E+03  0.00000000000E+00 0. -1.
         21   -1    0    0  503  502 -0.00000000000E+00 -0.00000000000E+00 -0.13385785713E+02  0.13385785713E+02  0.00000000000E+00 0. -1.
          2    1    1    2  501    0  0.24765475955E+02 -0.25838923696E+02  0.72538605646E+03  0.72626848320E+03  0.00000000000E+00 0. -1.
         21    1    1    2  503  501 -0.24765475955E+02  0.25838923696E+02  0.11795116670E+02  0.37684261361E+02  0.00000000000E+00 0. -1.
</event>
<event>
 4    1  0.2243475E+005  0.2696944E+02  0.7546771E-02  0.1447915E+00
          2   -1    0    0  502    0  0.00000000000E+00  0.00000000000E+00  0.51529051297E+03  0.51529051297E+03  0.00000000000E+00 0. -1.
         21   -1    0    0  503  502 -0.00000000000E+00 -0.00000000000E+00 -0.14511707370E+01  0.14511707370E+01  0.00000000000E+00 0. -1.
          2    1    1    2  501    0  0.11323374427E+02  0.24477166401E+02  0.21421957121E+03  0.21591057216E+03  0.00000000000E+00 0. -1.
         21    1    1    2  503  501 -0.11323374427E+02 -0.24477166401E+02  0.29961977103E+03  0.30083111155E+03  0.00000000000E+00 0. -1.
</event>
<event>
 4    1  0.2243475E+005  0.2900966E+02  0.7546771E-02  0.1428402E+00
          2   -1    0    0  503    0  0.00000000000E+00  0.00000000000E+00  0.17152978214E+03  0.17152978214E+03  0.00000000000E+00 0. -1.
         21   -1    0    0  501  502 -0.00000000000E+00 -0.00000000000E+00 -0.90949685659E+01  0.90949685659E+01  0.00000000000E+00 0. -1.
          2    1    1    2  501    0 -0.19245972606E+02  0.21706056004E+02  0.14250739971E+03  0.14543011827E+03  0.00000000000E+00 0. -1.
         21    1    1    2  503  502  0.19245972606E+02 -0.21706056004E+02  0.19927413865E+02  0.35194632434E+02  0.00000000000E+00 0. -1.
</event>
<event>
 4    1  0.2243475E+005  0.3335730E+02  0.7546771E-02  0.1392495E+00
          2   -1    0    0  503    0  0.00000000000E+00  0.00000000000E+00  0.32018640934E+03  0.32018640934E+03  0.00000000000E+00 0. -1.
         21   -1    0    0  501  502 -0.00000000000E+00 -0.00000000000E+00 -0.36014348989E+01  0.36014348989E+01  0.00000000000E+00 0.  1.
          2    1    1    2  501    0  0.29693101597E+02 -0.15199654410E+02  0.18860300821E+03  0.19153016598E+03  0.00000000000E+00 0. -1.
         21    1    1    2  503  502 -0.29693101597E+02  0.15199654410E+02  0.12798196624E+03  0.13225767826E+03  0.00000000000E+00 0.  1.
</event>
<event>
 4    1  0.2243475E+005  0.4813596E+02  0.7546771E-02  0.1306463E+00
          2   -1    0    0  503    0  0.00000000000E+00  0.00000000000E+00  0.62609784800E+02  0.62609784800E+02  0.00000000000E+00 0. -1.
         21   -1    0    0  501  502 -0.00000000000E+00 -0.00000000000E+00 -0.37588704001E+02  0.37588704001E+02  0.00000000000E+00 0. -1.
          2    1    1    2  501    0  0.48133972984E+02 -0.43745240460E+00  0.18736887025E+02  0.51654057491E+02  0.00000000000E+00 0. -1.
         21    1    1    2  503  502 -0.48133972984E+02  0.43745240460E+00  0.62841937744E+01  0.48544431310E+02  0.00000000000E+00 0. -1.
</event>
<event>
 4    1  0.2243475E+005  0.2011477E+02  0.7546771E-02  0.1532288E+00
          2   -1    0    0  503    0  0.00000000000E+00  0.00000000000E+00  0.26195150814E+03  0.26195150814E+03  0.00000000000E+00 0. -1.
         21   -1    0    0  501  502 -0.00000000000E+00 -0.00000000000E+00 -0.17546011460E+01  0.17546011460E+01  0.00000000000E+00 0. -1.
          2    1    1    2  501    0  0.15574485034E+02 -0.12729465528E+02  0.17571655166E+03  0.17686410152E+03  0.00000000000E+00 0. -1.
         21    1    1    2  503  502 -0.15574485034E+02  0.12729465528E+02  0.84480355329E+02  0.86842007768E+02  0.00000000000E+00 0. -1.
</event>
<event>
 4    1  0.2243475E+005  0.2478444E+02  0.7546771E-02  0.1471229E+00
          2   -1    0    0  502    0  0.00000000000E+00  0.00000000000E+00  0.16960399071E+04  0.16960399071E+04  0.00000000000E+00 0. -1.
         21   -1    0    0  503  502 -0.00000000000E+00 -0.00000000000E+00 -0.58218553525E+02  0.58218553525E+02  0.00000000000E+00 0.  1.
          2    1    1    2  501    0  0.21361169143E+02  0.12568567854E+02  0.16933073368E+04  0.16934887084E+04  0.00000000000E+00 0. -1.
         21    1    1    2  503  501 -0.21361169143E+02 -0.12568567854E+02 -0.55485983278E+02  0.60769752224E+02  0.00000000000E+00 0.  1.
</event>
<event>
 4    1  0.2243475E+005  0.2170502E+02  0.7546771E-02  0.1509432E+00
          2   -1    0    0  502    0  0.00000000000E+00  0.00000000000E+00  0.27304342161E+02  0.27304342161E+02  0.00000000000E+00 0. -1.
         21   -1    0    0  503  502 -0.00000000000E+00 -0.00000000000E+00 -0.95760193957E+02  0.95760193957E+02  0.00000000000E+00 0.  1.
          2    1    1    2  501    0 -0.21684237606E+02  0.94966125096E+00  0.21485836532E+02  0.30540942823E+02  0.00000000000E+00 0. -1.
         21    1    1    2  503  501  0.21684237606E+02 -0.94966125096E+00 -0.89941688327E+02  0.92523593295E+02  0.00000000000E+00 0.  1.
</event>
<event>
 4    1  0.2243475E+005  0.2303051E+02  0.7546771E-02  0.1492115E+00
          2   -1    0    0  502    0  0.00000000000E+00  0.00000000000E+00  0.34611801143E+03  0.34611801143E+03  0.00000000000E+00 0.  1.
         21   -1    0    0  503  502 -0.00000000000E+00 -0.00000000000E+00 -0.24379411085E+03  0.24379411085E+03  0.00000000000E+00 0. -1.
          2    1    1    2  501    0  0.11919411845E+02  0.19706145479E+02  0.34518953423E+03  0.34595696133E+03  0.00000000000E+00 0.  1.
         21    1    1    2  503  501 -0.11919411845E+02 -0.19706145479E+02 -0.24286563365E+03  0.24395516096E+03  0.00000000000E+00 0. -1.
</event>
<event>
 4    1  0.2243475E+005  0.6989897E+02  0.7546771E-02  0.1229464E+00
          2   -1    0    0  503    0  0.00000000000E+00  0.00000000000E+00  0.51993454547E+02  0.51993454547E+02  0.00000000000E+00 0. -1.
         21   -1    0    0  501  502 -0.00000000000E+00 -0.00000000000E+00 -0.32925118432E+03  0.32925118432E+03  0.00000000000E+00 0. -1.
          2    1    1    2  501    0 -0.14425764951E+00  0.69898817310E+02  0.22510985373E+02  0.73434392039E+02  0.00000000000E+00 0. -1.
         21    1    1    2  503  502  0.14425764951E+00 -0.69898817310E+02 -0.29976871514E+03  0.30781024682E+03  0.00000000000E+00 0. -1.
</event>
<event>
 4    1  0.2243475E+005  0.2533689E+02  0.7546771E-02  0.1465070E+00
          2   -1    0    0  502    0  0.00000000000E+00  0.00000000000E+00  0.29870545949E+03  0.29870545949E+03  0.00000000000E+00 0.  1.
         21   -1    0    0  503  502 -0.00000000000E+00 -0.00000000000E+00 -0.10549517158E+02  0.10549517158E+02  0.00000000000E+00 0.  1.
          2    1    1    2  501    0 -0.21546230880E+02  0.13331094130E+02  0.28205918185E+03  0.28319488025E+03  0.00000000000E+00 0.  1.
         21    1    1    2  503  501  0.21546230880E+02 -0.13331094130E+02  0.60967604833E+01  0.26060096397E+02  0.00000000000E+00 0.  1.
</event>
<event>
 4    1  0.2243475E+005  0.2389640E+02  0.7546771E-02  0.1481539E+00
          2   -1    0    0  503    0  0.00000000000E+00  0.00000000000E+00  0.13753200097E+04  0.13753200097E+04  0.00000000000E+00 0. -1.
         21   -1    0    0  501  502 -0.00000000000E+00 -0.00000000000E+00 -0.81715133013E+01  0.81715133013E+01  0.00000000000E+00 0. -1.
          2    1    1    2  501    0 -0.34743885951E+01  0.23642468748E+02  0.13575167317E+04  0.13577270398E+04  0.00000000000E+00 0. -1.
         21    1    1    2  503  502  0.34743885951E+01 -0.23642468748E+02  0.96317647034E+01  0.25764483226E+02  0.00000000000E+00 0. -1.
</event>
<event>
 4    1  0.2243475E+005  0.3046266E+02  0.7546771E-02  0.1415618E+00
          2   -1    0    0  503    0  0.00000000000E+00  0.00000000000E+00  0.78885699417E+03  0.78885699417E+03  0.00000000000E+00 0.  1.
         21   -1    0    0  501  502 -0.00000000000E+00 -0.00000000000E+00 -0.36992766652E+01  0.36992766652E+01  0.00000000000E+00 0. -1.
          2    1    1    2  501    0 -0.68370244562E+01 -0.29685494221E+02  0.71983955440E+03  0.72048383573E+03  0.00000000000E+00 0.  1.
         21    1    1    2  503  502  0.68370244562E+01  0.29685494221E+02  0.65318163111E+02  0.72072435110E+02  0.00000000000E+00 0. -1.
</event>
<event>
 4    1  0.2243475E+005  0.4267332E+02  0.7546771E-02  0.1333494E+00
          2   -1    0    0  503    0  0.00000000000E+00  0.00000000000E+00  0.18104294264E+03  0.18104294264E+03  0.00000000000E+00 0. -1.
         21   -1    0    0  501  502 -0.00000000000E+00 -0.00000000000E+00 -0.26998015683E+02  0.26998015683E+02  0.00000000000E+00 0. -1.
          2    1    1    2  501    0 -0.41214095201E+02  0.11063923781E+02  0.15941806256E+03  0.16503069630E+03  0.00000000000E+00 0. -1.
         21    1    1    2  503  502  0.41214095201E+02 -0.11063923781E+02 -0.53731356024E+01  0.43010262018E+02  0.00000000000E+00 0. -1.
</event>
<event>
 4    1  0.2243475E+005  0.2171710E+02  0.7546771E-02  0.1509268E+00
          2   -1    0    0  502    0  0.00000000000E+00  0.00000000000E+00  0.28816849448E+02  0.28816849448E+02  0.00000000000E+00 0. -1.
         21   -1    0    0  503  502 -0.00000000000E+00 -0.00000000000E+00 -0.27970118036E+02  0.27970118036E+02  0.00000000000E+00 0. -1.
          2    1    1    2  501    0 -0.20786648828E+02 -0.62886920824E+01  0.18711411556E+02  0.28666170655E+02  0.00000000000E+00 0. -1.
         21    1    1    2  503  501  0.20786648828E+02  0.62886920824E+01 -0.17864680145E+02  0.28120796829E+02  0.00000000000E+00 0. -1.
</event>
<event>
 4    1  0.2243475E+005  0.2009600E+02  0.7546771E-02  0.1532573E+00
          2   -1    0    0  503    0  0.00000000000E+00  0.00000000000E+00  0.16456732604E+03  0.16456732604E+03  0.00000000000E+00 0. -1.
         21   -1    0    0  501  502 -0.00000000000E+00 -0.00000000000E+00 -0.49482390181E+01  0.49482390181E+01  0.00000000000E+00 0. -1.
          2    1    1    2  501    0 -0.14038852829E+02 -0.14379152525E+02  0.13998545147E+03  0.14142056442E+03  0.00000000000E+00 0. -1.
         21    1    1    2  503  502  0.14038852829E+02  0.14379152525E+02  0.19633635548E+02  0.28095000639E+02  0.00000000000E+00 0. -1.
</event>
<event>
 4    1  0.2243475E+005  0.2019241E+02  0.7546771E-02  0.1531115E+00
          2   -1    0    0  503    0  0.00000000000E+00  0.00000000000E+00  0.50267042264E+02  0.50267042264E+02  0.00000000000E+00 0. -1.
         21   -1    0    0  501  502 -0.00000000000E+00 -0.00000000000E+00 -0.38617054476E+02  0.38617054476E+02  0.00000000000E+00 0. -1.
          2    1    1    2  501    0  0.18479529498E+02  0.81388113540E+01  0.45324809562E+02  0.49619266647E+02  0.00000000000E+00 0. -1.
         21    1    1    2  503  502 -0.18479529498E+02 -0.81388113540E+01 -0.33674821774E+02  0.39264830093E+02  0.00000000000E+00 0. -1.
</event>
<event>
 4    1  0.2243475E+005  0.2399429E+02  0.7546771E-02  0.1480376E+00
          2   -1    0    0  503    0  0.00000000000E+00  0.00000000000E+00  0.20059721894E+03  0.20059721894E+03  0.00000000000E+00 0. -1.
         21   -1    0    0  501  502 -0.00000000000E+00 -0.00000000000E+00 -0.40452299279E+03  0.40452299279E+03  0.00000000000E+00 0.  1.
          2    1    1    2  501    0  0.16224721016E+02 -0.17677225860E+02  0.19952198817E+03  0.20095957218E+03  0.00000000000E+00 0. -1.
         21    1    1    2  503  502 -0.16224721016E+02  0.17677225860E+02 -0.40344776202E+03  0.40416063955E+03  0.00000000000E+00 0.  1.
</event>
<event>
 4    1  0.2243475E+005  0.2560282E+02  0.7546771E-02  0.1462171E+00
          2   -1    0    0  503    0  0.00000000000E+00  0.00000000000E+00  0.87677212574E+02  0.87677212574E+02  0.00000000000E+00 0.  1.
         21   -1    0    0  501  502 -0.00000000000E+00 -0.00000000000E+00 -0.15349241995E+03  0.15349241995E+03  0.00000000000E+00 0.  1.
          2    1    1    2  501    0 -0.21393983259E+02 -0.14064202444E+02  0.84703820125E+02  0.88488651554E+02  0.00000000000E+00 0.  1.
         21    1    1    2  503  502  0.21393983259E+02  0.14064202444E+02 -0.15051902750E+03  0.15268098097E+03  0.00000000000E+00 0.  1.
</event>
<event>
 4    1  0.2243475E+005  0.2082645E+02  0.7546771E-02  0.1521757E+00
          2   -1    0    0  503    0  0.00000000000E+00  0.00000000000E+00  0.11382069291E+04  0.11382069291E+04  0.00000000000E+00 0.  1.
         21   -1    0    0  501  502 -0.00000000000E+00 -0.00000000000E+00 -0.23097275811E+01  0.23097275811E+01  0.00000000000E+00 0.  1.
          2    1    1    2  501    0 -0.11862131781E+02 -0.17118143021E+02  0.10890453669E+04  0.10892444869E+04  0.00000000000E+00 0.  1.
         21    1    1    2  503  502  0.11862131781E+02  0.17118143021E+02  0.46851834618E+02  0.51272169819E+02  0.00000000000E+00 0.  1.
</event>
<event>
 4    1  0.2243475E+005  0.2218542E+02  0.7546771E-02  0.1502988E+00
          2   -1    0    0  503    0  0.00000000000E+00  0.00000000000E+00  0.26613534087E+03  0.26613534087E+03  0.00000000000E+00 0. -1.
         21   -1    0    0  501  502 -0.00000000000E+00 -0.00000000000E+00 -0.41121749034E+01  0.41121749034E+01  0.00000000000E+00 0.  1.
          2    1    1    2  501    0 -0.10436615746E+02 -0.19577278678E+02  0.23124576462E+03  0.23230754711E+03  0.00000000000E+00 0. -1.
         21    1    1    2  503  502  0.10436615746E+02  0.19577278678E+02  0.30777401345E+02  0.37939968664E+02  0.00000000000E+00 0.  1.
</event>
<event>
 4    1  0.2243475E+005  0.2006994E+02  0.7546771E-02  0.1532969E+00
          2   -1    0    0  502    0  0.00000000000E+00  0.00000000000E+00  0.83979315022E+03  0.83979315022E+03  0.00000000000E+00 0.  1.
         21   -1    0    0  503  502 -0.00000000000E+00 -0.00000000000E+00 -0.84153663165E+02  0.84153663165E+02  0.00000000000E+00 0. -1.
          2    1    1    2  501    0 -0.17368006361E+02 -0.10057569623E+02  0.83847473023E+03  0.83871489529E+03  0.00000000000E+00 0.  1.
         21    1    1    2  503  501  0.17368006361E+02  0.10057569623E+02 -0.82835243169E+02  0.85231918097E+02  0.00000000000E+00 0. -1.
</event>
<event>
 4    1  0.2243475E+005  0.1092024E+03  0.7546771E-02  0.1148751E+00
          2   -1    0    0  503    0  0.00000000000E+00  0.00000000000E+00  0.96068125773E+03  0.96068125773E+03  0.00000000000E+00 0. -1.
         21   -1    0    0  501  502 -0.00000000000E+00 -0.00000000000E+00 -0.95083995321E+02  0.95083995321E+02  0.00000000000E+00 0.  1.
          2    1    1    2  501    0  0.91919871484E+02 -0.58956778892E+02  0.92501904074E+03  0.93144263929E+03  0.00000000000E+00 0. -1.
         21    1    1    2  503  502 -0.91919871484E+02  0.58956778892E+02 -0.59421778336E+02  0.12432261376E+03  0.00000000000E+00 0.  1.
</event>
<event>
 4    1  0.2243475E+005  0.2394529E+02  0.7546771E-02  0.1480957E+00
          2   -1    0    0  503    0  0.00000000000E+00  0.00000000000E+00  0.50127479554E+03  0.50127479554E+03  0.00000000000E+00 0.  1.
         21   -1    0    0  501  502 -0.00000000000E+00 -0.00000000000E+00 -0.16374420088E+01  0.16374420088E+01  0.00000000000E+00 0.  1.
          2    1    1    2  501    0  0.19741685815E+02 -0.13551489255E+02  0.38787894270E+03  0.38861735835E+03  0.00000000000E+00 0.  1.
         21    1    1    2  503  502 -0.19741685815E+02  0.13551489255E+02  0.11175841084E+03  0.11429487921E+03  0.00000000000E+00 0.  1.
</event>
<event>
 4    1  0.2243475E+005  0.2846604E+02  0.7546771E-02  0.1433412E+00
          2   -1    0    0  503    0  0.00000000000E+00  0.00000000000E+00  0.16394228458E+04  0.16394228458E+04  0.00000000000E+00 0. -1.
         21   -1    0    0  501  502 -0.00000000000E+00 -0.00000000000E+00 -0.67501931958E+01  0.67501931958E+01  0.00000000000E+00 0.  1.
          2    1    1    2  501    0  0.16544014238E+02 -0.23164869928E+02  0.16087156459E+04  0.16089674779E+04  0.00000000000E+00 0. -1.
         21    1    1    2  503  502 -0.16544014238E+02  0.23164869928E+02  0.23957006717E+02  0.37205561100E+02  0.00000000000E+00 0.  1.
</event>
<event>
 4    1  0.2243475E+005  0.2378923E+02  0.7546771E-02  0.1482819E+00
          2   -1    0    0  503    0  0.00000000000E+00  0.00000000000E+00  0.91220913874E+02  0.91220913874E+02  0.00000000000E+00 0. -1.
         21   -1    0    0  501  502 -0.00000000000E+00 -0.00000000000E+00 -0.17022949576E+02  0.17022949576E+02  0.00000000000E+00 0.  1.
          2    1    1    2  501    0 -0.14712730840E+02 -0.18693928216E+02  0.80245922465E+02  0.83697882131E+02  0.00000000000E+00 0. -1.
         21    1    1    2  503  502  0.14712730840E+02  0.18693928216E+02 -0.60479581680E+01  0.24545981319E+02  0.00000000000E+00 0.  1.
</event>
<event>
 4    1  0.2243475E+005  0.2136336E+02  0.7546771E-02  0.1514140E+00
          2   -1    0    0  503    0  0.00000000000E+00  0.00000000000E+00  0.60598920545E+02  0.60598920545E+02  0.00000000000E+00 0. -1.
         21   -1    0    0  501  502 -0.00000000000E+00 -0.00000000000E+00 -0.41192339009E+02  0.41192339009E+02  0.00000000000E+00 0. -1.
          2    1    1    2  501    0 -0.21092955390E+02  0.33882724988E+01  0.55711522802E+02  0.59667134425E+02  0.00000000000E+00 0. -1.
         21    1    1    2  503  502  0.21092955390E+02 -0.33882724988E+01 -0.36304941266E+02  0.42124125129E+02  0.00000000000E+00 0. -1.
</event>
<event>
 4    1  0.2243475E+005  0.2579455E+02  0.7546771E-02  0.1460108E+00
          2   -1    0    0  503    0  0.00000000000E+00  0.00000000000E+00  0.58595523567E+03  0.58595523567E+03  0.00000000000E+00 0. -1.
         21   -1    0    0  501  502 -0.00000000000E+00 -0.00000000000E+00 -0.32933305753E+02  0.32933305753E+02  0.00000000000E+00 0. -1.
          2    1    1    2  501    0 -0.17910951861E+02 -0.18562239420E+02  0.58057375792E+03  0.58114649385E+03  0.00000000000E+00 0. -1.
         21    1    1    2  503  502  0.17910951861E+02  0.18562239420E+02 -0.27551828002E+02  0.37742047574E+02  0.00000000000E+00 0. -1.
</event>
<event>
 4    1  0.2243475E+005  0.2633073E+02  0.7546771E-02  0.1454449E+00
          2   -1    0    0  503    0  0.00000000000E+00  0.00000000000E+00  0.96261251103E+00  0.96261251103E+00  0.00000000000E+00 0.  1.
         21   -1    0    0  501  502 -0.00000000000E+00 -0.00000000000E+00 -0.11343183744E+04  0.11343183744E+04  0.00000000000E+00 0. -1.
          2    1    1    2  501    0  0.16565237726E+02  0.20467047001E+02 -0.22371285009E+03  0.22525706739E+03  0.00000000000E+00 0.  1.
         21    1    1    2  503  502 -0.16565237726E+02 -0.20467047001E+02 -0.90964291182E+03  0.91002391954E+03  0.00000000000E+00 0. -1.
</event>
<event>
 4    1  0.2243475E+005  0.3570132E+02  0.7546771E-02  0.1375699E+00
          2   -1    0    0  502    0  0.00000000000E+00  0.00000000000E+00  0.21817858368E+03  0.21817858368E+03  0.00000000000E+00 0. -1.
         21   -1    0    0  503  502 -0.00000000000E+00 -0.00000000000E+00 -0.85451585738E+01  0.85451585738E+01  0.00000000000E+00 0. -1.
          2    1    1    2  501    0  0.35212777652E+02 -0.58859386041E+01  0.16857671693E+03  0.17231567971E+03  0.00000000000E+00 0. -1.
         21    1    1    2  503  501 -0.35212777652E+02  0.58859386041E+01  0.41056708169E+02  0.54408062536E+02  0.00000000000E+00 0. -1.
</event>
<event>
 4    1  0.2243475E+005  0.5357883E+02  0.7546771E-02  0.1283359E+00
          2   -1    0    0  503    0  0.00000000000E+00  0.00000000000E+00  0.93487840805E+03  0.93487840805E+03  0.00000000000E+00 0. -1.
         21   -1    0    0  501  502 -0.00000000000E+00 -0.00000000000E+00 -0.35442153854E+01  0.35442153854E+01  0.00000000000E+00 0. -1.
          2    1    1    2  501    0  0.38325398355E+02 -0.37441351253E+02  0.63717935984E+03  0.63942804721E+03  0.00000000000E+00 0. -1.
         21    1    1    2  503  502 -0.38325398355E+02  0.37441351253E+02  0.29415483282E+03  0.29899457622E+03  0.00000000000E+00 0. -1.
</event>
<event>
 4    1  0.2243475E+005  0.3127770E+02  0.7546771E-02  0.1408809E+00
          2   -1    0    0  502    0  0.00000000000E+00  0.00000000000E+00  0.52456177133E+03  0.52456177133E+03  0.00000000000E+00 0.  1.
         21   -1    0    0  503  502 -0.00000000000E+00 -0.00000000000E+00 -0.87629643336E+01  0.87629643336E+01  0.00000000000E+00 0. -1.
          2    1    1    2  501    0  0.15601544202E+02 -0.27108786639E+02  0.49448999717E+03  0.49547820516E+03  0.00000000000E+00 0.  1.
         21    1    1    2  503  501 -0.15601544202E+02  0.27108786639E+02  0.21308809830E+02  0.37846530500E+02  0.00000000000E+00 0. -1.
</event>
<event>
 4    1  0.2243475E+005  0.2209646E+02  0.7546771E-02  0.1504167E+00
          2   -1    0    0  503    0  0.00000000000E+00  0.00000000000E+00  0.10441826247E+04  0.10441826247E+04  0.00000000000E+00 0.  1.
         21   -1    0    0  501  502 -0.00000000000E+00 -0.00000000000E+00 -0.10152633359E+01  0.10152633359E+01  0.00000000000E+00 0. -1.
          2    1    1    2  501    0 -0.19172267312E+02 -0.10985342303E+02  0.90541319854E+03  0.90568278866E+03  0.00000000000E+00 0.  1.
         21    1    1    2  503  502  0.19172267312E+02  0.10985342303E+02  0.13775416285E+03  0.13951509941E+03  0.00000000000E+00 0. -1.
</event>
<event>
 4    1  0.2243475E+005  0.2716288E+02  0.7546771E-02  0.1445979E+00
          2   -1    0    0  503    0  0.00000000000E+00  0.00000000000E+00  0.36531045544E+03  0.36531045544E+03  0.00000000000E+00 0.  1.
         21   -1    0    0  501  502 -0.00000000000E+00 -0.00000000000E+00 -0.15147098723E+02  0.15147098723E+02  0.00000000000E+00 0. -1.
          2    1    1    2  501    0  0.27506638241E+01  0.27023246729E+02  0.35217436351E+03  0.35322033397E+03  0.00000000000E+00 0.  1.
         21    1    1    2  503  502 -0.27506638241E+01 -0.27023246729E+02 -0.20110067991E+01  0.27237220189E+02  0.00000000000E+00 0. -1.
</event>
<event>
 4    1  0.2243475E+005  0.2534599E+02  0.7546771E-02  0.1464970E+00
          2   -1    0    0  502    0  0.00000000000E+00  0.00000000000E+00  0.36457494563E+03  0.36457494563E+03  0.00000000000E+00 0. -1.
         21   -1    0    0  503  502 -0.00000000000E+00 -0.00000000000E+00 -0.27059930587E+01  0.27059930587E+01  0.00000000000E+00 0.  1.
          2    1    1    2  501    0 -0.55668541324E+01  0.24727096715E+02  0.28939342745E+03  0.29050124790E+03  0.00000000000E+00 0. -1.
         21    1    1    2  503  501  0.55668541324E+01 -0.24727096715E+02  0.72475525121E+02  0.76779690795E+02  0.00000000000E+00 0.  1.
</event>
<event>
 4    1  0.2243475E+005  0.2370489E+02  0.7546771E-02  0.1483832E+00
          2   -1    0    0  502    0  0.00000000000E+00  0.00000000000E+00  0.20652211259E+03  0.20652211259E+03  0.00000000000E+00 0. -1.
         21   -1    0    0  503  502 -0.00000000000E+00 -0.00000000000E+00 -0.77309039815E+01  0.77309039815E+01  0.00000000000E+00 0.  1.
          2    1    1    2  501    0  0.12351795801E+02 -0.20232519101E+02  0.18563421545E+03  0.18714161385E+03  0.00000000000E+00 0. -1.
         21    1    1    2  503  501 -0.12351795801E+02  0.20232519101E+02  0.13156993163E+02  0.27111402726E+02  0.00000000000E+00 0.  1.
</event>
<event>
 4    1  0.2243475E+005  0.2895615E+02  0.7546771E-02  0.1428889E+00
          2   -1    0    0  502    0  0.00000000000E+00  0.00000000000E+00  0.49155812497E+03  0.49155812497E+03  0.00000000000E+00 0. -1.
         21   -1    0    0  503  502 -0.00000000000E+00 -0.00000000000E+00 -0.17092488494E+01  0.17092488494E+01  0.00000000000E+00 0. -1.
          2    1    1    2  501    0 -0.21201478604E+02  0.19721971304E+02  0.25613626137E+03  0.25776780877E+03  0.00000000000E+00 0. -1.
         21    1    1    2  503  501  0.21201478604E+02 -0.19721971304E+02  0.23371261475E+03  0.23549956506E+03  0.00000000000E+00 0. -1.
</event>
<event>
 4    1  0.2243475E+005  0.2743926E+02  0.7546771E-02  0.1443245E+00
          2   -1    0    0  503    0  0.00000000000E+00  0.00000000000E+00  0.22580251009E+03  0.22580251009E+03  0.00000000000E+00 0.  1.
         21   -1    0    0  501  502 -0.00000000000E+00 -0.00000000000E+00 -0.74442499620E+02  0.74442499620E+02  0.00000000000E+00 0.  1.
          2    1    1    2  501    0  0.14170351101E+02 -0.23497107741E+02  0.22240189252E+03  0.22408818514E+03  0.00000000000E+00 0.  1.
         21    1    1    2  503  502 -0.14170351101E+02  0.23497107741E+02 -0.71041882053E+02  0.76156824567E+02  0.00000000000E+00 0.  1.
</event>
<event>
 4    1  0.2243475E+005  0.2560979E+02  0.7546771E-02  0.1462096E+00
          2   -1    0    0  503    0  0.00000000000E+00  0.00000000000E+00  0.43640097244E+02  0.43640097244E+02  0.00000000000E+00 0. -1.
         21   -1    0    0  501  502 -0.00000000000E+00 -0.00000000000E+00 -0.20527543782E+02  0.20527543782E+02  0.00000000000E+00 0. -1.
          2    1    1    2  501    0 -0.25590993656E+02 -0.98106596008E+00  0.28161567052E+02  0.38064882839E+02  0.00000000000E+00 0. -1.
         21    1    1    2  503  502  0.25590993656E+02  0.98106596008E+00 -0.50490135908E+01  0.26102758187E+02  0.00000000000E+00 0. -1.
</event>
<event>
 4    1  0.2243475E+005  0.3785669E+02  0.7546771E-02  0.1361525E+00
          2   -1    0    0  502    0  0.00000000000E+00  0.00000000000E+00  0.23085632463E+04  0.23085632463E+04  0.00000000000E+00 0. -1.
         21   -1    0    0  503  502 -0.00000000000E+00 -0.00000000000E+00 -0.15506816154E+02  0.15506816154E+02  0.00000000000E+00 0.  1.
          2    1    1    2  501    0 -0.25619189658E+02  0.27870884325E+02  0.22850656513E+04  0.22853792158E+04  0.00000000000E+00 0. -1.
         21    1    1    2  503  501  0.25619189658E+02 -0.27870884325E+02  0.79907788518E+01  0.38690846701E+02  0.00000000000E+00 0.  1.
</event>
<event>
 4    1  0.2243475E+005  0.4623637E+02  0.7546771E-02  0.1315370E+00
          2   -1    0    0  503    0  0.00000000000E+00  0.00000000000E+00  0.14923179104E+04  0.14923179104E+04  0.00000000000E+00 0. -1.
         21   -1    0    0  501  502 -0.00000000000E+00 -0.00000000000E+00 -0.16384877761E+01  0.16384877761E+01  0.00000000000E+00 0. -1.
          2    1    1    2  501    0 -0.17562895736E+02  0.42770860575E+02  0.10101697194E+04  0.10112273057E+04  0.00000000000E+00 0. -1.
         21    1    1    2  503  502  0.17562895736E+02 -0.42770860575E+02  0.48050970328E+03  0.48272909253E+03  0.00000000000E+00 0. -1.
</event>
<event>
 4    1  0.2243475E+005  0.5351391E+02  0.7546771E-02  0.1283616E+00
          2   -1    0    0  503    0  0.00000000000E+00  0.00000000000E+00  0.13327446654E+03  0.13327446654E+03  0.00000000000E+00 0. -1.
         21   -1    0    0  501  502 -0.00000000000E+00 -0.00000000000E+00 -0.95966704018E+02  0.95966704018E+02  0.00000000000E+00 0. -1.
          2    1    1    2  501    0  0.98778525800E+01  0.52594357475E+02  0.11963025564E+03  0.13105394490E+03  0.00000000000E+00 0. -1.
         21    1    1    2  503  502 -0.98778525800E+01 -0.52594357475E+02 -0.82322493115E+02  0.98187225658E+02  0.00000000000E+00 0. -1.
</event>
<event>
 4    1  0.2243475E+005  0.3048969E+02  0.7546771E-02  0.1415388E+00
          2   -1    0    0  503    0  0.00000000000E+00  0.00000000000E+00  0.21527622662E+04  0.21527622662E+04  0.00000000000E+00 0.  1.
         21   -1    0    0  501  502 -0.00000000000E+00 -0.00000000000E+00 -0.18893730610E+03  0.18893730610E+03  0.00000000000E+00 0. -1.
          2    1    1    2  501    0 -0.26799872334E+02 -0.14539187809E+02  0.21514234784E+04  0.21516395155E+04  0.00000000000E+00 0.  1.
         21    1    1    2  503  502  0.26799872334E+02  0.14539187809E+02 -0.18759851829E+03  0.19006005684E+03  0.00000000000E+00 0. -1.
</event>
<event>
 4    1  0.2243475E+005  0.2181313E+02  0.7546771E-02  0.1507965E+00
          2   -1    0    0  503    0  0.00000000000E+00  0.00000000000E+00  0.47952966409E+01  0.47952966409E+01  0.00000000000E+00 0. -1.
         21   -1    0    0  501  502 -0.00000000000E+00 -0.00000000000E+00 -0.10304396623E+03  0.10304396623E+03  0.00000000000E+00 0. -1.
          2    1    1    2  501    0  0.44493906444E+01 -0.21354521832E+02 -0.38743889034E+02  0.44462361805E+02  0.00000000000E+00 0. -1.
         21    1    1    2  503  502 -0.44493906444E+01  0.21354521832E+02 -0.59504780553E+02  0.63376901064E+02  0.00000000000E+00 0. -1.
</event>
<event>
 4    1  0.2243475E+005  0.2758833E+02  0.7546771E-02  0.1441786E+00
          2   -1    0    0  502    0  0.00000000000E+00  0.00000000000E+00  0.16919858597E+04  0.16919858597E+04  0.00000000000E+00 0.  1.
         21   -1    0    0  503  502 -0.00000000000E+00 -0.00000000000E+00 -0.53093394712E+00  0.53093394712E+00  0.00000000000E+00 0.  1.
          2    1    1    2  501    0 -0.27513277086E+02  0.20336478882E+01  0.11764682018E+04  0.11767916323E+04  0.00000000000E+00 0.  1.
         21    1    1    2  503  501  0.27513277086E+02 -0.20336478882E+01  0.51498672401E+03  0.51572516135E+03  0.00000000000E+00 0.  1.
</event>
<event>
 4    1  0.2243475E+005  0.3095593E+02  0.7546771E-02  0.1411467E+00
          2   -1    0    0  502    0  0.00000000000E+00  0.00000000000E+00  0.43068071343E+02  0.43068071343E+02  0.00000000000E+00 0. -1.
         21   -1    0    0  503  502 -0.00000000000E+00 -0.00000000000E+00 -0.26575777629E+03  0.26575777629E+03  0.00000000000E+00 0. -1.
          2    1    1    2  501    0  0.13544984257E+02 -0.27835283735E+02  0.36462816870E+02  0.47831021662E+02  0.00000000000E+00 0. -1.
         21    1    1    2  503  501 -0.13544984257E+02  0.27835283735E+02 -0.25915252182E+03  0.26099482597E+03  0.00000000000E+00 0. -1.
</event>
<event>
 4    1  0.2243475E+005  0.2455433E+02  0.7546771E-02  0.1473851E+00
          2   -1    0    0  503    0  0.00000000000E+00  0.00000000000E+00  0.92067822291E+02  0.92067822291E+02  0.00000000000E+00 0. -1.
         21   -1    0    0  501  502 -0.00000000000E+00 -0.00000000000E+00 -0.91460392141E+01  0.91460392141E+01  0.00000000000E+00 0. -1.
          2    1    1    2  501    0 -0.11559949374E+02  0.21662936509E+02  0.68429978913E+02  0.72701975639E+02  0.00000000000E+00 0. -1.
         21    1    1    2  503  502  0.11559949374E+02 -0.21662936509E+02  0.14491804163E+02  0.28511885866E+02  0.00000000000E+00 0. -1.
</event>
<event>
 4    1  0.2243475E+005  0.4743353E+02  0.7546771E-02  0.1309700E+00
          2   -1    0    0  503    0  0.00000000000E+00  0.00000000000E+00  0.12250133038E+04  0.12250133038E+04  0.00000000000E+00 0.  1.
         21   -1    0    0  501  502 -0.00000000000E+00 -0.00000000000E+00 -0.18718740549E+01  0.18718740549E+01  0.00000000000E+00 0. -1.
          2    1    1    2  501    0  0.57997300499E+01 -0.47077627646E+02  0.69570220811E+03  0.69731736122E+03  0.00000000000E+00 0.  1.
         21    1    1    2  503  502 -0.57997300499E+01  0.47077627646E+02  0.52743922163E+03  0.52956781663E+03  0.00000000000E+00 0. -1.
</event>
<event>
 4    1  0.2243475E+005  0.2330828E+02  0.7546771E-02  0.1488663E+00
          2   -1    0    0  503    0  0.00000000000E+00  0.00000000000E+00  0.24016619493E+03  0.24016619493E+03  0.00000000000E+00 0. -1.
         21   -1    0    0  501  502 -0.00000000000E+00 -0.00000000000E+00 -0.59427580664E+01  0.59427580664E+01  0.00000000000E+00 0. -1.
          2    1    1    2  501    0 -0.21593821070E+02 -0.87739808326E+01  0.21395447353E+03  0.21522033499E+03  0.00000000000E+00 0. -1.
         21    1    1    2  503  502  0.21593821070E+02  0.87739808326E+01  0.20268963338E+02  0.30888618014E+02  0.00000000000E+00 0. -1.
</event>
<event>
 4    1  0.2243475E+005  0.2309798E+02  0.7546771E-02  0.1491271E+00
          2   -1    0    0  503    0  0.00000000000E+00  0.00000000000E+00  0.11288278652E+03  0.11288278652E+03  0.00000000000E+00 0.  1.
         21   -1    0    0  501  502 -0.00000000000E+00 -0.00000000000E+00 -0.10651418086E+02  0.10651418086E+02  0.00000000000E+00 0.  1.
          2    1    1    2  501    0  0.11153714753E+02 -0.20226502365E+02  0.97184006293E+02  0.99891179941E+02  0.00000000000E+00 0.  1.
         21    1    1    2  503  502 -0.11153714753E+02  0.20226502365E+02  0.50473621391E+01  0.23643024664E+02  0.00000000000E+00 0.  1.
</event>
<event>
 4    1  0.2243475E+005  0.3449727E+02  0.7546771E-02  0.1384132E+00
          2   -1    0    0  502    0  0.00000000000E+00  0.00000000000E+00  0.21735090208E+04  0.21735090208E+04  0.00000000000E+00 0.  1.
         21   -1    0    0  503  502 -0.00000000000E+00 -0.00000000000E+00 -0.40625654818E+01  0.40625654818E+01  0.00000000000E+00 0. -1.
          2    1    1    2  501    0 -0.34494929883E+02 -0.40186199941E+00  0.20974845492E+04  0.20977682178E+04  0.00000000000E+00 0.  1.
         21    1    1    2  503  501  0.34494929883E+02  0.40186199941E+00  0.71961906088E+02  0.79803368403E+02  0.00000000000E+00 0. -1.
</event>
<event>
 4    1  0.2243475E+005  0.3151236E+02  0.7546771E-02  0.1406894E+00
          2   -1    0    0  502    0  0.00000000000E+00  0.00000000000E+00  0.18411847382E+03  0.18411847382E+03  0.00000000000E+00 0. -1.
         21   -1    0    0  503  502 -0.00000000000E+00 -0.00000000000E+00 -0.17852457537E+02  0.17852457537E+02  0.00000000000E+00 0.  1.
          2    1    1    2  501    0 -0.22573322540E+02 -0.21988045728E+02  0.16749601314E+03  0.17043457238E+03  0.00000000000E+00 0. -1.
         21    1    1    2  503  501  0.22573322540E+02  0.21988045728E+02 -0.12299968524E+01  0.31536358980E+02  0.00000000000E+00 0.  1.
</event>
<event>
 4    1  0.2243475E+005  0.3336316E+02  0.7546771E-02  0.1392451E+00
          2   -1    0    0  502    0  0.00000000000E+00  0.00000000000E+00  0.14908537463E+03  0.14908537463E+03  0.00000000000E+00 0.  1.
         21   -1    0    0  503  502 -0.00000000000E+00 -0.00000000000E+00 -0.11474393979E+02  0.11474393979E+02  0.00000000000E+00 0. -1.
          2    1    1    2  501    0 -0.10767784329E+02  0.31577761728E+02  0.11625334616E+03  0.12094602395E+03  0.00000000000E+00 0.  1.
         21    1    1    2  503  501  0.10767784329E+02 -0.31577761728E+02  0.21357634491E+02  0.39613744662E+02  0.00000000000E+00 0. -1.
</event>
<event>
 4    1  0.2243475E+005  0.2290557E+02  0.7546771E-02  0.1493687E+00
          2   -1    0    0  503    0  0.00000000000E+00  0.00000000000E+00  0.68524540451E+03  0.68524540451E+03  0.00000000000E+00 0. -1.
         21   -1    0    0  501  502 -0.00000000000E+00 -0.00000000000E+00 -0.84216165298E+01  0.84216165298E+01  0.00000000000E+00 0. -1.
          2    1    1    2  501    0 -0.17726187000E+02 -0.14506811152E+02  0.66910339881E+03  0.66949534993E+03  0.00000000000E+00 0. -1.
         21    1    1    2  503  502  0.17726187000E+02  0.14506811152E+02  0.77203891684E+01  0.24171671110E+02  0.00000000000E+00 0. -1.
</event>
<event>
 4    1  0.2243475E+005  0.2489719E+02  0.7546771E-02  0.1469957E+00
          2   -1    0    0  503    0  0.00000000000E+00  0.00000000000E+00  0.53820584873E+02  0.53820584873E+02  0.00000000000E+00 0. -1.
         21   -1    0    0  501  502 -0.00000000000E+00 -0.00000000000E+00 -0.28549802419E+02  0.28549802419E+02  0.00000000000E+00 0.  1.
          2    1    1    2  501    0 -0.24731379312E+02 -0.28686443556E+01  0.44446456660E+02  0.50944653819E+02  0.00000000000E+00 0. -1.
         21    1    1    2  503  502  0.24731379312E+02  0.28686443556E+01 -0.19175674205E+02  0.31425733474E+02  0.00000000000E+00 0.  1.
</event>
<event>
 4    1  0.2243475E+005  0.2823805E+02  0.7546771E-02  0.1435553E+00
          2   -1    0    0  503    0  0.00000000000E+00  0.00000000000E+00  0.25690013990E+03  0.25690013990E+03  0.00000000000E+00 0. -1.
         21   -1    0    0  501  502 -0.00000000000E+00 -0.00000000000E+00 -0.61389089031E+02  0.61389089031E+02  0.00000000000E+00 0.  1.
          2    1    1    2  501    0 -0.95150696463E+00  0.28222017858E+02  0.25282471768E+03  0.25439678758E+03  0.00000000000E+00 0. -1.
         21    1    1    2  503  502  0.95150696463E+00 -0.28222017858E+02 -0.57313666819E+02  0.63892441351E+02  0.00000000000E+00 0.  1.
</event>
<event>
 4    1  0.2243475E+005  0.3543951E+02  0.7546771E-02  0.1377499E+00
          2   -1    0    0  503    0  0.00000000000E+00  0.00000000000E+00  0.68970034681E+03  0.68970034681E+03  0.00000000000E+00 0.  1.
         21   -1    0    0  501  502 -0.00000000000E+00 -0.00000000000E+00 -0.67948515477E+03  0.67948515477E+03  0.00000000000E+00 0.  1.
          2    1    1    2  501    0 -0.25184115529E+00 -0.35438613415E+02  0.68878237672E+03  0.68969349803E+03  0.00000000000E+00 0.  1.
         21    1    1    2  503  502  0.25184115529E+00  0.35438613415E+02 -0.67856718469E+03  0.67949200355E+03  0.00000000000E+00 0.  1.
</event>
<event>
 4    1  0.2243475E+005  0.3061509E+02  0.7546771E-02  0.1414325E+00
          2   -1    0    0  502    0  0.00000000000E+00  0.00000000000E+00  0.16035796280E+03  0.16035796280E+03  0.00000000000E+00 0.  1.
         21   -1    0    0  503  502 -0.00000000000E+00 -0.00000000000E+00 -0.63810807858E+03  0.63810807858E+03  0.00000000000E+00 0.  1.
          2    1    1    2  501    0  0.10377690371E+02 -0.28802552003E+02  0.15852530836E+03  0.16145450396E+03  0.00000000000E+00 0.  1.
         21    1    1    2  503  501 -0.10377690371E+02  0.28802552003E+02 -0.63627542413E+03  0.63701153743E+03  0.00000000000E+00 0.  1.
</event>
<event>
 4    1  0.2243475E+005  0.2283748E+02  0.7546771E-02  0.1494549E+00
          2   -1    0    0  503    0  0.00000000000E+00  0.00000000000E+00  0.92430501029E+03  0.92430501029E+03  0.00000000000E+00 0.  1.
         21   -1    0    0  501  502 -0.00000000000E+00 -0.00000000000E+00 -0.82141147307E+00  0.82141147307E+00  0.00000000000E+00 0.  1.
          2    1    1    2  501    0  0.12983711692E+02 -0.18787597781E+02  0.72055305231E+03  0.72091487140E+03  0.00000000000E+00 0.  1.
         21    1    1    2  503  502 -0.12983711692E+02  0.18787597781E+02  0.20293054651E+03  0.20421155037E+03  0.00000000000E+00 0.  1.
</event>
<event>
 4    1  0.2243475E+005  0.2066558E+02  0.7546771E-02  0.1524093E+00
          2   -1    0    0  503    0  0.00000000000E+00  0.00000000000E+00  0.71365650171E+02  0.71365650171E+02  0.00000000000E+00 0.  1.
         21   -1    0    0  501  502 -0.00000000000E+00 -0.00000000000E+00 -0.59848334170E+01  0.59848334170E+01  0.00000000000E+00 0.  1.
          2    1    1    2  501    0  0.13395890204E+02 -0.15735835000E+02  0.33088051533E+02  0.39011351319E+02  0.00000000000E+00 0.  1.
         21    1    1    2  503  502 -0.13395890204E+02  0.15735835000E+02  0.32292765221E+02  0.38339132269E+02  0.00000000000E+00 0.  1.
</event>
<event>
 4    1  0.2243475E+005  0.5647967E+02  0.7546771E-02  0.1272286E+00
          2   -1    0    0  503    0  0.00000000000E+00  0.00000000000E+00  0.31551567940E+01  0.31551567940E+01  0.00000000000E+00 0.  1.
         21   -1    0    0  501  502 -0.00000000000E+00 -0.00000000000E+00 -0.10496253672E+04  0.10496253672E+04  0.00000000000E+00 0.  1.
          2    1    1    2  501    0 -0.46014594623E+02  0.32750720199E+02 -0.62417625060E+03  0.62672637123E+03  0.00000000000E+00 0.  1.
         21    1    1    2  503  502  0.46014594623E+02 -0.32750720199E+02 -0.42229395978E+03  0.42605415273E+03  0.00000000000E+00 0.  1.
</event>
<event>
 4    1  0.2243475E+005  0.3245294E+02  0.7546771E-02  0.1399412E+00
          2   -1    0    0  502    0  0.00000000000E+00  0.00000000000E+00  0.23536709009E+04  0.23536709009E+04  0.00000000000E+00 0.  1.
         21   -1    0    0  503  502 -0.00000000000E+00 -0.00000000000E+00 -0.62700500433E+00  0.62700500433E+00  0.00000000000E+00 0.  1.
          2    1    1    2  501    0 -0.12121228783E+02  0.30104305872E+02  0.18064230760E+04  0.18067145660E+04  0.00000000000E+00 0.  1.
         21    1    1    2  503  501  0.12121228783E+02 -0.30104305872E+02  0.54662081991E+03  0.54758333994E+03  0.00000000000E+00 0.  1.
</event>
<event>
 4    1  0.2243475E+005  0.3963135E+02  0.7546771E-02  0.1350660E+00
          2   -1    0    0  502    0  0.00000000000E+00  0.00000000000E+00  0.35193449219E+02  0.35193449219E+02  0.00000000000E+00 0. -1.
         21   -1    0    0  503  502 -0.00000000000E+00 -0.00000000000E+00 -0.76795694299E+02  0.76795694299E+02  0.00000000000E+00 0. -1.
          2    1    1    2  501    0 -0.25243673319E+02 -0.30551612901E+02  0.15438322847E+02  0.42532174948E+02  0.00000000000E+00 0. -1.
         21    1    1    2  503  501  0.25243673319E+02  0.30551612901E+02 -0.57040567928E+02  0.69456968570E+02  0.00000000000E+00 0. -1.
</event>
<event>
 4    1  0.2243475E+005  0.2108042E+02  0.7546771E-02  0.1518120E+00
          2   -1    0    0  503    0  0.00000000000E+00  0.00000000000E+00  0.14092293150E+04  0.14092293150E+04  0.00000000000E+00 0. -1.
         21   -1    0    0  501  502 -0.00000000000E+00 -0.00000000000E+00 -0.35970738200E+01  0.35970738200E+01  0.00000000000E+00 0.  1.
          2    1    1    2  501    0 -0.20693172637E+02  0.40220122394E+01  0.13775552804E+04  0.13777165653E+04  0.00000000000E+00 0. -1.
         21    1    1    2  503  502  0.20693172637E+02 -0.40220122394E+01  0.28076960864E+02  0.35109823520E+02  0.00000000000E+00 0.  1.
</event>
<event>
 4    1  0.2243475E+005  0.3612052E+02  0.7546771E-02  0.1372852E+00
          2   -1    0    0  502    0  0.00000000000E+00  0.00000000000E+00  0.80172522177E+03  0.80172522177E+03  0.00000000000E+00 0. -1.
         21   -1    0    0  503  502 -0.00000000000E+00 -0.00000000000E+00 -0.18001862455E+01  0.18001862455E+01  0.00000000000E+00 0.  1.
          2    1    1    2  501    0 -0.29256478961E+02 -0.21183732419E+02  0.52444871335E+03  0.52569111179E+03  0.00000000000E+00 0. -1.
         21    1    1    2  503  501  0.29256478961E+02  0.21183732419E+02  0.27547632217E+03  0.27783429622E+03  0.00000000000E+00 0.  1.
</event>
<event>
 4    1  0.2243475E+005  0.3271555E+02  0.7546771E-02  0.1397376E+00
          2   -1    0    0  503    0  0.00000000000E+00  0.00000000000E+00  0.16690226436E+04  0.16690226436E+04  0.00000000000E+00 0. -1.
         21   -1    0    0  501  502 -0.00000000000E+00 -0.00000000000E+00 -0.36983812236E+01  0.36983812236E+01  0.00000000000E+00 0.  1.
          2    1    1    2  501    0  0.27066460896E+02  0.18376989900E+02  0.15930632592E+04  0.15933991512E+04  0.00000000000E+00 0. -1.
         21    1    1    2  503  502 -0.27066460896E+02 -0.18376989900E+02  0.72261003156E+02  0.79321873656E+02  0.00000000000E+00 0.  1.
</event>
<event>
 4    1  0.2243475E+005  0.2026336E+02  0.7546771E-02  0.1530047E+00
          2   -1    0    0  502    0  0.00000000000E+00  0.00000000000E+00  0.42231493670E+01  0.42231493670E+01  0.00000000000E+00 0. -1.
         21   -1    0    0  503  502 -0.00000000000E+00 -0.00000000000E+00 -0.17755908435E+03  0.17755908435E+03  0.00000000000E+00 0. -1.
          2    1    1    2  501    0  0.98343636682E+01 -0.17716915759E+02 -0.25532291154E+02  0.32596038169E+02  0.00000000000E+00 0. -1.
         21    1    1    2  503  501 -0.98343636682E+01  0.17716915759E+02 -0.14780364383E+03  0.14918619555E+03  0.00000000000E+00 0. -1.
</event>
<event>
 4    1  0.2243475E+005  0.2242803E+02  0.7546771E-02  0.1499808E+00
          2   -1    0    0  502    0  0.00000000000E+00  0.00000000000E+00  0.39095257420E+03  0.39095257420E+03  0.00000000000E+00 0. -1.
         21   -1    0    0  503  502 -0.00000000000E+00 -0.00000000000E+00 -0.16814522771E+02  0.16814522771E+02  0.00000000000E+00 0. -1.
          2    1    1    2  501    0  0.10115364203E+02  0.20017391483E+02  0.38299679094E+03  0.38365291400E+03  0.00000000000E+00 0. -1.
         21    1    1    2  503  501 -0.10115364203E+02 -0.20017391483E+02 -0.88587395054E+01  0.24114182971E+02  0.00000000000E+00 0. -1.
</event>
<event>
 4    1  0.2243475E+005  0.2915366E+02  0.7546771E-02  0.1427096E+00
          2   -1    0    0  503    0  0.00000000000E+00  0.00000000000E+00  0.32518989443E+02  0.32518989443E+02  0.00000000000E+00 0. -1.
         21   -1    0    0  501  502 -0.00000000000E+00 -0.00000000000E+00 -0.71991098146E+02  0.71991098146E+02  0.00000000000E+00 0. -1.
          2    1    1    2  501    0  0.28440061674E+02  0.64108425599E+01  0.21968142459E+02  0.36503907920E+02  0.00000000000E+00 0. -1.
         21    1    1    2  503  502 -0.28440061674E+02 -0.64108425599E+01 -0.61440251162E+02  0.68006179669E+02  0.00000000000E+00 0. -1.
</event>
<event>
 4    1  0.2243475E+005  0.2549136E+02  0.7546771E-02  0.1463381E+00
          2   -1    0    0  502    0  0.00000000000E+00  0.00000000000E+00  0.10436906864E+02  0.10436906864E+02  0.00000000000E+00 0. -1.
         21   -1    0    0  503  502 -0.00000000000E+00 -0.00000000000E+00 -0.21762518153E+03  0.21762518153E+03  0.00000000000E+00 0.  1.
          2    1    1    2  501    0 -0.70727866267E+01  0.24490509525E+02 -0.72457686321E+01  0.26501142061E+02  0.00000000000E+00 0. -1.
         21    1    1    2  503  501  0.70727866267E+01 -0.24490509525E+02 -0.19994250604E+03  0.20156094634E+03  0.00000000000E+00 0.  1.
</event>
<event>
 4    1  0.2243475E+005  0.2594723E+02  0.7546771E-02  0.1458480E+00
          2   -1    0    0  503    0  0.00000000000E+00  0.00000000000E+00  0.58569391359E+03  0.58569391359E+03  0.00000000000E+00 0.  1.
         21   -1    0    0  501  502 -0.00000000000E+00 -0.00000000000E+00 -0.12618129916E+01  0.12618129916E+01  0.00000000000E+00 0.  1.
          2    1    1    2  501    0  0.25935799212E+02 -0.77001080514E+00  0.37977115680E+03  0.38065652514E+03  0.00000000000E+00 0.  1.
         21    1    1    2  503  502 -0.25935799212E+02  0.77001080514E+00  0.20466094379E+03  0.20629920143E+03  0.00000000000E+00 0.  1.
</event>
<event>
 4    1  0.2243475E+005  0.2156644E+02  0.7546771E-02  0.1511329E+00
          2   -1    0    0  502    0  0.00000000000E+00  0.00000000000E+00  0.44415275678E+01  0.44415275678E+01  0.00000000000E+00 0. -1.
         21   -1    0    0  503  502 -0.00000000000E+00 -0.00000000000E+00 -0.13288984837E+03  0.13288984837E+03  0.00000000000E+00 0. -1.
          2    1    1    2  501    0  0.12451330366E+02  0.17608966524E+02 -0.32608987349E+02  0.39095490607E+02  0.00000000000E+00 0. -1.
         21    1    1    2  503  501 -0.12451330366E+02 -0.17608966524E+02 -0.95839333455E+02  0.98235885332E+02  0.00000000000E+00 0. -1.
</event>
<event>
 4    1  0.2243475E+005  0.2761273E+02  0.7546771E-02  0.1441548E+00
          2   -1    0    0  503    0  0.00000000000E+00  0.00000000000E+00  0.28156060873E+02  0.28156060873E+02  0.00000000000E+00 0. -1.
         21   -1    0    0  501  502 -0.00000000000E+00 -0.00000000000E+00 -0.35095862241E+02  0.35095862241E+02  0.00000000000E+00 0.  1.
          2    1    1    2  501    0  0.23326103679E+01  0.27514031546E+02  0.11644603661E+02  0.29967645845E+02  0.00000000000E+00 0. -1.
         21    1    1    2  503  502 -0.23326103679E+01 -0.27514031546E+02 -0.18584405029E+02  0.33284277269E+02  0.00000000000E+00 0.  1.
</event>
<event>
 4    1  0.2243475E+005  0.2593782E+02  0.7546771E-02  0.1458580E+00
          2   -1    0    0  503    0  0.00000000000E+00  0.00000000000E+00  0.90888908224E+03  0.90888908224E+03  0.00000000000E+00 0. -1.
         21   -1    0    0  501  502 -0.00000000000E+00 -0.00000000000E+00 -0.11206569050E+01  0.11206569050E+01  0.00000000000E+00 0.  1.
          2    1    1    2  501    0 -0.24354451810E+02  0.89236176138E+01  0.71899402542E+03  0.71946172856E+03  0.00000000000E+00 0. -1.
         21    1    1    2  503  502  0.24354451810E+02 -0.89236176138E+01  0.18877439991E+03  0.19054801058E+03  0.00000000000E+00 0.  1.
</event>
