<event>
 4    1  0.3183954E+006  0.4084365E+02  0.7546771E-02  0.1343612E+00
         21   -1    0    0  504  501  0.00000000000E+00  0.00000000000E+00  0.76717426789E+01  0.76717426789E+01  0.00000000000E+00 0.  1.
         21   -1    0    0  501  502 -0.00000000000E+00 -0.00000000000E+00 -0.24909560201E+03  0.24909560201E+03  0.00000000000E+00 0.  1.
         21    1    1    2  503  502 -0.22554765233E+02  0.34051224911E+02 -0.16647326967E+03  0.17141048062E+03  0.00000000000E+00 0.  1.
         21    1    1    2  504  503  0.22554765233E+02 -0.34051224911E+02 -0.74950589661E+02  0.85356864066E+02  0.00000000000E+00 0.  1.
</event>
<event>
 4    1  0.3183954E+006  0.2777932E+02  0.7546771E-02  0.1439933E+00
         21   -1    0    0  502  501  0.00000000000E+00  0.00000000000E+00  0.54477548635E+01  0.54477548635E+01  0.00000000000E+00 0.  1.
         21   -1    0    0  504  502 -0.00000000000E+00 -0.00000000000E+00 -0.64857855206E+03  0.64857855206E+03  0.00000000000E+00 0. -1.
         21    1    1    2  503  501 -0.22395193029E+02  0.16436118649E+02 -0.32460111759E+02  0.42724109381E+02  0.00000000000E+00 0.  1.
         21    1    1    2  504  503  0.22395193029E+02 -0.16436118649E+02 -0.61067068544E+03  0.61130219754E+03  0.00000000000E+00 0. -1.
</event>
<event>
 4    1  0.3183954E+006  0.2324662E+02  0.7546771E-02  0.1489424E+00
         21   -1    0    0  504  501  0.00000000000E+00  0.00000000000E+00  0.14008918938E+02  0.14008918938E+02  0.00000000000E+00 0. -1.
         21   -1    0    0  501  502 -0.00000000000E+00 -0.00000000000E+00 -0.25380184535E+03  0.25380184535E+03  0.00000000000E+00 0. -1.
         21    1    1    2  503  502  0.11341034291E+01 -0.23218941933E+02 -0.24320639117E+03  0.24431486684E+03  0.00000000000E+00 0. -1.
         21    1    1    2  504  503 -0.11341034291E+01  0.23218941933E+02  0.34134647577E+01  0.23495897445E+02  0.00000000000E+00 0. -1.
</event>
<event>
 4    1  0.3183954E+006  0.2249542E+02  0.7546771E-02  0.1498933E+00
         21   -1    0    0  504  501  0.00000000000E+00  0.00000000000E+00  0.81075592402E+03  0.81075592402E+03  0.00000000000E+00 0. -1.
         21   -1    0    0  503  502 -0.00000000000E+00 -0.00000000000E+00 -0.71142371702E+00  0.71142371702E+00  0.00000000000E+00 0. -1.
         21    1    1    2  503  501 -0.20301726472E+02  0.96893615666E+01  0.54711972085E+03  0.54758198726E+03  0.00000000000E+00 0. -1.
         21    1    1    2  504  502  0.20301726472E+02 -0.96893615666E+01  0.26292477945E+03  0.26388536048E+03  0.00000000000E+00 0. -1.
</event>
<event>
 4    1  0.3183954E+006  0.2379599E+02  0.7546771E-02  0.1482738E+00
         21   -1    0    0  503  501  0.00000000000E+00  0.00000000000E+00  0.12235778267E+02  0.12235778267E+02  0.00000000000E+00 0.  1.
         21   -1    0    0  501  502 -0.00000000000E+00 -0.00000000000E+00 -0.88508899457E+02  0.88508899457E+02  0.00000000000E+00 0. -1.
         21    1    1    2  503  504 -0.66261512218E+01  0.22854829618E+02 -0.33418628914E+01  0.24029506122E+02  0.00000000000E+00 0.  1.
         21    1    1    2  504  502  0.66261512218E+01 -0.22854829618E+02 -0.72931258299E+02  0.76715171602E+02  0.00000000000E+00 0. -1.
</event>
<event>
 4    1  0.3183954E+006  0.2109018E+02  0.7546771E-02  0.1517981E+00
         21   -1    0    0  502  501  0.00000000000E+00  0.00000000000E+00  0.12156565181E+03  0.12156565181E+03  0.00000000000E+00 0. -1.
         21   -1    0    0  503  502 -0.00000000000E+00 -0.00000000000E+00 -0.20008085482E+02  0.20008085482E+02  0.00000000000E+00 0. -1.
         21    1    1    2  503  504  0.17609950040E+02 -0.11605403129E+02 -0.13209150577E+02  0.24885284430E+02  0.00000000000E+00 0. -1.
         21    1    1    2  504  501 -0.17609950040E+02  0.11605403129E+02  0.11476671691E+03  0.11668845287E+03  0.00000000000E+00 0. -1.
</event>
<event>
 4    1  0.3183954E+006  0.2059423E+02  0.7546771E-02  0.1525138E+00
         21   -1    0    0  504  501  0.00000000000E+00  0.00000000000E+00  0.10149802898E+02  0.10149802898E+02  0.00000000000E+00 0. -1.
         21   -1    0    0  503  502 -0.00000000000E+00 -0.00000000000E+00 -0.65020142770E+02  0.65020142770E+02  0.00000000000E+00 0. -1.
         21    1    1    2  503  501 -0.36827314241E+01  0.20262278572E+02 -0.49678614453E+01  0.21184949634E+02  0.00000000000E+00 0. -1.
         21    1    1    2  504  502  0.36827314241E+01 -0.20262278572E+02 -0.49902478427E+02  0.53984996034E+02  0.00000000000E+00 0. -1.
</event>
<event>
 4    1  0.3183954E+006  0.2627130E+02  0.7546771E-02  0.1455069E+00
         21   -1    0    0  502  501  0.00000000000E+00  0.00000000000E+00  0.95335822029E+01  0.95335822029E+01  0.00000000000E+00 0. -1.
         21   -1    0    0  504  502 -0.00000000000E+00 -0.00000000000E+00 -0.10759483526E+03  0.10759483526E+03  0.00000000000E+00 0. -1.
         21    1    1    2  503  501  0.43011417073E+01 -0.25916813014E+02 -0.15533418647E+02  0.30519962511E+02  0.00000000000E+00 0. -1.
         21    1    1    2  504  503 -0.43011417073E+01  0.25916813014E+02 -0.82527834411E+02  0.86608454953E+02  0.00000000000E+00 0. -1.
</event>
<event>
 4    1  0.3183954E+006  0.3298010E+02  0.7546771E-02  0.1395348E+00
         21   -1    0    0  504  501  0.00000000000E+00  0.00000000000E+00  0.13598726509E+02  0.13598726509E+02  0.00000000000E+00 0. -1.
         21   -1    0    0  503  502 -0.00000000000E+00 -0.00000000000E+00 -0.89764084708E+02  0.89764084708E+02  0.00000000000E+00 0. -1.
         21    1    1    2  503  501 -0.47237145798E-01 -0.32980065068E+02 -0.55141299343E+02  0.64251457699E+02  0.00000000000E+00 0. -1.
         21    1    1    2  504  502  0.47237145798E-01  0.32980065068E+02 -0.21024058856E+02  0.39111353518E+02  0.00000000000E+00 0. -1.
</event>
<event>
 4    1  0.3183954E+006  0.2887896E+02  0.7546771E-02  0.1429595E+00
         21   -1    0    0  502  501  0.00000000000E+00  0.00000000000E+00  0.39280613163E+02  0.39280613163E+02  0.00000000000E+00 0. -1.
         21   -1    0    0  503  502 -0.00000000000E+00 -0.00000000000E+00 -0.22916795001E+03  0.22916795001E+03  0.00000000000E+00 0. -1.
         21    1    1    2  503  504 -0.92989111973E+01  0.27340894630E+02 -0.22279911986E+03  0.22466295218E+03  0.00000000000E+00 0. -1.
         21    1    1    2  504  501  0.92989111973E+01 -0.27340894630E+02  0.32911783019E+02  0.43785610994E+02  0.00000000000E+00 0. -1.
</event>
<event>
 4    1  0.3183954E+006  0.2553848E+02  0.7546771E-02  0.1462869E+00
         21   -1    0    0  504  501  0.00000000000E+00  0.00000000000E+00  0.65923344757E+02  0.65923344757E+02  0.00000000000E+00 0. -1.
         21   -1    0    0  503  502 -0.00000000000E+00 -0.00000000000E+00 -0.13250427990E+02  0.13250427990E+02  0.00000000000E+00 0.  1.
         21    1    1    2  503  501 -0.91230013807E+01  0.23853399269E+02  0.46261820690E+02  0.52842879033E+02  0.00000000000E+00 0. -1.
         21    1    1    2  504  502  0.91230013807E+01 -0.23853399269E+02  0.64110960769E+01  0.26330893714E+02  0.00000000000E+00 0.  1.
</event>
<event>
 4    1  0.3183954E+006  0.2653678E+02  0.7546771E-02  0.1452318E+00
         21   -1    0    0  503  501  0.00000000000E+00  0.00000000000E+00  0.22088063543E+02  0.22088063543E+02  0.00000000000E+00 0. -1.
         21   -1    0    0  504  502 -0.00000000000E+00 -0.00000000000E+00 -0.55650104055E+02  0.55650104055E+02  0.00000000000E+00 0. -1.
         21    1    1    2  503  502 -0.26145467092E+02 -0.45404203765E+01 -0.42183320231E+02  0.49836064977E+02  0.00000000000E+00 0. -1.
         21    1    1    2  504  501  0.26145467092E+02  0.45404203765E+01  0.86212797198E+01  0.27902102621E+02  0.00000000000E+00 0. -1.
</event>
<event>
 4    1  0.3183954E+006  0.2080260E+02  0.7546771E-02  0.1522102E+00
         21   -1    0    0  503  501  0.00000000000E+00  0.00000000000E+00  0.16558764780E+03  0.16558764780E+03  0.00000000000E+00 0. -1.
         21   -1    0    0  504  502 -0.00000000000E+00 -0.00000000000E+00 -0.28384991491E+01  0.28384991491E+01  0.00000000000E+00 0. -1.
         21    1    1    2  503  502  0.33346745762E+01 -0.20533581809E+02  0.57660039134E+02  0.61297864150E+02  0.00000000000E+00 0. -1.
         21    1    1    2  504  501 -0.33346745762E+01  0.20533581809E+02  0.10508910952E+03  0.10712828280E+03  0.00000000000E+00 0. -1.
</event>
<event>
 4    1  0.3183954E+006  0.3034834E+02  0.7546771E-02  0.1416593E+00
         21   -1    0    0  503  501  0.00000000000E+00  0.00000000000E+00  0.51411540329E+02  0.51411540329E+02  0.00000000000E+00 0. -1.
         21   -1    0    0  504  502 -0.00000000000E+00 -0.00000000000E+00 -0.17918431490E+02  0.17918431490E+02  0.00000000000E+00 0. -1.
         21    1    1    2  503  502 -0.63642420130E+01 -0.29673524751E+02  0.17247676734E+02  0.34907076651E+02  0.00000000000E+00 0. -1.
         21    1    1    2  504  501  0.63642420130E+01  0.29673524751E+02  0.16245432104E+02  0.34422895169E+02  0.00000000000E+00 0. -1.
</event>
<event>
 4    1  0.3183954E+006  0.2157022E+02  0.7546771E-02  0.1511277E+00
         21   -1    0    0  503  501  0.00000000000E+00  0.00000000000E+00  0.11104844291E+02  0.11104844291E+02  0.00000000000E+00 0. -1.
         21   -1    0    0  504  502 -0.00000000000E+00 -0.00000000000E+00 -0.43427096425E+03  0.43427096425E+03  0.00000000000E+00 0. -1.
         21    1    1    2  503  502  0.18488133587E+02  0.11111398083E+02  0.90003704462E-01  0.21570404529E+02  0.00000000000E+00 0. -1.
         21    1    1    2  504  501 -0.18488133587E+02 -0.11111398083E+02 -0.42325612366E+03  0.42380540401E+03  0.00000000000E+00 0. -1.
</event>
<event>
 4    1  0.3183954E+006  0.2330610E+02  0.7546771E-02  0.1488690E+00
         21   -1    0    0  504  501  0.00000000000E+00  0.00000000000E+00  0.34795684451E+01  0.34795684451E+01  0.00000000000E+00 0.  1.
         21   -1    0    0  503  502 -0.00000000000E+00 -0.00000000000E+00 -0.15615053490E+03  0.15615053490E+03  0.00000000000E+00 0. -1.
         21    1    1    2  503  501  0.38102120990E+01  0.22992533742E+02 -0.77714306516E+02  0.81133764619E+02  0.00000000000E+00 0. -1.
         21    1    1    2  504  502 -0.38102120990E+01 -0.22992533742E+02 -0.74956659940E+02  0.78496338727E+02  0.00000000000E+00 0.  1.
</event>
<event>
 4    1  0.3183954E+006  0.2144217E+02  0.7546771E-02  0.1513045E+00
         21   -1    0    0  502  501  0.00000000000E+00  0.00000000000E+00  0.43483814339E+03  0.43483814339E+03  0.00000000000E+00 0.  1.
         21   -1    0    0  504  502 -0.00000000000E+00 -0.00000000000E+00 -0.27674274711E+01  0.27674274711E+01  0.00000000000E+00 0.  1.
         21    1    1    2  503  501 -0.11885552101E+02 -0.17846578244E+02  0.38803413635E+03  0.38862611554E+03  0.00000000000E+00 0.  1.
         21    1    1    2  504  503  0.11885552101E+02  0.17846578244E+02  0.44036579567E+02  0.48979455323E+02  0.00000000000E+00 0.  1.
</event>
<event>
 4    1  0.3183954E+006  0.2783428E+02  0.7546771E-02  0.1439403E+00
         21   -1    0    0  504  501  0.00000000000E+00  0.00000000000E+00  0.10553394677E+03  0.10553394677E+03  0.00000000000E+00 0.  1.
         21   -1    0    0  503  502 -0.00000000000E+00 -0.00000000000E+00 -0.20553355718E+02  0.20553355718E+02  0.00000000000E+00 0. -1.
         21    1    1    2  503  501 -0.40904381606E+01  0.27532082910E+02  0.93036273344E+02  0.97110737982E+02  0.00000000000E+00 0.  1.
         21    1    1    2  504  502  0.40904381606E+01 -0.27532082910E+02 -0.80556822877E+01  0.28976564510E+02  0.00000000000E+00 0. -1.
</event>
<event>
 4    1  0.3183954E+006  0.2334647E+02  0.7546771E-02  0.1488193E+00
         21   -1    0    0  504  501  0.00000000000E+00  0.00000000000E+00  0.73153751378E+03  0.73153751378E+03  0.00000000000E+00 0.  1.
         21   -1    0    0  503  502 -0.00000000000E+00 -0.00000000000E+00 -0.20880564286E+01  0.20880564286E+01  0.00000000000E+00 0. -1.
         21    1    1    2  503  501 -0.20641189846E+02  0.10908666626E+02  0.70549083921E+02  0.74311714877E+02  0.00000000000E+00 0. -1.
         21    1    1    2  504  502  0.20641189846E+02 -0.10908666626E+02  0.65890037344E+03  0.65931385534E+03  0.00000000000E+00 0.  1.
</event>
<event>
 4    1  0.3183954E+006  0.2949592E+02  0.7546771E-02  0.1424028E+00
         21   -1    0    0  504  501  0.00000000000E+00  0.00000000000E+00  0.46393007801E+02  0.46393007801E+02  0.00000000000E+00 0. -1.
         21   -1    0    0  503  502 -0.00000000000E+00 -0.00000000000E+00 -0.43338787002E+03  0.43338787002E+03  0.00000000000E+00 0. -1.
         21    1    1    2  503  501  0.13404107174E+02 -0.26274310457E+02  0.41145491086E+02  0.50625694226E+02  0.00000000000E+00 0. -1.
         21    1    1    2  504  502 -0.13404107174E+02  0.26274310457E+02 -0.42814035330E+03  0.42915518359E+03  0.00000000000E+00 0. -1.
</event>
<event>
 4    1  0.3183954E+006  0.2198157E+02  0.7546771E-02  0.1505698E+00
         21   -1    0    0  503  501  0.00000000000E+00  0.00000000000E+00  0.11309022904E+03  0.11309022904E+03  0.00000000000E+00 0.  1.
         21   -1    0    0  504  502 -0.00000000000E+00 -0.00000000000E+00 -0.21689416985E+02  0.21689416985E+02  0.00000000000E+00 0. -1.
         21    1    1    2  503  502  0.17122598355E+02 -0.13784274780E+02 -0.14688162978E+02  0.26437317135E+02  0.00000000000E+00 0. -1.
         21    1    1    2  504  501 -0.17122598355E+02  0.13784274780E+02  0.10608897503E+03  0.10834232889E+03  0.00000000000E+00 0.  1.
</event>
<event>
 4    1  0.3183954E+006  0.2628022E+02  0.7546771E-02  0.1454976E+00
         21   -1    0    0  502  501  0.00000000000E+00  0.00000000000E+00  0.17904382462E+02  0.17904382462E+02  0.00000000000E+00 0. -1.
         21   -1    0    0  503  502 -0.00000000000E+00 -0.00000000000E+00 -0.64120320605E+02  0.64120320605E+02  0.00000000000E+00 0.  1.
         21    1    1    2  503  504  0.22066536790E+02  0.14272981688E+02 -0.48994745198E+02  0.55597977564E+02  0.00000000000E+00 0.  1.
         21    1    1    2  504  501 -0.22066536790E+02 -0.14272981688E+02  0.27788070555E+01  0.26426725503E+02  0.00000000000E+00 0. -1.
</event>
<event>
 4    1  0.3183954E+006  0.3617782E+02  0.7546771E-02  0.1372467E+00
         21   -1    0    0  503  501  0.00000000000E+00  0.00000000000E+00  0.16917454810E+03  0.16917454810E+03  0.00000000000E+00 0.  1.
         21   -1    0    0  504  502 -0.00000000000E+00 -0.00000000000E+00 -0.77389139481E+01  0.77389139481E+01  0.00000000000E+00 0.  1.
         21    1    1    2  503  502 -0.10286951059E+02  0.34684484827E+02  0.79186380512E+02  0.87059276981E+02  0.00000000000E+00 0.  1.
         21    1    1    2  504  501  0.10286951059E+02 -0.34684484827E+02  0.82249253641E+02  0.89854185069E+02  0.00000000000E+00 0.  1.
</event>
<event>
 4    1  0.3183954E+006  0.2057246E+02  0.7546771E-02  0.1525457E+00
         21   -1    0    0  503  501  0.00000000000E+00  0.00000000000E+00  0.40098739928E+02  0.40098739928E+02  0.00000000000E+00 0. -1.
         21   -1    0    0  501  502 -0.00000000000E+00 -0.00000000000E+00 -0.20974896726E+02  0.20974896726E+02  0.00000000000E+00 0.  1.
         21    1    1    2  503  504 -0.16902375537E+02 -0.11727566968E+02  0.31085472951E+02  0.37276436986E+02  0.00000000000E+00 0. -1.
         21    1    1    2  504  502  0.16902375537E+02  0.11727566968E+02 -0.11961629748E+02  0.23797199668E+02  0.00000000000E+00 0.  1.
</event>
<event>
 4    1  0.3183954E+006  0.2285859E+02  0.7546771E-02  0.1494282E+00
         21   -1    0    0  504  501  0.00000000000E+00  0.00000000000E+00  0.30008958887E+02  0.30008958887E+02  0.00000000000E+00 0.  1.
         21   -1    0    0  501  502 -0.00000000000E+00 -0.00000000000E+00 -0.51385665126E+02  0.51385665126E+02  0.00000000000E+00 0.  1.
         21    1    1    2  503  502  0.16533263892E+02  0.15785002693E+02 -0.43779827701E+02  0.49388140666E+02  0.00000000000E+00 0.  1.
         21    1    1    2  504  503 -0.16533263892E+02 -0.15785002693E+02  0.22403121462E+02  0.32006483347E+02  0.00000000000E+00 0.  1.
</event>
<event>
 4    1  0.3183954E+006  0.2723916E+02  0.7546771E-02  0.1445220E+00
         21   -1    0    0  503  501  0.00000000000E+00  0.00000000000E+00  0.49395798704E+02  0.49395798704E+02  0.00000000000E+00 0. -1.
         21   -1    0    0  501  502 -0.00000000000E+00 -0.00000000000E+00 -0.36696705617E+02  0.36696705617E+02  0.00000000000E+00 0.  1.
         21    1    1    2  503  504  0.25954463640E+02 -0.82666704436E+01  0.39432851539E+02  0.47926212072E+02  0.00000000000E+00 0. -1.
         21    1    1    2  504  502 -0.25954463640E+02  0.82666704436E+01 -0.26733758452E+02  0.38166292249E+02  0.00000000000E+00 0.  1.
</event>
<event>
 4    1  0.3183954E+006  0.2645940E+02  0.7546771E-02  0.1453115E+00
         21   -1    0    0  503  501  0.00000000000E+00  0.00000000000E+00  0.79603285228E+02  0.79603285228E+02  0.00000000000E+00 0. -1.
         21   -1    0    0  504  502 -0.00000000000E+00 -0.00000000000E+00 -0.15481595259E+02  0.15481595259E+02  0.00000000000E+00 0.  1.
         21    1    1    2  503  502 -0.24446298425E+01 -0.26346231166E+02  0.81584482802E+00  0.26471979800E+02  0.00000000000E+00 0.  1.
         21    1    1    2  504  501  0.24446298425E+01  0.26346231166E+02  0.63305845141E+02  0.68612900687E+02  0.00000000000E+00 0. -1.
</event>
<event>
 4    1  0.3183954E+006  0.2092470E+02  0.7546771E-02  0.1520343E+00
         21   -1    0    0  503  501  0.00000000000E+00  0.00000000000E+00  0.11549196253E+02  0.11549196253E+02  0.00000000000E+00 0.  1.
         21   -1    0    0  504  502 -0.00000000000E+00 -0.00000000000E+00 -0.40223710756E+02  0.40223710756E+02  0.00000000000E+00 0. -1.
         21    1    1    2  503  502 -0.15320557076E+02  0.14252144135E+02 -0.20544231362E+02  0.29324196900E+02  0.00000000000E+00 0. -1.
         21    1    1    2  504  501  0.15320557076E+02 -0.14252144135E+02 -0.81302831416E+01  0.22448710109E+02  0.00000000000E+00 0.  1.
</event>
<event>
 4    1  0.3183954E+006  0.2204242E+02  0.7546771E-02  0.1504886E+00
         21   -1    0    0  503  501  0.00000000000E+00  0.00000000000E+00  0.84897332614E+01  0.84897332614E+01  0.00000000000E+00 0.  1.
         21   -1    0    0  504  502 -0.00000000000E+00 -0.00000000000E+00 -0.50478133012E+03  0.50478133012E+03  0.00000000000E+00 0. -1.
         21    1    1    2  503  502 -0.92350363926E+01 -0.20014555147E+02 -0.48979564240E+03  0.49029138237E+03  0.00000000000E+00 0. -1.
         21    1    1    2  504  501  0.92350363926E+01  0.20014555147E+02 -0.64959544575E+01  0.22979681008E+02  0.00000000000E+00 0.  1.
</event>
<event>
 4    1  0.3183954E+006  0.2177055E+02  0.7546771E-02  0.1508542E+00
         21   -1    0    0  503  501  0.00000000000E+00  0.00000000000E+00  0.17156036197E+02  0.17156036197E+02  0.00000000000E+00 0. -1.
         21   -1    0    0  501  502 -0.00000000000E+00 -0.00000000000E+00 -0.38886451005E+02  0.38886451005E+02  0.00000000000E+00 0.  1.
         21    1    1    2  503  504  0.32347925671E+01 -0.21528882480E+02  0.42134140661E+01  0.22174524163E+02  0.00000000000E+00 0. -1.
         21    1    1    2  504  502 -0.32347925671E+01  0.21528882480E+02 -0.25943828874E+02  0.33867963039E+02  0.00000000000E+00 0.  1.
</event>
<event>
 4    1  0.3183954E+006  0.2207978E+02  0.7546771E-02  0.1504388E+00
         21   -1    0    0  504  501  0.00000000000E+00  0.00000000000E+00  0.36339751686E+02  0.36339751686E+02  0.00000000000E+00 0. -1.
         21   -1    0    0  501  502 -0.00000000000E+00 -0.00000000000E+00 -0.30199465374E+02  0.30199465374E+02  0.00000000000E+00 0.  1.
         21    1    1    2  503  502  0.20994919376E+02 -0.68359522154E+01 -0.21732331522E+02  0.30980818512E+02  0.00000000000E+00 0.  1.
         21    1    1    2  504  503 -0.20994919376E+02  0.68359522154E+01  0.27872617835E+02  0.35558398548E+02  0.00000000000E+00 0. -1.
</event>
<event>
 4    1  0.3183954E+006  0.2243695E+02  0.7546771E-02  0.1499692E+00
         21   -1    0    0  503  501  0.00000000000E+00  0.00000000000E+00  0.17572445706E+03  0.17572445706E+03  0.00000000000E+00 0.  1.
         21   -1    0    0  504  502 -0.00000000000E+00 -0.00000000000E+00 -0.79043742802E+01  0.79043742802E+01  0.00000000000E+00 0. -1.
         21    1    1    2  503  502  0.22143355732E+02  0.36178272076E+01  0.15722180982E+03  0.15881471708E+03  0.00000000000E+00 0.  1.
         21    1    1    2  504  501 -0.22143355732E+02 -0.36178272076E+01  0.10598272951E+02  0.24814114256E+02  0.00000000000E+00 0. -1.
</event>
<event>
 4    1  0.3183954E+006  0.3909334E+02  0.7546771E-02  0.1353882E+00
         21   -1    0    0  502  501  0.00000000000E+00  0.00000000000E+00  0.19650981618E+02  0.19650981618E+02  0.00000000000E+00 0.  1.
         21   -1    0    0  504  502 -0.00000000000E+00 -0.00000000000E+00 -0.13493182787E+04  0.13493182787E+04  0.00000000000E+00 0. -1.
         21    1    1    2  503  501  0.22492235183E+02 -0.31974810557E+02 -0.36782951049E+00  0.39095069411E+02  0.00000000000E+00 0.  1.
         21    1    1    2  504  503 -0.22492235183E+02  0.31974810557E+02 -0.13292994676E+04  0.13298741909E+04  0.00000000000E+00 0. -1.
</event>
<event>
 4    1  0.3183954E+006  0.3124060E+02  0.7546771E-02  0.1409113E+00
         21   -1    0    0  503  501  0.00000000000E+00  0.00000000000E+00  0.26701354036E+03  0.26701354036E+03  0.00000000000E+00 0.  1.
         21   -1    0    0  504  502 -0.00000000000E+00 -0.00000000000E+00 -0.53488010175E+01  0.53488010175E+01  0.00000000000E+00 0.  1.
         21    1    1    2  503  502  0.17628103156E+02 -0.25791959802E+02  0.54202076920E+02  0.62560693361E+02  0.00000000000E+00 0.  1.
         21    1    1    2  504  501 -0.17628103156E+02  0.25791959802E+02  0.20746266242E+03  0.20980164802E+03  0.00000000000E+00 0.  1.
</event>
<event>
 4    1  0.3183954E+006  0.2341463E+02  0.7546771E-02  0.1487356E+00
         21   -1    0    0  503  501  0.00000000000E+00  0.00000000000E+00  0.67346955551E+02  0.67346955551E+02  0.00000000000E+00 0. -1.
         21   -1    0    0  504  502 -0.00000000000E+00 -0.00000000000E+00 -0.30410805659E+02  0.30410805659E+02  0.00000000000E+00 0.  1.
         21    1    1    2  503  502 -0.21356910311E+02 -0.95983027506E+01 -0.23360141176E+02  0.33074782380E+02  0.00000000000E+00 0.  1.
         21    1    1    2  504  501  0.21356910311E+02  0.95983027506E+01  0.60296291068E+02  0.64682978830E+02  0.00000000000E+00 0. -1.
</event>
<event>
 4    1  0.3183954E+006  0.4597306E+02  0.7546771E-02  0.1316644E+00
         21   -1    0    0  503  501  0.00000000000E+00  0.00000000000E+00  0.28132615791E+01  0.28132615791E+01  0.00000000000E+00 0. -1.
         21   -1    0    0  504  502 -0.00000000000E+00 -0.00000000000E+00 -0.79992169188E+03  0.79992169188E+03  0.00000000000E+00 0. -1.
         21    1    1    2  503  502  0.16525093230E+02 -0.42900391461E+02 -0.49753758415E+03  0.49965705232E+03  0.00000000000E+00 0. -1.
         21    1    1    2  504  501 -0.16525093230E+02  0.42900391461E+02 -0.29957084615E+03  0.30307790114E+03  0.00000000000E+00 0. -1.
</event>
<event>
 4    1  0.3183954E+006  0.3922829E+02  0.7546771E-02  0.1353068E+00
         21   -1    0    0  504  501  0.00000000000E+00  0.00000000000E+00  0.81040007521E+03  0.81040007521E+03  0.00000000000E+00 0.  1.
         21   -1    0    0  503  502 -0.00000000000E+00 -0.00000000000E+00 -0.29217425122E+01  0.29217425122E+01  0.00000000000E+00 0.  1.
         21    1    1    2  503  501  0.38949231327E+02 -0.46707311691E+01  0.16312646214E+03  0.16777693823E+03  0.00000000000E+00 0.  1.
         21    1    1    2  504  502 -0.38949231327E+02  0.46707311691E+01  0.64435187056E+03  0.64554487950E+03  0.00000000000E+00 0.  1.
</event>
<event>
 4    1  0.3183954E+006  0.2085906E+02  0.7546771E-02  0.1521287E+00
         21   -1    0    0  502  501  0.00000000000E+00  0.00000000000E+00  0.94831696125E+02  0.94831696125E+02  0.00000000000E+00 0. -1.
         21   -1    0    0  503  502 -0.00000000000E+00 -0.00000000000E+00 -0.33087123424E+02  0.33087123424E+02  0.00000000000E+00 0.  1.
         21    1    1    2  503  504  0.75218200365E+01  0.19455659948E+02 -0.28487137314E+02  0.35307470498E+02  0.00000000000E+00 0.  1.
         21    1    1    2  504  501 -0.75218200365E+01 -0.19455659948E+02  0.90231710015E+02  0.92611349050E+02  0.00000000000E+00 0. -1.
</event>
<event>
 4    1  0.3183954E+006  0.3053867E+02  0.7546771E-02  0.1414972E+00
         21   -1    0    0  502  501  0.00000000000E+00  0.00000000000E+00  0.50888685909E+03  0.50888685909E+03  0.00000000000E+00 0.  1.
         21   -1    0    0  503  502 -0.00000000000E+00 -0.00000000000E+00 -0.44649876383E+01  0.44649876383E+01  0.00000000000E+00 0.  1.
         21    1    1    2  503  504  0.29579082819E+02  0.75952844942E+01  0.55129388120E+02  0.63022693702E+02  0.00000000000E+00 0.  1.
         21    1    1    2  504  501 -0.29579082819E+02 -0.75952844942E+01  0.44929248334E+03  0.45032915303E+03  0.00000000000E+00 0.  1.
</event>
<event>
 4    1  0.3183954E+006  0.2060172E+02  0.7546771E-02  0.1525028E+00
         21   -1    0    0  503  501  0.00000000000E+00  0.00000000000E+00  0.34216109381E+02  0.34216109381E+02  0.00000000000E+00 0.  1.
         21   -1    0    0  501  502 -0.00000000000E+00 -0.00000000000E+00 -0.20396749733E+02  0.20396749733E+02  0.00000000000E+00 0. -1.
         21    1    1    2  503  504 -0.16588842683E+02  0.12216422612E+02  0.24002801168E+02  0.31631711097E+02  0.00000000000E+00 0.  1.
         21    1    1    2  504  502  0.16588842683E+02 -0.12216422612E+02 -0.10183441521E+02  0.22981148017E+02  0.00000000000E+00 0. -1.
</event>
<event>
 4    1  0.3183954E+006  0.4907329E+02  0.7546771E-02  0.1302241E+00
         21   -1    0    0  504  501  0.00000000000E+00  0.00000000000E+00  0.10809080079E+02  0.10809080079E+02  0.00000000000E+00 0. -1.
         21   -1    0    0  503  502 -0.00000000000E+00 -0.00000000000E+00 -0.37458574847E+03  0.37458574847E+03  0.00000000000E+00 0. -1.
         21    1    1    2  503  501 -0.37051396307E+02 -0.32177345684E+02 -0.59221896741E+02  0.76911771513E+02  0.00000000000E+00 0. -1.
         21    1    1    2  504  502  0.37051396307E+02  0.32177345684E+02 -0.30455477165E+03  0.30848305704E+03  0.00000000000E+00 0. -1.
</event>
<event>
 4    1  0.3183954E+006  0.2154306E+02  0.7546771E-02  0.1511651E+00
         21   -1    0    0  503  501  0.00000000000E+00  0.00000000000E+00  0.49161038059E+02  0.49161038059E+02  0.00000000000E+00 0.  1.
         21   -1    0    0  501  502 -0.00000000000E+00 -0.00000000000E+00 -0.14768734027E+02  0.14768734027E+02  0.00000000000E+00 0.  1.
         21    1    1    2  503  504  0.19911209816E+02 -0.82247882679E+01  0.36395845716E+02  0.42293746627E+02  0.00000000000E+00 0.  1.
         21    1    1    2  504  502 -0.19911209816E+02  0.82247882679E+01 -0.20035416835E+01  0.21636025459E+02  0.00000000000E+00 0.  1.
</event>
<event>
 4    1  0.3183954E+006  0.2881593E+02  0.7546771E-02  0.1430173E+00
         21   -1    0    0  503  501  0.00000000000E+00  0.00000000000E+00  0.49519125088E+02  0.49519125088E+02  0.00000000000E+00 0.  1.
         21   -1    0    0  504  502 -0.00000000000E+00 -0.00000000000E+00 -0.17040275720E+02  0.17040275720E+02  0.00000000000E+00 0.  1.
         21    1    1    2  503  502  0.24924240688E+02  0.14461667460E+02  0.12035949099E+02  0.31228539356E+02  0.00000000000E+00 0.  1.
         21    1    1    2  504  501 -0.24924240688E+02 -0.14461667460E+02  0.20442900268E+02  0.35330861452E+02  0.00000000000E+00 0.  1.
</event>
<event>
 4    1  0.3183954E+006  0.2884946E+02  0.7546771E-02  0.1429865E+00
         21   -1    0    0  504  501  0.00000000000E+00  0.00000000000E+00  0.50428004506E+02  0.50428004506E+02  0.00000000000E+00 0. -1.
         21   -1    0    0  503  502 -0.00000000000E+00 -0.00000000000E+00 -0.18490756280E+02  0.18490756280E+02  0.00000000000E+00 0.  1.
         21    1    1    2  503  501  0.27545213183E+02 -0.85762848996E+01  0.46747615852E+01  0.29225756241E+02  0.00000000000E+00 0.  1.
         21    1    1    2  504  502 -0.27545213183E+02  0.85762848996E+01  0.27262486641E+02  0.39693004545E+02  0.00000000000E+00 0. -1.
</event>
<event>
 4    1  0.3183954E+006  0.2383687E+02  0.7546771E-02  0.1482249E+00
         21   -1    0    0  503  501  0.00000000000E+00  0.00000000000E+00  0.56404587213E+01  0.56404587213E+01  0.00000000000E+00 0.  1.
         21   -1    0    0  504  502 -0.00000000000E+00 -0.00000000000E+00 -0.76906764416E+03  0.76906764416E+03  0.00000000000E+00 0.  1.
         21    1    1    2  503  502 -0.11502157284E+02  0.20878136282E+02 -0.20618234675E+02  0.31516785971E+02  0.00000000000E+00 0.  1.
         21    1    1    2  504  501  0.11502157284E+02 -0.20878136282E+02 -0.74280895076E+03  0.74319131691E+03  0.00000000000E+00 0.  1.
</event>
<event>
 4    1  0.3183954E+006  0.2256064E+02  0.7546771E-02  0.1498090E+00
         21   -1    0    0  502  501  0.00000000000E+00  0.00000000000E+00  0.39267743440E+03  0.39267743440E+03  0.00000000000E+00 0.  1.
         21   -1    0    0  503  502 -0.00000000000E+00 -0.00000000000E+00 -0.24266670627E+03  0.24266670627E+03  0.00000000000E+00 0. -1.
         21    1    1    2  503  504  0.22169819522E+02 -0.41810765164E+01 -0.24181716070E+03  0.24286729196E+03  0.00000000000E+00 0. -1.
         21    1    1    2  504  501 -0.22169819522E+02  0.41810765164E+01  0.39182788883E+03  0.39247684870E+03  0.00000000000E+00 0.  1.
</event>
<event>
 4    1  0.3183954E+006  0.2448307E+02  0.7546771E-02  0.1474670E+00
         21   -1    0    0  502  501  0.00000000000E+00  0.00000000000E+00  0.84907916119E+01  0.84907916119E+01  0.00000000000E+00 0. -1.
         21   -1    0    0  503  502 -0.00000000000E+00 -0.00000000000E+00 -0.11592764222E+03  0.11592764222E+03  0.00000000000E+00 0. -1.
         21    1    1    2  503  504  0.17437287933E+02 -0.17186092363E+02 -0.14817563809E+02  0.28617843706E+02  0.00000000000E+00 0. -1.
         21    1    1    2  504  501 -0.17437287933E+02  0.17186092363E+02 -0.92619286798E+02  0.95800590124E+02  0.00000000000E+00 0. -1.
</event>
<event>
 4    1  0.3183954E+006  0.2842463E+02  0.7546771E-02  0.1433799E+00
         21   -1    0    0  503  501  0.00000000000E+00  0.00000000000E+00  0.14973117676E+03  0.14973117676E+03  0.00000000000E+00 0.  1.
         21   -1    0    0  504  502 -0.00000000000E+00 -0.00000000000E+00 -0.26760119939E+02  0.26760119939E+02  0.00000000000E+00 0. -1.
         21    1    1    2  503  502  0.26928394446E+02 -0.91005981693E+01  0.14033360491E+03  0.14318337886E+03  0.00000000000E+00 0.  1.
         21    1    1    2  504  501 -0.26928394446E+02  0.91005981693E+01 -0.17362548091E+02  0.33307917838E+02  0.00000000000E+00 0. -1.
</event>
<event>
 4    1  0.3183954E+006  0.2014173E+02  0.7546771E-02  0.1531880E+00
         21   -1    0    0  504  501  0.00000000000E+00  0.00000000000E+00  0.17597726957E+03  0.17597726957E+03  0.00000000000E+00 0. -1.
         21   -1    0    0  501  502 -0.00000000000E+00 -0.00000000000E+00 -0.46959806901E+01  0.46959806901E+01  0.00000000000E+00 0.  1.
         21    1    1    2  503  502  0.42070576963E+00  0.20137336355E+02  0.21185601976E+02  0.29232157634E+02  0.00000000000E+00 0.  1.
         21    1    1    2  504  503 -0.42070576963E+00 -0.20137336355E+02  0.15009568691E+03  0.15144109263E+03  0.00000000000E+00 0. -1.
</event>
<event>
 4    1  0.3183954E+006  0.2589876E+02  0.7546771E-02  0.1458995E+00
         21   -1    0    0  502  501  0.00000000000E+00  0.00000000000E+00  0.12786897338E+02  0.12786897338E+02  0.00000000000E+00 0. -1.
         21   -1    0    0  504  502 -0.00000000000E+00 -0.00000000000E+00 -0.38590027270E+03  0.38590027270E+03  0.00000000000E+00 0. -1.
         21    1    1    2  503  501  0.92554304771E+01  0.24188488684E+02 -0.12562131456E+01  0.25929212283E+02  0.00000000000E+00 0. -1.
         21    1    1    2  504  503 -0.92554304771E+01 -0.24188488684E+02 -0.37185716221E+03  0.37275795775E+03  0.00000000000E+00 0. -1.
</event>
<event>
 4    1  0.3183954E+006  0.3349711E+02  0.7546771E-02  0.1391448E+00
         21   -1    0    0  502  501  0.00000000000E+00  0.00000000000E+00  0.14155527035E+03  0.14155527035E+03  0.00000000000E+00 0. -1.
         21   -1    0    0  503  502 -0.00000000000E+00 -0.00000000000E+00 -0.89848198039E+01  0.89848198039E+01  0.00000000000E+00 0. -1.
         21    1    1    2  503  504 -0.31045641486E+02 -0.12578737493E+02  0.40453766698E+02  0.52522030923E+02  0.00000000000E+00 0. -1.
         21    1    1    2  504  501  0.31045641486E+02  0.12578737493E+02  0.92116683849E+02  0.98018059232E+02  0.00000000000E+00 0. -1.
</event>
<event>
 4    1  0.3183954E+006  0.2310603E+02  0.7546771E-02  0.1491171E+00
         21   -1    0    0  503  501  0.00000000000E+00  0.00000000000E+00  0.12481120831E+03  0.12481120831E+03  0.00000000000E+00 0. -1.
         21   -1    0    0  504  502 -0.00000000000E+00 -0.00000000000E+00 -0.59981792763E+01  0.59981792763E+01  0.00000000000E+00 0. -1.
         21    1    1    2  503  502  0.23102326003E+02 -0.41348628555E+00  0.24376479525E+02  0.33587217683E+02  0.00000000000E+00 0. -1.
         21    1    1    2  504  501 -0.23102326003E+02  0.41348628555E+00  0.94436549506E+02  0.97222169901E+02  0.00000000000E+00 0. -1.
</event>
<event>
 4    1  0.3183954E+006  0.2883986E+02  0.7546771E-02  0.1429953E+00
         21   -1    0    0  503  501  0.00000000000E+00  0.00000000000E+00  0.37036430594E+02  0.37036430594E+02  0.00000000000E+00 0.  1.
         21   -1    0    0  504  502 -0.00000000000E+00 -0.00000000000E+00 -0.22457293418E+02  0.22457293418E+02  0.00000000000E+00 0.  1.
         21    1    1    2  503  502  0.24982832029E+02  0.14408176930E+02  0.72658149188E+01  0.29741041090E+02  0.00000000000E+00 0.  1.
         21    1    1    2  504  501 -0.24982832029E+02 -0.14408176930E+02  0.73133222570E+01  0.29752682923E+02  0.00000000000E+00 0.  1.
</event>
<event>
 4    1  0.3183954E+006  0.5071599E+02  0.7546771E-02  0.1295098E+00
         21   -1    0    0  502  501  0.00000000000E+00  0.00000000000E+00  0.47697514816E+02  0.47697514816E+02  0.00000000000E+00 0.  1.
         21   -1    0    0  504  502 -0.00000000000E+00 -0.00000000000E+00 -0.17385975440E+03  0.17385975440E+03  0.00000000000E+00 0. -1.
         21    1    1    2  503  501 -0.50680350592E+02 -0.19009743274E+01  0.28927416809E+02  0.58385846596E+02  0.00000000000E+00 0.  1.
         21    1    1    2  504  503  0.50680350592E+02  0.19009743274E+01 -0.15508965639E+03  0.16317142262E+03  0.00000000000E+00 0. -1.
</event>
<event>
 4    1  0.3183954E+006  0.4880335E+02  0.7546771E-02  0.1303446E+00
         21   -1    0    0  503  501  0.00000000000E+00  0.00000000000E+00  0.63293300612E+02  0.63293300612E+02  0.00000000000E+00 0. -1.
         21   -1    0    0  504  502 -0.00000000000E+00 -0.00000000000E+00 -0.73157109613E+02  0.73157109613E+02  0.00000000000E+00 0. -1.
         21    1    1    2  503  502 -0.11122453097E+02 -0.47519027662E+02  0.42611759831E+02  0.64788340222E+02  0.00000000000E+00 0. -1.
         21    1    1    2  504  501  0.11122453097E+02  0.47519027662E+02 -0.52475568832E+02  0.71662070003E+02  0.00000000000E+00 0. -1.
</event>
<event>
 4    1  0.3183954E+006  0.3077366E+02  0.7546771E-02  0.1412990E+00
         21   -1    0    0  503  501  0.00000000000E+00  0.00000000000E+00  0.19122251610E+02  0.19122251610E+02  0.00000000000E+00 0. -1.
         21   -1    0    0  501  502 -0.00000000000E+00 -0.00000000000E+00 -0.55613504455E+02  0.55613504455E+02  0.00000000000E+00 0.  1.
         21    1    1    2  503  504 -0.13511724015E+02 -0.27648712218E+02 -0.58808821781E+01  0.31330540186E+02  0.00000000000E+00 0. -1.
         21    1    1    2  504  502  0.13511724015E+02  0.27648712218E+02 -0.30610370666E+02  0.43405215879E+02  0.00000000000E+00 0.  1.
</event>
<event>
 4    1  0.3183954E+006  0.2006723E+02  0.7546771E-02  0.1533010E+00
         21   -1    0    0  502  501  0.00000000000E+00  0.00000000000E+00  0.80216194614E+02  0.80216194614E+02  0.00000000000E+00 0.  1.
         21   -1    0    0  504  502 -0.00000000000E+00 -0.00000000000E+00 -0.95790173990E+01  0.95790173990E+01  0.00000000000E+00 0. -1.
         21    1    1    2  503  501 -0.19476634745E+02  0.48326536832E+01  0.66292300477E+02  0.69262998384E+02  0.00000000000E+00 0.  1.
         21    1    1    2  504  503  0.19476634745E+02 -0.48326536832E+01  0.43448767376E+01  0.20532213629E+02  0.00000000000E+00 0. -1.
</event>
<event>
 4    1  0.3183954E+006  0.3871941E+02  0.7546771E-02  0.1356158E+00
         21   -1    0    0  503  501  0.00000000000E+00  0.00000000000E+00  0.94778119557E+02  0.94778119557E+02  0.00000000000E+00 0.  1.
         21   -1    0    0  504  502 -0.00000000000E+00 -0.00000000000E+00 -0.36398045754E+02  0.36398045754E+02  0.00000000000E+00 0.  1.
         21    1    1    2  503  502 -0.36045101607E+02 -0.14140141047E+02  0.78508540275E+02  0.87537328237E+02  0.00000000000E+00 0.  1.
         21    1    1    2  504  501  0.36045101607E+02  0.14140141047E+02 -0.20128466472E+02  0.43638837075E+02  0.00000000000E+00 0.  1.
</event>
<event>
 4    1  0.3183954E+006  0.2280548E+02  0.7546771E-02  0.1494955E+00
         21   -1    0    0  502  501  0.00000000000E+00  0.00000000000E+00  0.71414613305E+01  0.71414613305E+01  0.00000000000E+00 0.  1.
         21   -1    0    0  503  502 -0.00000000000E+00 -0.00000000000E+00 -0.18112886123E+03  0.18112886123E+03  0.00000000000E+00 0. -1.
         21    1    1    2  503  504 -0.22215213255E+02 -0.51550189114E+01 -0.15978447832E+03  0.16140374665E+03  0.00000000000E+00 0. -1.
         21    1    1    2  504  501  0.22215213255E+02  0.51550189114E+01 -0.14202921582E+02  0.26866575915E+02  0.00000000000E+00 0.  1.
</event>
<event>
 4    1  0.3183954E+006  0.2323757E+02  0.7546771E-02  0.1489536E+00
         21   -1    0    0  503  501  0.00000000000E+00  0.00000000000E+00  0.11317515346E+02  0.11317515346E+02  0.00000000000E+00 0. -1.
         21   -1    0    0  504  502 -0.00000000000E+00 -0.00000000000E+00 -0.48394724191E+02  0.48394724191E+02  0.00000000000E+00 0. -1.
         21    1    1    2  503  502  0.86096684813E+01  0.21583747344E+02 -0.14993200789E+02  0.27654667068E+02  0.00000000000E+00 0. -1.
         21    1    1    2  504  501 -0.86096684813E+01 -0.21583747344E+02 -0.22084008056E+02  0.32057572469E+02  0.00000000000E+00 0. -1.
</event>
<event>
 4    1  0.3183954E+006  0.2340961E+02  0.7546771E-02  0.1487418E+00
         21   -1    0    0  503  501  0.00000000000E+00  0.00000000000E+00  0.12775061689E+03  0.12775061689E+03  0.00000000000E+00 0.  1.
         21   -1    0    0  504  502 -0.00000000000E+00 -0.00000000000E+00 -0.51439506305E+01  0.51439506305E+01  0.00000000000E+00 0.  1.
         21    1    1    2  503  502  0.12838977718E+00  0.23409257662E+02  0.88381886330E+02  0.91429577597E+02  0.00000000000E+00 0.  1.
         21    1    1    2  504  501 -0.12838977718E+00 -0.23409257662E+02  0.34224779932E+02  0.41464989926E+02  0.00000000000E+00 0.  1.
</event>
<event>
 4    1  0.3183954E+006  0.2022061E+02  0.7546771E-02  0.1530690E+00
         21   -1    0    0  502  501  0.00000000000E+00  0.00000000000E+00  0.20435123242E+02  0.20435123242E+02  0.00000000000E+00 0.  1.
         21   -1    0    0  503  502 -0.00000000000E+00 -0.00000000000E+00 -0.55452160816E+02  0.55452160816E+02  0.00000000000E+00 0.  1.
         21    1    1    2  503  504  0.18951928756E+02  0.70496535758E+01 -0.47843934162E+02  0.51941459887E+02  0.00000000000E+00 0.  1.
         21    1    1    2  504  501 -0.18951928756E+02 -0.70496535758E+01  0.12826896588E+02  0.23945824170E+02  0.00000000000E+00 0.  1.
</event>
<event>
 4    1  0.3183954E+006  0.2318694E+02  0.7546771E-02  0.1490164E+00
         21   -1    0    0  504  501  0.00000000000E+00  0.00000000000E+00  0.10357262830E+02  0.10357262830E+02  0.00000000000E+00 0.  1.
         21   -1    0    0  503  502 -0.00000000000E+00 -0.00000000000E+00 -0.74294336878E+02  0.74294336878E+02  0.00000000000E+00 0.  1.
         21    1    1    2  503  501  0.10204008064E+02  0.20820956596E+02 -0.55201799856E+02  0.59873806639E+02  0.00000000000E+00 0.  1.
         21    1    1    2  504  502 -0.10204008064E+02 -0.20820956596E+02 -0.87352741928E+01  0.24777793069E+02  0.00000000000E+00 0.  1.
</event>
<event>
 4    1  0.3183954E+006  0.2009998E+02  0.7546771E-02  0.1532513E+00
         21   -1    0    0  504  501  0.00000000000E+00  0.00000000000E+00  0.90779941548E+02  0.90779941548E+02  0.00000000000E+00 0. -1.
         21   -1    0    0  503  502 -0.00000000000E+00 -0.00000000000E+00 -0.71239954140E+01  0.71239954140E+01  0.00000000000E+00 0. -1.
         21    1    1    2  503  501 -0.17067562671E+02 -0.10616385775E+02  0.71816431371E+02  0.74576196988E+02  0.00000000000E+00 0. -1.
         21    1    1    2  504  502  0.17067562671E+02  0.10616385775E+02  0.11839514764E+02  0.23327739974E+02  0.00000000000E+00 0. -1.
</event>
<event>
 4    1  0.3183954E+006  0.2852742E+02  0.7546771E-02  0.1432840E+00
         21   -1    0    0  503  501  0.00000000000E+00  0.00000000000E+00  0.13343974900E+02  0.13343974900E+02  0.00000000000E+00 0. -1.
         21   -1    0    0  504  502 -0.00000000000E+00 -0.00000000000E+00 -0.61736573123E+02  0.61736573123E+02  0.00000000000E+00 0. -1.
         21    1    1    2  503  502 -0.14187367278E+02 -0.24749394612E+02 -0.28331781702E+02  0.40205767973E+02  0.00000000000E+00 0. -1.
         21    1    1    2  504  501  0.14187367278E+02  0.24749394612E+02 -0.20060816521E+02  0.34874780049E+02  0.00000000000E+00 0. -1.
</event>
<event>
 4    1  0.3183954E+006  0.2258315E+02  0.7546771E-02  0.1497800E+00
         21   -1    0    0  504  501  0.00000000000E+00  0.00000000000E+00  0.10030277123E+03  0.10030277123E+03  0.00000000000E+00 0.  1.
         21   -1    0    0  503  502 -0.00000000000E+00 -0.00000000000E+00 -0.13003333175E+02  0.13003333175E+02  0.00000000000E+00 0.  1.
         21    1    1    2  503  501  0.13563535105E+02  0.18056280410E+02 -0.56063778963E+00  0.22590109817E+02  0.00000000000E+00 0.  1.
         21    1    1    2  504  502 -0.13563535105E+02 -0.18056280410E+02  0.87860075848E+02  0.90715994592E+02  0.00000000000E+00 0.  1.
</event>
<event>
 4    1  0.3183954E+006  0.2506150E+02  0.7546771E-02  0.1468117E+00
         21   -1    0    0  502  501  0.00000000000E+00  0.00000000000E+00  0.10158024611E+02  0.10158024611E+02  0.00000000000E+00 0.  1.
         21   -1    0    0  504  502 -0.00000000000E+00 -0.00000000000E+00 -0.20111571405E+03  0.20111571405E+03  0.00000000000E+00 0. -1.
         21    1    1    2  503  501  0.24408925283E+02 -0.56818197663E+01 -0.75675711649E+01  0.26179129907E+02  0.00000000000E+00 0.  1.
         21    1    1    2  504  503 -0.24408925283E+02  0.56818197663E+01 -0.18339011828E+03  0.18509460876E+03  0.00000000000E+00 0. -1.
</event>
<event>
 4    1  0.3183954E+006  0.3239285E+02  0.7546771E-02  0.1399881E+00
         21   -1    0    0  503  501  0.00000000000E+00  0.00000000000E+00  0.33966524008E+02  0.33966524008E+02  0.00000000000E+00 0. -1.
         21   -1    0    0  504  502 -0.00000000000E+00 -0.00000000000E+00 -0.20574805900E+04  0.20574805900E+04  0.00000000000E+00 0.  1.
         21    1    1    2  503  502 -0.15391647826E+02 -0.28502523004E+02 -0.20496003805E+04  0.20498563404E+04  0.00000000000E+00 0.  1.
         21    1    1    2  504  501  0.15391647826E+02  0.28502523004E+02  0.26086314524E+02  0.41590773566E+02  0.00000000000E+00 0. -1.
</event>
<event>
 4    1  0.3183954E+006  0.2637065E+02  0.7546771E-02  0.1454035E+00
         21   -1    0    0  503  501  0.00000000000E+00  0.00000000000E+00  0.26614639643E+03  0.26614639643E+03  0.00000000000E+00 0.  1.
         21   -1    0    0  504  502 -0.00000000000E+00 -0.00000000000E+00 -0.20009779631E+02  0.20009779631E+02  0.00000000000E+00 0.  1.
         21    1    1    2  503  502  0.18675830761E+02 -0.18617850524E+02 -0.10341509300E+02  0.28325921474E+02  0.00000000000E+00 0.  1.
         21    1    1    2  504  501 -0.18675830761E+02  0.18617850524E+02  0.25647812610E+03  0.25783025459E+03  0.00000000000E+00 0.  1.
</event>
<event>
 4    1  0.3183954E+006  0.2070879E+02  0.7546771E-02  0.1523463E+00
         21   -1    0    0  502  501  0.00000000000E+00  0.00000000000E+00  0.28613406717E+02  0.28613406717E+02  0.00000000000E+00 0. -1.
         21   -1    0    0  504  502 -0.00000000000E+00 -0.00000000000E+00 -0.23724114261E+02  0.23724114261E+02  0.00000000000E+00 0. -1.
         21    1    1    2  503  501 -0.17382224995E+02 -0.11256649761E+02  0.18324651009E+02  0.27652246640E+02  0.00000000000E+00 0. -1.
         21    1    1    2  504  503  0.17382224995E+02  0.11256649761E+02 -0.13435358554E+02  0.24685274338E+02  0.00000000000E+00 0. -1.
</event>
<event>
 4    1  0.3183954E+006  0.3154858E+02  0.7546771E-02  0.1406600E+00
         21   -1    0    0  503  501  0.00000000000E+00  0.00000000000E+00  0.13485742519E+03  0.13485742519E+03  0.00000000000E+00 0. -1.
         21   -1    0    0  504  502 -0.00000000000E+00 -0.00000000000E+00 -0.80024521442E+01  0.80024521442E+01  0.00000000000E+00 0. -1.
         21    1    1    2  503  502  0.15605948075E+02 -0.27418372633E+02  0.83341260379E+02  0.89112728915E+02  0.00000000000E+00 0. -1.
         21    1    1    2  504  501 -0.15605948075E+02  0.27418372633E+02  0.43513712669E+02  0.53747148421E+02  0.00000000000E+00 0. -1.
</event>
<event>
 4    1  0.3183954E+006  0.2299490E+02  0.7546771E-02  0.1492562E+00
         21   -1    0    0  504  501  0.00000000000E+00  0.00000000000E+00  0.10958823221E+03  0.10958823221E+03  0.00000000000E+00 0.  1.
         21   -1    0    0  503  502 -0.00000000000E+00 -0.00000000000E+00 -0.61805525765E+01  0.61805525765E+01  0.00000000000E+00 0.  1.
         21    1    1    2  503  501 -0.12699403810E+02 -0.19170040432E+02  0.78812182006E+02  0.82098266364E+02  0.00000000000E+00 0.  1.
         21    1    1    2  504  502  0.12699403810E+02  0.19170040432E+02  0.24595497624E+02  0.33670518420E+02  0.00000000000E+00 0.  1.
</event>
<event>
 4    1  0.3183954E+006  0.2883306E+02  0.7546771E-02  0.1430016E+00
         21   -1    0    0  504  501  0.00000000000E+00  0.00000000000E+00  0.23016561032E+02  0.23016561032E+02  0.00000000000E+00 0. -1.
         21   -1    0    0  501  502 -0.00000000000E+00 -0.00000000000E+00 -0.32810618806E+03  0.32810618806E+03  0.00000000000E+00 0.  1.
         21    1    1    2  503  502  0.27136920520E+02  0.97433364941E+01 -0.31816121347E+03  0.31946502597E+03  0.00000000000E+00 0.  1.
         21    1    1    2  504  503 -0.27136920520E+02 -0.97433364941E+01  0.13071586440E+02  0.31657723124E+02  0.00000000000E+00 0. -1.
</event>
<event>
 4    1  0.3183954E+006  0.3224558E+02  0.7546771E-02  0.1401036E+00
         21   -1    0    0  504  501  0.00000000000E+00  0.00000000000E+00  0.57741357445E+03  0.57741357445E+03  0.00000000000E+00 0. -1.
         21   -1    0    0  503  502 -0.00000000000E+00 -0.00000000000E+00 -0.66393366190E+01  0.66393366190E+01  0.00000000000E+00 0. -1.
         21    1    1    2  503  501 -0.10396208914E+02 -0.30523702625E+02  0.53468529800E+03  0.53565674221E+03  0.00000000000E+00 0. -1.
         21    1    1    2  504  502  0.10396208914E+02  0.30523702625E+02  0.36088939831E+02  0.48396168855E+02  0.00000000000E+00 0. -1.
</event>
<event>
 4    1  0.3183954E+006  0.3289312E+02  0.7546771E-02  0.1396013E+00
         21   -1    0    0  503  501  0.00000000000E+00  0.00000000000E+00  0.50567317198E+03  0.50567317198E+03  0.00000000000E+00 0.  1.
         21   -1    0    0  501  502 -0.00000000000E+00 -0.00000000000E+00 -0.53600800369E+02  0.53600800369E+02  0.00000000000E+00 0.  1.
         21    1    1    2  503  504  0.20487212761E+02 -0.25733858271E+02  0.50003505648E+03  0.50111577011E+03  0.00000000000E+00 0.  1.
         21    1    1    2  504  502 -0.20487212761E+02  0.25733858271E+02 -0.47962684864E+02  0.58158202239E+02  0.00000000000E+00 0.  1.
</event>
<event>
 4    1  0.3183954E+006  0.2052606E+02  0.7546771E-02  0.1526140E+00
         21   -1    0    0  502  501  0.00000000000E+00  0.00000000000E+00  0.12983465629E+02  0.12983465629E+02  0.00000000000E+00 0. -1.
         21   -1    0    0  504  502 -0.00000000000E+00 -0.00000000000E+00 -0.85308094641E+02  0.85308094641E+02  0.00000000000E+00 0.  1.
         21    1    1    2  503  501  0.54441363320E+01  0.19790918126E+02  0.25229073859E+01  0.20680525195E+02  0.00000000000E+00 0. -1.
         21    1    1    2  504  503 -0.54441363320E+01 -0.19790918126E+02 -0.74847536398E+02  0.77611035076E+02  0.00000000000E+00 0.  1.
</event>
<event>
 4    1  0.3183954E+006  0.2364144E+02  0.7546771E-02  0.1484597E+00
         21   -1    0    0  504  501  0.00000000000E+00  0.00000000000E+00  0.73857441088E+02  0.73857441088E+02  0.00000000000E+00 0. -1.
         21   -1    0    0  503  502 -0.00000000000E+00 -0.00000000000E+00 -0.89327561028E+01  0.89327561028E+01  0.00000000000E+00 0. -1.
         21    1    1    2  503  501 -0.10024817894E+02 -0.21410758508E+02  0.16279295328E+02  0.28704233313E+02  0.00000000000E+00 0. -1.
         21    1    1    2  504  502  0.10024817894E+02  0.21410758508E+02  0.48645389657E+02  0.54085963878E+02  0.00000000000E+00 0. -1.
</event>
<event>
 4    1  0.3183954E+006  0.4830019E+02  0.7546771E-02  0.1305715E+00
         21   -1    0    0  504  501  0.00000000000E+00  0.00000000000E+00  0.24287041614E+02  0.24287041614E+02  0.00000000000E+00 0. -1.
         21   -1    0    0  503  502 -0.00000000000E+00 -0.00000000000E+00 -0.55602523860E+03  0.55602523860E+03  0.00000000000E+00 0.  1.
         21    1    1    2  503  501  0.26142554211E+02  0.40613737007E+02 -0.52977496753E+03  0.53197220321E+03  0.00000000000E+00 0.  1.
         21    1    1    2  504  502 -0.26142554211E+02 -0.40613737007E+02 -0.19632294581E+01  0.48340076998E+02  0.00000000000E+00 0. -1.
</event>
<event>
 4    1  0.3183954E+006  0.2427965E+02  0.7546771E-02  0.1477026E+00
         21   -1    0    0  503  501  0.00000000000E+00  0.00000000000E+00  0.71611245676E+02  0.71611245676E+02  0.00000000000E+00 0.  1.
         21   -1    0    0  501  502 -0.00000000000E+00 -0.00000000000E+00 -0.13769731987E+02  0.13769731987E+02  0.00000000000E+00 0.  1.
         21    1    1    2  503  504  0.23496164825E+02  0.61181360282E+01  0.55993712895E+02  0.61031116930E+02  0.00000000000E+00 0.  1.
         21    1    1    2  504  502 -0.23496164825E+02 -0.61181360282E+01  0.18478007945E+01  0.24349860733E+02  0.00000000000E+00 0.  1.
</event>
<event>
 4    1  0.3183954E+006  0.2043247E+02  0.7546771E-02  0.1527524E+00
         21   -1    0    0  503  501  0.00000000000E+00  0.00000000000E+00  0.10678853272E+02  0.10678853272E+02  0.00000000000E+00 0.  1.
         21   -1    0    0  504  502 -0.00000000000E+00 -0.00000000000E+00 -0.54552805919E+02  0.54552805919E+02  0.00000000000E+00 0.  1.
         21    1    1    2  503  502  0.66822615331E+01 -0.19308884591E+02 -0.39298955641E+02  0.44293267635E+02  0.00000000000E+00 0.  1.
         21    1    1    2  504  501 -0.66822615331E+01  0.19308884591E+02 -0.45749970055E+01  0.20938391556E+02  0.00000000000E+00 0.  1.
</event>
<event>
 4    1  0.3183954E+006  0.2114627E+02  0.7546771E-02  0.1517187E+00
         21   -1    0    0  504  501  0.00000000000E+00  0.00000000000E+00  0.59195309788E+00  0.59195309788E+00  0.00000000000E+00 0. -1.
         21   -1    0    0  501  502 -0.00000000000E+00 -0.00000000000E+00 -0.76847882655E+03  0.76847882655E+03  0.00000000000E+00 0. -1.
         21    1    1    2  503  502  0.15264891087E+02 -0.14633791302E+02 -0.43409794725E+03  0.43461269258E+03  0.00000000000E+00 0. -1.
         21    1    1    2  504  503 -0.15264891087E+02  0.14633791302E+02 -0.33378892620E+03  0.33445808707E+03  0.00000000000E+00 0. -1.
</event>
<event>
 4    1  0.3183954E+006  0.2545804E+02  0.7546771E-02  0.1463744E+00
         21   -1    0    0  504  501  0.00000000000E+00  0.00000000000E+00  0.10052265632E+03  0.10052265632E+03  0.00000000000E+00 0. -1.
         21   -1    0    0  503  502 -0.00000000000E+00 -0.00000000000E+00 -0.11618396540E+02  0.11618396540E+02  0.00000000000E+00 0. -1.
         21    1    1    2  503  501  0.25451762117E+02 -0.56541231095E+00  0.70455693460E+01  0.26414994480E+02  0.00000000000E+00 0. -1.
         21    1    1    2  504  502 -0.25451762117E+02  0.56541231095E+00  0.81858690430E+02  0.85726058377E+02  0.00000000000E+00 0. -1.
</event>
<event>
 4    1  0.3183954E+006  0.2468707E+02  0.7546771E-02  0.1472335E+00
         21   -1    0    0  504  501  0.00000000000E+00  0.00000000000E+00  0.20418097269E+03  0.20418097269E+03  0.00000000000E+00 0.  1.
         21   -1    0    0  503  502 -0.00000000000E+00 -0.00000000000E+00 -0.40996430120E+01  0.40996430120E+01  0.00000000000E+00 0. -1.
         21    1    1    2  503  501  0.32246694058E+01 -0.24475557058E+02  0.45735488405E+02  0.51972938013E+02  0.00000000000E+00 0. -1.
         21    1    1    2  504  502 -0.32246694058E+01  0.24475557058E+02  0.15434584127E+03  0.15630767768E+03  0.00000000000E+00 0.  1.
</event>
<event>
 4    1  0.3183954E+006  0.5754869E+02  0.7546771E-02  0.1268397E+00
         21   -1    0    0  503  501  0.00000000000E+00  0.00000000000E+00  0.70792873598E+02  0.70792873598E+02  0.00000000000E+00 0. -1.
         21   -1    0    0  501  502 -0.00000000000E+00 -0.00000000000E+00 -0.40326667025E+03  0.40326667025E+03  0.00000000000E+00 0.  1.
         21    1    1    2  503  504  0.36041276573E+02 -0.44865114409E+02  0.56620467162E+02  0.80732455739E+02  0.00000000000E+00 0. -1.
         21    1    1    2  504  502 -0.36041276573E+02  0.44865114409E+02 -0.38909426382E+03  0.39332708811E+03  0.00000000000E+00 0.  1.
</event>
<event>
 4    1  0.3183954E+006  0.2723588E+02  0.7546771E-02  0.1445253E+00
         21   -1    0    0  503  501  0.00000000000E+00  0.00000000000E+00  0.22840078755E+03  0.22840078755E+03  0.00000000000E+00 0. -1.
         21   -1    0    0  504  502 -0.00000000000E+00 -0.00000000000E+00 -0.44141114166E+01  0.44141114166E+01  0.00000000000E+00 0.  1.
         21    1    1    2  503  502  0.20341918630E+02  0.18110755748E+02  0.52156028626E+02  0.58839140453E+02  0.00000000000E+00 0.  1.
         21    1    1    2  504  501 -0.20341918630E+02 -0.18110755748E+02  0.17183064751E+03  0.17397575851E+03  0.00000000000E+00 0. -1.
</event>
<event>
 4    1  0.3183954E+006  0.2080812E+02  0.7546771E-02  0.1522022E+00
         21   -1    0    0  504  501  0.00000000000E+00  0.00000000000E+00  0.71479707908E+01  0.71479707908E+01  0.00000000000E+00 0.  1.
         21   -1    0    0  503  502 -0.00000000000E+00 -0.00000000000E+00 -0.10454536755E+03  0.10454536755E+03  0.00000000000E+00 0.  1.
         21    1    1    2  503  501  0.12149819631E+02 -0.16892596404E+02 -0.12480060576E+02  0.24263755734E+02  0.00000000000E+00 0.  1.
         21    1    1    2  504  502 -0.12149819631E+02  0.16892596404E+02 -0.84917336183E+02  0.87429582607E+02  0.00000000000E+00 0.  1.
</event>
<event>
 4    1  0.3183954E+006  0.3222098E+02  0.7546771E-02  0.1401229E+00
         21   -1    0    0  502  501  0.00000000000E+00  0.00000000000E+00  0.49958932336E+02  0.49958932336E+02  0.00000000000E+00 0. -1.
         21   -1    0    0  503  502 -0.00000000000E+00 -0.00000000000E+00 -0.32123226589E+02  0.32123226589E+02  0.00000000000E+00 0.  1.
         21    1    1    2  503  504 -0.20478751023E+02  0.24875942379E+02  0.33304955239E+02  0.46340174753E+02  0.00000000000E+00 0. -1.
         21    1    1    2  504  501  0.20478751023E+02 -0.24875942379E+02 -0.15469249492E+02  0.35741984172E+02  0.00000000000E+00 0.  1.
</event>
<event>
 4    1  0.3183954E+006  0.2551733E+02  0.7546771E-02  0.1463098E+00
         21   -1    0    0  504  501  0.00000000000E+00  0.00000000000E+00  0.43575422812E+02  0.43575422812E+02  0.00000000000E+00 0.  1.
         21   -1    0    0  503  502 -0.00000000000E+00 -0.00000000000E+00 -0.34379773880E+02  0.34379773880E+02  0.00000000000E+00 0.  1.
         21    1    1    2  503  501 -0.23103405326E+02  0.10833604714E+02  0.33905342916E+02  0.42434733498E+02  0.00000000000E+00 0.  1.
         21    1    1    2  504  502  0.23103405326E+02 -0.10833604714E+02 -0.24709693984E+02  0.35520463194E+02  0.00000000000E+00 0.  1.
</event>
<event>
 4    1  0.3183954E+006  0.2141719E+02  0.7546771E-02  0.1513391E+00
         21   -1    0    0  504  501  0.00000000000E+00  0.00000000000E+00  0.51232462430E+03  0.51232462430E+03  0.00000000000E+00 0.  1.
         21   -1    0    0  501  502 -0.00000000000E+00 -0.00000000000E+00 -0.18116999866E+01  0.18116999866E+01  0.00000000000E+00 0.  1.
         21    1    1    2  503  502 -0.70216753799E+01  0.20233441985E+02  0.72428675331E+02  0.75528862761E+02  0.00000000000E+00 0.  1.
         21    1    1    2  504  503  0.70216753799E+01 -0.20233441985E+02  0.43808424898E+03  0.43860746153E+03  0.00000000000E+00 0.  1.
</event>
<event>
 4    1  0.3183954E+006  0.2537881E+02  0.7546771E-02  0.1464610E+00
         21   -1    0    0  503  501  0.00000000000E+00  0.00000000000E+00  0.10961695652E+02  0.10961695652E+02  0.00000000000E+00 0.  1.
         21   -1    0    0  501  502 -0.00000000000E+00 -0.00000000000E+00 -0.70687083581E+02  0.70687083581E+02  0.00000000000E+00 0.  1.
         21    1    1    2  503  504  0.20025989743E+02 -0.15589863124E+02 -0.13091709796E+02  0.28556557264E+02  0.00000000000E+00 0.  1.
         21    1    1    2  504  502 -0.20025989743E+02  0.15589863124E+02 -0.46633678133E+02  0.53092221969E+02  0.00000000000E+00 0.  1.
</event>
<event>
 4    1  0.3183954E+006  0.2279138E+02  0.7546771E-02  0.1495135E+00
         21   -1    0    0  503  501  0.00000000000E+00  0.00000000000E+00  0.22814268582E+01  0.22814268582E+01  0.00000000000E+00 0. -1.
         21   -1    0    0  504  502 -0.00000000000E+00 -0.00000000000E+00 -0.56090351173E+03  0.56090351173E+03  0.00000000000E+00 0.  1.
         21    1    1    2  503  502  0.76331578397E+01  0.21475143033E+02 -0.62270202344E+02  0.66310066859E+02  0.00000000000E+00 0. -1.
         21    1    1    2  504  501 -0.76331578397E+01 -0.21475143033E+02 -0.49635188253E+03  0.49687487173E+03  0.00000000000E+00 0.  1.
</event>
<event>
 4    1  0.3183954E+006  0.2186685E+02  0.7546771E-02  0.1507239E+00
         21   -1    0    0  503  501  0.00000000000E+00  0.00000000000E+00  0.25464439050E+02  0.25464439050E+02  0.00000000000E+00 0. -1.
         21   -1    0    0  504  502 -0.00000000000E+00 -0.00000000000E+00 -0.27286980368E+03  0.27286980368E+03  0.00000000000E+00 0. -1.
         21    1    1    2  503  502 -0.20824394618E+02  0.66711258512E+01 -0.26764586372E+03  0.26853764670E+03  0.00000000000E+00 0. -1.
         21    1    1    2  504  501  0.20824394618E+02 -0.66711258512E+01  0.20240499090E+02  0.29796596026E+02  0.00000000000E+00 0. -1.
</event>
<event>
 4    1  0.3183954E+006  0.5859524E+02  0.7546771E-02  0.1264682E+00
         21   -1    0    0  502  501  0.00000000000E+00  0.00000000000E+00  0.14676252699E+03  0.14676252699E+03  0.00000000000E+00 0.  1.
         21   -1    0    0  503  502 -0.00000000000E+00 -0.00000000000E+00 -0.38690928652E+02  0.38690928652E+02  0.00000000000E+00 0.  1.
         21    1    1    2  503  504  0.37113616525E+02  0.45342935878E+02 -0.42682379725E+01  0.58750491241E+02  0.00000000000E+00 0.  1.
         21    1    1    2  504  501 -0.37113616525E+02 -0.45342935878E+02  0.11233983631E+03  0.12670296440E+03  0.00000000000E+00 0.  1.
</event>
<event>
 4    1  0.3183954E+006  0.2130128E+02  0.7546771E-02  0.1515007E+00
         21   -1    0    0  504  501  0.00000000000E+00  0.00000000000E+00  0.11799570102E+03  0.11799570102E+03  0.00000000000E+00 0. -1.
         21   -1    0    0  501  502 -0.00000000000E+00 -0.00000000000E+00 -0.17531841455E+02  0.17531841455E+02  0.00000000000E+00 0.  1.
         21    1    1    2  503  502  0.17482974384E+02  0.12169231140E+02 -0.96407292868E+01  0.23381365251E+02  0.00000000000E+00 0.  1.
         21    1    1    2  504  503 -0.17482974384E+02 -0.12169231140E+02  0.11010458885E+03  0.11214617723E+03  0.00000000000E+00 0. -1.
</event>
<event>
 4    1  0.3183954E+006  0.2154261E+02  0.7546771E-02  0.1511657E+00
         21   -1    0    0  502  501  0.00000000000E+00  0.00000000000E+00  0.69302950370E+02  0.69302950370E+02  0.00000000000E+00 0. -1.
         21   -1    0    0  504  502 -0.00000000000E+00 -0.00000000000E+00 -0.10088785249E+02  0.10088785249E+02  0.00000000000E+00 0. -1.
         21    1    1    2  503  501  0.19549996981E+02  0.90488389753E+01  0.52625482275E+02  0.56864094589E+02  0.00000000000E+00 0. -1.
         21    1    1    2  504  503 -0.19549996981E+02 -0.90488389753E+01  0.65886828462E+01  0.22527641031E+02  0.00000000000E+00 0. -1.
</event>
<event>
 4    1  0.3183954E+006  0.2665080E+02  0.7546771E-02  0.1451148E+00
         21   -1    0    0  504  501  0.00000000000E+00  0.00000000000E+00  0.57630606697E+02  0.57630606697E+02  0.00000000000E+00 0.  1.
         21   -1    0    0  503  502 -0.00000000000E+00 -0.00000000000E+00 -0.20825680320E+03  0.20825680320E+03  0.00000000000E+00 0. -1.
         21    1    1    2  503  501  0.26037655250E+02 -0.56838104129E+01  0.53636876890E+02  0.59893069334E+02  0.00000000000E+00 0.  1.
         21    1    1    2  504  502 -0.26037655250E+02  0.56838104129E+01 -0.20426307340E+03  0.20599434056E+03  0.00000000000E+00 0. -1.
</event>
<event>
 4    1  0.3183954E+006  0.2882378E+02  0.7546771E-02  0.1430101E+00
         21   -1    0    0  504  501  0.00000000000E+00  0.00000000000E+00  0.21353551119E+01  0.21353551119E+01  0.00000000000E+00 0.  1.
         21   -1    0    0  503  502 -0.00000000000E+00 -0.00000000000E+00 -0.11195686448E+04  0.11195686448E+04  0.00000000000E+00 0.  1.
         21    1    1    2  503  501 -0.28158307884E+02 -0.61579216851E+01 -0.10117514267E+04  0.10121619236E+04  0.00000000000E+00 0.  1.
         21    1    1    2  504  502  0.28158307884E+02  0.61579216851E+01 -0.10568186300E+03  0.10954207625E+03  0.00000000000E+00 0.  1.
</event>
<event>
 4    1  0.3183954E+006  0.2149366E+02  0.7546771E-02  0.1512332E+00
         21   -1    0    0  502  501  0.00000000000E+00  0.00000000000E+00  0.12170557581E+02  0.12170557581E+02  0.00000000000E+00 0. -1.
         21   -1    0    0  504  502 -0.00000000000E+00 -0.00000000000E+00 -0.84441933252E+02  0.84441933252E+02  0.00000000000E+00 0.  1.
         21    1    1    2  503  501  0.41447007253E+01  0.21090260200E+02 -0.29529848823E+00  0.21495693071E+02  0.00000000000E+00 0. -1.
         21    1    1    2  504  503 -0.41447007253E+01 -0.21090260200E+02 -0.71976077183E+02  0.75116797762E+02  0.00000000000E+00 0.  1.
</event>
<event>
 4    1  0.3183954E+006  0.2669725E+02  0.7546771E-02  0.1450673E+00
         21   -1    0    0  503  501  0.00000000000E+00  0.00000000000E+00  0.53706518319E+02  0.53706518319E+02  0.00000000000E+00 0. -1.
         21   -1    0    0  501  502 -0.00000000000E+00 -0.00000000000E+00 -0.35769730357E+02  0.35769730357E+02  0.00000000000E+00 0.  1.
         21    1    1    2  503  504 -0.25292671394E+02 -0.85454192136E+01  0.44449584837E+02  0.51850834207E+02  0.00000000000E+00 0. -1.
         21    1    1    2  504  502  0.25292671394E+02  0.85454192136E+01 -0.26512796875E+02  0.37625414469E+02  0.00000000000E+00 0.  1.
</event>
<event>
 4    1  0.3183954E+006  0.3186800E+02  0.7546771E-02  0.1404029E+00
         21   -1    0    0  502  501  0.00000000000E+00  0.00000000000E+00  0.26441572932E+02  0.26441572932E+02  0.00000000000E+00 0. -1.
         21   -1    0    0  503  502 -0.00000000000E+00 -0.00000000000E+00 -0.74859593593E+02  0.74859593593E+02  0.00000000000E+00 0. -1.
         21    1    1    2  503  504 -0.29891232313E+02  0.11049157300E+02 -0.59553245821E+02  0.67543754219E+02  0.00000000000E+00 0. -1.
         21    1    1    2  504  501  0.29891232313E+02 -0.11049157300E+02  0.11135225159E+02  0.33757412305E+02  0.00000000000E+00 0. -1.
</event>
<event>
 4    1  0.3183954E+006  0.4176457E+02  0.7546771E-02  0.1338445E+00
         21   -1    0    0  504  501  0.00000000000E+00  0.00000000000E+00  0.48998733613E+03  0.48998733613E+03  0.00000000000E+00 0. -1.
         21   -1    0    0  503  502 -0.00000000000E+00 -0.00000000000E+00 -0.42376659700E+01  0.42376659700E+01  0.00000000000E+00 0. -1.
         21    1    1    2  503  501  0.46846331404E+01 -0.41501010929E+02  0.34170474071E+03  0.34424759915E+03  0.00000000000E+00 0. -1.
         21    1    1    2  504  502 -0.46846331404E+01  0.41501010929E+02  0.14404492945E+03  0.14997740295E+03  0.00000000000E+00 0. -1.
</event>
<event>
 4    1  0.3183954E+006  0.2062090E+02  0.7546771E-02  0.1524747E+00
         21   -1    0    0  503  501  0.00000000000E+00  0.00000000000E+00  0.57748524472E+02  0.57748524472E+02  0.00000000000E+00 0.  1.
         21   -1    0    0  504  502 -0.00000000000E+00 -0.00000000000E+00 -0.83542470791E+02  0.83542470791E+02  0.00000000000E+00 0.  1.
         21    1    1    2  503  502  0.13637242674E+02  0.15467617311E+02  0.54563418692E+02  0.58329994277E+02  0.00000000000E+00 0.  1.
         21    1    1    2  504  501 -0.13637242674E+02 -0.15467617311E+02 -0.80357365011E+02  0.82961000985E+02  0.00000000000E+00 0.  1.
</event>
<event>
 4    1  0.3183954E+006  0.6360522E+02  0.7546771E-02  0.1248052E+00
         21   -1    0    0  504  501  0.00000000000E+00  0.00000000000E+00  0.17022822725E+02  0.17022822725E+02  0.00000000000E+00 0. -1.
         21   -1    0    0  503  502 -0.00000000000E+00 -0.00000000000E+00 -0.60140067070E+03  0.60140067070E+03  0.00000000000E+00 0.  1.
         21    1    1    2  503  501  0.40837260647E+02  0.48764143658E+02 -0.53266433741E+03  0.53644843174E+03  0.00000000000E+00 0.  1.
         21    1    1    2  504  502 -0.40837260647E+02 -0.48764143658E+02 -0.51713510565E+02  0.81975061688E+02  0.00000000000E+00 0. -1.
</event>
<event>
 4    1  0.3183954E+006  0.3478525E+02  0.7546771E-02  0.1382079E+00
         21   -1    0    0  504  501  0.00000000000E+00  0.00000000000E+00  0.69232674325E+02  0.69232674325E+02  0.00000000000E+00 0.  1.
         21   -1    0    0  503  502 -0.00000000000E+00 -0.00000000000E+00 -0.20987577209E+02  0.20987577209E+02  0.00000000000E+00 0.  1.
         21    1    1    2  503  501 -0.21510310497E+02 -0.27337160570E+02  0.56744567443E+01  0.35245045965E+02  0.00000000000E+00 0.  1.
         21    1    1    2  504  502  0.21510310497E+02  0.27337160570E+02  0.42570640372E+02  0.54975205569E+02  0.00000000000E+00 0.  1.
</event>
<event>
 4    1  0.3183954E+006  0.2148231E+02  0.7546771E-02  0.1512489E+00
         21   -1    0    0  503  501  0.00000000000E+00  0.00000000000E+00  0.10976217579E+02  0.10976217579E+02  0.00000000000E+00 0.  1.
         21   -1    0    0  504  502 -0.00000000000E+00 -0.00000000000E+00 -0.53114992092E+02  0.53114992092E+02  0.00000000000E+00 0.  1.
         21    1    1    2  503  502  0.20665404373E+02 -0.58677656542E+01 -0.64394211916E+01  0.22426675121E+02  0.00000000000E+00 0.  1.
         21    1    1    2  504  501 -0.20665404373E+02  0.58677656542E+01 -0.35699353322E+02  0.41664534550E+02  0.00000000000E+00 0.  1.
</event>
<event>
 4    1  0.3183954E+006  0.3587437E+02  0.7546771E-02  0.1374518E+00
         21   -1    0    0  504  501  0.00000000000E+00  0.00000000000E+00  0.40151076334E+02  0.40151076334E+02  0.00000000000E+00 0.  1.
         21   -1    0    0  501  502 -0.00000000000E+00 -0.00000000000E+00 -0.15482258142E+03  0.15482258142E+03  0.00000000000E+00 0. -1.
         21    1    1    2  503  502 -0.32239646749E+02 -0.15734537401E+02 -0.14414656580E+03  0.14854360613E+03  0.00000000000E+00 0. -1.
         21    1    1    2  504  503  0.32239646749E+02  0.15734537401E+02  0.29475060714E+02  0.46430051624E+02  0.00000000000E+00 0.  1.
</event>
<event>
 4    1  0.3183954E+006  0.2159954E+02  0.7546771E-02  0.1510874E+00
         21   -1    0    0  503  501  0.00000000000E+00  0.00000000000E+00  0.13077495519E+02  0.13077495519E+02  0.00000000000E+00 0. -1.
         21   -1    0    0  504  502 -0.00000000000E+00 -0.00000000000E+00 -0.95890701493E+02  0.95890701493E+02  0.00000000000E+00 0. -1.
         21    1    1    2  503  502  0.11968300349E+02 -0.17980548292E+02 -0.84581987083E+02  0.87296350834E+02  0.00000000000E+00 0. -1.
         21    1    1    2  504  501 -0.11968300349E+02  0.17980548292E+02  0.17687811085E+01  0.21671846177E+02  0.00000000000E+00 0. -1.
</event>
<event>
 4    1  0.3183954E+006  0.3020066E+02  0.7546771E-02  0.1417860E+00
         21   -1    0    0  503  501  0.00000000000E+00  0.00000000000E+00  0.11382144676E+03  0.11382144676E+03  0.00000000000E+00 0.  1.
         21   -1    0    0  504  502 -0.00000000000E+00 -0.00000000000E+00 -0.88836027936E+01  0.88836027936E+01  0.00000000000E+00 0.  1.
         21    1    1    2  503  502 -0.19362330157E+02  0.23177148015E+02  0.33265224508E+02  0.44929446700E+02  0.00000000000E+00 0.  1.
         21    1    1    2  504  501  0.19362330157E+02 -0.23177148015E+02  0.71672619454E+02  0.77775602850E+02  0.00000000000E+00 0.  1.
</event>
<event>
 4    1  0.3183954E+006  0.2114525E+02  0.7546771E-02  0.1517201E+00
         21   -1    0    0  504  501  0.00000000000E+00  0.00000000000E+00  0.17957525627E+02  0.17957525627E+02  0.00000000000E+00 0. -1.
         21   -1    0    0  503  502 -0.00000000000E+00 -0.00000000000E+00 -0.25146243432E+02  0.25146243432E+02  0.00000000000E+00 0. -1.
         21    1    1    2  503  501 -0.16964823384E+02 -0.12622051531E+02 -0.14566015917E+01  0.21195355753E+02  0.00000000000E+00 0. -1.
         21    1    1    2  504  502  0.16964823384E+02  0.12622051531E+02 -0.57321162132E+01  0.21908413306E+02  0.00000000000E+00 0. -1.
</event>
<event>
 4    1  0.3183954E+006  0.2021294E+02  0.7546771E-02  0.1530805E+00
         21   -1    0    0  504  501  0.00000000000E+00  0.00000000000E+00  0.23663694517E+02  0.23663694517E+02  0.00000000000E+00 0.  1.
         21   -1    0    0  501  502 -0.00000000000E+00 -0.00000000000E+00 -0.24425120602E+02  0.24425120602E+02  0.00000000000E+00 0.  1.
         21    1    1    2  503  502  0.17483156647E+02  0.10144080462E+02 -0.13398698469E+02  0.24250531034E+02  0.00000000000E+00 0.  1.
         21    1    1    2  504  503 -0.17483156647E+02 -0.10144080462E+02  0.12637272384E+02  0.23838284084E+02  0.00000000000E+00 0.  1.
</event>
<event>
 4    1  0.3183954E+006  0.2076373E+02  0.7546771E-02  0.1522665E+00
         21   -1    0    0  503  501  0.00000000000E+00  0.00000000000E+00  0.29455354607E+03  0.29455354607E+03  0.00000000000E+00 0. -1.
         21   -1    0    0  504  502 -0.00000000000E+00 -0.00000000000E+00 -0.39359666380E+02  0.39359666380E+02  0.00000000000E+00 0.  1.
         21    1    1    2  503  502  0.24438512617E+01 -0.20619405883E+02  0.29141980163E+03  0.29215857524E+03  0.00000000000E+00 0. -1.
         21    1    1    2  504  501 -0.24438512617E+01  0.20619405883E+02 -0.36225921937E+02  0.41754637206E+02  0.00000000000E+00 0.  1.
</event>
<event>
 4    1  0.3183954E+006  0.2726110E+02  0.7546771E-02  0.1445003E+00
         21   -1    0    0  502  501  0.00000000000E+00  0.00000000000E+00  0.10625470974E+03  0.10625470974E+03  0.00000000000E+00 0.  1.
         21   -1    0    0  504  502 -0.00000000000E+00 -0.00000000000E+00 -0.12460155854E+02  0.12460155854E+02  0.00000000000E+00 0.  1.
         21    1    1    2  503  501 -0.25715079001E+02  0.90499817615E+01  0.86211178452E+02  0.90418663715E+02  0.00000000000E+00 0.  1.
         21    1    1    2  504  503  0.25715079001E+02 -0.90499817615E+01  0.75833754369E+01  0.28296201882E+02  0.00000000000E+00 0.  1.
</event>
<event>
 4    1  0.3183954E+006  0.3081160E+02  0.7546771E-02  0.1412672E+00
         21   -1    0    0  502  501  0.00000000000E+00  0.00000000000E+00  0.13806421276E+03  0.13806421276E+03  0.00000000000E+00 0. -1.
         21   -1    0    0  503  502 -0.00000000000E+00 -0.00000000000E+00 -0.70241997361E+02  0.70241997361E+02  0.00000000000E+00 0.  1.
         21    1    1    2  503  504  0.28231552767E+02 -0.12342379546E+02 -0.65012809034E+02  0.71944563679E+02  0.00000000000E+00 0.  1.
         21    1    1    2  504  501 -0.28231552767E+02  0.12342379546E+02  0.13283502443E+03  0.13636164644E+03  0.00000000000E+00 0. -1.
</event>
<event>
 4    1  0.3183954E+006  0.3273829E+02  0.7546771E-02  0.1397201E+00
         21   -1    0    0  502  501  0.00000000000E+00  0.00000000000E+00  0.36483062342E+03  0.36483062342E+03  0.00000000000E+00 0. -1.
         21   -1    0    0  504  502 -0.00000000000E+00 -0.00000000000E+00 -0.79804759335E+02  0.79804759335E+02  0.00000000000E+00 0.  1.
         21    1    1    2  503  501  0.30317523454E+02 -0.12354889371E+02  0.36070025250E+03  0.36218292019E+03  0.00000000000E+00 0. -1.
         21    1    1    2  504  503 -0.30317523454E+02  0.12354889371E+02 -0.75674388422E+02  0.82452462564E+02  0.00000000000E+00 0.  1.
</event>
<event>
 4    1  0.3183954E+006  0.2531688E+02  0.7546771E-02  0.1465289E+00
         21   -1    0    0  504  501  0.00000000000E+00  0.00000000000E+00  0.25424076704E+02  0.25424076704E+02  0.00000000000E+00 0. -1.
         21   -1    0    0  503  502 -0.00000000000E+00 -0.00000000000E+00 -0.92027648379E+02  0.92027648379E+02  0.00000000000E+00 0. -1.
         21    1    1    2  503  501 -0.12022672998E+02  0.22280032727E+02 -0.83341564670E+02  0.87102014477E+02  0.00000000000E+00 0. -1.
         21    1    1    2  504  502  0.12022672998E+02 -0.22280032727E+02  0.16737992995E+02  0.30349710605E+02  0.00000000000E+00 0. -1.
</event>
<event>
 4    1  0.3183954E+006  0.3902197E+02  0.7546771E-02  0.1354314E+00
         21   -1    0    0  504  501  0.00000000000E+00  0.00000000000E+00  0.21790466107E+02  0.21790466107E+02  0.00000000000E+00 0. -1.
         21   -1    0    0  503  502 -0.00000000000E+00 -0.00000000000E+00 -0.80218690311E+02  0.80218690311E+02  0.00000000000E+00 0. -1.
         21    1    1    2  503  501  0.35487811054E+02  0.16227432406E+02 -0.47524919317E+02  0.61492538181E+02  0.00000000000E+00 0. -1.
         21    1    1    2  504  502 -0.35487811054E+02 -0.16227432406E+02 -0.10903304887E+02  0.40516618237E+02  0.00000000000E+00 0. -1.
</event>
<event>
 4    1  0.3183954E+006  0.2864743E+02  0.7546771E-02  0.1431726E+00
         21   -1    0    0  502  501  0.00000000000E+00  0.00000000000E+00  0.16741562857E+03  0.16741562857E+03  0.00000000000E+00 0. -1.
         21   -1    0    0  504  502 -0.00000000000E+00 -0.00000000000E+00 -0.19656752438E+02  0.19656752438E+02  0.00000000000E+00 0. -1.
         21    1    1    2  503  501  0.27183611344E+02  0.90402700267E+01  0.15491757050E+03  0.15754405371E+03  0.00000000000E+00 0. -1.
         21    1    1    2  504  503 -0.27183611344E+02 -0.90402700267E+01 -0.71586943746E+01  0.29528327298E+02  0.00000000000E+00 0. -1.
</event>
<event>
 4    1  0.3183954E+006  0.4049472E+02  0.7546771E-02  0.1345611E+00
         21   -1    0    0  503  501  0.00000000000E+00  0.00000000000E+00  0.26067510905E+03  0.26067510905E+03  0.00000000000E+00 0. -1.
         21   -1    0    0  504  502 -0.00000000000E+00 -0.00000000000E+00 -0.40115485942E+02  0.40115485942E+02  0.00000000000E+00 0. -1.
         21    1    1    2  503  502  0.36288349086E+02  0.17971596042E+02 -0.27820899150E+02  0.49130692781E+02  0.00000000000E+00 0. -1.
         21    1    1    2  504  501 -0.36288349086E+02 -0.17971596042E+02  0.24838052225E+03  0.25165990221E+03  0.00000000000E+00 0. -1.
</event>
<event>
 4    1  0.3183954E+006  0.2400681E+02  0.7546771E-02  0.1480228E+00
         21   -1    0    0  502  501  0.00000000000E+00  0.00000000000E+00  0.86650851926E+02  0.86650851926E+02  0.00000000000E+00 0.  1.
         21   -1    0    0  503  502 -0.00000000000E+00 -0.00000000000E+00 -0.38011981875E+02  0.38011981875E+02  0.00000000000E+00 0. -1.
         21    1    1    2  503  504  0.19302046994E+02  0.14274383766E+02 -0.32296748533E+02  0.40241856516E+02  0.00000000000E+00 0. -1.
         21    1    1    2  504  501 -0.19302046994E+02 -0.14274383766E+02  0.80935618585E+02  0.84420977285E+02  0.00000000000E+00 0.  1.
</event>
<event>
 4    1  0.3183954E+006  0.2286144E+02  0.7546771E-02  0.1494245E+00
         21   -1    0    0  503  501  0.00000000000E+00  0.00000000000E+00  0.11348275941E+01  0.11348275941E+01  0.00000000000E+00 0. -1.
         21   -1    0    0  504  502 -0.00000000000E+00 -0.00000000000E+00 -0.46789467524E+03  0.46789467524E+03  0.00000000000E+00 0.  1.
         21    1    1    2  503  502  0.15173487734E+01  0.22811031115E+02 -0.26276086853E+03  0.26375352039E+03  0.00000000000E+00 0. -1.
         21    1    1    2  504  501 -0.15173487734E+01 -0.22811031115E+02 -0.20399897912E+03  0.20527598245E+03  0.00000000000E+00 0.  1.
</event>
<event>
 4    1  0.3183954E+006  0.2045549E+02  0.7546771E-02  0.1527183E+00
         21   -1    0    0  503  501  0.00000000000E+00  0.00000000000E+00  0.81568345109E+01  0.81568345109E+01  0.00000000000E+00 0.  1.
         21   -1    0    0  504  502 -0.00000000000E+00 -0.00000000000E+00 -0.57746394754E+02  0.57746394754E+02  0.00000000000E+00 0. -1.
         21    1    1    2  503  502  0.15794821311E+02 -0.12998102969E+02 -0.35806351542E+02  0.41237384396E+02  0.00000000000E+00 0.  1.
         21    1    1    2  504  501 -0.15794821311E+02  0.12998102969E+02 -0.13783208701E+02  0.24665844870E+02  0.00000000000E+00 0. -1.
</event>
<event>
 4    1  0.3183954E+006  0.2121222E+02  0.7546771E-02  0.1516256E+00
         21   -1    0    0  503  501  0.00000000000E+00  0.00000000000E+00  0.27400996083E+01  0.27400996083E+01  0.00000000000E+00 0.  1.
         21   -1    0    0  504  502 -0.00000000000E+00 -0.00000000000E+00 -0.17053674567E+03  0.17053674567E+03  0.00000000000E+00 0.  1.
         21    1    1    2  503  502  0.17755929436E+02  0.11605398977E+02 -0.67213962386E+02  0.70481735614E+02  0.00000000000E+00 0.  1.
         21    1    1    2  504  501 -0.17755929436E+02 -0.11605398977E+02 -0.10058268368E+03  0.10279510967E+03  0.00000000000E+00 0.  1.
</event>
<event>
 4    1  0.3183954E+006  0.2318370E+02  0.7546771E-02  0.1490204E+00
         21   -1    0    0  502  501  0.00000000000E+00  0.00000000000E+00  0.44425735493E+02  0.44425735493E+02  0.00000000000E+00 0.  1.
         21   -1    0    0  503  502 -0.00000000000E+00 -0.00000000000E+00 -0.87995063283E+02  0.87995063283E+02  0.00000000000E+00 0. -1.
         21    1    1    2  503  504  0.22803133240E+02 -0.41834356700E+01 -0.83275182628E+02  0.86442119718E+02  0.00000000000E+00 0. -1.
         21    1    1    2  504  501 -0.22803133240E+02  0.41834356700E+01  0.39705854838E+02  0.45978679058E+02  0.00000000000E+00 0.  1.
</event>
<event>
 4    1  0.3183954E+006  0.2124384E+02  0.7546771E-02  0.1515812E+00
         21   -1    0    0  503  501  0.00000000000E+00  0.00000000000E+00  0.57626008407E+02  0.57626008407E+02  0.00000000000E+00 0. -1.
         21   -1    0    0  504  502 -0.00000000000E+00 -0.00000000000E+00 -0.78392214677E+01  0.78392214677E+01  0.00000000000E+00 0.  1.
         21    1    1    2  503  502  0.11372596029E+02  0.17943379335E+02  0.23869242724E+02  0.31953740792E+02  0.00000000000E+00 0. -1.
         21    1    1    2  504  501 -0.11372596029E+02 -0.17943379335E+02  0.25917544216E+02  0.33511489083E+02  0.00000000000E+00 0.  1.
</event>
<event>
 4    1  0.3183954E+006  0.2187469E+02  0.7546771E-02  0.1507134E+00
         21   -1    0    0  504  501  0.00000000000E+00  0.00000000000E+00  0.57657097866E+01  0.57657097866E+01  0.00000000000E+00 0.  1.
         21   -1    0    0  501  502 -0.00000000000E+00 -0.00000000000E+00 -0.87888484578E+02  0.87888484578E+02  0.00000000000E+00 0.  1.
         21    1    1    2  503  502  0.21732553882E+02  0.24896466097E+01 -0.52115302226E+02  0.56519969609E+02  0.00000000000E+00 0.  1.
         21    1    1    2  504  503 -0.21732553882E+02 -0.24896466097E+01 -0.30007472566E+02  0.37134224756E+02  0.00000000000E+00 0.  1.
</event>
<event>
 4    1  0.3183954E+006  0.2554771E+02  0.7546771E-02  0.1462768E+00
         21   -1    0    0  503  501  0.00000000000E+00  0.00000000000E+00  0.26634641831E+02  0.26634641831E+02  0.00000000000E+00 0.  1.
         21   -1    0    0  504  502 -0.00000000000E+00 -0.00000000000E+00 -0.65465913550E+02  0.65465913550E+02  0.00000000000E+00 0.  1.
         21    1    1    2  503  502  0.21750673698E+02  0.13401262163E+02  0.17010131584E+02  0.30692510657E+02  0.00000000000E+00 0.  1.
         21    1    1    2  504  501 -0.21750673698E+02 -0.13401262163E+02 -0.55841403303E+02  0.61408044724E+02  0.00000000000E+00 0.  1.
</event>
<event>
 4    1  0.3183954E+006  0.3136090E+02  0.7546771E-02  0.1408128E+00
         21   -1    0    0  504  501  0.00000000000E+00  0.00000000000E+00  0.29910226283E+03  0.29910226283E+03  0.00000000000E+00 0. -1.
         21   -1    0    0  503  502 -0.00000000000E+00 -0.00000000000E+00 -0.36226684701E+01  0.36226684701E+01  0.00000000000E+00 0. -1.
         21    1    1    2  503  501  0.13779187707E+01 -0.31330614047E+02  0.19373217708E+03  0.19625407632E+03  0.00000000000E+00 0. -1.
         21    1    1    2  504  502 -0.13779187707E+01  0.31330614047E+02  0.10174741728E+03  0.10647085497E+03  0.00000000000E+00 0. -1.
</event>
<event>
 4    1  0.3183954E+006  0.2548056E+02  0.7546771E-02  0.1463499E+00
         21   -1    0    0  503  501  0.00000000000E+00  0.00000000000E+00  0.48565974739E+02  0.48565974739E+02  0.00000000000E+00 0.  1.
         21   -1    0    0  504  502 -0.00000000000E+00 -0.00000000000E+00 -0.37589899967E+02  0.37589899967E+02  0.00000000000E+00 0.  1.
         21    1    1    2  503  502 -0.16943451177E+02 -0.19030983121E+02 -0.29091412710E+02  0.38672589127E+02  0.00000000000E+00 0.  1.
         21    1    1    2  504  501  0.16943451177E+02  0.19030983121E+02  0.40067487482E+02  0.47483285580E+02  0.00000000000E+00 0.  1.
</event>
<event>
 4    1  0.3183954E+006  0.2339540E+02  0.7546771E-02  0.1487592E+00
         21   -1    0    0  503  501  0.00000000000E+00  0.00000000000E+00  0.48151765106E+02  0.48151765106E+02  0.00000000000E+00 0.  1.
         21   -1    0    0  501  502 -0.00000000000E+00 -0.00000000000E+00 -0.14588316625E+02  0.14588316625E+02  0.00000000000E+00 0.  1.
         21    1    1    2  503  504 -0.11965052802E+02 -0.20104279799E+02  0.31522637277E+02  0.39255843077E+02  0.00000000000E+00 0.  1.
         21    1    1    2  504  502  0.11965052802E+02  0.20104279799E+02  0.20408112044E+01  0.23484238654E+02  0.00000000000E+00 0.  1.
</event>
<event>
 4    1  0.3183954E+006  0.2017746E+02  0.7546771E-02  0.1531340E+00
         21   -1    0    0  503  501  0.00000000000E+00  0.00000000000E+00  0.26893774958E+03  0.26893774958E+03  0.00000000000E+00 0.  1.
         21   -1    0    0  504  502 -0.00000000000E+00 -0.00000000000E+00 -0.17588416458E+01  0.17588416458E+01  0.00000000000E+00 0.  1.
         21    1    1    2  503  502 -0.19855872439E+02  0.35880935391E+01  0.18410434621E+03  0.18520675036E+03  0.00000000000E+00 0.  1.
         21    1    1    2  504  501  0.19855872439E+02 -0.35880935391E+01  0.83074561727E+02  0.85489840868E+02  0.00000000000E+00 0.  1.
</event>
<event>
 4    1  0.3183954E+006  0.2117164E+02  0.7546771E-02  0.1516828E+00
         21   -1    0    0  504  501  0.00000000000E+00  0.00000000000E+00  0.21663398652E+02  0.21663398652E+02  0.00000000000E+00 0.  1.
         21   -1    0    0  503  502 -0.00000000000E+00 -0.00000000000E+00 -0.32518394979E+03  0.32518394979E+03  0.00000000000E+00 0.  1.
         21    1    1    2  503  501  0.19605160566E+02 -0.79922479102E+01  0.16055359634E+02  0.26570903643E+02  0.00000000000E+00 0.  1.
         21    1    1    2  504  502 -0.19605160566E+02  0.79922479102E+01 -0.31957591077E+03  0.32027644479E+03  0.00000000000E+00 0.  1.
</event>
<event>
 4    1  0.3183954E+006  0.2813039E+02  0.7546771E-02  0.1436572E+00
         21   -1    0    0  503  501  0.00000000000E+00  0.00000000000E+00  0.30053437287E+02  0.30053437287E+02  0.00000000000E+00 0. -1.
         21   -1    0    0  501  502 -0.00000000000E+00 -0.00000000000E+00 -0.65261487053E+02  0.65261487053E+02  0.00000000000E+00 0.  1.
         21    1    1    2  503  504  0.24797842951E+02 -0.13281034628E+02  0.19204695366E+02  0.34060816490E+02  0.00000000000E+00 0. -1.
         21    1    1    2  504  502 -0.24797842951E+02  0.13281034628E+02 -0.54412745132E+02  0.61254107851E+02  0.00000000000E+00 0.  1.
</event>
<event>
 4    1  0.3183954E+006  0.3095676E+02  0.7546771E-02  0.1411460E+00
         21   -1    0    0  504  501  0.00000000000E+00  0.00000000000E+00  0.58663360735E+02  0.58663360735E+02  0.00000000000E+00 0. -1.
         21   -1    0    0  503  502 -0.00000000000E+00 -0.00000000000E+00 -0.16382083016E+02  0.16382083016E+02  0.00000000000E+00 0. -1.
         21    1    1    2  503  501  0.30921887197E+02 -0.14688972875E+01  0.23132196013E+02  0.38644783081E+02  0.00000000000E+00 0. -1.
         21    1    1    2  504  502 -0.30921887197E+02  0.14688972875E+01  0.19149081706E+02  0.36400660670E+02  0.00000000000E+00 0. -1.
</event>
<event>
 4    1  0.3183954E+006  0.2037026E+02  0.7546771E-02  0.1528449E+00
         21   -1    0    0  502  501  0.00000000000E+00  0.00000000000E+00  0.74395937148E+03  0.74395937148E+03  0.00000000000E+00 0.  1.
         21   -1    0    0  503  502 -0.00000000000E+00 -0.00000000000E+00 -0.14876570302E+02  0.14876570302E+02  0.00000000000E+00 0. -1.
         21    1    1    2  503  504 -0.12564412684E+02 -0.16033802608E+02 -0.76960169037E+01  0.21775581929E+02  0.00000000000E+00 0. -1.
         21    1    1    2  504  501  0.12564412684E+02  0.16033802608E+02  0.73677881808E+03  0.73706035985E+03  0.00000000000E+00 0.  1.
</event>
<event>
 4    1  0.3183954E+006  0.2763504E+02  0.7546771E-02  0.1441331E+00
         21   -1    0    0  504  501  0.00000000000E+00  0.00000000000E+00  0.27316949581E+03  0.27316949581E+03  0.00000000000E+00 0.  1.
         21   -1    0    0  503  502 -0.00000000000E+00 -0.00000000000E+00 -0.31412296437E+02  0.31412296437E+02  0.00000000000E+00 0. -1.
         21    1    1    2  503  501  0.23031580701E+02  0.15272258911E+02 -0.24477482593E+02  0.36916700231E+02  0.00000000000E+00 0. -1.
         21    1    1    2  504  502 -0.23031580701E+02 -0.15272258911E+02  0.26623468197E+03  0.26766509202E+03  0.00000000000E+00 0.  1.
</event>
<event>
 4    1  0.3183954E+006  0.2393435E+02  0.7546771E-02  0.1481087E+00
         21   -1    0    0  504  501  0.00000000000E+00  0.00000000000E+00  0.46196810212E+02  0.46196810212E+02  0.00000000000E+00 0.  1.
         21   -1    0    0  501  502 -0.00000000000E+00 -0.00000000000E+00 -0.18062835381E+02  0.18062835381E+02  0.00000000000E+00 0. -1.
         21    1    1    2  503  502 -0.76024921856E+01  0.22694828652E+02 -0.39226249115E+01  0.24253662016E+02  0.00000000000E+00 0. -1.
         21    1    1    2  504  503  0.76024921856E+01 -0.22694828652E+02  0.32056599743E+02  0.40005983578E+02  0.00000000000E+00 0.  1.
</event>
<event>
 4    1  0.3183954E+006  0.3731285E+02  0.7546771E-02  0.1364995E+00
         21   -1    0    0  504  501  0.00000000000E+00  0.00000000000E+00  0.14995109757E+02  0.14995109757E+02  0.00000000000E+00 0. -1.
         21   -1    0    0  503  502 -0.00000000000E+00 -0.00000000000E+00 -0.23663832789E+03  0.23663832789E+03  0.00000000000E+00 0.  1.
         21    1    1    2  503  501 -0.15103244227E+02  0.34119511674E+02 -0.20889751961E+03  0.21220372938E+03  0.00000000000E+00 0.  1.
         21    1    1    2  504  502  0.15103244227E+02 -0.34119511674E+02 -0.12745698519E+02  0.39429708264E+02  0.00000000000E+00 0. -1.
</event>
<event>
 4    1  0.3183954E+006  0.3234854E+02  0.7546771E-02  0.1400228E+00
         21   -1    0    0  503  501  0.00000000000E+00  0.00000000000E+00  0.10869326850E+03  0.10869326850E+03  0.00000000000E+00 0.  1.
         21   -1    0    0  504  502 -0.00000000000E+00 -0.00000000000E+00 -0.11589487914E+02  0.11589487914E+02  0.00000000000E+00 0.  1.
         21    1    1    2  503  502  0.23698765410E+02  0.22018094834E+02  0.23805823728E+02  0.40163979204E+02  0.00000000000E+00 0.  1.
         21    1    1    2  504  501 -0.23698765410E+02 -0.22018094834E+02  0.73297956855E+02  0.80118777207E+02  0.00000000000E+00 0.  1.
</event>
<event>
 4    1  0.3183954E+006  0.2477547E+02  0.7546771E-02  0.1471331E+00
         21   -1    0    0  504  501  0.00000000000E+00  0.00000000000E+00  0.50852125810E+03  0.50852125810E+03  0.00000000000E+00 0. -1.
         21   -1    0    0  501  502 -0.00000000000E+00 -0.00000000000E+00 -0.44765155063E+01  0.44765155063E+01  0.00000000000E+00 0. -1.
         21    1    1    2  503  502 -0.11428939803E+02  0.21981885968E+02  0.32816557206E+02  0.41118735420E+02  0.00000000000E+00 0. -1.
         21    1    1    2  504  503  0.11428939803E+02 -0.21981885968E+02  0.47122818539E+03  0.47187903819E+03  0.00000000000E+00 0. -1.
</event>
<event>
 4    1  0.3183954E+006  0.2594260E+02  0.7546771E-02  0.1458529E+00
         21   -1    0    0  503  501  0.00000000000E+00  0.00000000000E+00  0.17998195125E+02  0.17998195125E+02  0.00000000000E+00 0.  1.
         21   -1    0    0  504  502 -0.00000000000E+00 -0.00000000000E+00 -0.44127029898E+02  0.44127029898E+02  0.00000000000E+00 0.  1.
         21    1    1    2  503  502  0.24661204874E+02  0.80525530500E+01 -0.93048909360E+00  0.25959284397E+02  0.00000000000E+00 0.  1.
         21    1    1    2  504  501 -0.24661204874E+02 -0.80525530500E+01 -0.25198345680E+02  0.36165940627E+02  0.00000000000E+00 0.  1.
</event>
<event>
 4    1  0.3183954E+006  0.2409164E+02  0.7546771E-02  0.1479227E+00
         21   -1    0    0  503  501  0.00000000000E+00  0.00000000000E+00  0.29179256688E+02  0.29179256688E+02  0.00000000000E+00 0.  1.
         21   -1    0    0  504  502 -0.00000000000E+00 -0.00000000000E+00 -0.21033873543E+03  0.21033873543E+03  0.00000000000E+00 0.  1.
         21    1    1    2  503  502  0.14807191980E+02 -0.19004051871E+02 -0.20453551275E+03  0.20594946686E+03  0.00000000000E+00 0.  1.
         21    1    1    2  504  501 -0.14807191980E+02  0.19004051871E+02  0.23376034013E+02  0.33568525258E+02  0.00000000000E+00 0.  1.
</event>
<event>
 4    1  0.3183954E+006  0.2062748E+02  0.7546771E-02  0.1524651E+00
         21   -1    0    0  504  501  0.00000000000E+00  0.00000000000E+00  0.33409892842E+01  0.33409892842E+01  0.00000000000E+00 0. -1.
         21   -1    0    0  503  502 -0.00000000000E+00 -0.00000000000E+00 -0.21886014116E+03  0.21886014116E+03  0.00000000000E+00 0.  1.
         21    1    1    2  503  501  0.62679684697E+01 -0.19652110025E+02 -0.35921473903E+02  0.41422761189E+02  0.00000000000E+00 0. -1.
         21    1    1    2  504  502 -0.62679684697E+01  0.19652110025E+02 -0.17959767797E+03  0.18077836925E+03  0.00000000000E+00 0.  1.
</event>
<event>
 4    1  0.3183954E+006  0.2105234E+02  0.7546771E-02  0.1518519E+00
         21   -1    0    0  503  501  0.00000000000E+00  0.00000000000E+00  0.12395730964E+03  0.12395730964E+03  0.00000000000E+00 0. -1.
         21   -1    0    0  504  502 -0.00000000000E+00 -0.00000000000E+00 -0.35468172987E+02  0.35468172987E+02  0.00000000000E+00 0. -1.
         21    1    1    2  503  502 -0.19704174525E+02 -0.74125783178E+01 -0.31343677235E+02  0.37757474937E+02  0.00000000000E+00 0. -1.
         21    1    1    2  504  501  0.19704174525E+02  0.74125783178E+01  0.11983281388E+03  0.12166800769E+03  0.00000000000E+00 0. -1.
</event>
<event>
 4    1  0.3183954E+006  0.2383784E+02  0.7546771E-02  0.1482237E+00
         21   -1    0    0  504  501  0.00000000000E+00  0.00000000000E+00  0.64313589107E+00  0.64313589107E+00  0.00000000000E+00 0. -1.
         21   -1    0    0  501  502 -0.00000000000E+00 -0.00000000000E+00 -0.91865408434E+03  0.91865408434E+03  0.00000000000E+00 0.  1.
         21    1    1    2  503  502 -0.36298236572E+01 -0.23559856400E+02 -0.54885820949E+03  0.54937562431E+03  0.00000000000E+00 0.  1.
         21    1    1    2  504  503  0.36298236572E+01  0.23559856400E+02 -0.36915273896E+03  0.36992159593E+03  0.00000000000E+00 0. -1.
</event>
<event>
 4    1  0.3183954E+006  0.2048905E+02  0.7546771E-02  0.1526686E+00
         21   -1    0    0  503  501  0.00000000000E+00  0.00000000000E+00  0.45128008809E+01  0.45128008809E+01  0.00000000000E+00 0.  1.
         21   -1    0    0  504  502 -0.00000000000E+00 -0.00000000000E+00 -0.21605440970E+03  0.21605440970E+03  0.00000000000E+00 0.  1.
         21    1    1    2  503  502 -0.20422487981E+02  0.16501912478E+01 -0.18899214376E+03  0.19009953064E+03  0.00000000000E+00 0.  1.
         21    1    1    2  504  501  0.20422487981E+02 -0.16501912478E+01 -0.22549465056E+02  0.30467679938E+02  0.00000000000E+00 0.  1.
</event>
<event>
 4    1  0.3183954E+006  0.2156079E+02  0.7546771E-02  0.1511407E+00
         21   -1    0    0  503  501  0.00000000000E+00  0.00000000000E+00  0.25963341772E+02  0.25963341772E+02  0.00000000000E+00 0. -1.
         21   -1    0    0  504  502 -0.00000000000E+00 -0.00000000000E+00 -0.19192121183E+02  0.19192121183E+02  0.00000000000E+00 0.  1.
         21    1    1    2  503  502  0.17089004501E+02 -0.13146621966E+02 -0.24618435991E+01  0.21700885187E+02  0.00000000000E+00 0.  1.
         21    1    1    2  504  501 -0.17089004501E+02  0.13146621966E+02  0.92330641885E+01  0.23454577768E+02  0.00000000000E+00 0. -1.
</event>
<event>
 4    1  0.3183954E+006  0.2033682E+02  0.7546771E-02  0.1528948E+00
         21   -1    0    0  502  501  0.00000000000E+00  0.00000000000E+00  0.10329272744E+03  0.10329272744E+03  0.00000000000E+00 0. -1.
         21   -1    0    0  504  502 -0.00000000000E+00 -0.00000000000E+00 -0.76955415037E+01  0.76955415037E+01  0.00000000000E+00 0. -1.
         21    1    1    2  503  501 -0.19196738219E+02  0.67135393881E+01  0.86233874297E+02  0.88599477683E+02  0.00000000000E+00 0. -1.
         21    1    1    2  504  503  0.19196738219E+02 -0.67135393881E+01  0.93633116433E+01  0.22388791265E+02  0.00000000000E+00 0. -1.
</event>
<event>
 4    1  0.3183954E+006  0.2237226E+02  0.7546771E-02  0.1500535E+00
         21   -1    0    0  503  501  0.00000000000E+00  0.00000000000E+00  0.38934570505E+01  0.38934570505E+01  0.00000000000E+00 0. -1.
         21   -1    0    0  504  502 -0.00000000000E+00 -0.00000000000E+00 -0.15827534978E+03  0.15827534978E+03  0.00000000000E+00 0.  1.
         21    1    1    2  503  502 -0.21024116123E+02  0.76488368886E+01 -0.11232816761E+03  0.11453442890E+03  0.00000000000E+00 0.  1.
         21    1    1    2  504  501  0.21024116123E+02 -0.76488368886E+01 -0.42053725118E+02  0.47634377930E+02  0.00000000000E+00 0. -1.
</event>
<event>
 4    1  0.3183954E+006  0.2053376E+02  0.7546771E-02  0.1526027E+00
         21   -1    0    0  504  501  0.00000000000E+00  0.00000000000E+00  0.50081193980E+02  0.50081193980E+02  0.00000000000E+00 0.  1.
         21   -1    0    0  503  502 -0.00000000000E+00 -0.00000000000E+00 -0.47944149738E+02  0.47944149738E+02  0.00000000000E+00 0. -1.
         21    1    1    2  503  501 -0.89853832736E+01  0.18463431730E+02  0.45570275889E+02  0.49982851743E+02  0.00000000000E+00 0.  1.
         21    1    1    2  504  502  0.89853832736E+01 -0.18463431730E+02 -0.43433231647E+02  0.48042491975E+02  0.00000000000E+00 0. -1.
</event>
<event>
 4    1  0.3183954E+006  0.4266549E+02  0.7546771E-02  0.1333536E+00
         21   -1    0    0  503  501  0.00000000000E+00  0.00000000000E+00  0.40946369289E+02  0.40946369289E+02  0.00000000000E+00 0.  1.
         21   -1    0    0  504  502 -0.00000000000E+00 -0.00000000000E+00 -0.68612005640E+02  0.68612005640E+02  0.00000000000E+00 0. -1.
         21    1    1    2  503  502  0.19041685019E+02  0.38180598133E+02 -0.46335639003E+02  0.62986786582E+02  0.00000000000E+00 0. -1.
         21    1    1    2  504  501 -0.19041685019E+02 -0.38180598133E+02  0.18670002652E+02  0.46571588347E+02  0.00000000000E+00 0.  1.
</event>
<event>
 4    1  0.3183954E+006  0.2844809E+02  0.7546771E-02  0.1433580E+00
         21   -1    0    0  502  501  0.00000000000E+00  0.00000000000E+00  0.65068614013E+02  0.65068614013E+02  0.00000000000E+00 0. -1.
         21   -1    0    0  503  502 -0.00000000000E+00 -0.00000000000E+00 -0.14912193227E+02  0.14912193227E+02  0.00000000000E+00 0. -1.
         21    1    1    2  503  504  0.25118420466E+02 -0.13355101969E+02  0.87874337682E+01  0.29774364603E+02  0.00000000000E+00 0. -1.
         21    1    1    2  504  501 -0.25118420466E+02  0.13355101969E+02  0.41368987018E+02  0.50206442637E+02  0.00000000000E+00 0. -1.
</event>
<event>
 4    1  0.3183954E+006  0.3146218E+02  0.7546771E-02  0.1407302E+00
         21   -1    0    0  504  501  0.00000000000E+00  0.00000000000E+00  0.22181906976E+02  0.22181906976E+02  0.00000000000E+00 0.  1.
         21   -1    0    0  501  502 -0.00000000000E+00 -0.00000000000E+00 -0.14204004118E+03  0.14204004118E+03  0.00000000000E+00 0.  1.
         21    1    1    2  503  502 -0.29509060721E+02 -0.10912556029E+02 -0.12792903750E+03  0.13174106110E+03  0.00000000000E+00 0.  1.
         21    1    1    2  504  503  0.29509060721E+02  0.10912556029E+02  0.80709033005E+01  0.32480887054E+02  0.00000000000E+00 0.  1.
</event>
<event>
 4    1  0.3183954E+006  0.3837345E+02  0.7546771E-02  0.1358290E+00
         21   -1    0    0  503  501  0.00000000000E+00  0.00000000000E+00  0.46764099284E+02  0.46764099284E+02  0.00000000000E+00 0.  1.
         21   -1    0    0  504  502 -0.00000000000E+00 -0.00000000000E+00 -0.73930278781E+02  0.73930278781E+02  0.00000000000E+00 0.  1.
         21    1    1    2  503  502 -0.16731403114E+02  0.34533775714E+02  0.32140859832E+02  0.50055533021E+02  0.00000000000E+00 0.  1.
         21    1    1    2  504  501  0.16731403114E+02 -0.34533775714E+02 -0.59307039329E+02  0.70638845044E+02  0.00000000000E+00 0.  1.
</event>
<event>
 4    1  0.3183954E+006  0.3432825E+02  0.7546771E-02  0.1385348E+00
         21   -1    0    0  504  501  0.00000000000E+00  0.00000000000E+00  0.23961819050E+04  0.23961819050E+04  0.00000000000E+00 0. -1.
         21   -1    0    0  503  502 -0.00000000000E+00 -0.00000000000E+00 -0.16703112826E+01  0.16703112826E+01  0.00000000000E+00 0. -1.
         21    1    1    2  503  501  0.33203230039E+02 -0.87163370218E+01  0.22043303007E+04  0.22045975831E+04  0.00000000000E+00 0. -1.
         21    1    1    2  504  502 -0.33203230039E+02  0.87163370218E+01  0.19018129301E+03  0.19325463313E+03  0.00000000000E+00 0. -1.
</event>
<event>
 4    1  0.3183954E+006  0.2196602E+02  0.7546771E-02  0.1505907E+00
         21   -1    0    0  504  501  0.00000000000E+00  0.00000000000E+00  0.20600999984E+03  0.20600999984E+03  0.00000000000E+00 0. -1.
         21   -1    0    0  501  502 -0.00000000000E+00 -0.00000000000E+00 -0.58650709006E+01  0.58650709006E+01  0.00000000000E+00 0.  1.
         21    1    1    2  503  502  0.41489671340E+01 -0.21570626562E+02  0.17968369902E+02  0.28379009417E+02  0.00000000000E+00 0.  1.
         21    1    1    2  504  503 -0.41489671340E+01  0.21570626562E+02  0.18217655903E+03  0.18349606132E+03  0.00000000000E+00 0. -1.
</event>
<event>
 4    1  0.3183954E+006  0.2680207E+02  0.7546771E-02  0.1449607E+00
         21   -1    0    0  503  501  0.00000000000E+00  0.00000000000E+00  0.10271535066E+03  0.10271535066E+03  0.00000000000E+00 0. -1.
         21   -1    0    0  501  502 -0.00000000000E+00 -0.00000000000E+00 -0.63691284774E+02  0.63691284774E+02  0.00000000000E+00 0. -1.
         21    1    1    2  503  504 -0.26550470502E+02 -0.36637834251E+01  0.98014494541E+02  0.10161295160E+03  0.00000000000E+00 0. -1.
         21    1    1    2  504  502  0.26550470502E+02  0.36637834251E+01 -0.58990428651E+02  0.64793683838E+02  0.00000000000E+00 0. -1.
</event>
<event>
 4    1  0.3183954E+006  0.2323525E+02  0.7546771E-02  0.1489565E+00
         21   -1    0    0  504  501  0.00000000000E+00  0.00000000000E+00  0.62379484004E+02  0.62379484004E+02  0.00000000000E+00 0.  1.
         21   -1    0    0  503  502 -0.00000000000E+00 -0.00000000000E+00 -0.10308725221E+03  0.10308725221E+03  0.00000000000E+00 0.  1.
         21    1    1    2  503  501  0.98215728408E+01 -0.21057386163E+02 -0.99538177723E+02  0.10221411659E+03  0.00000000000E+00 0.  1.
         21    1    1    2  504  502 -0.98215728408E+01  0.21057386163E+02  0.58830409520E+02  0.63252619625E+02  0.00000000000E+00 0.  1.
</event>
<event>
 4    1  0.3183954E+006  0.2181213E+02  0.7546771E-02  0.1507978E+00
         21   -1    0    0  504  501  0.00000000000E+00  0.00000000000E+00  0.11545128774E+02  0.11545128774E+02  0.00000000000E+00 0. -1.
         21   -1    0    0  501  502 -0.00000000000E+00 -0.00000000000E+00 -0.20159225639E+03  0.20159225639E+03  0.00000000000E+00 0.  1.
         21    1    1    2  503  502  0.11115298424E+02  0.18767502768E+02 -0.19007781550E+03  0.19132523348E+03  0.00000000000E+00 0.  1.
         21    1    1    2  504  503 -0.11115298424E+02 -0.18767502768E+02  0.30687892288E-01  0.21812151681E+02  0.00000000000E+00 0. -1.
</event>
<event>
 4    1  0.3183954E+006  0.3763071E+02  0.7546771E-02  0.1362958E+00
         21   -1    0    0  502  501  0.00000000000E+00  0.00000000000E+00  0.15664953160E+03  0.15664953160E+03  0.00000000000E+00 0. -1.
         21   -1    0    0  504  502 -0.00000000000E+00 -0.00000000000E+00 -0.72869582223E+02  0.72869582223E+02  0.00000000000E+00 0. -1.
         21    1    1    2  503  501 -0.37471847221E+02  0.34541472064E+01  0.14929574663E+03  0.15396522474E+03  0.00000000000E+00 0. -1.
         21    1    1    2  504  503  0.37471847221E+02 -0.34541472064E+01 -0.65515797250E+02  0.75553889088E+02  0.00000000000E+00 0. -1.
</event>
<event>
 4    1  0.3183954E+006  0.2642246E+02  0.7546771E-02  0.1453497E+00
         21   -1    0    0  504  501  0.00000000000E+00  0.00000000000E+00  0.16608967540E+02  0.16608967540E+02  0.00000000000E+00 0.  1.
         21   -1    0    0  503  502 -0.00000000000E+00 -0.00000000000E+00 -0.56599373620E+02  0.56599373620E+02  0.00000000000E+00 0.  1.
         21    1    1    2  503  501 -0.14538154242E+02  0.22063285407E+02 -0.14265265493E+01  0.26460942344E+02  0.00000000000E+00 0.  1.
         21    1    1    2  504  502  0.14538154242E+02 -0.22063285407E+02 -0.38563879530E+02  0.46747398816E+02  0.00000000000E+00 0.  1.
</event>
<event>
 4    1  0.3183954E+006  0.8145030E+02  0.7546771E-02  0.1200520E+00
         21   -1    0    0  503  501  0.00000000000E+00  0.00000000000E+00  0.14175586951E+03  0.14175586951E+03  0.00000000000E+00 0.  1.
         21   -1    0    0  504  502 -0.00000000000E+00 -0.00000000000E+00 -0.57685406219E+02  0.57685406219E+02  0.00000000000E+00 0.  1.
         21    1    1    2  503  502 -0.74258721326E+00  0.81446912320E+02 -0.12836992675E+01  0.81460412754E+02  0.00000000000E+00 0.  1.
         21    1    1    2  504  501  0.74258721326E+00 -0.81446912320E+02  0.85354162556E+02  0.11798086297E+03  0.00000000000E+00 0.  1.
</event>
<event>
 4    1  0.3183954E+006  0.2205403E+02  0.7546771E-02  0.1504731E+00
         21   -1    0    0  504  501  0.00000000000E+00  0.00000000000E+00  0.16234429526E+02  0.16234429526E+02  0.00000000000E+00 0. -1.
         21   -1    0    0  503  502 -0.00000000000E+00 -0.00000000000E+00 -0.37209481203E+02  0.37209481203E+02  0.00000000000E+00 0. -1.
         21    1    1    2  503  501 -0.18551487587E+02 -0.11925717091E+02  0.13075459832E+01  0.22092761175E+02  0.00000000000E+00 0. -1.
         21    1    1    2  504  502  0.18551487587E+02  0.11925717091E+02 -0.22282597660E+02  0.31351149553E+02  0.00000000000E+00 0. -1.
</event>
<event>
 4    1  0.3183954E+006  0.2069625E+02  0.7546771E-02  0.1523646E+00
         21   -1    0    0  503  501  0.00000000000E+00  0.00000000000E+00  0.20466425068E+02  0.20466425068E+02  0.00000000000E+00 0.  1.
         21   -1    0    0  504  502 -0.00000000000E+00 -0.00000000000E+00 -0.22070441576E+02  0.22070441576E+02  0.00000000000E+00 0.  1.
         21    1    1    2  503  502 -0.33264588663E+01  0.20427172220E+02  0.40355139802E+01  0.21086015901E+02  0.00000000000E+00 0.  1.
         21    1    1    2  504  501  0.33264588663E+01 -0.20427172220E+02 -0.56395304880E+01  0.21450850743E+02  0.00000000000E+00 0.  1.
</event>
<event>
 4    1  0.3183954E+006  0.2982790E+02  0.7546771E-02  0.1421098E+00
         21   -1    0    0  504  501  0.00000000000E+00  0.00000000000E+00  0.13171795980E+03  0.13171795980E+03  0.00000000000E+00 0.  1.
         21   -1    0    0  501  502 -0.00000000000E+00 -0.00000000000E+00 -0.65773517928E+02  0.65773517928E+02  0.00000000000E+00 0. -1.
         21    1    1    2  503  502  0.13488643001E+02  0.26603758909E+02 -0.60565850640E+02  0.67512411762E+02  0.00000000000E+00 0. -1.
         21    1    1    2  504  503 -0.13488643001E+02 -0.26603758909E+02  0.12651029252E+03  0.12997906597E+03  0.00000000000E+00 0.  1.
</event>
<event>
 4    1  0.3183954E+006  0.2701294E+02  0.7546771E-02  0.1447478E+00
         21   -1    0    0  504  501  0.00000000000E+00  0.00000000000E+00  0.47884285020E+02  0.47884285020E+02  0.00000000000E+00 0.  1.
         21   -1    0    0  501  502 -0.00000000000E+00 -0.00000000000E+00 -0.22916136028E+02  0.22916136028E+02  0.00000000000E+00 0.  1.
         21    1    1    2  503  502  0.26982102536E+02  0.12904319657E+01 -0.80058522834E+01  0.28174327724E+02  0.00000000000E+00 0.  1.
         21    1    1    2  504  503 -0.26982102536E+02 -0.12904319657E+01  0.32974001276E+02  0.42626093324E+02  0.00000000000E+00 0.  1.
</event>
<event>
 4    1  0.3183954E+006  0.2653821E+02  0.7546771E-02  0.1452303E+00
         21   -1    0    0  504  501  0.00000000000E+00  0.00000000000E+00  0.59774856355E+03  0.59774856355E+03  0.00000000000E+00 0.  1.
         21   -1    0    0  501  502 -0.00000000000E+00 -0.00000000000E+00 -0.33379647949E+01  0.33379647949E+01  0.00000000000E+00 0. -1.
         21    1    1    2  503  502 -0.26420953297E+02 -0.24919424183E+01  0.55454563001E+02  0.61477517092E+02  0.00000000000E+00 0. -1.
         21    1    1    2  504  503  0.26420953297E+02  0.24919424183E+01  0.53895603576E+03  0.53960901126E+03  0.00000000000E+00 0.  1.
</event>
<event>
 4    1  0.3183954E+006  0.3814644E+02  0.7546771E-02  0.1359704E+00
         21   -1    0    0  502  501  0.00000000000E+00  0.00000000000E+00  0.26739131090E+03  0.26739131090E+03  0.00000000000E+00 0. -1.
         21   -1    0    0  503  502 -0.00000000000E+00 -0.00000000000E+00 -0.12962872102E+02  0.12962872102E+02  0.00000000000E+00 0. -1.
         21    1    1    2  503  504  0.35570281310E+02  0.13780632478E+02  0.20441636788E+02  0.43278300089E+02  0.00000000000E+00 0. -1.
         21    1    1    2  504  501 -0.35570281310E+02 -0.13780632478E+02  0.23398680201E+03  0.23707588292E+03  0.00000000000E+00 0. -1.
</event>
<event>
 4    1  0.3183954E+006  0.2271624E+02  0.7546771E-02  0.1496092E+00
         21   -1    0    0  503  501  0.00000000000E+00  0.00000000000E+00  0.11998870994E+03  0.11998870994E+03  0.00000000000E+00 0. -1.
         21   -1    0    0  504  502 -0.00000000000E+00 -0.00000000000E+00 -0.18097085170E+02  0.18097085170E+02  0.00000000000E+00 0. -1.
         21    1    1    2  503  502 -0.22042667283E+02 -0.54907343372E+01 -0.93376810816E+01  0.24560529971E+02  0.00000000000E+00 0. -1.
         21    1    1    2  504  501  0.22042667283E+02  0.54907343372E+01  0.11122930585E+03  0.11352526514E+03  0.00000000000E+00 0. -1.
</event>
<event>
 4    1  0.3183954E+006  0.2652451E+02  0.7546771E-02  0.1452444E+00
         21   -1    0    0  502  501  0.00000000000E+00  0.00000000000E+00  0.17348878780E+02  0.17348878780E+02  0.00000000000E+00 0.  1.
         21   -1    0    0  503  502 -0.00000000000E+00 -0.00000000000E+00 -0.80296903818E+02  0.80296903818E+02  0.00000000000E+00 0.  1.
         21    1    1    2  503  504 -0.20086384946E+02  0.17323008261E+02 -0.65822627698E+02  0.70965962211E+02  0.00000000000E+00 0.  1.
         21    1    1    2  504  501  0.20086384946E+02 -0.17323008261E+02  0.28746026603E+01  0.26679820386E+02  0.00000000000E+00 0.  1.
</event>
<event>
 4    1  0.3183954E+006  0.2081473E+02  0.7546771E-02  0.1521927E+00
         21   -1    0    0  504  501  0.00000000000E+00  0.00000000000E+00  0.44577121109E+01  0.44577121109E+01  0.00000000000E+00 0. -1.
         21   -1    0    0  503  502 -0.00000000000E+00 -0.00000000000E+00 -0.47983043582E+03  0.47983043582E+03  0.00000000000E+00 0.  1.
         21    1    1    2  503  501 -0.20498627994E+02  0.36137546290E+01 -0.21452168554E+02  0.29890609024E+02  0.00000000000E+00 0. -1.
         21    1    1    2  504  502  0.20498627994E+02 -0.36137546290E+01 -0.45392055516E+03  0.45439753891E+03  0.00000000000E+00 0.  1.
</event>
<event>
 4    1  0.3183954E+006  0.2430635E+02  0.7546771E-02  0.1476715E+00
         21   -1    0    0  504  501  0.00000000000E+00  0.00000000000E+00  0.23908010400E+03  0.23908010400E+03  0.00000000000E+00 0. -1.
         21   -1    0    0  503  502 -0.00000000000E+00 -0.00000000000E+00 -0.14539279230E+02  0.14539279230E+02  0.00000000000E+00 0. -1.
         21    1    1    2  503  501 -0.50831079006E+01  0.23768903764E+02 -0.32613203378E+01  0.24524171391E+02  0.00000000000E+00 0. -1.
         21    1    1    2  504  502  0.50831079006E+01 -0.23768903764E+02  0.22780214511E+03  0.22909521184E+03  0.00000000000E+00 0. -1.
</event>
<event>
 4    1  0.3183954E+006  0.2387510E+02  0.7546771E-02  0.1481792E+00
         21   -1    0    0  502  501  0.00000000000E+00  0.00000000000E+00  0.22755375916E+03  0.22755375916E+03  0.00000000000E+00 0.  1.
         21   -1    0    0  503  502 -0.00000000000E+00 -0.00000000000E+00 -0.43849559820E+03  0.43849559820E+03  0.00000000000E+00 0.  1.
         21    1    1    2  503  504 -0.19192301508E+02  0.14201269112E+02 -0.43754300119E+03  0.43819390499E+03  0.00000000000E+00 0.  1.
         21    1    1    2  504  501  0.19192301508E+02 -0.14201269112E+02  0.22660116215E+03  0.22785545236E+03  0.00000000000E+00 0.  1.
</event>
<event>
 4    1  0.3183954E+006  0.2279938E+02  0.7546771E-02  0.1495033E+00
         21   -1    0    0  503  501  0.00000000000E+00  0.00000000000E+00  0.33229215404E+03  0.33229215404E+03  0.00000000000E+00 0.  1.
         21   -1    0    0  504  502 -0.00000000000E+00 -0.00000000000E+00 -0.89065766333E+01  0.89065766333E+01  0.00000000000E+00 0. -1.
         21    1    1    2  503  502  0.15411708515E+02  0.16801513838E+02  0.67980185963E+01  0.23791273262E+02  0.00000000000E+00 0. -1.
         21    1    1    2  504  501 -0.15411708515E+02 -0.16801513838E+02  0.31658755881E+03  0.31740745741E+03  0.00000000000E+00 0.  1.
</event>
<event>
 4    1  0.3183954E+006  0.2116335E+02  0.7546771E-02  0.1516945E+00
         21   -1    0    0  504  501  0.00000000000E+00  0.00000000000E+00  0.10873517360E+04  0.10873517360E+04  0.00000000000E+00 0. -1.
         21   -1    0    0  501  502 -0.00000000000E+00 -0.00000000000E+00 -0.15511319286E+03  0.15511319286E+03  0.00000000000E+00 0.  1.
         21    1    1    2  503  502  0.19980087194E+02  0.69773604189E+01 -0.15428779593E+03  0.15573249954E+03  0.00000000000E+00 0.  1.
         21    1    1    2  504  503 -0.19980087194E+02 -0.69773604189E+01  0.10865263391E+04  0.10867324293E+04  0.00000000000E+00 0. -1.
</event>
<event>
 4    1  0.3183954E+006  0.2408952E+02  0.7546771E-02  0.1479252E+00
         21   -1    0    0  504  501  0.00000000000E+00  0.00000000000E+00  0.22049852645E+03  0.22049852645E+03  0.00000000000E+00 0.  1.
         21   -1    0    0  503  502 -0.00000000000E+00 -0.00000000000E+00 -0.29740785999E+01  0.29740785999E+01  0.00000000000E+00 0.  1.
         21    1    1    2  503  501 -0.14618753816E+02  0.19146718754E+02  0.70855416229E+02  0.74838458103E+02  0.00000000000E+00 0.  1.
         21    1    1    2  504  502  0.14618753816E+02 -0.19146718754E+02  0.14666903162E+03  0.14863414695E+03  0.00000000000E+00 0.  1.
</event>
<event>
 4    1  0.3183954E+006  0.2024851E+02  0.7546771E-02  0.1530270E+00
         21   -1    0    0  504  501  0.00000000000E+00  0.00000000000E+00  0.15028258712E+04  0.15028258712E+04  0.00000000000E+00 0.  1.
         21   -1    0    0  501  502 -0.00000000000E+00 -0.00000000000E+00 -0.29006402437E+00  0.29006402437E+00  0.00000000000E+00 0.  1.
         21    1    1    2  503  502 -0.18712308972E+02  0.77363879416E+01  0.56802617572E+03  0.56838696194E+03  0.00000000000E+00 0.  1.
         21    1    1    2  504  503  0.18712308972E+02 -0.77363879416E+01  0.93450963145E+03  0.93472897328E+03  0.00000000000E+00 0.  1.
</event>
<event>
 4    1  0.3183954E+006  0.2076593E+02  0.7546771E-02  0.1522633E+00
         21   -1    0    0  504  501  0.00000000000E+00  0.00000000000E+00  0.51588543820E+02  0.51588543820E+02  0.00000000000E+00 0. -1.
         21   -1    0    0  503  502 -0.00000000000E+00 -0.00000000000E+00 -0.98600838932E+02  0.98600838932E+02  0.00000000000E+00 0. -1.
         21    1    1    2  503  501 -0.16477041146E+02  0.12638469027E+02  0.48334977757E+02  0.52606975384E+02  0.00000000000E+00 0. -1.
         21    1    1    2  504  502  0.16477041146E+02 -0.12638469027E+02 -0.95347272869E+02  0.97582407368E+02  0.00000000000E+00 0. -1.
</event>
<event>
 4    1  0.3183954E+006  0.2135661E+02  0.7546771E-02  0.1514234E+00
         21   -1    0    0  502  501  0.00000000000E+00  0.00000000000E+00  0.81099572843E+01  0.81099572843E+01  0.00000000000E+00 0.  1.
         21   -1    0    0  503  502 -0.00000000000E+00 -0.00000000000E+00 -0.71603685150E+02  0.71603685150E+02  0.00000000000E+00 0.  1.
         21    1    1    2  503  504  0.13572077809E+02  0.16489490728E+02 -0.50208986083E+02  0.54562321101E+02  0.00000000000E+00 0.  1.
         21    1    1    2  504  501 -0.13572077809E+02 -0.16489490728E+02 -0.13284741783E+02  0.25151321333E+02  0.00000000000E+00 0.  1.
</event>
<event>
 4    1  0.3183954E+006  0.2057544E+02  0.7546771E-02  0.1525414E+00
         21   -1    0    0  503  501  0.00000000000E+00  0.00000000000E+00  0.65898736828E+01  0.65898736828E+01  0.00000000000E+00 0.  1.
         21   -1    0    0  504  502 -0.00000000000E+00 -0.00000000000E+00 -0.10959025842E+03  0.10959025842E+03  0.00000000000E+00 0.  1.
         21    1    1    2  503  502 -0.17694221510E+02 -0.10500626617E+02 -0.88867754933E+02  0.91218564454E+02  0.00000000000E+00 0.  1.
         21    1    1    2  504  501  0.17694221510E+02  0.10500626617E+02 -0.14132629799E+02  0.24961567644E+02  0.00000000000E+00 0.  1.
</event>
<event>
 4    1  0.3183954E+006  0.3763732E+02  0.7546771E-02  0.1362916E+00
         21   -1    0    0  504  501  0.00000000000E+00  0.00000000000E+00  0.31359861676E+02  0.31359861676E+02  0.00000000000E+00 0.  1.
         21   -1    0    0  503  502 -0.00000000000E+00 -0.00000000000E+00 -0.12216448870E+03  0.12216448870E+03  0.00000000000E+00 0.  1.
         21    1    1    2  503  501 -0.23054077375E+02 -0.29750244311E+02 -0.10634207824E+03  0.11280605092E+03  0.00000000000E+00 0.  1.
         21    1    1    2  504  502  0.23054077375E+02  0.29750244311E+02  0.15537451216E+02  0.40718299454E+02  0.00000000000E+00 0.  1.
</event>
<event>
 4    1  0.3183954E+006  0.2212132E+02  0.7546771E-02  0.1503837E+00
         21   -1    0    0  503  501  0.00000000000E+00  0.00000000000E+00  0.14922583651E+03  0.14922583651E+03  0.00000000000E+00 0. -1.
         21   -1    0    0  504  502 -0.00000000000E+00 -0.00000000000E+00 -0.55604316734E+01  0.55604316734E+01  0.00000000000E+00 0. -1.
         21    1    1    2  503  502  0.20781799936E+01 -0.22023487377E+02  0.22261944099E+02  0.31383865016E+02  0.00000000000E+00 0. -1.
         21    1    1    2  504  501 -0.20781799936E+01  0.22023487377E+02  0.12140346074E+03  0.12340240317E+03  0.00000000000E+00 0. -1.
</event>
<event>
 4    1  0.3183954E+006  0.2060867E+02  0.7546771E-02  0.1524926E+00
         21   -1    0    0  504  501  0.00000000000E+00  0.00000000000E+00  0.10026625493E+03  0.10026625493E+03  0.00000000000E+00 0.  1.
         21   -1    0    0  503  502 -0.00000000000E+00 -0.00000000000E+00 -0.56803911162E+01  0.56803911162E+01  0.00000000000E+00 0.  1.
         21    1    1    2  503  501  0.39010552105E+01 -0.20236084391E+02  0.74006153308E+02  0.76822054585E+02  0.00000000000E+00 0.  1.
         21    1    1    2  504  502 -0.39010552105E+01  0.20236084391E+02  0.20579710503E+02  0.29124591458E+02  0.00000000000E+00 0.  1.
</event>
<event>
 4    1  0.3183954E+006  0.2014619E+02  0.7546771E-02  0.1531813E+00
         21   -1    0    0  503  501  0.00000000000E+00  0.00000000000E+00  0.23467275052E+02  0.23467275052E+02  0.00000000000E+00 0. -1.
         21   -1    0    0  504  502 -0.00000000000E+00 -0.00000000000E+00 -0.20481547866E+02  0.20481547866E+02  0.00000000000E+00 0. -1.
         21    1    1    2  503  502 -0.19168618696E+02 -0.61994299207E+01 -0.71745447554E+01  0.21385578470E+02  0.00000000000E+00 0. -1.
         21    1    1    2  504  501  0.19168618696E+02  0.61994299207E+01  0.10160271941E+02  0.22563244447E+02  0.00000000000E+00 0. -1.
</event>
<event>
 4    1  0.3183954E+006  0.2554127E+02  0.7546771E-02  0.1462838E+00
         21   -1    0    0  503  501  0.00000000000E+00  0.00000000000E+00  0.11513528661E+03  0.11513528661E+03  0.00000000000E+00 0. -1.
         21   -1    0    0  504  502 -0.00000000000E+00 -0.00000000000E+00 -0.28018590981E+03  0.28018590981E+03  0.00000000000E+00 0. -1.
         21    1    1    2  503  502 -0.20785759872E+02 -0.14842790456E+02  0.11312650539E+03  0.11597397322E+03  0.00000000000E+00 0. -1.
         21    1    1    2  504  501  0.20785759872E+02  0.14842790456E+02 -0.27817712859E+03  0.27934722321E+03  0.00000000000E+00 0. -1.
</event>
<event>
 4    1  0.3183954E+006  0.2153301E+02  0.7546771E-02  0.1511789E+00
         21   -1    0    0  504  501  0.00000000000E+00  0.00000000000E+00  0.16751116351E+02  0.16751116351E+02  0.00000000000E+00 0. -1.
         21   -1    0    0  503  502 -0.00000000000E+00 -0.00000000000E+00 -0.11528858202E+03  0.11528858202E+03  0.00000000000E+00 0. -1.
         21    1    1    2  503  501  0.12888637283E+02 -0.17249745278E+02  0.82825139824E+01  0.23070993065E+02  0.00000000000E+00 0. -1.
         21    1    1    2  504  502 -0.12888637283E+02  0.17249745278E+02 -0.10681997965E+03  0.10896870531E+03  0.00000000000E+00 0. -1.
</event>
<event>
 4    1  0.3183954E+006  0.2265177E+02  0.7546771E-02  0.1496918E+00
         21   -1    0    0  503  501  0.00000000000E+00  0.00000000000E+00  0.11822133345E+03  0.11822133345E+03  0.00000000000E+00 0. -1.
         21   -1    0    0  504  502 -0.00000000000E+00 -0.00000000000E+00 -0.44372146008E+01  0.44372146008E+01  0.00000000000E+00 0. -1.
         21    1    1    2  503  502 -0.81605755319E+01  0.21130732538E+02  0.47823103319E+02  0.52916463049E+02  0.00000000000E+00 0. -1.
         21    1    1    2  504  501  0.81605755319E+01 -0.21130732538E+02  0.65961015533E+02  0.69742085004E+02  0.00000000000E+00 0. -1.
</event>
<event>
 4    1  0.3183954E+006  0.2617245E+02  0.7546771E-02  0.1456103E+00
         21   -1    0    0  502  501  0.00000000000E+00  0.00000000000E+00  0.66135960003E+01  0.66135960003E+01  0.00000000000E+00 0.  1.
         21   -1    0    0  503  502 -0.00000000000E+00 -0.00000000000E+00 -0.19705280999E+03  0.19705280999E+03  0.00000000000E+00 0. -1.
         21    1    1    2  503  504  0.19299681746E+02 -0.17678213587E+02 -0.16535779620E+03  0.16741624089E+03  0.00000000000E+00 0. -1.
         21    1    1    2  504  501 -0.19299681746E+02  0.17678213587E+02 -0.25081417789E+02  0.36250165095E+02  0.00000000000E+00 0.  1.
</event>
<event>
 4    1  0.3183954E+006  0.2280031E+02  0.7546771E-02  0.1495021E+00
         21   -1    0    0  503  501  0.00000000000E+00  0.00000000000E+00  0.50329829460E+02  0.50329829460E+02  0.00000000000E+00 0.  1.
         21   -1    0    0  504  502 -0.00000000000E+00 -0.00000000000E+00 -0.12696945916E+02  0.12696945916E+02  0.00000000000E+00 0.  1.
         21    1    1    2  503  502 -0.16553965588E+02  0.15678657669E+02  0.52071253160E+01  0.23387352074E+02  0.00000000000E+00 0.  1.
         21    1    1    2  504  501  0.16553965588E+02 -0.15678657669E+02  0.32425758228E+02  0.39639423302E+02  0.00000000000E+00 0.  1.
</event>
<event>
 4    1  0.3183954E+006  0.2058225E+02  0.7546771E-02  0.1525314E+00
         21   -1    0    0  503  501  0.00000000000E+00  0.00000000000E+00  0.60833566817E+03  0.60833566817E+03  0.00000000000E+00 0. -1.
         21   -1    0    0  504  502 -0.00000000000E+00 -0.00000000000E+00 -0.70766213846E+00  0.70766213846E+00  0.00000000000E+00 0. -1.
         21    1    1    2  503  502 -0.17932554277E+02 -0.10102098667E+02  0.34227531006E+03  0.34289359395E+03  0.00000000000E+00 0. -1.
         21    1    1    2  504  501  0.17932554277E+02  0.10102098667E+02  0.26535269598E+03  0.26614973636E+03  0.00000000000E+00 0. -1.
</event>
<event>
 4    1  0.3183954E+006  0.2071811E+02  0.7546771E-02  0.1523328E+00
         21   -1    0    0  504  501  0.00000000000E+00  0.00000000000E+00  0.26674530718E+02  0.26674530718E+02  0.00000000000E+00 0. -1.
         21   -1    0    0  501  502 -0.00000000000E+00 -0.00000000000E+00 -0.19243864777E+02  0.19243864777E+02  0.00000000000E+00 0. -1.
         21    1    1    2  503  502  0.19857365060E+02  0.59097519118E+01 -0.55767047611E+01  0.21455529609E+02  0.00000000000E+00 0. -1.
         21    1    1    2  504  503 -0.19857365060E+02 -0.59097519118E+01  0.13007370702E+02  0.24462865886E+02  0.00000000000E+00 0. -1.
</event>
<event>
 4    1  0.3183954E+006  0.2154219E+02  0.7546771E-02  0.1511663E+00
         21   -1    0    0  502  501  0.00000000000E+00  0.00000000000E+00  0.11763339414E+04  0.11763339414E+04  0.00000000000E+00 0. -1.
         21   -1    0    0  503  502 -0.00000000000E+00 -0.00000000000E+00 -0.48941090324E+00  0.48941090324E+00  0.00000000000E+00 0. -1.
         21    1    1    2  503  504  0.21542167533E+02  0.33554953017E-01  0.32880407053E+03  0.32950900277E+03  0.00000000000E+00 0. -1.
         21    1    1    2  504  501 -0.21542167533E+02 -0.33554953017E-01  0.84704045995E+03  0.84731434952E+03  0.00000000000E+00 0. -1.
</event>
<event>
 4    1  0.3183954E+006  0.2091943E+02  0.7546771E-02  0.1520418E+00
         21   -1    0    0  503  501  0.00000000000E+00  0.00000000000E+00  0.26917848830E+02  0.26917848830E+02  0.00000000000E+00 0.  1.
         21   -1    0    0  501  502 -0.00000000000E+00 -0.00000000000E+00 -0.21294011690E+02  0.21294011690E+02  0.00000000000E+00 0.  1.
         21    1    1    2  503  504  0.14336519933E+02 -0.15234392666E+02  0.14535251832E+02  0.25473438510E+02  0.00000000000E+00 0.  1.
         21    1    1    2  504  502 -0.14336519933E+02  0.15234392666E+02 -0.89114146914E+01  0.22738422010E+02  0.00000000000E+00 0.  1.
</event>
<event>
 4    1  0.3183954E+006  0.2597197E+02  0.7546771E-02  0.1458217E+00
         21   -1    0    0  504  501  0.00000000000E+00  0.00000000000E+00  0.35409825089E+01  0.35409825089E+01  0.00000000000E+00 0. -1.
         21   -1    0    0  503  502 -0.00000000000E+00 -0.00000000000E+00 -0.90119910647E+03  0.90119910647E+03  0.00000000000E+00 0.  1.
         21    1    1    2  503  501 -0.23121116180E+02 -0.11830350373E+02 -0.85055285268E+03  0.85094929250E+03  0.00000000000E+00 0.  1.
         21    1    1    2  504  502  0.23121116180E+02  0.11830350373E+02 -0.47105271276E+02  0.53790796474E+02  0.00000000000E+00 0. -1.
</event>
<event>
 4    1  0.3183954E+006  0.2776859E+02  0.7546771E-02  0.1440037E+00
         21   -1    0    0  504  501  0.00000000000E+00  0.00000000000E+00  0.17336583912E+02  0.17336583912E+02  0.00000000000E+00 0.  1.
         21   -1    0    0  503  502 -0.00000000000E+00 -0.00000000000E+00 -0.44729713750E+02  0.44729713750E+02  0.00000000000E+00 0.  1.
         21    1    1    2  503  501 -0.53520057330E+00  0.27763430860E+02 -0.16025101482E+02  0.32060854797E+02  0.00000000000E+00 0.  1.
         21    1    1    2  504  502  0.53520057330E+00 -0.27763430860E+02 -0.11368028357E+02  0.30005442865E+02  0.00000000000E+00 0.  1.
</event>
<event>
 4    1  0.3183954E+006  0.2047278E+02  0.7546771E-02  0.1526927E+00
         21   -1    0    0  504  501  0.00000000000E+00  0.00000000000E+00  0.32010171738E+02  0.32010171738E+02  0.00000000000E+00 0.  1.
         21   -1    0    0  501  502 -0.00000000000E+00 -0.00000000000E+00 -0.16021860129E+03  0.16021860129E+03  0.00000000000E+00 0. -1.
         21    1    1    2  503  502  0.19613724333E+02 -0.58682554132E+01 -0.15620744953E+03  0.15754333338E+03  0.00000000000E+00 0. -1.
         21    1    1    2  504  503 -0.19613724333E+02  0.58682554132E+01  0.27999019978E+02  0.34685439647E+02  0.00000000000E+00 0.  1.
</event>
<event>
 4    1  0.3183954E+006  0.4057690E+02  0.7546771E-02  0.1345138E+00
         21   -1    0    0  503  501  0.00000000000E+00  0.00000000000E+00  0.22666382967E+03  0.22666382967E+03  0.00000000000E+00 0. -1.
         21   -1    0    0  504  502 -0.00000000000E+00 -0.00000000000E+00 -0.95367246905E+01  0.95367246905E+01  0.00000000000E+00 0. -1.
         21    1    1    2  503  502 -0.27776088674E+02  0.29579949595E+02  0.50910094911E+02  0.65102398449E+02  0.00000000000E+00 0. -1.
         21    1    1    2  504  501  0.27776088674E+02 -0.29579949595E+02  0.16621701007E+03  0.17109815591E+03  0.00000000000E+00 0. -1.
</event>
<event>
 4    1  0.3183954E+006  0.2578090E+02  0.7546771E-02  0.1460254E+00
         21   -1    0    0  503  501  0.00000000000E+00  0.00000000000E+00  0.19041990094E+01  0.19041990094E+01  0.00000000000E+00 0. -1.
         21   -1    0    0  501  502 -0.00000000000E+00 -0.00000000000E+00 -0.54380589123E+03  0.54380589123E+03  0.00000000000E+00 0. -1.
         21    1    1    2  503  504  0.15359398064E+02  0.20706128459E+02 -0.10766116838E+03  0.11070493232E+03  0.00000000000E+00 0. -1.
         21    1    1    2  504  502 -0.15359398064E+02 -0.20706128459E+02 -0.43424052385E+03  0.43500515792E+03  0.00000000000E+00 0. -1.
</event>
<event>
 4    1  0.3183954E+006  0.2402764E+02  0.7546771E-02  0.1479982E+00
         21   -1    0    0  504  501  0.00000000000E+00  0.00000000000E+00  0.67679693826E+01  0.67679693826E+01  0.00000000000E+00 0. -1.
         21   -1    0    0  503  502 -0.00000000000E+00 -0.00000000000E+00 -0.13284835419E+03  0.13284835419E+03  0.00000000000E+00 0. -1.
         21    1    1    2  503  501 -0.36677088848E+01  0.23746064971E+02 -0.21278082897E+02  0.32094929535E+02  0.00000000000E+00 0. -1.
         21    1    1    2  504  502  0.36677088848E+01 -0.23746064971E+02 -0.10480230191E+03  0.10752139404E+03  0.00000000000E+00 0. -1.
</event>
<event>
 4    1  0.3183954E+006  0.3730114E+02  0.7546771E-02  0.1365070E+00
         21   -1    0    0  504  501  0.00000000000E+00  0.00000000000E+00  0.11545730188E+03  0.11545730188E+03  0.00000000000E+00 0. -1.
         21   -1    0    0  503  502 -0.00000000000E+00 -0.00000000000E+00 -0.12437014512E+03  0.12437014512E+03  0.00000000000E+00 0. -1.
         21    1    1    2  503  501 -0.32519179539E+02 -0.18272338393E+02  0.10949971628E+03  0.11567870701E+03  0.00000000000E+00 0. -1.
         21    1    1    2  504  502  0.32519179539E+02  0.18272338393E+02 -0.11841255952E+03  0.12414873999E+03  0.00000000000E+00 0. -1.
</event>
<event>
 4    1  0.3183954E+006  0.2040514E+02  0.7546771E-02  0.1527930E+00
         21   -1    0    0  504  501  0.00000000000E+00  0.00000000000E+00  0.23910348555E+03  0.23910348555E+03  0.00000000000E+00 0.  1.
         21   -1    0    0  503  502 -0.00000000000E+00 -0.00000000000E+00 -0.40938359535E+01  0.40938359535E+01  0.00000000000E+00 0.  1.
         21    1    1    2  503  501  0.20399342270E+02  0.48642208762E+00  0.25327431369E+02  0.32524583798E+02  0.00000000000E+00 0.  1.
         21    1    1    2  504  502 -0.20399342270E+02 -0.48642208762E+00  0.20968221823E+03  0.21067273771E+03  0.00000000000E+00 0.  1.
</event>
<event>
 4    1  0.3183954E+006  0.3523790E+02  0.7546771E-02  0.1378898E+00
         21   -1    0    0  503  501  0.00000000000E+00  0.00000000000E+00  0.75421602551E+01  0.75421602551E+01  0.00000000000E+00 0.  1.
         21   -1    0    0  504  502 -0.00000000000E+00 -0.00000000000E+00 -0.49574213030E+03  0.49574213030E+03  0.00000000000E+00 0. -1.
         21    1    1    2  503  502 -0.30513806086E+02 -0.17624329352E+02 -0.44975496357E+03  0.45113328031E+03  0.00000000000E+00 0. -1.
         21    1    1    2  504  501  0.30513806086E+02  0.17624329352E+02 -0.38445006481E+02  0.52151010252E+02  0.00000000000E+00 0.  1.
</event>
<event>
 4    1  0.3183954E+006  0.2843064E+02  0.7546771E-02  0.1433743E+00
         21   -1    0    0  504  501  0.00000000000E+00  0.00000000000E+00  0.46646025873E+02  0.46646025873E+02  0.00000000000E+00 0.  1.
         21   -1    0    0  503  502 -0.00000000000E+00 -0.00000000000E+00 -0.14157388259E+03  0.14157388259E+03  0.00000000000E+00 0.  1.
         21    1    1    2  503  501 -0.99565152242E+01  0.26630233782E+02 -0.13562650491E+03  0.13857434964E+03  0.00000000000E+00 0.  1.
         21    1    1    2  504  502  0.99565152242E+01 -0.26630233782E+02  0.40698648184E+02  0.49645558822E+02  0.00000000000E+00 0.  1.
</event>
<event>
 4    1  0.3183954E+006  0.2190253E+02  0.7546771E-02  0.1506759E+00
         21   -1    0    0  503  501  0.00000000000E+00  0.00000000000E+00  0.52452273426E+01  0.52452273426E+01  0.00000000000E+00 0. -1.
         21   -1    0    0  504  502 -0.00000000000E+00 -0.00000000000E+00 -0.24586725191E+03  0.24586725191E+03  0.00000000000E+00 0. -1.
         21    1    1    2  503  502  0.16405600503E+02 -0.14511278152E+02 -0.20810839831E+02  0.30212778355E+02  0.00000000000E+00 0. -1.
         21    1    1    2  504  501 -0.16405600503E+02  0.14511278152E+02 -0.21981118473E+03  0.22089970089E+03  0.00000000000E+00 0. -1.
</event>
<event>
 4    1  0.3183954E+006  0.4149201E+02  0.7546771E-02  0.1339958E+00
         21   -1    0    0  502  501  0.00000000000E+00  0.00000000000E+00  0.13098727810E+03  0.13098727810E+03  0.00000000000E+00 0.  1.
         21   -1    0    0  503  502 -0.00000000000E+00 -0.00000000000E+00 -0.38928472468E+02  0.38928472468E+02  0.00000000000E+00 0. -1.
         21    1    1    2  503  504  0.14296672808E+02 -0.38951147029E+02 -0.23114862036E+02  0.47496142530E+02  0.00000000000E+00 0. -1.
         21    1    1    2  504  501 -0.14296672808E+02  0.38951147029E+02  0.11517366766E+03  0.12241960803E+03  0.00000000000E+00 0.  1.
</event>
<event>
 4    1  0.3183954E+006  0.7247475E+02  0.7546771E-02  0.1222485E+00
         21   -1    0    0  503  501  0.00000000000E+00  0.00000000000E+00  0.62257305048E+02  0.62257305048E+02  0.00000000000E+00 0.  1.
         21   -1    0    0  504  502 -0.00000000000E+00 -0.00000000000E+00 -0.10492104600E+03  0.10492104600E+03  0.00000000000E+00 0. -1.
         21    1    1    2  503  502 -0.11406594127E+02  0.71571499292E+02  0.15663357014E+02  0.74148032026E+02  0.00000000000E+00 0.  1.
         21    1    1    2  504  501  0.11406594127E+02 -0.71571499292E+02 -0.58327097970E+02  0.93030319026E+02  0.00000000000E+00 0. -1.
</event>
<event>
 4    1  0.3183954E+006  0.4071588E+02  0.7546771E-02  0.1344341E+00
         21   -1    0    0  502  501  0.00000000000E+00  0.00000000000E+00  0.14423968701E+03  0.14423968701E+03  0.00000000000E+00 0. -1.
         21   -1    0    0  503  502 -0.00000000000E+00 -0.00000000000E+00 -0.11523567811E+02  0.11523567811E+02  0.00000000000E+00 0. -1.
         21    1    1    2  503  504  0.23653440280E+02  0.33140569061E+02  0.70352921580E+02  0.81285399240E+02  0.00000000000E+00 0. -1.
         21    1    1    2  504  501 -0.23653440280E+02 -0.33140569061E+02  0.62363197619E+02  0.74477855581E+02  0.00000000000E+00 0. -1.
</event>
<event>
 4    1  0.3183954E+006  0.2005651E+02  0.7546771E-02  0.1533174E+00
         21   -1    0    0  504  501  0.00000000000E+00  0.00000000000E+00  0.14329248012E+02  0.14329248012E+02  0.00000000000E+00 0.  1.
         21   -1    0    0  503  502 -0.00000000000E+00 -0.00000000000E+00 -0.13152779958E+03  0.13152779958E+03  0.00000000000E+00 0. -1.
         21    1    1    2  503  501 -0.82005295000E+00  0.20039737591E+02  0.60798548518E+01  0.20957771937E+02  0.00000000000E+00 0.  1.
         21    1    1    2  504  502  0.82005295000E+00 -0.20039737591E+02 -0.12327840642E+03  0.12489927565E+03  0.00000000000E+00 0. -1.
</event>
<event>
 4    1  0.3183954E+006  0.2055048E+02  0.7546771E-02  0.1525781E+00
         21   -1    0    0  504  501  0.00000000000E+00  0.00000000000E+00  0.76023313959E+01  0.76023313959E+01  0.00000000000E+00 0.  1.
         21   -1    0    0  503  502 -0.00000000000E+00 -0.00000000000E+00 -0.27092932521E+03  0.27092932521E+03  0.00000000000E+00 0. -1.
         21    1    1    2  503  501  0.16716544712E+02 -0.11953219401E+02 -0.25583354969E+03  0.25665760746E+03  0.00000000000E+00 0. -1.
         21    1    1    2  504  502 -0.16716544712E+02  0.11953219401E+02 -0.74934441251E+01  0.21874049145E+02  0.00000000000E+00 0.  1.
</event>
<event>
 4    1  0.3183954E+006  0.2286434E+02  0.7546771E-02  0.1494209E+00
         21   -1    0    0  504  501  0.00000000000E+00  0.00000000000E+00  0.60811278694E+01  0.60811278694E+01  0.00000000000E+00 0.  1.
         21   -1    0    0  503  502 -0.00000000000E+00 -0.00000000000E+00 -0.77374351534E+03  0.77374351534E+03  0.00000000000E+00 0.  1.
         21    1    1    2  503  501  0.21742068786E+02  0.70753360077E+01 -0.75144518806E+03  0.75179295594E+03  0.00000000000E+00 0.  1.
         21    1    1    2  504  502 -0.21742068786E+02 -0.70753360077E+01 -0.16217199409E+02  0.28031687273E+02  0.00000000000E+00 0.  1.
</event>
<event>
 4    1  0.3183954E+006  0.2624291E+02  0.7546771E-02  0.1455365E+00
         21   -1    0    0  503  501  0.00000000000E+00  0.00000000000E+00  0.81201688729E+03  0.81201688729E+03  0.00000000000E+00 0. -1.
         21   -1    0    0  504  502 -0.00000000000E+00 -0.00000000000E+00 -0.10924790680E+02  0.10924790680E+02  0.00000000000E+00 0. -1.
         21    1    1    2  503  502 -0.25406921999E+02 -0.65710303642E+01  0.79572242033E+03  0.79615504793E+03  0.00000000000E+00 0. -1.
         21    1    1    2  504  501  0.25406921999E+02  0.65710303642E+01  0.53696762764E+01  0.26786630039E+02  0.00000000000E+00 0. -1.
</event>
<event>
 4    1  0.3183954E+006  0.2244167E+02  0.7546771E-02  0.1499631E+00
         21   -1    0    0  503  501  0.00000000000E+00  0.00000000000E+00  0.50299568521E+01  0.50299568521E+01  0.00000000000E+00 0. -1.
         21   -1    0    0  504  502 -0.00000000000E+00 -0.00000000000E+00 -0.35136546586E+03  0.35136546586E+03  0.00000000000E+00 0.  1.
         21    1    1    2  503  502  0.20411550693E+02  0.93272142846E+01 -0.32385160519E+03  0.32462823431E+03  0.00000000000E+00 0.  1.
         21    1    1    2  504  501 -0.20411550693E+02 -0.93272142846E+01 -0.22483903819E+02  0.31767188402E+02  0.00000000000E+00 0. -1.
</event>
<event>
 4    1  0.3183954E+006  0.2624128E+02  0.7546771E-02  0.1455382E+00
         21   -1    0    0  502  501  0.00000000000E+00  0.00000000000E+00  0.13215702482E+02  0.13215702482E+02  0.00000000000E+00 0.  1.
         21   -1    0    0  503  502 -0.00000000000E+00 -0.00000000000E+00 -0.88050846302E+02  0.88050846302E+02  0.00000000000E+00 0.  1.
         21    1    1    2  503  504 -0.18048943838E+02 -0.19048373600E+02 -0.69768985952E+02  0.74540702380E+02  0.00000000000E+00 0.  1.
         21    1    1    2  504  501  0.18048943838E+02  0.19048373600E+02 -0.50661578685E+01  0.26725846404E+02  0.00000000000E+00 0.  1.
</event>
<event>
 4    1  0.3183954E+006  0.2183266E+02  0.7546771E-02  0.1507701E+00
         21   -1    0    0  502  501  0.00000000000E+00  0.00000000000E+00  0.50859396672E+02  0.50859396672E+02  0.00000000000E+00 0. -1.
         21   -1    0    0  504  502 -0.00000000000E+00 -0.00000000000E+00 -0.34906397529E+02  0.34906397529E+02  0.00000000000E+00 0. -1.
         21    1    1    2  503  501  0.21408218883E+02  0.42840764123E+01  0.44653397030E+02  0.49705040115E+02  0.00000000000E+00 0. -1.
         21    1    1    2  504  503 -0.21408218883E+02 -0.42840764123E+01 -0.28700397887E+02  0.36060754087E+02  0.00000000000E+00 0. -1.
</event>
<event>
 4    1  0.3183954E+006  0.2072957E+02  0.7546771E-02  0.1523161E+00
         21   -1    0    0  503  501  0.00000000000E+00  0.00000000000E+00  0.30614384418E+02  0.30614384418E+02  0.00000000000E+00 0.  1.
         21   -1    0    0  504  502 -0.00000000000E+00 -0.00000000000E+00 -0.34311735696E+03  0.34311735696E+03  0.00000000000E+00 0.  1.
         21    1    1    2  503  502 -0.17180506883E+02 -0.11599361584E+02 -0.33925525626E+03  0.33988798730E+03  0.00000000000E+00 0.  1.
         21    1    1    2  504  501  0.17180506883E+02  0.11599361584E+02  0.26752283722E+02  0.33843754080E+02  0.00000000000E+00 0.  1.
</event>
<event>
 4    1  0.3183954E+006  0.2325345E+02  0.7546771E-02  0.1489340E+00
         21   -1    0    0  504  501  0.00000000000E+00  0.00000000000E+00  0.48720033387E+02  0.48720033387E+02  0.00000000000E+00 0. -1.
         21   -1    0    0  503  502 -0.00000000000E+00 -0.00000000000E+00 -0.14627553384E+02  0.14627553384E+02  0.00000000000E+00 0. -1.
         21    1    1    2  503  501 -0.89471998656E+01 -0.21463235132E+02  0.14887742053E+01  0.23301057839E+02  0.00000000000E+00 0. -1.
         21    1    1    2  504  502  0.89471998656E+01  0.21463235132E+02  0.32603705798E+02  0.40046528932E+02  0.00000000000E+00 0. -1.
</event>
<event>
 4    1  0.3183954E+006  0.2269999E+02  0.7546771E-02  0.1496300E+00
         21   -1    0    0  503  501  0.00000000000E+00  0.00000000000E+00  0.38418069326E+02  0.38418069326E+02  0.00000000000E+00 0. -1.
         21   -1    0    0  504  502 -0.00000000000E+00 -0.00000000000E+00 -0.51478664293E+02  0.51478664293E+02  0.00000000000E+00 0.  1.
         21    1    1    2  503  502  0.82215051083E+01 -0.21158839553E+02  0.32121416655E+02  0.39332874868E+02  0.00000000000E+00 0. -1.
         21    1    1    2  504  501 -0.82215051083E+01  0.21158839553E+02 -0.45182011623E+02  0.50563858751E+02  0.00000000000E+00 0.  1.
</event>
<event>
 4    1  0.3183954E+006  0.5254184E+02  0.7546771E-02  0.1287513E+00
         21   -1    0    0  503  501  0.00000000000E+00  0.00000000000E+00  0.17219677348E+03  0.17219677348E+03  0.00000000000E+00 0. -1.
         21   -1    0    0  504  502 -0.00000000000E+00 -0.00000000000E+00 -0.18591280721E+02  0.18591280721E+02  0.00000000000E+00 0. -1.
         21    1    1    2  503  502 -0.40618995106E+02  0.33327798115E+02  0.11219696117E+03  0.12389028608E+03  0.00000000000E+00 0. -1.
         21    1    1    2  504  501  0.40618995106E+02 -0.33327798115E+02  0.41408531595E+02  0.66897768120E+02  0.00000000000E+00 0. -1.
</event>
<event>
 4    1  0.3183954E+006  0.2018059E+02  0.7546771E-02  0.1531293E+00
         21   -1    0    0  504  501  0.00000000000E+00  0.00000000000E+00  0.68837087964E+02  0.68837087964E+02  0.00000000000E+00 0.  1.
         21   -1    0    0  501  502 -0.00000000000E+00 -0.00000000000E+00 -0.97455010988E+02  0.97455010988E+02  0.00000000000E+00 0. -1.
         21    1    1    2  503  502  0.17549517054E+02 -0.99634650810E+01 -0.94891712490E+02  0.97013881917E+02  0.00000000000E+00 0. -1.
         21    1    1    2  504  503 -0.17549517054E+02  0.99634650810E+01  0.66273789467E+02  0.69278217035E+02  0.00000000000E+00 0.  1.
</event>
<event>
 4    1  0.3183954E+006  0.2439037E+02  0.7546771E-02  0.1475740E+00
         21   -1    0    0  504  501  0.00000000000E+00  0.00000000000E+00  0.53224174604E+01  0.53224174604E+01  0.00000000000E+00 0.  1.
         21   -1    0    0  503  502 -0.00000000000E+00 -0.00000000000E+00 -0.12884353685E+03  0.12884353685E+03  0.00000000000E+00 0.  1.
         21    1    1    2  503  501 -0.24321940403E+02 -0.18257943420E+01 -0.37341221423E+02  0.44601088858E+02  0.00000000000E+00 0.  1.
         21    1    1    2  504  502  0.24321940403E+02  0.18257943420E+01 -0.86179897969E+02  0.89564865455E+02  0.00000000000E+00 0.  1.
</event>
<event>
 4    1  0.3183954E+006  0.4856063E+02  0.7546771E-02  0.1304537E+00
         21   -1    0    0  503  501  0.00000000000E+00  0.00000000000E+00  0.28741426706E+03  0.28741426706E+03  0.00000000000E+00 0. -1.
         21   -1    0    0  504  502 -0.00000000000E+00 -0.00000000000E+00 -0.40076368778E+02  0.40076368778E+02  0.00000000000E+00 0.  1.
         21    1    1    2  503  502 -0.44571280326E+02 -0.19275266509E+02  0.26969401686E+03  0.27403101587E+03  0.00000000000E+00 0. -1.
         21    1    1    2  504  501  0.44571280326E+02  0.19275266509E+02 -0.22356118580E+02  0.53459619965E+02  0.00000000000E+00 0.  1.
</event>
<event>
 4    1  0.3183954E+006  0.4319921E+02  0.7546771E-02  0.1330694E+00
         21   -1    0    0  503  501  0.00000000000E+00  0.00000000000E+00  0.36268705898E+02  0.36268705898E+02  0.00000000000E+00 0. -1.
         21   -1    0    0  504  502 -0.00000000000E+00 -0.00000000000E+00 -0.60518461529E+02  0.60518461529E+02  0.00000000000E+00 0.  1.
         21    1    1    2  503  502  0.42006569076E+02 -0.10080657353E+02  0.66040905367E+01  0.43701092779E+02  0.00000000000E+00 0. -1.
         21    1    1    2  504  501 -0.42006569076E+02  0.10080657353E+02 -0.30853846168E+02  0.53086074648E+02  0.00000000000E+00 0.  1.
</event>
<event>
 4    1  0.3183954E+006  0.2408502E+02  0.7546771E-02  0.1479305E+00
         21   -1    0    0  504  501  0.00000000000E+00  0.00000000000E+00  0.28217212604E+02  0.28217212604E+02  0.00000000000E+00 0. -1.
         21   -1    0    0  503  502 -0.00000000000E+00 -0.00000000000E+00 -0.94979397413E+02  0.94979397413E+02  0.00000000000E+00 0.  1.
         21    1    1    2  503  501 -0.18107514919E+02 -0.15880990521E+02 -0.87907027510E+02  0.91146768687E+02  0.00000000000E+00 0.  1.
         21    1    1    2  504  502  0.18107514919E+02  0.15880990521E+02  0.21144842700E+02  0.32049841330E+02  0.00000000000E+00 0. -1.
</event>
<event>
 4    1  0.3183954E+006  0.2399839E+02  0.7546771E-02  0.1480328E+00
         21   -1    0    0  503  501  0.00000000000E+00  0.00000000000E+00  0.36588137721E+02  0.36588137721E+02  0.00000000000E+00 0.  1.
         21   -1    0    0  504  502 -0.00000000000E+00 -0.00000000000E+00 -0.17441371492E+03  0.17441371492E+03  0.00000000000E+00 0.  1.
         21    1    1    2  503  502 -0.13522110933E+02  0.19826129983E+02  0.31714899035E+02  0.39771317994E+02  0.00000000000E+00 0.  1.
         21    1    1    2  504  501  0.13522110933E+02 -0.19826129983E+02 -0.16954047623E+03  0.17123053465E+03  0.00000000000E+00 0.  1.
</event>
<event>
 4    1  0.3183954E+006  0.2870456E+02  0.7546771E-02  0.1431198E+00
         21   -1    0    0  503  501  0.00000000000E+00  0.00000000000E+00  0.19156762821E+03  0.19156762821E+03  0.00000000000E+00 0.  1.
         21   -1    0    0  504  502 -0.00000000000E+00 -0.00000000000E+00 -0.56381651568E+01  0.56381651568E+01  0.00000000000E+00 0.  1.
         21    1    1    2  503  502 -0.21580979728E+02  0.18926511173E+02  0.44947504642E+02  0.53331319923E+02  0.00000000000E+00 0.  1.
         21    1    1    2  504  501  0.21580979728E+02 -0.18926511173E+02  0.14098195841E+03  0.14387447344E+03  0.00000000000E+00 0.  1.
</event>
<event>
 4    1  0.3183954E+006  0.2119134E+02  0.7546771E-02  0.1516550E+00
         21   -1    0    0  502  501  0.00000000000E+00  0.00000000000E+00  0.35343846060E+02  0.35343846060E+02  0.00000000000E+00 0.  1.
         21   -1    0    0  503  502 -0.00000000000E+00 -0.00000000000E+00 -0.39015186001E+02  0.39015186001E+02  0.00000000000E+00 0. -1.
         21    1    1    2  503  504  0.17245258623E+02 -0.12315605551E+02 -0.32366735181E+02  0.38686931014E+02  0.00000000000E+00 0. -1.
         21    1    1    2  504  501 -0.17245258623E+02  0.12315605551E+02  0.28695395240E+02  0.35672101046E+02  0.00000000000E+00 0.  1.
</event>
<event>
 4    1  0.3183954E+006  0.2097174E+02  0.7546771E-02  0.1519669E+00
         21   -1    0    0  503  501  0.00000000000E+00  0.00000000000E+00  0.12145746539E+02  0.12145746539E+02  0.00000000000E+00 0.  1.
         21   -1    0    0  504  502 -0.00000000000E+00 -0.00000000000E+00 -0.11907237774E+04  0.11907237774E+04  0.00000000000E+00 0.  1.
         21    1    1    2  503  502 -0.16098390297E+02 -0.13440822632E+02  0.29299604866E+01  0.21175423293E+02  0.00000000000E+00 0.  1.
         21    1    1    2  504  501  0.16098390297E+02  0.13440822632E+02 -0.11815079913E+04  0.11816941006E+04  0.00000000000E+00 0.  1.
</event>
<event>
 4    1  0.3183954E+006  0.3132602E+02  0.7546771E-02  0.1408413E+00
         21   -1    0    0  502  501  0.00000000000E+00  0.00000000000E+00  0.13781590739E+02  0.13781590739E+02  0.00000000000E+00 0.  1.
         21   -1    0    0  503  502 -0.00000000000E+00 -0.00000000000E+00 -0.10882262050E+03  0.10882262050E+03  0.00000000000E+00 0.  1.
         21    1    1    2  503  504 -0.17143055036E+02  0.26218985859E+02 -0.83562680811E+02  0.89241476791E+02  0.00000000000E+00 0.  1.
         21    1    1    2  504  501  0.17143055036E+02 -0.26218985859E+02 -0.11478348953E+02  0.33362734452E+02  0.00000000000E+00 0.  1.
</event>
<event>
 4    1  0.3183954E+006  0.2043275E+02  0.7546771E-02  0.1527520E+00
         21   -1    0    0  504  501  0.00000000000E+00  0.00000000000E+00  0.22589595669E+02  0.22589595669E+02  0.00000000000E+00 0. -1.
         21   -1    0    0  503  502 -0.00000000000E+00 -0.00000000000E+00 -0.31677706548E+03  0.31677706548E+03  0.00000000000E+00 0.  1.
         21    1    1    2  503  501 -0.98281042309E+01 -0.17913842779E+02 -0.31175273056E+03  0.31242161002E+03  0.00000000000E+00 0.  1.
         21    1    1    2  504  502  0.98281042309E+01  0.17913842779E+02  0.17565260741E+02  0.26945051137E+02  0.00000000000E+00 0. -1.
</event>
<event>
 4    1  0.3183954E+006  0.2693389E+02  0.7546771E-02  0.1448273E+00
         21   -1    0    0  504  501  0.00000000000E+00  0.00000000000E+00  0.61750532884E+02  0.61750532884E+02  0.00000000000E+00 0.  1.
         21   -1    0    0  501  502 -0.00000000000E+00 -0.00000000000E+00 -0.91652728085E+02  0.91652728085E+02  0.00000000000E+00 0. -1.
         21    1    1    2  503  502  0.26906281100E+02 -0.12193161660E+01 -0.86568506088E+02  0.90661683973E+02  0.00000000000E+00 0. -1.
         21    1    1    2  504  503 -0.26906281100E+02  0.12193161660E+01  0.56666310887E+02  0.62741576997E+02  0.00000000000E+00 0.  1.
</event>
<event>
 4    1  0.3183954E+006  0.2226350E+02  0.7546771E-02  0.1501959E+00
         21   -1    0    0  504  501  0.00000000000E+00  0.00000000000E+00  0.24363012271E+03  0.24363012271E+03  0.00000000000E+00 0.  1.
         21   -1    0    0  503  502 -0.00000000000E+00 -0.00000000000E+00 -0.28206731736E+01  0.28206731736E+01  0.00000000000E+00 0.  1.
         21    1    1    2  503  501  0.19198013531E+02  0.11273854141E+02  0.18546040066E+03  0.18679192628E+03  0.00000000000E+00 0.  1.
         21    1    1    2  504  502 -0.19198013531E+02 -0.11273854141E+02  0.55349048870E+02  0.59658869597E+02  0.00000000000E+00 0.  1.
</event>
<event>
 4    1  0.3183954E+006  0.3025338E+02  0.7546771E-02  0.1417407E+00
         21   -1    0    0  504  501  0.00000000000E+00  0.00000000000E+00  0.40959845128E+01  0.40959845128E+01  0.00000000000E+00 0. -1.
         21   -1    0    0  503  502 -0.00000000000E+00 -0.00000000000E+00 -0.65377134820E+03  0.65377134820E+03  0.00000000000E+00 0.  1.
         21    1    1    2  503  501 -0.11173298940E+02 -0.28114485921E+02 -0.57974004646E+02  0.65393058825E+02  0.00000000000E+00 0. -1.
         21    1    1    2  504  502  0.11173298940E+02  0.28114485921E+02 -0.59170135904E+03  0.59247427388E+03  0.00000000000E+00 0.  1.
</event>
<event>
 4    1  0.3183954E+006  0.2006149E+02  0.7546771E-02  0.1533098E+00
         21   -1    0    0  504  501  0.00000000000E+00  0.00000000000E+00  0.31293227216E+03  0.31293227216E+03  0.00000000000E+00 0.  1.
         21   -1    0    0  503  502 -0.00000000000E+00 -0.00000000000E+00 -0.62672113869E+02  0.62672113869E+02  0.00000000000E+00 0.  1.
         21    1    1    2  503  501 -0.10129818414E+01  0.20035895735E+02 -0.60735167502E+02  0.63962675222E+02  0.00000000000E+00 0.  1.
         21    1    1    2  504  502  0.10129818414E+01 -0.20035895735E+02  0.31099532579E+03  0.31164171080E+03  0.00000000000E+00 0.  1.
</event>
<event>
 4    1  0.3183954E+006  0.3501062E+02  0.7546771E-02  0.1380489E+00
         21   -1    0    0  502  501  0.00000000000E+00  0.00000000000E+00  0.14446530021E+02  0.14446530021E+02  0.00000000000E+00 0.  1.
         21   -1    0    0  503  502 -0.00000000000E+00 -0.00000000000E+00 -0.18860939191E+03  0.18860939191E+03  0.00000000000E+00 0.  1.
         21    1    1    2  503  504 -0.18518925718E+02  0.29711826115E+02 -0.16238650031E+03  0.16611778564E+03  0.00000000000E+00 0.  1.
         21    1    1    2  504  501  0.18518925718E+02 -0.29711826115E+02 -0.11776361572E+02  0.36938136292E+02  0.00000000000E+00 0.  1.
</event>
<event>
 4    1  0.3183954E+006  0.2907300E+02  0.7546771E-02  0.1427827E+00
         21   -1    0    0  503  501  0.00000000000E+00  0.00000000000E+00  0.13681624596E+03  0.13681624596E+03  0.00000000000E+00 0.  1.
         21   -1    0    0  504  502 -0.00000000000E+00 -0.00000000000E+00 -0.37767374046E+02  0.37767374046E+02  0.00000000000E+00 0. -1.
         21    1    1    2  503  502 -0.25482678641E+02 -0.13995434736E+02 -0.30309253458E+02  0.41998689853E+02  0.00000000000E+00 0. -1.
         21    1    1    2  504  501  0.25482678641E+02  0.13995434736E+02  0.12935812537E+03  0.13258493015E+03  0.00000000000E+00 0.  1.
</event>
<event>
 4    1  0.3183954E+006  0.2247832E+02  0.7546771E-02  0.1499155E+00
         21   -1    0    0  502  501  0.00000000000E+00  0.00000000000E+00  0.24790841205E+01  0.24790841205E+01  0.00000000000E+00 0.  1.
         21   -1    0    0  504  502 -0.00000000000E+00 -0.00000000000E+00 -0.14659181826E+04  0.14659181826E+04  0.00000000000E+00 0. -1.
         21    1    1    2  503  501  0.49691703983E+01  0.21922180483E+02 -0.50470156058E+02  0.55249536687E+02  0.00000000000E+00 0.  1.
         21    1    1    2  504  503 -0.49691703983E+01 -0.21922180483E+02 -0.14129689425E+04  0.14131477301E+04  0.00000000000E+00 0. -1.
</event>
<event>
 4    1  0.3183954E+006  0.2845648E+02  0.7546771E-02  0.1433502E+00
         21   -1    0    0  503  501  0.00000000000E+00  0.00000000000E+00  0.38983644480E+02  0.38983644480E+02  0.00000000000E+00 0. -1.
         21   -1    0    0  504  502 -0.00000000000E+00 -0.00000000000E+00 -0.43453194640E+02  0.43453194640E+02  0.00000000000E+00 0. -1.
         21    1    1    2  503  502  0.27849913256E+02 -0.58441068187E+01 -0.32013953285E+02  0.42832983293E+02  0.00000000000E+00 0. -1.
         21    1    1    2  504  501 -0.27849913256E+02  0.58441068187E+01  0.27544403125E+02  0.39603855827E+02  0.00000000000E+00 0. -1.
</event>
<event>
 4    1  0.3183954E+006  0.5636464E+02  0.7546771E-02  0.1272711E+00
         21   -1    0    0  502  501  0.00000000000E+00  0.00000000000E+00  0.19253160221E+02  0.19253160221E+02  0.00000000000E+00 0. -1.
         21   -1    0    0  504  502 -0.00000000000E+00 -0.00000000000E+00 -0.75329328065E+03  0.75329328065E+03  0.00000000000E+00 0.  1.
         21    1    1    2  503  501  0.36249927099E+02  0.43161498474E+02 -0.25665546954E+02  0.61932967519E+02  0.00000000000E+00 0. -1.
         21    1    1    2  504  503 -0.36249927099E+02 -0.43161498474E+02 -0.70837457347E+03  0.71061347335E+03  0.00000000000E+00 0.  1.
</event>
<event>
 4    1  0.3183954E+006  0.2840183E+02  0.7546771E-02  0.1434013E+00
         21   -1    0    0  503  501  0.00000000000E+00  0.00000000000E+00  0.34488069347E+02  0.34488069347E+02  0.00000000000E+00 0. -1.
         21   -1    0    0  504  502 -0.00000000000E+00 -0.00000000000E+00 -0.24388410151E+02  0.24388410151E+02  0.00000000000E+00 0. -1.
         21    1    1    2  503  502  0.17906317301E+02  0.22046041501E+02 -0.90746351687E+00  0.28416326912E+02  0.00000000000E+00 0. -1.
         21    1    1    2  504  501 -0.17906317301E+02 -0.22046041501E+02  0.11007122713E+02  0.30460152586E+02  0.00000000000E+00 0. -1.
</event>
<event>
 4    1  0.3183954E+006  0.2016558E+02  0.7546771E-02  0.1531519E+00
         21   -1    0    0  504  501  0.00000000000E+00  0.00000000000E+00  0.87605681409E+00  0.87605681409E+00  0.00000000000E+00 0. -1.
         21   -1    0    0  503  502 -0.00000000000E+00 -0.00000000000E+00 -0.49806115810E+03  0.49806115810E+03  0.00000000000E+00 0. -1.
         21    1    1    2  503  501  0.17477164280E+02 -0.10059797162E+02 -0.31365548642E+03  0.31430306227E+03  0.00000000000E+00 0. -1.
         21    1    1    2  504  502 -0.17477164280E+02  0.10059797162E+02 -0.18352961487E+03  0.18463415265E+03  0.00000000000E+00 0. -1.
</event>
<event>
 4    1  0.3183954E+006  0.2639637E+02  0.7546771E-02  0.1453768E+00
         21   -1    0    0  503  501  0.00000000000E+00  0.00000000000E+00  0.45779664753E+02  0.45779664753E+02  0.00000000000E+00 0. -1.
         21   -1    0    0  504  502 -0.00000000000E+00 -0.00000000000E+00 -0.41423671223E+02  0.41423671223E+02  0.00000000000E+00 0. -1.
         21    1    1    2  503  502 -0.21207216301E+02 -0.15716942232E+02  0.36856437015E+02  0.45333930403E+02  0.00000000000E+00 0. -1.
         21    1    1    2  504  501  0.21207216301E+02  0.15716942232E+02 -0.32500443485E+02  0.41869405573E+02  0.00000000000E+00 0. -1.
</event>
<event>
 4    1  0.3183954E+006  0.2113858E+02  0.7546771E-02  0.1517295E+00
         21   -1    0    0  504  501  0.00000000000E+00  0.00000000000E+00  0.12105196671E+02  0.12105196671E+02  0.00000000000E+00 0.  1.
         21   -1    0    0  503  502 -0.00000000000E+00 -0.00000000000E+00 -0.44084514997E+02  0.44084514997E+02  0.00000000000E+00 0.  1.
         21    1    1    2  503  501 -0.10975585779E+02 -0.18065880982E+02 -0.46581385307E+01  0.21645733839E+02  0.00000000000E+00 0.  1.
         21    1    1    2  504  502  0.10975585779E+02  0.18065880982E+02 -0.27321179796E+02  0.34543977829E+02  0.00000000000E+00 0.  1.
</event>
<event>
 4    1  0.3183954E+006  0.3709225E+02  0.7546771E-02  0.1366423E+00
         21   -1    0    0  504  501  0.00000000000E+00  0.00000000000E+00  0.13126785890E+03  0.13126785890E+03  0.00000000000E+00 0.  1.
         21   -1    0    0  503  502 -0.00000000000E+00 -0.00000000000E+00 -0.28275670746E+02  0.28275670746E+02  0.00000000000E+00 0.  1.
         21    1    1    2  503  501  0.31271391267E+02  0.19948318140E+02  0.11477896181E+03  0.12062356894E+03  0.00000000000E+00 0.  1.
         21    1    1    2  504  502 -0.31271391267E+02 -0.19948318140E+02 -0.11786773657E+02  0.38919960710E+02  0.00000000000E+00 0.  1.
</event>
<event>
 4    1  0.3183954E+006  0.2374533E+02  0.7546771E-02  0.1483345E+00
         21   -1    0    0  503  501  0.00000000000E+00  0.00000000000E+00  0.20058602892E+03  0.20058602892E+03  0.00000000000E+00 0. -1.
         21   -1    0    0  504  502 -0.00000000000E+00 -0.00000000000E+00 -0.10524098366E+02  0.10524098366E+02  0.00000000000E+00 0.  1.
         21    1    1    2  503  502  0.17836323320E+02  0.15675020499E+02  0.46656042225E+01  0.24199350404E+02  0.00000000000E+00 0.  1.
         21    1    1    2  504  501 -0.17836323320E+02 -0.15675020499E+02  0.18539632633E+03  0.18691077688E+03  0.00000000000E+00 0. -1.
</event>
<event>
 4    1  0.3183954E+006  0.2292215E+02  0.7546771E-02  0.1493478E+00
         21   -1    0    0  502  501  0.00000000000E+00  0.00000000000E+00  0.20611308745E+02  0.20611308745E+02  0.00000000000E+00 0.  1.
         21   -1    0    0  503  502 -0.00000000000E+00 -0.00000000000E+00 -0.13810927911E+03  0.13810927911E+03  0.00000000000E+00 0.  1.
         21    1    1    2  503  504 -0.86423452532E+01  0.21230512617E+02 -0.13041186072E+03  0.13241101999E+03  0.00000000000E+00 0.  1.
         21    1    1    2  504  501  0.86423452532E+01 -0.21230512617E+02  0.12913890353E+02  0.26309567870E+02  0.00000000000E+00 0.  1.
</event>
<event>
 4    1  0.3183954E+006  0.2061093E+02  0.7546771E-02  0.1524893E+00
         21   -1    0    0  503  501  0.00000000000E+00  0.00000000000E+00  0.67224161539E+02  0.67224161539E+02  0.00000000000E+00 0. -1.
         21   -1    0    0  504  502 -0.00000000000E+00 -0.00000000000E+00 -0.29117578604E+02  0.29117578604E+02  0.00000000000E+00 0.  1.
         21    1    1    2  503  502 -0.13089768624E+02 -0.15920691433E+02  0.61677642064E+02  0.65030315921E+02  0.00000000000E+00 0. -1.
         21    1    1    2  504  501  0.13089768624E+02  0.15920691433E+02 -0.23571059128E+02  0.31311424221E+02  0.00000000000E+00 0.  1.
</event>
<event>
 4    1  0.3183954E+006  0.4151528E+02  0.7546771E-02  0.1339828E+00
         21   -1    0    0  504  501  0.00000000000E+00  0.00000000000E+00  0.23178484767E+01  0.23178484767E+01  0.00000000000E+00 0.  1.
         21   -1    0    0  503  502 -0.00000000000E+00 -0.00000000000E+00 -0.98261444390E+03  0.98261444390E+03  0.00000000000E+00 0.  1.
         21    1    1    2  503  501 -0.21054519281E+02  0.35780244023E+02 -0.24725809014E+03  0.25071912927E+03  0.00000000000E+00 0.  1.
         21    1    1    2  504  502  0.21054519281E+02 -0.35780244023E+02 -0.73303850529E+03  0.73421316311E+03  0.00000000000E+00 0.  1.
</event>
<event>
 4    1  0.3183954E+006  0.2408556E+02  0.7546771E-02  0.1479299E+00
         21   -1    0    0  503  501  0.00000000000E+00  0.00000000000E+00  0.28797212220E+02  0.28797212220E+02  0.00000000000E+00 0.  1.
         21   -1    0    0  501  502 -0.00000000000E+00 -0.00000000000E+00 -0.44464921912E+03  0.44464921912E+03  0.00000000000E+00 0. -1.
         21    1    1    2  503  504 -0.17831752579E+02  0.16190824307E+02  0.23372695860E+02  0.33561839991E+02  0.00000000000E+00 0.  1.
         21    1    1    2  504  502  0.17831752579E+02 -0.16190824307E+02 -0.43922470276E+03  0.43988459135E+03  0.00000000000E+00 0. -1.
</event>
<event>
 4    1  0.3183954E+006  0.2499280E+02  0.7546771E-02  0.1468884E+00
         21   -1    0    0  503  501  0.00000000000E+00  0.00000000000E+00  0.66180212675E+03  0.66180212675E+03  0.00000000000E+00 0. -1.
         21   -1    0    0  504  502 -0.00000000000E+00 -0.00000000000E+00 -0.40131795678E+01  0.40131795678E+01  0.00000000000E+00 0.  1.
         21    1    1    2  503  502 -0.19521652113E+02 -0.15605930070E+02  0.37754755953E+02  0.45277605410E+02  0.00000000000E+00 0.  1.
         21    1    1    2  504  501  0.19521652113E+02  0.15605930070E+02  0.62003419123E+03  0.62053770091E+03  0.00000000000E+00 0. -1.
</event>
<event>
 4    1  0.3183954E+006  0.2980871E+02  0.7546771E-02  0.1421266E+00
         21   -1    0    0  504  501  0.00000000000E+00  0.00000000000E+00  0.62825762563E+02  0.62825762563E+02  0.00000000000E+00 0. -1.
         21   -1    0    0  503  502 -0.00000000000E+00 -0.00000000000E+00 -0.26511851924E+02  0.26511851924E+02  0.00000000000E+00 0. -1.
         21    1    1    2  503  501  0.41800033587E+00  0.29805780318E+02  0.48667149045E+02  0.57070576139E+02  0.00000000000E+00 0. -1.
         21    1    1    2  504  502 -0.41800033587E+00 -0.29805780318E+02 -0.12353238406E+02  0.32267038348E+02  0.00000000000E+00 0. -1.
</event>
<event>
 4    1  0.3183954E+006  0.2636476E+02  0.7546771E-02  0.1454096E+00
         21   -1    0    0  503  501  0.00000000000E+00  0.00000000000E+00  0.13798723048E+03  0.13798723048E+03  0.00000000000E+00 0.  1.
         21   -1    0    0  504  502 -0.00000000000E+00 -0.00000000000E+00 -0.54206058712E+01  0.54206058712E+01  0.00000000000E+00 0.  1.
         21    1    1    2  503  502 -0.10859813452E+02 -0.24024260577E+02  0.85347555446E+02  0.89326960461E+02  0.00000000000E+00 0.  1.
         21    1    1    2  504  501  0.10859813452E+02  0.24024260577E+02  0.47219069160E+02  0.54080875888E+02  0.00000000000E+00 0.  1.
</event>
<event>
 4    1  0.3183954E+006  0.2140796E+02  0.7546771E-02  0.1513519E+00
         21   -1    0    0  502  501  0.00000000000E+00  0.00000000000E+00  0.10332668708E+03  0.10332668708E+03  0.00000000000E+00 0. -1.
         21   -1    0    0  504  502 -0.00000000000E+00 -0.00000000000E+00 -0.53887883769E+02  0.53887883769E+02  0.00000000000E+00 0. -1.
         21    1    1    2  503  501 -0.21073327719E+02 -0.37703391559E+01  0.10002219023E+03  0.10228753168E+03  0.00000000000E+00 0. -1.
         21    1    1    2  504  503  0.21073327719E+02  0.37703391559E+01 -0.50583386925E+02  0.54927039164E+02  0.00000000000E+00 0. -1.
</event>
<event>
 4    1  0.3183954E+006  0.3169745E+02  0.7546771E-02  0.1405397E+00
         21   -1    0    0  503  501  0.00000000000E+00  0.00000000000E+00  0.29906015858E+01  0.29906015858E+01  0.00000000000E+00 0.  1.
         21   -1    0    0  504  502 -0.00000000000E+00 -0.00000000000E+00 -0.35613640820E+03  0.35613640820E+03  0.00000000000E+00 0.  1.
         21    1    1    2  503  502  0.28483999889E+02 -0.13906485132E+02 -0.21931048760E+03  0.22158930152E+03  0.00000000000E+00 0.  1.
         21    1    1    2  504  501 -0.28483999889E+02  0.13906485132E+02 -0.13383531902E+03  0.13753770827E+03  0.00000000000E+00 0.  1.
</event>
<event>
 4    1  0.3183954E+006  0.2491592E+02  0.7546771E-02  0.1469746E+00
         21   -1    0    0  504  501  0.00000000000E+00  0.00000000000E+00  0.23703558247E+02  0.23703558247E+02  0.00000000000E+00 0.  1.
         21   -1    0    0  503  502 -0.00000000000E+00 -0.00000000000E+00 -0.18955279339E+03  0.18955279339E+03  0.00000000000E+00 0. -1.
         21    1    1    2  503  501 -0.56807933395E+01  0.24259674868E+02  0.16063499949E+02  0.29645223363E+02  0.00000000000E+00 0.  1.
         21    1    1    2  504  502  0.56807933395E+01 -0.24259674868E+02 -0.18191273509E+03  0.18361112828E+03  0.00000000000E+00 0. -1.
</event>
<event>
 4    1  0.3183954E+006  0.2787570E+02  0.7546771E-02  0.1439004E+00
         21   -1    0    0  502  501  0.00000000000E+00  0.00000000000E+00  0.88645988015E+01  0.88645988015E+01  0.00000000000E+00 0.  1.
         21   -1    0    0  504  502 -0.00000000000E+00 -0.00000000000E+00 -0.46170885753E+03  0.46170885753E+03  0.00000000000E+00 0. -1.
         21    1    1    2  503  501 -0.68842065366E+01 -0.27012261842E+02 -0.14645246888E+02  0.31488693937E+02  0.00000000000E+00 0.  1.
         21    1    1    2  504  503  0.68842065366E+01  0.27012261842E+02 -0.43819901184E+03  0.43908476239E+03  0.00000000000E+00 0. -1.
</event>
<event>
 4    1  0.3183954E+006  0.3109915E+02  0.7546771E-02  0.1410279E+00
         21   -1    0    0  504  501  0.00000000000E+00  0.00000000000E+00  0.79023785618E+02  0.79023785618E+02  0.00000000000E+00 0. -1.
         21   -1    0    0  503  502 -0.00000000000E+00 -0.00000000000E+00 -0.19332791975E+02  0.19332791975E+02  0.00000000000E+00 0. -1.
         21    1    1    2  503  501 -0.30980167530E+02  0.27177484884E+01  0.59635546440E+02  0.67257381277E+02  0.00000000000E+00 0. -1.
         21    1    1    2  504  502  0.30980167530E+02 -0.27177484884E+01  0.55447202754E-01  0.31099196315E+02  0.00000000000E+00 0. -1.
</event>
<event>
 4    1  0.3183954E+006  0.2102994E+02  0.7546771E-02  0.1518838E+00
         21   -1    0    0  503  501  0.00000000000E+00  0.00000000000E+00  0.12810794111E+03  0.12810794111E+03  0.00000000000E+00 0. -1.
         21   -1    0    0  501  502 -0.00000000000E+00 -0.00000000000E+00 -0.54033691244E+03  0.54033691244E+03  0.00000000000E+00 0. -1.
         21    1    1    2  503  504  0.19557840885E+02  0.77297545009E+01  0.12703855093E+03  0.12876743248E+03  0.00000000000E+00 0. -1.
         21    1    1    2  504  502 -0.19557840885E+02 -0.77297545009E+01 -0.53926752226E+03  0.53967742107E+03  0.00000000000E+00 0. -1.
</event>
<event>
 4    1  0.3183954E+006  0.3714064E+02  0.7546771E-02  0.1366108E+00
         21   -1    0    0  504  501  0.00000000000E+00  0.00000000000E+00  0.59745572411E+02  0.59745572411E+02  0.00000000000E+00 0.  1.
         21   -1    0    0  503  502 -0.00000000000E+00 -0.00000000000E+00 -0.12836527874E+03  0.12836527874E+03  0.00000000000E+00 0.  1.
         21    1    1    2  503  501 -0.19174829143E+02  0.31808071426E+02  0.50867991142E+02  0.62983966240E+02  0.00000000000E+00 0.  1.
         21    1    1    2  504  502  0.19174829143E+02 -0.31808071426E+02 -0.11948769747E+03  0.12512688491E+03  0.00000000000E+00 0.  1.
</event>
<event>
 4    1  0.3183954E+006  0.2488914E+02  0.7546771E-02  0.1470047E+00
         21   -1    0    0  502  501  0.00000000000E+00  0.00000000000E+00  0.12511333216E+02  0.12511333216E+02  0.00000000000E+00 0. -1.
         21   -1    0    0  504  502 -0.00000000000E+00 -0.00000000000E+00 -0.51872920417E+02  0.51872920417E+02  0.00000000000E+00 0. -1.
         21    1    1    2  503  501  0.22952093991E+02  0.96265677616E+01 -0.12813920776E+02  0.27994034919E+02  0.00000000000E+00 0. -1.
         21    1    1    2  504  503 -0.22952093991E+02 -0.96265677616E+01 -0.26547666425E+02  0.36390218714E+02  0.00000000000E+00 0. -1.
</event>
<event>
 4    1  0.3183954E+006  0.2956969E+02  0.7546771E-02  0.1423373E+00
         21   -1    0    0  504  501  0.00000000000E+00  0.00000000000E+00  0.87753089087E+01  0.87753089087E+01  0.00000000000E+00 0.  1.
         21   -1    0    0  503  502 -0.00000000000E+00 -0.00000000000E+00 -0.65269006090E+03  0.65269006090E+03  0.00000000000E+00 0. -1.
         21    1    1    2  503  501 -0.30785637715E+00 -0.29568086175E+02 -0.17514318058E+02  0.34367394906E+02  0.00000000000E+00 0.  1.
         21    1    1    2  504  502  0.30785637715E+00  0.29568086175E+02 -0.62640043394E+03  0.62709797491E+03  0.00000000000E+00 0. -1.
</event>
<event>
 4    1  0.3183954E+006  0.2247903E+02  0.7546771E-02  0.1499146E+00
         21   -1    0    0  504  501  0.00000000000E+00  0.00000000000E+00  0.64548726657E+02  0.64548726657E+02  0.00000000000E+00 0. -1.
         21   -1    0    0  503  502 -0.00000000000E+00 -0.00000000000E+00 -0.15562476993E+02  0.15562476993E+02  0.00000000000E+00 0. -1.
         21    1    1    2  503  501 -0.18294158881E+02  0.13062563785E+02  0.52730930331E+02  0.57322402561E+02  0.00000000000E+00 0. -1.
         21    1    1    2  504  502  0.18294158881E+02 -0.13062563785E+02 -0.37446806667E+01  0.22788801090E+02  0.00000000000E+00 0. -1.
</event>
<event>
 4    1  0.3183954E+006  0.2745182E+02  0.7546771E-02  0.1443122E+00
         21   -1    0    0  504  501  0.00000000000E+00  0.00000000000E+00  0.23263030334E+02  0.23263030334E+02  0.00000000000E+00 0. -1.
         21   -1    0    0  503  502 -0.00000000000E+00 -0.00000000000E+00 -0.34447682297E+02  0.34447682297E+02  0.00000000000E+00 0. -1.
         21    1    1    2  503  501  0.27133590929E+02  0.41678117379E+01 -0.12636385601E+02  0.30220533622E+02  0.00000000000E+00 0. -1.
         21    1    1    2  504  502 -0.27133590929E+02 -0.41678117379E+01  0.14517336379E+01  0.27490179009E+02  0.00000000000E+00 0. -1.
</event>
<event>
 4    1  0.3183954E+006  0.2015952E+02  0.7546771E-02  0.1531611E+00
         21   -1    0    0  503  501  0.00000000000E+00  0.00000000000E+00  0.49153359996E+01  0.49153359996E+01  0.00000000000E+00 0. -1.
         21   -1    0    0  501  502 -0.00000000000E+00 -0.00000000000E+00 -0.82712217288E+02  0.82712217288E+02  0.00000000000E+00 0.  1.
         21    1    1    2  503  504  0.20159074466E+02  0.13355893800E+00 -0.38050662657E+02  0.43061108322E+02  0.00000000000E+00 0.  1.
         21    1    1    2  504  502 -0.20159074466E+02 -0.13355893800E+00 -0.39746218632E+02  0.44566444966E+02  0.00000000000E+00 0. -1.
</event>
<event>
 4    1  0.3183954E+006  0.2492952E+02  0.7546771E-02  0.1469593E+00
         21   -1    0    0  503  501  0.00000000000E+00  0.00000000000E+00  0.46881891889E+01  0.46881891889E+01  0.00000000000E+00 0.  1.
         21   -1    0    0  501  502 -0.00000000000E+00 -0.00000000000E+00 -0.25890808894E+03  0.25890808894E+03  0.00000000000E+00 0. -1.
         21    1    1    2  503  504  0.17992306532E+02 -0.17255658249E+02 -0.35040510178E+02  0.43003699719E+02  0.00000000000E+00 0.  1.
         21    1    1    2  504  502 -0.17992306532E+02  0.17255658249E+02 -0.21917938957E+03  0.22059257841E+03  0.00000000000E+00 0. -1.
</event>
<event>
 4    1  0.3183954E+006  0.2029751E+02  0.7546771E-02  0.1529535E+00
         21   -1    0    0  504  501  0.00000000000E+00  0.00000000000E+00  0.56950798232E+01  0.56950798232E+01  0.00000000000E+00 0. -1.
         21   -1    0    0  503  502 -0.00000000000E+00 -0.00000000000E+00 -0.74805425728E+02  0.74805425728E+02  0.00000000000E+00 0. -1.
         21    1    1    2  503  501 -0.80405743161E+00 -0.20281575474E+02 -0.41860569559E+02  0.46521995828E+02  0.00000000000E+00 0. -1.
         21    1    1    2  504  502  0.80405743161E+00  0.20281575474E+02 -0.27249776346E+02  0.33978509722E+02  0.00000000000E+00 0. -1.
</event>
<event>
 4    1  0.3183954E+006  0.2071167E+02  0.7546771E-02  0.1523422E+00
         21   -1    0    0  503  501  0.00000000000E+00  0.00000000000E+00  0.53481190552E+02  0.53481190552E+02  0.00000000000E+00 0.  1.
         21   -1    0    0  504  502 -0.00000000000E+00 -0.00000000000E+00 -0.17671808938E+02  0.17671808938E+02  0.00000000000E+00 0.  1.
         21    1    1    2  503  502  0.18838391147E+02  0.86074603466E+01 -0.83861373838E+01  0.22345036470E+02  0.00000000000E+00 0.  1.
         21    1    1    2  504  501 -0.18838391147E+02 -0.86074603466E+01  0.44195518998E+02  0.48807963020E+02  0.00000000000E+00 0.  1.
</event>
<event>
 4    1  0.3183954E+006  0.2529704E+02  0.7546771E-02  0.1465508E+00
         21   -1    0    0  503  501  0.00000000000E+00  0.00000000000E+00  0.20587003233E+02  0.20587003233E+02  0.00000000000E+00 0.  1.
         21   -1    0    0  501  502 -0.00000000000E+00 -0.00000000000E+00 -0.55654670832E+02  0.55654670832E+02  0.00000000000E+00 0.  1.
         21    1    1    2  503  504 -0.10089266740E+02  0.23197994430E+02  0.77949410876E+01  0.26470764165E+02  0.00000000000E+00 0.  1.
         21    1    1    2  504  502  0.10089266740E+02 -0.23197994430E+02 -0.42862608686E+02  0.49770909900E+02  0.00000000000E+00 0.  1.
</event>
<event>
 4    1  0.3183954E+006  0.2339570E+02  0.7546771E-02  0.1487588E+00
         21   -1    0    0  504  501  0.00000000000E+00  0.00000000000E+00  0.69247568035E+01  0.69247568035E+01  0.00000000000E+00 0.  1.
         21   -1    0    0  503  502 -0.00000000000E+00 -0.00000000000E+00 -0.79140577879E+02  0.79140577879E+02  0.00000000000E+00 0.  1.
         21    1    1    2  503  501  0.13515057258E+02 -0.19097176991E+02 -0.34602914554E+02  0.41769853212E+02  0.00000000000E+00 0.  1.
         21    1    1    2  504  502 -0.13515057258E+02  0.19097176991E+02 -0.37612906522E+02  0.44295481471E+02  0.00000000000E+00 0.  1.
</event>
<event>
 4    1  0.3183954E+006  0.4978740E+02  0.7546771E-02  0.1299097E+00
         21   -1    0    0  502  501  0.00000000000E+00  0.00000000000E+00  0.19620923009E+02  0.19620923009E+02  0.00000000000E+00 0. -1.
         21   -1    0    0  504  502 -0.00000000000E+00 -0.00000000000E+00 -0.27772875324E+03  0.27772875324E+03  0.00000000000E+00 0.  1.
         21    1    1    2  503  501 -0.47031080327E+02  0.16335939217E+02 -0.19284139684E+02  0.53391604866E+02  0.00000000000E+00 0. -1.
         21    1    1    2  504  503  0.47031080327E+02 -0.16335939217E+02 -0.23882369055E+03  0.24395807139E+03  0.00000000000E+00 0.  1.
</event>
<event>
 4    1  0.3183954E+006  0.2094563E+02  0.7546771E-02  0.1520042E+00
         21   -1    0    0  502  501  0.00000000000E+00  0.00000000000E+00  0.82149320683E+01  0.82149320683E+01  0.00000000000E+00 0. -1.
         21   -1    0    0  503  502 -0.00000000000E+00 -0.00000000000E+00 -0.32283238161E+03  0.32283238161E+03  0.00000000000E+00 0. -1.
         21    1    1    2  503  504  0.20010741316E+02  0.61878609153E+01 -0.30852282865E+03  0.30923301116E+03  0.00000000000E+00 0. -1.
         21    1    1    2  504  501 -0.20010741316E+02 -0.61878609153E+01 -0.60946208922E+01  0.21814302522E+02  0.00000000000E+00 0. -1.
</event>
<event>
 4    1  0.3183954E+006  0.2127469E+02  0.7546771E-02  0.1515379E+00
         21   -1    0    0  503  501  0.00000000000E+00  0.00000000000E+00  0.30169185581E+03  0.30169185581E+03  0.00000000000E+00 0.  1.
         21   -1    0    0  501  502 -0.00000000000E+00 -0.00000000000E+00 -0.43073770793E+01  0.43073770793E+01  0.00000000000E+00 0. -1.
         21    1    1    2  503  504  0.19903600643E+02  0.75139164477E+01  0.27220595184E+03  0.27303606443E+03  0.00000000000E+00 0.  1.
         21    1    1    2  504  502 -0.19903600643E+02 -0.75139164477E+01  0.25178526892E+02  0.32963168467E+02  0.00000000000E+00 0. -1.
</event>
<event>
 4    1  0.3183954E+006  0.2594227E+02  0.7546771E-02  0.1458533E+00
         21   -1    0    0  502  501  0.00000000000E+00  0.00000000000E+00  0.11673833257E+03  0.11673833257E+03  0.00000000000E+00 0. -1.
         21   -1    0    0  503  502 -0.00000000000E+00 -0.00000000000E+00 -0.57655180550E+01  0.57655180550E+01  0.00000000000E+00 0. -1.
         21    1    1    2  503  504 -0.69902073987E+00 -0.25932851789E+02  0.54930033655E+02  0.60747922016E+02  0.00000000000E+00 0. -1.
         21    1    1    2  504  501  0.69902073987E+00  0.25932851789E+02  0.56042780864E+02  0.61755928613E+02  0.00000000000E+00 0. -1.
</event>
<event>
 4    1  0.3183954E+006  0.2442253E+02  0.7546771E-02  0.1475368E+00
         21   -1    0    0  504  501  0.00000000000E+00  0.00000000000E+00  0.56939528951E+01  0.56939528951E+01  0.00000000000E+00 0.  1.
         21   -1    0    0  503  502 -0.00000000000E+00 -0.00000000000E+00 -0.89640994265E+03  0.89640994265E+03  0.00000000000E+00 0. -1.
         21    1    1    2  503  501  0.15316772943E+02 -0.19022518751E+02 -0.86923678811E+03  0.86957981437E+03  0.00000000000E+00 0. -1.
         21    1    1    2  504  502 -0.15316772943E+02  0.19022518751E+02 -0.21479201643E+02  0.32524081175E+02  0.00000000000E+00 0.  1.
</event>
<event>
 4    1  0.3183954E+006  0.2097781E+02  0.7546771E-02  0.1519582E+00
         21   -1    0    0  504  501  0.00000000000E+00  0.00000000000E+00  0.21239317941E+03  0.21239317941E+03  0.00000000000E+00 0. -1.
         21   -1    0    0  503  502 -0.00000000000E+00 -0.00000000000E+00 -0.46533698990E+01  0.46533698990E+01  0.00000000000E+00 0. -1.
         21    1    1    2  503  501  0.19324333557E+02 -0.81632619931E+01  0.18469908326E+03  0.18588657851E+03  0.00000000000E+00 0. -1.
         21    1    1    2  504  502 -0.19324333557E+02  0.81632619931E+01  0.23040726245E+02  0.31159970791E+02  0.00000000000E+00 0. -1.
</event>
<event>
 4    1  0.3183954E+006  0.2155784E+02  0.7546771E-02  0.1511447E+00
         21   -1    0    0  504  501  0.00000000000E+00  0.00000000000E+00  0.14387850609E+02  0.14387850609E+02  0.00000000000E+00 0.  1.
         21   -1    0    0  501  502 -0.00000000000E+00 -0.00000000000E+00 -0.10672828175E+03  0.10672828175E+03  0.00000000000E+00 0. -1.
         21    1    1    2  503  502 -0.14236007678E+02  0.16188781807E+02 -0.96740873114E+02  0.99113758388E+02  0.00000000000E+00 0. -1.
         21    1    1    2  504  503  0.14236007678E+02 -0.16188781807E+02  0.44004419679E+01  0.22002373975E+02  0.00000000000E+00 0.  1.
</event>
<event>
 4    1  0.3183954E+006  0.2022118E+02  0.7546771E-02  0.1530681E+00
         21   -1    0    0  503  501  0.00000000000E+00  0.00000000000E+00  0.59608430839E+02  0.59608430839E+02  0.00000000000E+00 0.  1.
         21   -1    0    0  504  502 -0.00000000000E+00 -0.00000000000E+00 -0.56034039037E+03  0.56034039037E+03  0.00000000000E+00 0.  1.
         21    1    1    2  503  502  0.16518428173E+02 -0.11663509725E+02  0.57705231317E+02  0.61145642933E+02  0.00000000000E+00 0.  1.
         21    1    1    2  504  501 -0.16518428173E+02  0.11663509725E+02 -0.55843719085E+03  0.55880317827E+03  0.00000000000E+00 0.  1.
</event>
<event>
 4    1  0.3183954E+006  0.3138713E+02  0.7546771E-02  0.1407913E+00
         21   -1    0    0  502  501  0.00000000000E+00  0.00000000000E+00  0.28098034926E+03  0.28098034926E+03  0.00000000000E+00 0.  1.
         21   -1    0    0  504  502 -0.00000000000E+00 -0.00000000000E+00 -0.83012652306E+01  0.83012652306E+01  0.00000000000E+00 0. -1.
         21    1    1    2  503  501 -0.74859989401E+00  0.31378204990E+02  0.24627033492E+03  0.24826242167E+03  0.00000000000E+00 0.  1.
         21    1    1    2  504  503  0.74859989401E+00 -0.31378204990E+02  0.26408749102E+02  0.41019192817E+02  0.00000000000E+00 0. -1.
</event>
<event>
 4    1  0.3183954E+006  0.2903613E+02  0.7546771E-02  0.1428161E+00
         21   -1    0    0  503  501  0.00000000000E+00  0.00000000000E+00  0.33911175145E+03  0.33911175145E+03  0.00000000000E+00 0.  1.
         21   -1    0    0  501  502 -0.00000000000E+00 -0.00000000000E+00 -0.37296595979E+02  0.37296595979E+02  0.00000000000E+00 0.  1.
         21    1    1    2  503  504 -0.18666044952E+02 -0.22241299709E+02  0.33273073261E+03  0.33399526504E+03  0.00000000000E+00 0.  1.
         21    1    1    2  504  502  0.18666044952E+02  0.22241299709E+02 -0.30915577145E+02  0.42413082382E+02  0.00000000000E+00 0.  1.
</event>
<event>
 4    1  0.3183954E+006  0.2500873E+02  0.7546771E-02  0.1468706E+00
         21   -1    0    0  504  501  0.00000000000E+00  0.00000000000E+00  0.16409108348E+02  0.16409108348E+02  0.00000000000E+00 0.  1.
         21   -1    0    0  503  502 -0.00000000000E+00 -0.00000000000E+00 -0.39377250517E+02  0.39377250517E+02  0.00000000000E+00 0.  1.
         21    1    1    2  503  501 -0.18214815141E+02 -0.17136431221E+02 -0.64905101951E+01  0.25837250012E+02  0.00000000000E+00 0.  1.
         21    1    1    2  504  502  0.18214815141E+02  0.17136431221E+02 -0.16477631974E+02  0.29949108852E+02  0.00000000000E+00 0.  1.
</event>
<event>
 4    1  0.3183954E+006  0.3038930E+02  0.7546771E-02  0.1416243E+00
         21   -1    0    0  504  501  0.00000000000E+00  0.00000000000E+00  0.25963853733E+02  0.25963853733E+02  0.00000000000E+00 0. -1.
         21   -1    0    0  503  502 -0.00000000000E+00 -0.00000000000E+00 -0.43690930110E+02  0.43690930110E+02  0.00000000000E+00 0. -1.
         21    1    1    2  503  501 -0.19281576174E+02  0.23488938951E+02  0.61524452079E+01  0.31005838399E+02  0.00000000000E+00 0. -1.
         21    1    1    2  504  502  0.19281576174E+02 -0.23488938951E+02 -0.23879521585E+02  0.38648945443E+02  0.00000000000E+00 0. -1.
</event>
<event>
 4    1  0.3183954E+006  0.2216520E+02  0.7546771E-02  0.1503255E+00
         21   -1    0    0  504  501  0.00000000000E+00  0.00000000000E+00  0.50640746081E+02  0.50640746081E+02  0.00000000000E+00 0.  1.
         21   -1    0    0  503  502 -0.00000000000E+00 -0.00000000000E+00 -0.19153531517E+02  0.19153531517E+02  0.00000000000E+00 0.  1.
         21    1    1    2  503  501  0.17481263635E+02  0.13627241231E+02 -0.87710408896E+01  0.23837521686E+02  0.00000000000E+00 0.  1.
         21    1    1    2  504  502 -0.17481263635E+02 -0.13627241231E+02  0.40258255453E+02  0.45956755912E+02  0.00000000000E+00 0.  1.
</event>
<event>
 4    1  0.3183954E+006  0.3093315E+02  0.7546771E-02  0.1411657E+00
         21   -1    0    0  504  501  0.00000000000E+00  0.00000000000E+00  0.20015931587E+03  0.20015931587E+03  0.00000000000E+00 0.  1.
         21   -1    0    0  501  502 -0.00000000000E+00 -0.00000000000E+00 -0.21931864561E+03  0.21931864561E+03  0.00000000000E+00 0.  1.
         21    1    1    2  503  502  0.12645570023E+02  0.28230294968E+02 -0.21702020993E+03  0.21921366635E+03  0.00000000000E+00 0.  1.
         21    1    1    2  504  503 -0.12645570023E+02 -0.28230294968E+02  0.19786088019E+03  0.20026429513E+03  0.00000000000E+00 0.  1.
</event>
<event>
 4    1  0.3183954E+006  0.2119527E+02  0.7546771E-02  0.1516495E+00
         21   -1    0    0  503  501  0.00000000000E+00  0.00000000000E+00  0.89444192082E+01  0.89444192082E+01  0.00000000000E+00 0. -1.
         21   -1    0    0  501  502 -0.00000000000E+00 -0.00000000000E+00 -0.59652844324E+02  0.59652844324E+02  0.00000000000E+00 0. -1.
         21    1    1    2  503  504 -0.47276498777E+00 -0.21189995932E+02 -0.11719310570E+02  0.24219448271E+02  0.00000000000E+00 0. -1.
         21    1    1    2  504  502  0.47276498777E+00  0.21189995932E+02 -0.38989114545E+02  0.44377815261E+02  0.00000000000E+00 0. -1.
</event>
<event>
 4    1  0.3183954E+006  0.2146046E+02  0.7546771E-02  0.1512791E+00
         21   -1    0    0  503  501  0.00000000000E+00  0.00000000000E+00  0.54874544557E+01  0.54874544557E+01  0.00000000000E+00 0. -1.
         21   -1    0    0  504  502 -0.00000000000E+00 -0.00000000000E+00 -0.87346352071E+02  0.87346352071E+02  0.00000000000E+00 0. -1.
         21    1    1    2  503  502 -0.19712209898E+02  0.84841031126E+01 -0.50111938911E+02  0.54513829861E+02  0.00000000000E+00 0. -1.
         21    1    1    2  504  501  0.19712209898E+02 -0.84841031126E+01 -0.31746958705E+02  0.38319976666E+02  0.00000000000E+00 0. -1.
</event>
<event>
 4    1  0.3183954E+006  0.2698342E+02  0.7546771E-02  0.1447775E+00
         21   -1    0    0  504  501  0.00000000000E+00  0.00000000000E+00  0.94472650779E+02  0.94472650779E+02  0.00000000000E+00 0. -1.
         21   -1    0    0  503  502 -0.00000000000E+00 -0.00000000000E+00 -0.94595923375E+01  0.94595923375E+01  0.00000000000E+00 0. -1.
         21    1    1    2  503  501 -0.22270014854E+02 -0.15236515419E+02  0.64874108352E+02  0.70262044507E+02  0.00000000000E+00 0. -1.
         21    1    1    2  504  502  0.22270014854E+02  0.15236515419E+02  0.20138950089E+02  0.33670198610E+02  0.00000000000E+00 0. -1.
</event>
<event>
 4    1  0.3183954E+006  0.2333861E+02  0.7546771E-02  0.1488289E+00
         21   -1    0    0  503  501  0.00000000000E+00  0.00000000000E+00  0.82306868163E+02  0.82306868163E+02  0.00000000000E+00 0. -1.
         21   -1    0    0  504  502 -0.00000000000E+00 -0.00000000000E+00 -0.33207006601E+02  0.33207006601E+02  0.00000000000E+00 0. -1.
         21    1    1    2  503  502 -0.10359297936E+02  0.20913529131E+02 -0.27132382629E+02  0.35789061758E+02  0.00000000000E+00 0. -1.
         21    1    1    2  504  501  0.10359297936E+02 -0.20913529131E+02  0.76232244190E+02  0.79724813005E+02  0.00000000000E+00 0. -1.
</event>
<event>
 4    1  0.3183954E+006  0.2058231E+02  0.7546771E-02  0.1525313E+00
         21   -1    0    0  503  501  0.00000000000E+00  0.00000000000E+00  0.55740229173E+01  0.55740229173E+01  0.00000000000E+00 0.  1.
         21   -1    0    0  501  502 -0.00000000000E+00 -0.00000000000E+00 -0.26223160310E+03  0.26223160310E+03  0.00000000000E+00 0. -1.
         21    1    1    2  503  504  0.20570150145E+02 -0.70732595869E+00 -0.15486291029E+02  0.25757651229E+02  0.00000000000E+00 0.  1.
         21    1    1    2  504  502 -0.20570150145E+02  0.70732595869E+00 -0.24117128915E+03  0.24204797479E+03  0.00000000000E+00 0. -1.
</event>
<event>
 4    1  0.3183954E+006  0.3982956E+02  0.7546771E-02  0.1349487E+00
         21   -1    0    0  504  501  0.00000000000E+00  0.00000000000E+00  0.28568209692E+03  0.28568209692E+03  0.00000000000E+00 0.  1.
         21   -1    0    0  503  502 -0.00000000000E+00 -0.00000000000E+00 -0.96576977074E+01  0.96576977074E+01  0.00000000000E+00 0.  1.
         21    1    1    2  503  501 -0.39364048453E+02 -0.60717162206E+01  0.41741194539E+02  0.57695072320E+02  0.00000000000E+00 0.  1.
         21    1    1    2  504  502  0.39364048453E+02  0.60717162206E+01  0.23428320467E+03  0.23764472230E+03  0.00000000000E+00 0.  1.
</event>
<event>
 4    1  0.3183954E+006  0.2034582E+02  0.7546771E-02  0.1528813E+00
         21   -1    0    0  502  501  0.00000000000E+00  0.00000000000E+00  0.28310920045E+01  0.28310920045E+01  0.00000000000E+00 0. -1.
         21   -1    0    0  504  502 -0.00000000000E+00 -0.00000000000E+00 -0.33266701744E+03  0.33266701744E+03  0.00000000000E+00 0.  1.
         21    1    1    2  503  501  0.55625444099E+00  0.20338211799E+02 -0.39333173465E+02  0.44283753375E+02  0.00000000000E+00 0. -1.
         21    1    1    2  504  503 -0.55625444099E+00 -0.20338211799E+02 -0.29050275197E+03  0.29121435607E+03  0.00000000000E+00 0.  1.
</event>
<event>
 4    1  0.3183954E+006  0.3415417E+02  0.7546771E-02  0.1386609E+00
         21   -1    0    0  504  501  0.00000000000E+00  0.00000000000E+00  0.34586542675E+02  0.34586542675E+02  0.00000000000E+00 0.  1.
         21   -1    0    0  503  502 -0.00000000000E+00 -0.00000000000E+00 -0.10552875898E+03  0.10552875898E+03  0.00000000000E+00 0. -1.
         21    1    1    2  503  501 -0.24098639268E+02  0.24202544957E+02  0.22316811590E+02  0.40798868569E+02  0.00000000000E+00 0.  1.
         21    1    1    2  504  502  0.24098639268E+02 -0.24202544957E+02 -0.93259027897E+02  0.99316433088E+02  0.00000000000E+00 0. -1.
</event>
<event>
 4    1  0.3183954E+006  0.2261756E+02  0.7546771E-02  0.1497357E+00
         21   -1    0    0  502  501  0.00000000000E+00  0.00000000000E+00  0.14777168980E+04  0.14777168980E+04  0.00000000000E+00 0. -1.
         21   -1    0    0  503  502 -0.00000000000E+00 -0.00000000000E+00 -0.37405280999E+00  0.37405280999E+00  0.00000000000E+00 0. -1.
         21    1    1    2  503  504 -0.18495527190E+02 -0.13018042145E+02  0.53692488557E+03  0.53740104828E+03  0.00000000000E+00 0. -1.
         21    1    1    2  504  501  0.18495527190E+02  0.13018042145E+02  0.94041795959E+03  0.94068990251E+03  0.00000000000E+00 0. -1.
</event>
<event>
 4    1  0.3183954E+006  0.2255851E+02  0.7546771E-02  0.1498118E+00
         21   -1    0    0  503  501  0.00000000000E+00  0.00000000000E+00  0.80994498367E+01  0.80994498367E+01  0.00000000000E+00 0.  1.
         21   -1    0    0  504  502 -0.00000000000E+00 -0.00000000000E+00 -0.95491765789E+02  0.95491765789E+02  0.00000000000E+00 0. -1.
         21    1    1    2  503  502  0.12783537796E+02  0.18586751755E+02 -0.13403899640E+02  0.26240249712E+02  0.00000000000E+00 0.  1.
         21    1    1    2  504  501 -0.12783537796E+02 -0.18586751755E+02 -0.73988416312E+02  0.77350965913E+02  0.00000000000E+00 0. -1.
</event>
<event>
 4    1  0.3183954E+006  0.2869842E+02  0.7546771E-02  0.1431255E+00
         21   -1    0    0  503  501  0.00000000000E+00  0.00000000000E+00  0.94270651198E+02  0.94270651198E+02  0.00000000000E+00 0. -1.
         21   -1    0    0  504  502 -0.00000000000E+00 -0.00000000000E+00 -0.18814454461E+03  0.18814454461E+03  0.00000000000E+00 0.  1.
         21    1    1    2  503  502 -0.28691209790E+02  0.64336924755E+00  0.90953175511E+02  0.95373369337E+02  0.00000000000E+00 0. -1.
         21    1    1    2  504  501  0.28691209790E+02 -0.64336924755E+00 -0.18482706893E+03  0.18704182648E+03  0.00000000000E+00 0.  1.
</event>
<event>
 4    1  0.3183954E+006  0.2318411E+02  0.7546771E-02  0.1490199E+00
         21   -1    0    0  503  501  0.00000000000E+00  0.00000000000E+00  0.15777740878E+03  0.15777740878E+03  0.00000000000E+00 0. -1.
         21   -1    0    0  504  502 -0.00000000000E+00 -0.00000000000E+00 -0.11908367364E+02  0.11908367364E+02  0.00000000000E+00 0. -1.
         21    1    1    2  503  502  0.19753753239E+02 -0.12136391371E+02  0.14462161661E+03  0.14646813563E+03  0.00000000000E+00 0. -1.
         21    1    1    2  504  501 -0.19753753239E+02  0.12136391371E+02  0.12474248038E+01  0.23217640518E+02  0.00000000000E+00 0. -1.
</event>
<event>
 4    1  0.3183954E+006  0.3521948E+02  0.7546771E-02  0.1379027E+00
         21   -1    0    0  503  501  0.00000000000E+00  0.00000000000E+00  0.53407109499E+02  0.53407109499E+02  0.00000000000E+00 0. -1.
         21   -1    0    0  501  502 -0.00000000000E+00 -0.00000000000E+00 -0.23328890315E+02  0.23328890315E+02  0.00000000000E+00 0. -1.
         21    1    1    2  503  504  0.18097987674E+02  0.30213810346E+02  0.17592270869E+02  0.39368762843E+02  0.00000000000E+00 0. -1.
         21    1    1    2  504  502 -0.18097987674E+02 -0.30213810346E+02  0.12485948315E+02  0.37367236970E+02  0.00000000000E+00 0. -1.
</event>
<event>
 4    1  0.3183954E+006  0.2941480E+02  0.7546771E-02  0.1424751E+00
         21   -1    0    0  504  501  0.00000000000E+00  0.00000000000E+00  0.21012922951E+01  0.21012922951E+01  0.00000000000E+00 0. -1.
         21   -1    0    0  503  502 -0.00000000000E+00 -0.00000000000E+00 -0.41380131646E+03  0.41380131646E+03  0.00000000000E+00 0. -1.
         21    1    1    2  503  501  0.11675838349E+02 -0.26998250818E+02 -0.22045117856E+03  0.22240492997E+03  0.00000000000E+00 0. -1.
         21    1    1    2  504  502 -0.11675838349E+02  0.26998250818E+02 -0.19124884561E+03  0.19349767879E+03  0.00000000000E+00 0. -1.
</event>
<event>
 4    1  0.3183954E+006  0.2313893E+02  0.7546771E-02  0.1490761E+00
         21   -1    0    0  502  501  0.00000000000E+00  0.00000000000E+00  0.20523708491E+03  0.20523708491E+03  0.00000000000E+00 0.  1.
         21   -1    0    0  504  502 -0.00000000000E+00 -0.00000000000E+00 -0.27503389322E+01  0.27503389322E+01  0.00000000000E+00 0.  1.
         21    1    1    2  503  501 -0.39640500597E+01 -0.22796853282E+02  0.12483966786E+03  0.12696595168E+03  0.00000000000E+00 0.  1.
         21    1    1    2  504  503  0.39640500597E+01  0.22796853282E+02  0.77647078111E+02  0.81021472164E+02  0.00000000000E+00 0.  1.
</event>
<event>
 4    1  0.3183954E+006  0.2072652E+02  0.7546771E-02  0.1523205E+00
         21   -1    0    0  503  501  0.00000000000E+00  0.00000000000E+00  0.83252787380E+01  0.83252787380E+01  0.00000000000E+00 0. -1.
         21   -1    0    0  501  502 -0.00000000000E+00 -0.00000000000E+00 -0.16641818155E+03  0.16641818155E+03  0.00000000000E+00 0. -1.
         21    1    1    2  503  504  0.13875736349E+02  0.15396515909E+02 -0.64734829850E+01  0.21713929706E+02  0.00000000000E+00 0. -1.
         21    1    1    2  504  502 -0.13875736349E+02 -0.15396515909E+02 -0.15161941983E+03  0.15302953058E+03  0.00000000000E+00 0. -1.
</event>
<event>
 4    1  0.3183954E+006  0.2966525E+02  0.7546771E-02  0.1422528E+00
         21   -1    0    0  503  501  0.00000000000E+00  0.00000000000E+00  0.11543732139E+03  0.11543732139E+03  0.00000000000E+00 0.  1.
         21   -1    0    0  504  502 -0.00000000000E+00 -0.00000000000E+00 -0.11396509625E+02  0.11396509625E+02  0.00000000000E+00 0.  1.
         21    1    1    2  503  502  0.21328237891E+02  0.20618764455E+02  0.88509892015E+02  0.93348959093E+02  0.00000000000E+00 0.  1.
         21    1    1    2  504  501 -0.21328237891E+02 -0.20618764455E+02  0.15530919745E+02  0.33484871918E+02  0.00000000000E+00 0.  1.
</event>
<event>
 4    1  0.3183954E+006  0.3054651E+02  0.7546771E-02  0.1414906E+00
         21   -1    0    0  504  501  0.00000000000E+00  0.00000000000E+00  0.55028217270E+01  0.55028217270E+01  0.00000000000E+00 0.  1.
         21   -1    0    0  503  502 -0.00000000000E+00 -0.00000000000E+00 -0.19679033535E+03  0.19679033535E+03  0.00000000000E+00 0.  1.
         21    1    1    2  503  501 -0.53873109558E+01 -0.30067692026E+02 -0.58022680883E+02  0.65572255718E+02  0.00000000000E+00 0.  1.
         21    1    1    2  504  502  0.53873109558E+01  0.30067692026E+02 -0.13326483274E+03  0.13672090136E+03  0.00000000000E+00 0.  1.
</event>
<event>
 4    1  0.3183954E+006  0.3062775E+02  0.7546771E-02  0.1414218E+00
         21   -1    0    0  503  501  0.00000000000E+00  0.00000000000E+00  0.31168924274E+01  0.31168924274E+01  0.00000000000E+00 0.  1.
         21   -1    0    0  501  502 -0.00000000000E+00 -0.00000000000E+00 -0.37429347934E+03  0.37429347934E+03  0.00000000000E+00 0. -1.
         21    1    1    2  503  504  0.28011599249E+02  0.12385846432E+02 -0.10206072140E+03  0.10655726037E+03  0.00000000000E+00 0.  1.
         21    1    1    2  504  502 -0.28011599249E+02 -0.12385846432E+02 -0.26911586551E+03  0.27085311140E+03  0.00000000000E+00 0. -1.
</event>
<event>
 4    1  0.3183954E+006  0.2885264E+02  0.7546771E-02  0.1429836E+00
         21   -1    0    0  503  501  0.00000000000E+00  0.00000000000E+00  0.70048361359E+02  0.70048361359E+02  0.00000000000E+00 0. -1.
         21   -1    0    0  504  502 -0.00000000000E+00 -0.00000000000E+00 -0.12344756288E+02  0.12344756288E+02  0.00000000000E+00 0. -1.
         21    1    1    2  503  502 -0.26611439321E+02  0.11149256283E+02  0.20895313993E+02  0.35624272136E+02  0.00000000000E+00 0. -1.
         21    1    1    2  504  501  0.26611439321E+02 -0.11149256283E+02  0.36808291078E+02  0.46768845511E+02  0.00000000000E+00 0. -1.
</event>
<event>
 4    1  0.3183954E+006  0.2429014E+02  0.7546771E-02  0.1476904E+00
         21   -1    0    0  504  501  0.00000000000E+00  0.00000000000E+00  0.69215181425E+02  0.69215181425E+02  0.00000000000E+00 0. -1.
         21   -1    0    0  503  502 -0.00000000000E+00 -0.00000000000E+00 -0.10333000736E+02  0.10333000736E+02  0.00000000000E+00 0. -1.
         21    1    1    2  503  501 -0.53530261996E+01 -0.23692953689E+02  0.46081746170E+02  0.52091633437E+02  0.00000000000E+00 0. -1.
         21    1    1    2  504  502  0.53530261996E+01  0.23692953689E+02  0.12800434519E+02  0.27456548725E+02  0.00000000000E+00 0. -1.
</event>
<event>
 4    1  0.3183954E+006  0.2139948E+02  0.7546771E-02  0.1513637E+00
         21   -1    0    0  503  501  0.00000000000E+00  0.00000000000E+00  0.23411809375E+01  0.23411809375E+01  0.00000000000E+00 0.  1.
         21   -1    0    0  504  502 -0.00000000000E+00 -0.00000000000E+00 -0.88177651865E+03  0.88177651865E+03  0.00000000000E+00 0.  1.
         21    1    1    2  503  502  0.12169680784E+02  0.17602177866E+02 -0.82967615123E+03  0.82995207917E+03  0.00000000000E+00 0.  1.
         21    1    1    2  504  501 -0.12169680784E+02 -0.17602177866E+02 -0.49759186487E+02  0.54165620423E+02  0.00000000000E+00 0.  1.
</event>
<event>
 4    1  0.3183954E+006  0.2053784E+02  0.7546771E-02  0.1525967E+00
         21   -1    0    0  503  501  0.00000000000E+00  0.00000000000E+00  0.17744414840E+02  0.17744414840E+02  0.00000000000E+00 0.  1.
         21   -1    0    0  504  502 -0.00000000000E+00 -0.00000000000E+00 -0.47653654537E+02  0.47653654537E+02  0.00000000000E+00 0. -1.
         21    1    1    2  503  502 -0.19703520712E+02  0.57943174318E+01 -0.38103390969E+02  0.43285924343E+02  0.00000000000E+00 0. -1.
         21    1    1    2  504  501  0.19703520712E+02 -0.57943174318E+01  0.81941512708E+01  0.22112145034E+02  0.00000000000E+00 0.  1.
</event>
<event>
 4    1  0.3183954E+006  0.2596280E+02  0.7546771E-02  0.1458315E+00
         21   -1    0    0  504  501  0.00000000000E+00  0.00000000000E+00  0.28150804737E+01  0.28150804737E+01  0.00000000000E+00 0.  1.
         21   -1    0    0  503  502 -0.00000000000E+00 -0.00000000000E+00 -0.25644576715E+03  0.25644576715E+03  0.00000000000E+00 0. -1.
         21    1    1    2  503  501  0.83289399491E+01  0.24590566390E+02 -0.93442215528E+02  0.96982033588E+02  0.00000000000E+00 0.  1.
         21    1    1    2  504  502 -0.83289399491E+01 -0.24590566390E+02 -0.16018847115E+03  0.16227881403E+03  0.00000000000E+00 0. -1.
</event>
<event>
 4    1  0.3183954E+006  0.3476921E+02  0.7546771E-02  0.1382193E+00
         21   -1    0    0  504  501  0.00000000000E+00  0.00000000000E+00  0.11968078305E+03  0.11968078305E+03  0.00000000000E+00 0. -1.
         21   -1    0    0  503  502 -0.00000000000E+00 -0.00000000000E+00 -0.75933493612E+02  0.75933493612E+02  0.00000000000E+00 0.  1.
         21    1    1    2  503  501 -0.34767195423E+02  0.37405533973E+00 -0.69196065270E+02  0.77440255964E+02  0.00000000000E+00 0.  1.
         21    1    1    2  504  502  0.34767195423E+02 -0.37405533973E+00  0.11294335471E+03  0.11817402070E+03  0.00000000000E+00 0. -1.
</event>
<event>
 4    1  0.3183954E+006  0.3822709E+02  0.7546771E-02  0.1359200E+00
         21   -1    0    0  503  501  0.00000000000E+00  0.00000000000E+00  0.15438499577E+02  0.15438499577E+02  0.00000000000E+00 0. -1.
         21   -1    0    0  504  502 -0.00000000000E+00 -0.00000000000E+00 -0.10268536326E+03  0.10268536326E+03  0.00000000000E+00 0. -1.
         21    1    1    2  503  502 -0.15552146937E+02  0.34920499271E+02 -0.60141418317E+02  0.71262197138E+02  0.00000000000E+00 0. -1.
         21    1    1    2  504  501  0.15552146937E+02 -0.34920499271E+02 -0.27105445370E+02  0.46861665702E+02  0.00000000000E+00 0. -1.
</event>
<event>
 4    1  0.3183954E+006  0.2567839E+02  0.7546771E-02  0.1461355E+00
         21   -1    0    0  502  501  0.00000000000E+00  0.00000000000E+00  0.31453713489E+01  0.31453713489E+01  0.00000000000E+00 0. -1.
         21   -1    0    0  504  502 -0.00000000000E+00 -0.00000000000E+00 -0.42466678678E+03  0.42466678678E+03  0.00000000000E+00 0.  1.
         21    1    1    2  503  501  0.54779295246E+01 -0.25087284589E+02 -0.58548169760E+02  0.63931742837E+02  0.00000000000E+00 0. -1.
         21    1    1    2  504  503 -0.54779295246E+01  0.25087284589E+02 -0.36297324567E+03  0.36388041529E+03  0.00000000000E+00 0.  1.
</event>
<event>
 4    1  0.3183954E+006  0.2092345E+02  0.7546771E-02  0.1520361E+00
         21   -1    0    0  503  501  0.00000000000E+00  0.00000000000E+00  0.28432974010E+03  0.28432974010E+03  0.00000000000E+00 0. -1.
         21   -1    0    0  504  502 -0.00000000000E+00 -0.00000000000E+00 -0.17856177148E+01  0.17856177148E+01  0.00000000000E+00 0. -1.
         21    1    1    2  503  502  0.69052046085E+01 -0.19751176784E+02  0.19435878872E+03  0.19548178838E+03  0.00000000000E+00 0. -1.
         21    1    1    2  504  501 -0.69052046085E+01  0.19751176784E+02  0.88185333664E+02  0.90633569435E+02  0.00000000000E+00 0. -1.
</event>
<event>
 4    1  0.3183954E+006  0.2939519E+02  0.7546771E-02  0.1424926E+00
         21   -1    0    0  504  501  0.00000000000E+00  0.00000000000E+00  0.19463754064E+02  0.19463754064E+02  0.00000000000E+00 0.  1.
         21   -1    0    0  503  502 -0.00000000000E+00 -0.00000000000E+00 -0.52137790332E+02  0.52137790332E+02  0.00000000000E+00 0.  1.
         21    1    1    2  503  501  0.28713765253E+02 -0.62926193378E+01 -0.30134119961E+02  0.42096823621E+02  0.00000000000E+00 0.  1.
         21    1    1    2  504  502 -0.28713765253E+02  0.62926193378E+01 -0.25399163076E+01  0.29504720775E+02  0.00000000000E+00 0.  1.
</event>
<event>
 4    1  0.3183954E+006  0.2487006E+02  0.7546771E-02  0.1470262E+00
         21   -1    0    0  504  501  0.00000000000E+00  0.00000000000E+00  0.20933752572E+03  0.20933752572E+03  0.00000000000E+00 0.  1.
         21   -1    0    0  503  502 -0.00000000000E+00 -0.00000000000E+00 -0.29801749309E+01  0.29801749309E+01  0.00000000000E+00 0. -1.
         21    1    1    2  503  501 -0.20233811555E+02  0.14460739232E+02  0.11300242826E+03  0.11570682305E+03  0.00000000000E+00 0.  1.
         21    1    1    2  504  502  0.20233811555E+02 -0.14460739232E+02  0.93354922529E+02  0.96610877595E+02  0.00000000000E+00 0. -1.
</event>
<event>
 4    1  0.3183954E+006  0.2607928E+02  0.7546771E-02  0.1457083E+00
         21   -1    0    0  503  501  0.00000000000E+00  0.00000000000E+00  0.74889073668E+02  0.74889073668E+02  0.00000000000E+00 0. -1.
         21   -1    0    0  504  502 -0.00000000000E+00 -0.00000000000E+00 -0.90882266110E+01  0.90882266110E+01  0.00000000000E+00 0. -1.
         21    1    1    2  503  502  0.25759065680E+02 -0.40742491441E+01  0.31785463994E+02  0.41115017842E+02  0.00000000000E+00 0. -1.
         21    1    1    2  504  501 -0.25759065680E+02  0.40742491441E+01  0.34015383063E+02  0.42862282437E+02  0.00000000000E+00 0. -1.
</event>
<event>
 4    1  0.3183954E+006  0.3313887E+02  0.7546771E-02  0.1394142E+00
         21   -1    0    0  503  501  0.00000000000E+00  0.00000000000E+00  0.43631839839E+03  0.43631839839E+03  0.00000000000E+00 0. -1.
         21   -1    0    0  504  502 -0.00000000000E+00 -0.00000000000E+00 -0.59110396654E+01  0.59110396654E+01  0.00000000000E+00 0.  1.
         21    1    1    2  503  502  0.12925484657E+02 -0.30514198941E+02  0.47652143308E+02  0.58042322942E+02  0.00000000000E+00 0.  1.
         21    1    1    2  504  501 -0.12925484657E+02  0.30514198941E+02  0.38275521541E+03  0.38418711511E+03  0.00000000000E+00 0. -1.
</event>
<event>
 4    1  0.3183954E+006  0.4321428E+02  0.7546771E-02  0.1330614E+00
         21   -1    0    0  504  501  0.00000000000E+00  0.00000000000E+00  0.12851652569E+03  0.12851652569E+03  0.00000000000E+00 0.  1.
         21   -1    0    0  501  502 -0.00000000000E+00 -0.00000000000E+00 -0.19989018418E+03  0.19989018418E+03  0.00000000000E+00 0.  1.
         21    1    1    2  503  502 -0.86912917927E+00 -0.43205536565E+02 -0.19380921032E+03  0.19856858709E+03  0.00000000000E+00 0.  1.
         21    1    1    2  504  503  0.86912917927E+00  0.43205536565E+02  0.12243555183E+03  0.12983812278E+03  0.00000000000E+00 0.  1.
</event>
<event>
 4    1  0.3183954E+006  0.2180836E+02  0.7546771E-02  0.1508029E+00
         21   -1    0    0  504  501  0.00000000000E+00  0.00000000000E+00  0.73896371991E+02  0.73896371991E+02  0.00000000000E+00 0.  1.
         21   -1    0    0  501  502 -0.00000000000E+00 -0.00000000000E+00 -0.36748602550E+02  0.36748602550E+02  0.00000000000E+00 0. -1.
         21    1    1    2  503  502 -0.10214432769E+02 -0.19268371244E+02 -0.31671033962E+02  0.38453337429E+02  0.00000000000E+00 0. -1.
         21    1    1    2  504  503  0.10214432769E+02  0.19268371244E+02  0.68818803402E+02  0.72191637112E+02  0.00000000000E+00 0.  1.
</event>
<event>
 4    1  0.3183954E+006  0.2326462E+02  0.7546771E-02  0.1489202E+00
         21   -1    0    0  502  501  0.00000000000E+00  0.00000000000E+00  0.17286173143E+04  0.17286173143E+04  0.00000000000E+00 0. -1.
         21   -1    0    0  504  502 -0.00000000000E+00 -0.00000000000E+00 -0.28861736396E+01  0.28861736396E+01  0.00000000000E+00 0. -1.
         21    1    1    2  503  501 -0.23088347814E+02 -0.28584507741E+01  0.16803088851E+04  0.16804699319E+04  0.00000000000E+00 0. -1.
         21    1    1    2  504  503  0.23088347814E+02  0.28584507741E+01  0.45422255547E+02  0.51033556064E+02  0.00000000000E+00 0. -1.
</event>
<event>
 4    1  0.3183954E+006  0.2088780E+02  0.7546771E-02  0.1520873E+00
         21   -1    0    0  504  501  0.00000000000E+00  0.00000000000E+00  0.51583180076E+00  0.51583180076E+00  0.00000000000E+00 0.  1.
         21   -1    0    0  503  502 -0.00000000000E+00 -0.00000000000E+00 -0.87935958040E+03  0.87935958040E+03  0.00000000000E+00 0. -1.
         21    1    1    2  503  501 -0.66069248690E+01  0.19815360808E+02 -0.52534255571E+03  0.52575764457E+03  0.00000000000E+00 0. -1.
         21    1    1    2  504  502  0.66069248690E+01 -0.19815360808E+02 -0.35350119288E+03  0.35411776763E+03  0.00000000000E+00 0.  1.
</event>
<event>
 4    1  0.3183954E+006  0.2320677E+02  0.7546771E-02  0.1489918E+00
         21   -1    0    0  504  501  0.00000000000E+00  0.00000000000E+00  0.11859711696E+04  0.11859711696E+04  0.00000000000E+00 0. -1.
         21   -1    0    0  503  502 -0.00000000000E+00 -0.00000000000E+00 -0.55201190575E+02  0.55201190575E+02  0.00000000000E+00 0.  1.
         21    1    1    2  503  501  0.14191481776E+02 -0.18361810767E+02 -0.52643341490E+02  0.57531518778E+02  0.00000000000E+00 0.  1.
         21    1    1    2  504  502 -0.14191481776E+02  0.18361810767E+02  0.11834133205E+04  0.11836408414E+04  0.00000000000E+00 0. -1.
</event>
<event>
 4    1  0.3183954E+006  0.2495995E+02  0.7546771E-02  0.1469252E+00
         21   -1    0    0  503  501  0.00000000000E+00  0.00000000000E+00  0.42689689142E+03  0.42689689142E+03  0.00000000000E+00 0.  1.
         21   -1    0    0  501  502 -0.00000000000E+00 -0.00000000000E+00 -0.35151870012E+01  0.35151870012E+01  0.00000000000E+00 0.  1.
         21    1    1    2  503  504  0.55781137984E+01  0.24328659900E+02  0.37626924929E+03  0.37709620392E+03  0.00000000000E+00 0.  1.
         21    1    1    2  504  502 -0.55781137984E+01 -0.24328659900E+02  0.47112455128E+02  0.53315874505E+02  0.00000000000E+00 0.  1.
</event>
<event>
 4    1  0.3183954E+006  0.2127277E+02  0.7546771E-02  0.1515406E+00
         21   -1    0    0  504  501  0.00000000000E+00  0.00000000000E+00  0.59391672914E+01  0.59391672914E+01  0.00000000000E+00 0.  1.
         21   -1    0    0  501  502 -0.00000000000E+00 -0.00000000000E+00 -0.66848082069E+03  0.66848082069E+03  0.00000000000E+00 0.  1.
         21    1    1    2  503  502 -0.96963570187E-01 -0.21272546862E+02 -0.64868176497E+03  0.64903047914E+03  0.00000000000E+00 0.  1.
         21    1    1    2  504  503  0.96963570187E-01  0.21272546862E+02 -0.13859888435E+02  0.25389508845E+02  0.00000000000E+00 0.  1.
</event>
<event>
 4    1  0.3183954E+006  0.3012250E+02  0.7546771E-02  0.1418535E+00
         21   -1    0    0  504  501  0.00000000000E+00  0.00000000000E+00  0.98163807404E+02  0.98163807404E+02  0.00000000000E+00 0.  1.
         21   -1    0    0  503  502 -0.00000000000E+00 -0.00000000000E+00 -0.76835731818E+02  0.76835731818E+02  0.00000000000E+00 0. -1.
         21    1    1    2  503  501 -0.49919925394E+01 -0.29705980293E+02  0.92732080580E+02  0.97501815488E+02  0.00000000000E+00 0.  1.
         21    1    1    2  504  502  0.49919925394E+01  0.29705980293E+02 -0.71404004995E+02  0.77497723734E+02  0.00000000000E+00 0. -1.
</event>
<event>
 4    1  0.3183954E+006  0.2185056E+02  0.7546771E-02  0.1507459E+00
         21   -1    0    0  503  501  0.00000000000E+00  0.00000000000E+00  0.42404013299E+02  0.42404013299E+02  0.00000000000E+00 0.  1.
         21   -1    0    0  504  502 -0.00000000000E+00 -0.00000000000E+00 -0.11289887370E+02  0.11289887370E+02  0.00000000000E+00 0. -1.
         21    1    1    2  503  502  0.11485250279E+02 -0.18588598785E+02  0.16950433675E+02  0.27654370008E+02  0.00000000000E+00 0.  1.
         21    1    1    2  504  501 -0.11485250279E+02  0.18588598785E+02  0.14163692255E+02  0.26039530661E+02  0.00000000000E+00 0. -1.
</event>
<event>
 4    1  0.3183954E+006  0.2135887E+02  0.7546771E-02  0.1514202E+00
         21   -1    0    0  504  501  0.00000000000E+00  0.00000000000E+00  0.14148840154E+03  0.14148840154E+03  0.00000000000E+00 0.  1.
         21   -1    0    0  501  502 -0.00000000000E+00 -0.00000000000E+00 -0.16082267971E+03  0.16082267971E+03  0.00000000000E+00 0.  1.
         21    1    1    2  503  502  0.18859918210E+02 -0.10025216642E+02 -0.15929976369E+03  0.16072528176E+03  0.00000000000E+00 0.  1.
         21    1    1    2  504  503 -0.18859918210E+02  0.10025216642E+02  0.13996548552E+03  0.14158579950E+03  0.00000000000E+00 0.  1.
</event>
<event>
 4    1  0.3183954E+006  0.2531634E+02  0.7546771E-02  0.1465295E+00
         21   -1    0    0  504  501  0.00000000000E+00  0.00000000000E+00  0.12578825259E+02  0.12578825259E+02  0.00000000000E+00 0. -1.
         21   -1    0    0  503  502 -0.00000000000E+00 -0.00000000000E+00 -0.84320831637E+02  0.84320831637E+02  0.00000000000E+00 0. -1.
         21    1    1    2  503  501 -0.24926922002E+02 -0.44233321310E+01 -0.66349587058E+02  0.71015385731E+02  0.00000000000E+00 0. -1.
         21    1    1    2  504  502  0.24926922002E+02  0.44233321310E+01 -0.53924193190E+01  0.25884271165E+02  0.00000000000E+00 0. -1.
</event>
<event>
 4    1  0.3183954E+006  0.3136511E+02  0.7546771E-02  0.1408093E+00
         21   -1    0    0  504  501  0.00000000000E+00  0.00000000000E+00  0.20182851866E+03  0.20182851866E+03  0.00000000000E+00 0.  1.
         21   -1    0    0  501  502 -0.00000000000E+00 -0.00000000000E+00 -0.10709317854E+02  0.10709317854E+02  0.00000000000E+00 0.  1.
         21    1    1    2  503  502  0.13918242312E+02 -0.28107879130E+02  0.17117918955E+02  0.35732247167E+02  0.00000000000E+00 0.  1.
         21    1    1    2  504  503 -0.13918242312E+02  0.28107879130E+02  0.17400128185E+03  0.17680558934E+03  0.00000000000E+00 0.  1.
</event>
<event>
 4    1  0.3183954E+006  0.2932578E+02  0.7546771E-02  0.1425547E+00
         21   -1    0    0  504  501  0.00000000000E+00  0.00000000000E+00  0.35837353734E+02  0.35837353734E+02  0.00000000000E+00 0. -1.
         21   -1    0    0  503  502 -0.00000000000E+00 -0.00000000000E+00 -0.24159402915E+02  0.24159402915E+02  0.00000000000E+00 0. -1.
         21    1    1    2  503  501 -0.19353861629E+02 -0.22032457349E+02  0.33820189836E+01  0.29520148868E+02  0.00000000000E+00 0. -1.
         21    1    1    2  504  502  0.19353861629E+02  0.22032457349E+02  0.82959318357E+01  0.30476607781E+02  0.00000000000E+00 0. -1.
</event>
<event>
 4    1  0.3183954E+006  0.2298610E+02  0.7546771E-02  0.1492673E+00
         21   -1    0    0  503  501  0.00000000000E+00  0.00000000000E+00  0.32077483313E+02  0.32077483313E+02  0.00000000000E+00 0. -1.
         21   -1    0    0  504  502 -0.00000000000E+00 -0.00000000000E+00 -0.55426674496E+02  0.55426674496E+02  0.00000000000E+00 0. -1.
         21    1    1    2  503  502  0.47087762012E+01  0.22498627831E+02 -0.48354015362E+02  0.53539439941E+02  0.00000000000E+00 0. -1.
         21    1    1    2  504  501 -0.47087762012E+01 -0.22498627831E+02  0.25004824179E+02  0.33964717867E+02  0.00000000000E+00 0. -1.
</event>
<event>
 4    1  0.3183954E+006  0.2224076E+02  0.7546771E-02  0.1502259E+00
         21   -1    0    0  503  501  0.00000000000E+00  0.00000000000E+00  0.12756564439E+04  0.12756564439E+04  0.00000000000E+00 0.  1.
         21   -1    0    0  504  502 -0.00000000000E+00 -0.00000000000E+00 -0.39080588104E+00  0.39080588104E+00  0.00000000000E+00 0.  1.
         21    1    1    2  503  502 -0.15461912942E+02  0.15986889647E+02  0.58132698910E+03  0.58175228375E+03  0.00000000000E+00 0.  1.
         21    1    1    2  504  501  0.15461912942E+02 -0.15986889647E+02  0.69393864889E+03  0.69429496600E+03  0.00000000000E+00 0.  1.
</event>
<event>
 4    1  0.3183954E+006  0.3860685E+02  0.7546771E-02  0.1356849E+00
         21   -1    0    0  504  501  0.00000000000E+00  0.00000000000E+00  0.37255744656E+02  0.37255744656E+02  0.00000000000E+00 0. -1.
         21   -1    0    0  503  502 -0.00000000000E+00 -0.00000000000E+00 -0.23218537640E+03  0.23218537640E+03  0.00000000000E+00 0. -1.
         21    1    1    2  503  501  0.15067173924E+01 -0.38577439512E+02 -0.22003046118E+03  0.22339179234E+03  0.00000000000E+00 0. -1.
         21    1    1    2  504  502 -0.15067173924E+01  0.38577439512E+02  0.25100829439E+02  0.46049328715E+02  0.00000000000E+00 0. -1.
</event>
<event>
 4    1  0.3183954E+006  0.3068591E+02  0.7546771E-02  0.1413728E+00
         21   -1    0    0  502  501  0.00000000000E+00  0.00000000000E+00  0.51255566969E+03  0.51255566969E+03  0.00000000000E+00 0. -1.
         21   -1    0    0  503  502 -0.00000000000E+00 -0.00000000000E+00 -0.58911494494E+01  0.58911494494E+01  0.00000000000E+00 0. -1.
         21    1    1    2  503  504  0.18441673833E+02  0.24526108119E+02  0.38293004388E+02  0.49071167688E+02  0.00000000000E+00 0. -1.
         21    1    1    2  504  501 -0.18441673833E+02 -0.24526108119E+02  0.46837151586E+03  0.46937565145E+03  0.00000000000E+00 0. -1.
</event>
<event>
 4    1  0.3183954E+006  0.2187686E+02  0.7546771E-02  0.1507104E+00
         21   -1    0    0  504  501  0.00000000000E+00  0.00000000000E+00  0.56572066889E+01  0.56572066889E+01  0.00000000000E+00 0. -1.
         21   -1    0    0  503  502 -0.00000000000E+00 -0.00000000000E+00 -0.11495142381E+03  0.11495142381E+03  0.00000000000E+00 0. -1.
         21    1    1    2  503  501 -0.19819671923E+02 -0.92616294470E+01 -0.85634421827E+02  0.88384678405E+02  0.00000000000E+00 0. -1.
         21    1    1    2  504  502  0.19819671923E+02  0.92616294470E+01 -0.23659795293E+02  0.32223952092E+02  0.00000000000E+00 0. -1.
</event>
<event>
 4    1  0.3183954E+006  0.2003733E+02  0.7546771E-02  0.1533466E+00
         21   -1    0    0  503  501  0.00000000000E+00  0.00000000000E+00  0.17124563561E+02  0.17124563561E+02  0.00000000000E+00 0. -1.
         21   -1    0    0  501  502 -0.00000000000E+00 -0.00000000000E+00 -0.84358114271E+02  0.84358114271E+02  0.00000000000E+00 0. -1.
         21    1    1    2  503  504 -0.80247401896E+01  0.18360236743E+02  0.95005631782E+01  0.22175559724E+02  0.00000000000E+00 0. -1.
         21    1    1    2  504  502  0.80247401896E+01 -0.18360236743E+02 -0.76734113888E+02  0.79307118108E+02  0.00000000000E+00 0. -1.
</event>
<event>
 4    1  0.3183954E+006  0.2154380E+02  0.7546771E-02  0.1511641E+00
         21   -1    0    0  504  501  0.00000000000E+00  0.00000000000E+00  0.74315435535E+02  0.74315435535E+02  0.00000000000E+00 0.  1.
         21   -1    0    0  503  502 -0.00000000000E+00 -0.00000000000E+00 -0.88536204425E+01  0.88536204425E+01  0.00000000000E+00 0.  1.
         21    1    1    2  503  501  0.19017232921E+02 -0.10123252341E+02  0.55301191105E+02  0.59349449227E+02  0.00000000000E+00 0.  1.
         21    1    1    2  504  502 -0.19017232921E+02  0.10123252341E+02  0.10160623988E+02  0.23819606751E+02  0.00000000000E+00 0.  1.
</event>
<event>
 4    1  0.3183954E+006  0.2779923E+02  0.7546771E-02  0.1439741E+00
         21   -1    0    0  504  501  0.00000000000E+00  0.00000000000E+00  0.14879103902E+03  0.14879103902E+03  0.00000000000E+00 0. -1.
         21   -1    0    0  501  502 -0.00000000000E+00 -0.00000000000E+00 -0.96775158106E+01  0.96775158106E+01  0.00000000000E+00 0.  1.
         21    1    1    2  503  502 -0.19606385145E+02  0.19707538802E+02  0.15624569608E+02  0.31889255236E+02  0.00000000000E+00 0.  1.
         21    1    1    2  504  503  0.19606385145E+02 -0.19707538802E+02  0.12348895360E+03  0.12657929959E+03  0.00000000000E+00 0. -1.
</event>
<event>
 4    1  0.3183954E+006  0.2112992E+02  0.7546771E-02  0.1517418E+00
         21   -1    0    0  503  501  0.00000000000E+00  0.00000000000E+00  0.47513685236E+02  0.47513685236E+02  0.00000000000E+00 0. -1.
         21   -1    0    0  504  502 -0.00000000000E+00 -0.00000000000E+00 -0.94949706567E+01  0.94949706567E+01  0.00000000000E+00 0. -1.
         21    1    1    2  503  502 -0.13199651256E+02 -0.16499777170E+02  0.21908714891E+02  0.30437891322E+02  0.00000000000E+00 0. -1.
         21    1    1    2  504  501  0.13199651256E+02  0.16499777170E+02  0.16109999688E+02  0.26570764571E+02  0.00000000000E+00 0. -1.
</event>
<event>
 4    1  0.3183954E+006  0.2162099E+02  0.7546771E-02  0.1510580E+00
         21   -1    0    0  504  501  0.00000000000E+00  0.00000000000E+00  0.32565542573E+01  0.32565542573E+01  0.00000000000E+00 0.  1.
         21   -1    0    0  503  502 -0.00000000000E+00 -0.00000000000E+00 -0.21928583275E+03  0.21928583275E+03  0.00000000000E+00 0.  1.
         21    1    1    2  503  501  0.12447631191E+02  0.17678343612E+02 -0.17340863182E+03  0.17475131171E+03  0.00000000000E+00 0.  1.
         21    1    1    2  504  502 -0.12447631191E+02 -0.17678343612E+02 -0.42620646669E+02  0.47791075293E+02  0.00000000000E+00 0.  1.
</event>
<event>
 4    1  0.3183954E+006  0.2291430E+02  0.7546771E-02  0.1493577E+00
         21   -1    0    0  504  501  0.00000000000E+00  0.00000000000E+00  0.56071191744E+03  0.56071191744E+03  0.00000000000E+00 0. -1.
         21   -1    0    0  501  502 -0.00000000000E+00 -0.00000000000E+00 -0.50787799222E+01  0.50787799222E+01  0.00000000000E+00 0. -1.
         21    1    1    2  503  502  0.26205412678E+01 -0.22763963638E+02  0.22329040041E+02  0.31994551196E+02  0.00000000000E+00 0. -1.
         21    1    1    2  504  503 -0.26205412678E+01  0.22763963638E+02  0.53330409747E+03  0.53379614616E+03  0.00000000000E+00 0. -1.
</event>
<event>
 4    1  0.3183954E+006  0.3422713E+02  0.7546771E-02  0.1386080E+00
         21   -1    0    0  503  501  0.00000000000E+00  0.00000000000E+00  0.18386196174E+02  0.18386196174E+02  0.00000000000E+00 0. -1.
         21   -1    0    0  504  502 -0.00000000000E+00 -0.00000000000E+00 -0.34065832704E+03  0.34065832704E+03  0.00000000000E+00 0. -1.
         21    1    1    2  503  502 -0.28138858274E+02  0.19485915159E+02 -0.32300123880E+03  0.32480963117E+03  0.00000000000E+00 0. -1.
         21    1    1    2  504  501  0.28138858274E+02 -0.19485915159E+02  0.72910793807E+00  0.34234892039E+02  0.00000000000E+00 0. -1.
</event>
<event>
 4    1  0.3183954E+006  0.2647149E+02  0.7546771E-02  0.1452991E+00
         21   -1    0    0  503  501  0.00000000000E+00  0.00000000000E+00  0.15531023291E+02  0.15531023291E+02  0.00000000000E+00 0.  1.
         21   -1    0    0  504  502 -0.00000000000E+00 -0.00000000000E+00 -0.12022505031E+03  0.12022505031E+03  0.00000000000E+00 0. -1.
         21    1    1    2  503  502 -0.15042498627E+02 -0.21782171761E+02 -0.10599705757E+03  0.10925253308E+03  0.00000000000E+00 0. -1.
         21    1    1    2  504  501  0.15042498627E+02  0.21782171761E+02  0.13030305476E+01  0.26503540521E+02  0.00000000000E+00 0.  1.
</event>
<event>
 4    1  0.3183954E+006  0.2253547E+02  0.7546771E-02  0.1498415E+00
         21   -1    0    0  502  501  0.00000000000E+00  0.00000000000E+00  0.10971358079E+02  0.10971358079E+02  0.00000000000E+00 0. -1.
         21   -1    0    0  503  502 -0.00000000000E+00 -0.00000000000E+00 -0.15642288173E+03  0.15642288173E+03  0.00000000000E+00 0.  1.
         21    1    1    2  503  504 -0.20721713020E+02 -0.88576640286E+01 -0.14295562958E+03  0.14472097163E+03  0.00000000000E+00 0.  1.
         21    1    1    2  504  501  0.20721713020E+02  0.88576640286E+01 -0.24958940731E+01  0.22673268175E+02  0.00000000000E+00 0. -1.
</event>
<event>
 4    1  0.3183954E+006  0.2177445E+02  0.7546771E-02  0.1508489E+00
         21   -1    0    0  504  501  0.00000000000E+00  0.00000000000E+00  0.36643091492E+02  0.36643091492E+02  0.00000000000E+00 0.  1.
         21   -1    0    0  501  502 -0.00000000000E+00 -0.00000000000E+00 -0.43299353012E+02  0.43299353012E+02  0.00000000000E+00 0. -1.
         21    1    1    2  503  502  0.15898961440E+01 -0.21716328793E+02 -0.36798445227E+02  0.42758066808E+02  0.00000000000E+00 0. -1.
         21    1    1    2  504  503 -0.15898961440E+01  0.21716328793E+02  0.30142183708E+02  0.37184377696E+02  0.00000000000E+00 0.  1.
</event>
<event>
 4    1  0.3183954E+006  0.4628371E+02  0.7546771E-02  0.1315142E+00
         21   -1    0    0  504  501  0.00000000000E+00  0.00000000000E+00  0.46811128852E+01  0.46811128852E+01  0.00000000000E+00 0.  1.
         21   -1    0    0  503  502 -0.00000000000E+00 -0.00000000000E+00 -0.47041064860E+03  0.47041064860E+03  0.00000000000E+00 0.  1.
         21    1    1    2  503  501 -0.39751330901E+01  0.46112689295E+02 -0.19369819124E+03  0.19915112625E+03  0.00000000000E+00 0.  1.
         21    1    1    2  504  502  0.39751330901E+01 -0.46112689295E+02 -0.27203134448E+03  0.27594063524E+03  0.00000000000E+00 0.  1.
</event>
<event>
 4    1  0.3183954E+006  0.2028825E+02  0.7546771E-02  0.1529674E+00
         21   -1    0    0  502  501  0.00000000000E+00  0.00000000000E+00  0.17289022561E+03  0.17289022561E+03  0.00000000000E+00 0. -1.
         21   -1    0    0  503  502 -0.00000000000E+00 -0.00000000000E+00 -0.37217983396E+01  0.37217983396E+01  0.00000000000E+00 0. -1.
         21    1    1    2  503  504  0.46708765193E+01  0.19743252387E+02  0.31577403532E+02  0.37533258800E+02  0.00000000000E+00 0. -1.
         21    1    1    2  504  501 -0.46708765193E+01 -0.19743252387E+02  0.13759102374E+03  0.13907876515E+03  0.00000000000E+00 0. -1.
</event>
<event>
 4    1  0.3183954E+006  0.2476680E+02  0.7546771E-02  0.1471429E+00
         21   -1    0    0  503  501  0.00000000000E+00  0.00000000000E+00  0.16079430942E+03  0.16079430942E+03  0.00000000000E+00 0.  1.
         21   -1    0    0  504  502 -0.00000000000E+00 -0.00000000000E+00 -0.32029573726E+03  0.32029573726E+03  0.00000000000E+00 0. -1.
         21    1    1    2  503  502  0.29234549052E-01 -0.24766783711E+02  0.15935755243E+03  0.16127065432E+03  0.00000000000E+00 0.  1.
         21    1    1    2  504  501 -0.29234549052E-01  0.24766783711E+02 -0.31885898027E+03  0.31981939236E+03  0.00000000000E+00 0. -1.
</event>
<event>
 4    1  0.3183954E+006  0.2250825E+02  0.7546771E-02  0.1498767E+00
         21   -1    0    0  503  501  0.00000000000E+00  0.00000000000E+00  0.86793554910E+03  0.86793554910E+03  0.00000000000E+00 0.  1.
         21   -1    0    0  504  502 -0.00000000000E+00 -0.00000000000E+00 -0.63172539511E+00  0.63172539511E+00  0.00000000000E+00 0.  1.
         21    1    1    2  503  502  0.11552478859E+02  0.19317388142E+02  0.31392083654E+03  0.31472672728E+03  0.00000000000E+00 0.  1.
         21    1    1    2  504  501 -0.11552478859E+02 -0.19317388142E+02  0.55338298717E+03  0.55384054721E+03  0.00000000000E+00 0.  1.
</event>
<event>
 4    1  0.3183954E+006  0.2424619E+02  0.7546771E-02  0.1477416E+00
         21   -1    0    0  503  501  0.00000000000E+00  0.00000000000E+00  0.51472294219E+02  0.51472294219E+02  0.00000000000E+00 0.  1.
         21   -1    0    0  504  502 -0.00000000000E+00 -0.00000000000E+00 -0.11425451653E+02  0.11425451653E+02  0.00000000000E+00 0.  1.
         21    1    1    2  503  502 -0.22957634372E+02 -0.77990267309E+01  0.19420132189E+02  0.31064760230E+02  0.00000000000E+00 0.  1.
         21    1    1    2  504  501  0.22957634372E+02  0.77990267309E+01  0.20626710377E+02  0.31832985642E+02  0.00000000000E+00 0.  1.
</event>
<event>
 4    1  0.3183954E+006  0.2573565E+02  0.7546771E-02  0.1460739E+00
         21   -1    0    0  503  501  0.00000000000E+00  0.00000000000E+00  0.26863067662E+03  0.26863067662E+03  0.00000000000E+00 0.  1.
         21   -1    0    0  504  502 -0.00000000000E+00 -0.00000000000E+00 -0.25496054117E+01  0.25496054117E+01  0.00000000000E+00 0.  1.
         21    1    1    2  503  502  0.23088261913E+02  0.11369068447E+02  0.15765911648E+03  0.15974579983E+03  0.00000000000E+00 0.  1.
         21    1    1    2  504  501 -0.23088261913E+02 -0.11369068447E+02  0.10842195473E+03  0.11143448220E+03  0.00000000000E+00 0.  1.
</event>
<event>
 4    1  0.3183954E+006  0.2027035E+02  0.7546771E-02  0.1529942E+00
         21   -1    0    0  503  501  0.00000000000E+00  0.00000000000E+00  0.33946582263E+02  0.33946582263E+02  0.00000000000E+00 0.  1.
         21   -1    0    0  501  502 -0.00000000000E+00 -0.00000000000E+00 -0.28793000552E+02  0.28793000552E+02  0.00000000000E+00 0.  1.
         21    1    1    2  503  504 -0.15206820972E+02  0.13402979495E+02  0.26459531570E+02  0.33331577735E+02  0.00000000000E+00 0.  1.
         21    1    1    2  504  502  0.15206820972E+02 -0.13402979495E+02 -0.21305949859E+02  0.29408005080E+02  0.00000000000E+00 0.  1.
</event>
<event>
 4    1  0.3183954E+006  0.2076699E+02  0.7546771E-02  0.1522618E+00
         21   -1    0    0  502  501  0.00000000000E+00  0.00000000000E+00  0.13275506870E+02  0.13275506870E+02  0.00000000000E+00 0.  1.
         21   -1    0    0  503  502 -0.00000000000E+00 -0.00000000000E+00 -0.49104816006E+02  0.49104816006E+02  0.00000000000E+00 0.  1.
         21    1    1    2  503  504  0.15785029603E+02  0.13494462864E+02 -0.36059615618E+02  0.41612060344E+02  0.00000000000E+00 0.  1.
         21    1    1    2  504  501 -0.15785029603E+02 -0.13494462864E+02  0.23030648165E+00  0.20768262532E+02  0.00000000000E+00 0.  1.
</event>
<event>
 4    1  0.3183954E+006  0.3021322E+02  0.7546771E-02  0.1417752E+00
         21   -1    0    0  502  501  0.00000000000E+00  0.00000000000E+00  0.11658418479E+02  0.11658418479E+02  0.00000000000E+00 0.  1.
         21   -1    0    0  503  502 -0.00000000000E+00 -0.00000000000E+00 -0.13588510666E+03  0.13588510666E+03  0.00000000000E+00 0. -1.
         21    1    1    2  503  504 -0.16642800672E+02 -0.25216179004E+02 -0.11013801372E+03  0.11420691995E+03  0.00000000000E+00 0. -1.
         21    1    1    2  504  501  0.16642800672E+02  0.25216179004E+02 -0.14088674464E+02  0.33336605195E+02  0.00000000000E+00 0.  1.
</event>
<event>
 4    1  0.3183954E+006  0.2371758E+02  0.7546771E-02  0.1483679E+00
         21   -1    0    0  503  501  0.00000000000E+00  0.00000000000E+00  0.58004513784E+02  0.58004513784E+02  0.00000000000E+00 0. -1.
         21   -1    0    0  504  502 -0.00000000000E+00 -0.00000000000E+00 -0.62757582938E+03  0.62757582938E+03  0.00000000000E+00 0. -1.
         21    1    1    2  503  502 -0.33043246437E+01 -0.23486272894E+02 -0.62491694967E+03  0.62536686638E+03  0.00000000000E+00 0. -1.
         21    1    1    2  504  501  0.33043246437E+01  0.23486272894E+02  0.55345634074E+02  0.60213476788E+02  0.00000000000E+00 0. -1.
</event>
<event>
 4    1  0.3183954E+006  0.3062271E+02  0.7546771E-02  0.1414261E+00
         21   -1    0    0  504  501  0.00000000000E+00  0.00000000000E+00  0.47083913769E+01  0.47083913769E+01  0.00000000000E+00 0. -1.
         21   -1    0    0  503  502 -0.00000000000E+00 -0.00000000000E+00 -0.21456133501E+03  0.21456133501E+03  0.00000000000E+00 0. -1.
         21    1    1    2  503  501  0.20194847229E+02 -0.23019955844E+02 -0.13429426276E+03  0.13774142163E+03  0.00000000000E+00 0. -1.
         21    1    1    2  504  502 -0.20194847229E+02  0.23019955844E+02 -0.75558680871E+02  0.81528304758E+02  0.00000000000E+00 0. -1.
</event>
<event>
 4    1  0.3183954E+006  0.2199246E+02  0.7546771E-02  0.1505553E+00
         21   -1    0    0  502  501  0.00000000000E+00  0.00000000000E+00  0.37396220565E+03  0.37396220565E+03  0.00000000000E+00 0. -1.
         21   -1    0    0  504  502 -0.00000000000E+00 -0.00000000000E+00 -0.68574700120E+01  0.68574700120E+01  0.00000000000E+00 0.  1.
         21    1    1    2  503  501 -0.21588180930E+02 -0.41974723337E+01  0.35506859659E+03  0.35574903600E+03  0.00000000000E+00 0. -1.
         21    1    1    2  504  503  0.21588180930E+02  0.41974723337E+01  0.12036139045E+02  0.25070639660E+02  0.00000000000E+00 0.  1.
</event>
<event>
 4    1  0.3183954E+006  0.2402232E+02  0.7546771E-02  0.1480045E+00
         21   -1    0    0  503  501  0.00000000000E+00  0.00000000000E+00  0.11415693303E+04  0.11415693303E+04  0.00000000000E+00 0.  1.
         21   -1    0    0  504  502 -0.00000000000E+00 -0.00000000000E+00 -0.22432399997E+02  0.22432399997E+02  0.00000000000E+00 0.  1.
         21    1    1    2  503  502 -0.23194333177E+02 -0.62525928202E+01 -0.15837423926E+02  0.28773182047E+02  0.00000000000E+00 0.  1.
         21    1    1    2  504  501  0.23194333177E+02  0.62525928202E+01  0.11349743543E+04  0.11352285483E+04  0.00000000000E+00 0.  1.
</event>
<event>
 4    1  0.3183954E+006  0.2116214E+02  0.7546771E-02  0.1516962E+00
         21   -1    0    0  503  501  0.00000000000E+00  0.00000000000E+00  0.87433060766E+01  0.87433060766E+01  0.00000000000E+00 0. -1.
         21   -1    0    0  504  502 -0.00000000000E+00 -0.00000000000E+00 -0.11201753766E+04  0.11201753766E+04  0.00000000000E+00 0.  1.
         21    1    1    2  503  502  0.21162034907E+02 -0.68105829470E-01 -0.11071193133E+04  0.11073215478E+04  0.00000000000E+00 0.  1.
         21    1    1    2  504  501 -0.21162034907E+02  0.68105829470E-01 -0.43127572285E+01  0.21597134873E+02  0.00000000000E+00 0. -1.
</event>
<event>
 4    1  0.3183954E+006  0.3287090E+02  0.7546771E-02  0.1396183E+00
         21   -1    0    0  503  501  0.00000000000E+00  0.00000000000E+00  0.24707287501E+03  0.24707287501E+03  0.00000000000E+00 0. -1.
         21   -1    0    0  504  502 -0.00000000000E+00 -0.00000000000E+00 -0.15402930632E+02  0.15402930632E+02  0.00000000000E+00 0. -1.
         21    1    1    2  503  502 -0.18659820151E+02  0.27061172908E+02  0.47794126775E+01  0.33216543360E+02  0.00000000000E+00 0. -1.
         21    1    1    2  504  501  0.18659820151E+02 -0.27061172908E+02  0.22689053170E+03  0.22925926228E+03  0.00000000000E+00 0. -1.
</event>
<event>
 4    1  0.3183954E+006  0.2113583E+02  0.7546771E-02  0.1517334E+00
         21   -1    0    0  504  501  0.00000000000E+00  0.00000000000E+00  0.50279831131E+02  0.50279831131E+02  0.00000000000E+00 0. -1.
         21   -1    0    0  503  502 -0.00000000000E+00 -0.00000000000E+00 -0.35973107214E+02  0.35973107214E+02  0.00000000000E+00 0.  1.
         21    1    1    2  503  501 -0.12503934611E+02 -0.17040393984E+02  0.44577026578E+02  0.49333910309E+02  0.00000000000E+00 0. -1.
         21    1    1    2  504  502  0.12503934611E+02  0.17040393984E+02 -0.30270302661E+02  0.36919028035E+02  0.00000000000E+00 0.  1.
</event>
<event>
 4    1  0.3183954E+006  0.3176761E+02  0.7546771E-02  0.1404833E+00
         21   -1    0    0  503  501  0.00000000000E+00  0.00000000000E+00  0.26407376773E+03  0.26407376773E+03  0.00000000000E+00 0.  1.
         21   -1    0    0  504  502 -0.00000000000E+00 -0.00000000000E+00 -0.18673441575E+02  0.18673441575E+02  0.00000000000E+00 0.  1.
         21    1    1    2  503  502 -0.52014567610E+01 -0.31338892624E+02 -0.33799141536E+01  0.31946911635E+02  0.00000000000E+00 0.  1.
         21    1    1    2  504  501  0.52014567610E+01  0.31338892624E+02  0.24878024030E+03  0.25080029767E+03  0.00000000000E+00 0.  1.
</event>
<event>
 4    1  0.3183954E+006  0.4479256E+02  0.7546771E-02  0.1322480E+00
         21   -1    0    0  502  501  0.00000000000E+00  0.00000000000E+00  0.13580721216E+04  0.13580721216E+04  0.00000000000E+00 0. -1.
         21   -1    0    0  503  502 -0.00000000000E+00 -0.00000000000E+00 -0.70843675084E+02  0.70843675084E+02  0.00000000000E+00 0. -1.
         21    1    1    2  503  504 -0.44679908964E+02 -0.31748034856E+01 -0.63354799005E+02  0.77589974862E+02  0.00000000000E+00 0. -1.
         21    1    1    2  504  501  0.44679908964E+02  0.31748034856E+01  0.13505832455E+04  0.13513258218E+04  0.00000000000E+00 0. -1.
</event>
<event>
 4    1  0.3183954E+006  0.2314539E+02  0.7546771E-02  0.1490681E+00
         21   -1    0    0  503  501  0.00000000000E+00  0.00000000000E+00  0.19981724540E+03  0.19981724540E+03  0.00000000000E+00 0. -1.
         21   -1    0    0  504  502 -0.00000000000E+00 -0.00000000000E+00 -0.70306157879E+02  0.70306157879E+02  0.00000000000E+00 0.  1.
         21    1    1    2  503  502 -0.19794528725E+02 -0.11995230386E+02  0.19721705285E+03  0.19857057902E+03  0.00000000000E+00 0. -1.
         21    1    1    2  504  501  0.19794528725E+02  0.11995230386E+02 -0.67705965323E+02  0.71552824261E+02  0.00000000000E+00 0.  1.
</event>
<event>
 4    1  0.3183954E+006  0.2064743E+02  0.7546771E-02  0.1524359E+00
         21   -1    0    0  502  501  0.00000000000E+00  0.00000000000E+00  0.79144852074E+03  0.79144852074E+03  0.00000000000E+00 0. -1.
         21   -1    0    0  504  502 -0.00000000000E+00 -0.00000000000E+00 -0.12191423712E+02  0.12191423712E+02  0.00000000000E+00 0. -1.
         21    1    1    2  503  501 -0.13126852805E+02 -0.15937445529E+02  0.78247144068E+03  0.78274380989E+03  0.00000000000E+00 0. -1.
         21    1    1    2  504  503  0.13126852805E+02  0.15937445529E+02 -0.32143436543E+01  0.20896134563E+02  0.00000000000E+00 0. -1.
</event>
<event>
 4    1  0.3183954E+006  0.2037467E+02  0.7546771E-02  0.1528383E+00
         21   -1    0    0  504  501  0.00000000000E+00  0.00000000000E+00  0.74488499871E+02  0.74488499871E+02  0.00000000000E+00 0. -1.
         21   -1    0    0  501  502 -0.00000000000E+00 -0.00000000000E+00 -0.62495531268E+02  0.62495531268E+02  0.00000000000E+00 0. -1.
         21    1    1    2  503  502 -0.29259773110E+01  0.20163474597E+02 -0.59370346804E+02  0.62769141549E+02  0.00000000000E+00 0. -1.
         21    1    1    2  504  503  0.29259773110E+01 -0.20163474597E+02  0.71363315407E+02  0.74214889591E+02  0.00000000000E+00 0. -1.
</event>
<event>
 4    1  0.3183954E+006  0.2647277E+02  0.7546771E-02  0.1452977E+00
         21   -1    0    0  502  501  0.00000000000E+00  0.00000000000E+00  0.32654400608E+03  0.32654400608E+03  0.00000000000E+00 0. -1.
         21   -1    0    0  504  502 -0.00000000000E+00 -0.00000000000E+00 -0.43851391730E+02  0.43851391730E+02  0.00000000000E+00 0. -1.
         21    1    1    2  503  501  0.12589073881E+02 -0.23287818950E+02  0.32195527003E+03  0.32304179791E+03  0.00000000000E+00 0. -1.
         21    1    1    2  504  503 -0.12589073881E+02  0.23287818950E+02 -0.39262655683E+02  0.47353599904E+02  0.00000000000E+00 0. -1.
</event>
<event>
 4    1  0.3183954E+006  0.2285484E+02  0.7546771E-02  0.1494329E+00
         21   -1    0    0  503  501  0.00000000000E+00  0.00000000000E+00  0.63392435085E+01  0.63392435085E+01  0.00000000000E+00 0. -1.
         21   -1    0    0  504  502 -0.00000000000E+00 -0.00000000000E+00 -0.82671757966E+02  0.82671757966E+02  0.00000000000E+00 0. -1.
         21    1    1    2  503  502  0.15236251117E+02  0.17035269876E+02 -0.35607257727E+02  0.42310998223E+02  0.00000000000E+00 0. -1.
         21    1    1    2  504  501 -0.15236251117E+02 -0.17035269876E+02 -0.40725256730E+02  0.46700003251E+02  0.00000000000E+00 0. -1.
</event>
<event>
 4    1  0.3183954E+006  0.2339891E+02  0.7546771E-02  0.1487549E+00
         21   -1    0    0  503  501  0.00000000000E+00  0.00000000000E+00  0.36850902576E+02  0.36850902576E+02  0.00000000000E+00 0.  1.
         21   -1    0    0  504  502 -0.00000000000E+00 -0.00000000000E+00 -0.69995606312E+02  0.69995606312E+02  0.00000000000E+00 0. -1.
         21    1    1    2  503  502  0.19251762694E+02  0.13299568908E+02 -0.63987950278E+02  0.68131979868E+02  0.00000000000E+00 0. -1.
         21    1    1    2  504  501 -0.19251762694E+02 -0.13299568908E+02  0.30843246542E+02  0.38714529020E+02  0.00000000000E+00 0.  1.
</event>
<event>
 4    1  0.3183954E+006  0.2035495E+02  0.7546771E-02  0.1528677E+00
         21   -1    0    0  504  501  0.00000000000E+00  0.00000000000E+00  0.33613284492E+03  0.33613284492E+03  0.00000000000E+00 0.  1.
         21   -1    0    0  501  502 -0.00000000000E+00 -0.00000000000E+00 -0.18418167860E+03  0.18418167860E+03  0.00000000000E+00 0.  1.
         21    1    1    2  503  502 -0.13469171536E+02  0.15261234589E+02 -0.18330967761E+03  0.18443633528E+03  0.00000000000E+00 0.  1.
         21    1    1    2  504  503  0.13469171536E+02 -0.15261234589E+02  0.33526084393E+03  0.33587818824E+03  0.00000000000E+00 0.  1.
</event>
<event>
 4    1  0.3183954E+006  0.3267978E+02  0.7546771E-02  0.1397652E+00
         21   -1    0    0  503  501  0.00000000000E+00  0.00000000000E+00  0.29185115137E+02  0.29185115137E+02  0.00000000000E+00 0.  1.
         21   -1    0    0  504  502 -0.00000000000E+00 -0.00000000000E+00 -0.44608939257E+02  0.44608939257E+02  0.00000000000E+00 0.  1.
         21    1    1    2  503  502  0.10858483260E+02 -0.30823062561E+02  0.79289429479E+01  0.33627904790E+02  0.00000000000E+00 0.  1.
         21    1    1    2  504  501 -0.10858483260E+02  0.30823062561E+02 -0.23352767067E+02  0.40166149604E+02  0.00000000000E+00 0.  1.
</event>
<event>
 4    1  0.3183954E+006  0.2194039E+02  0.7546771E-02  0.1506250E+00
         21   -1    0    0  503  501  0.00000000000E+00  0.00000000000E+00  0.45328976885E+03  0.45328976885E+03  0.00000000000E+00 0. -1.
         21   -1    0    0  501  502 -0.00000000000E+00 -0.00000000000E+00 -0.15764623577E+01  0.15764623577E+01  0.00000000000E+00 0. -1.
         21    1    1    2  503  504 -0.21618494492E+02  0.37444973253E+01  0.35578411771E+03  0.35645998230E+03  0.00000000000E+00 0. -1.
         21    1    1    2  504  502  0.21618494492E+02 -0.37444973253E+01  0.95929188782E+02  0.98406248911E+02  0.00000000000E+00 0. -1.
</event>
<event>
 4    1  0.3183954E+006  0.2466917E+02  0.7546771E-02  0.1472539E+00
         21   -1    0    0  504  501  0.00000000000E+00  0.00000000000E+00  0.74047627273E+02  0.74047627273E+02  0.00000000000E+00 0.  1.
         21   -1    0    0  503  502 -0.00000000000E+00 -0.00000000000E+00 -0.22602204890E+02  0.22602204890E+02  0.00000000000E+00 0.  1.
         21    1    1    2  503  501 -0.24658370484E+02  0.72982183767E+00 -0.12827749101E+02  0.27805017925E+02  0.00000000000E+00 0.  1.
         21    1    1    2  504  502  0.24658370484E+02 -0.72982183767E+00  0.64273171484E+02  0.68844814237E+02  0.00000000000E+00 0.  1.
</event>
<event>
 4    1  0.3183954E+006  0.2553852E+02  0.7546771E-02  0.1462868E+00
         21   -1    0    0  503  501  0.00000000000E+00  0.00000000000E+00  0.49057586638E+03  0.49057586638E+03  0.00000000000E+00 0.  1.
         21   -1    0    0  501  502 -0.00000000000E+00 -0.00000000000E+00 -0.81316651791E+02  0.81316651791E+02  0.00000000000E+00 0. -1.
         21    1    1    2  503  504  0.22781131084E+02 -0.11542795553E+02  0.48822868658E+03  0.48889617145E+03  0.00000000000E+00 0.  1.
         21    1    1    2  504  502 -0.22781131084E+02  0.11542795553E+02 -0.78969471988E+02  0.82996346719E+02  0.00000000000E+00 0. -1.
</event>
<event>
 4    1  0.3183954E+006  0.2772948E+02  0.7546771E-02  0.1440415E+00
         21   -1    0    0  504  501  0.00000000000E+00  0.00000000000E+00  0.77844580854E+02  0.77844580854E+02  0.00000000000E+00 0.  1.
         21   -1    0    0  503  502 -0.00000000000E+00 -0.00000000000E+00 -0.41098391517E+02  0.41098391517E+02  0.00000000000E+00 0.  1.
         21    1    1    2  503  501 -0.57308321407E+01  0.27130824075E+02 -0.33461267645E+02  0.43457801191E+02  0.00000000000E+00 0.  1.
         21    1    1    2  504  502  0.57308321407E+01 -0.27130824075E+02  0.70207456983E+02  0.75485171179E+02  0.00000000000E+00 0.  1.
</event>
<event>
 4    1  0.3183954E+006  0.2563931E+02  0.7546771E-02  0.1461777E+00
         21   -1    0    0  503  501  0.00000000000E+00  0.00000000000E+00  0.68657920331E+02  0.68657920331E+02  0.00000000000E+00 0. -1.
         21   -1    0    0  504  502 -0.00000000000E+00 -0.00000000000E+00 -0.46749575184E+02  0.46749575184E+02  0.00000000000E+00 0. -1.
         21    1    1    2  503  502 -0.16086127782E+02  0.19965234618E+02 -0.40502341536E+02  0.47935516794E+02  0.00000000000E+00 0. -1.
         21    1    1    2  504  501  0.16086127782E+02 -0.19965234618E+02  0.62410686683E+02  0.67471978722E+02  0.00000000000E+00 0. -1.
</event>
<event>
 4    1  0.3183954E+006  0.5806956E+02  0.7546771E-02  0.1266536E+00
         21   -1    0    0  504  501  0.00000000000E+00  0.00000000000E+00  0.18633324227E+03  0.18633324227E+03  0.00000000000E+00 0. -1.
         21   -1    0    0  501  502 -0.00000000000E+00 -0.00000000000E+00 -0.25378275352E+02  0.25378275352E+02  0.00000000000E+00 0.  1.
         21    1    1    2  503  502  0.54339685760E+02 -0.20476147328E+02  0.23776976117E+02  0.62748853783E+02  0.00000000000E+00 0.  1.
         21    1    1    2  504  503 -0.54339685760E+02  0.20476147328E+02  0.13717799080E+03  0.14896266384E+03  0.00000000000E+00 0. -1.
</event>
<event>
 4    1  0.3183954E+006  0.2504608E+02  0.7546771E-02  0.1468289E+00
         21   -1    0    0  503  501  0.00000000000E+00  0.00000000000E+00  0.14847091505E+01  0.14847091505E+01  0.00000000000E+00 0. -1.
         21   -1    0    0  504  502 -0.00000000000E+00 -0.00000000000E+00 -0.42474629346E+03  0.42474629346E+03  0.00000000000E+00 0. -1.
         21    1    1    2  503  502 -0.24882509081E+02 -0.28577385216E+01 -0.22709112507E+03  0.22846812691E+03  0.00000000000E+00 0. -1.
         21    1    1    2  504  501  0.24882509081E+02  0.28577385216E+01 -0.19617045925E+03  0.19776287571E+03  0.00000000000E+00 0. -1.
</event>
<event>
 4    1  0.3183954E+006  0.2060282E+02  0.7546771E-02  0.1525012E+00
         21   -1    0    0  504  501  0.00000000000E+00  0.00000000000E+00  0.50593270864E+02  0.50593270864E+02  0.00000000000E+00 0. -1.
         21   -1    0    0  503  502 -0.00000000000E+00 -0.00000000000E+00 -0.15918307159E+02  0.15918307159E+02  0.00000000000E+00 0.  1.
         21    1    1    2  503  501 -0.20146390561E+02 -0.43126792367E+01 -0.55326261286E+01  0.21332749629E+02  0.00000000000E+00 0.  1.
         21    1    1    2  504  502  0.20146390561E+02  0.43126792367E+01  0.40207589834E+02  0.45178828394E+02  0.00000000000E+00 0. -1.
</event>
<event>
 4    1  0.3183954E+006  0.2143068E+02  0.7546771E-02  0.1513204E+00
         21   -1    0    0  502  501  0.00000000000E+00  0.00000000000E+00  0.27413255104E+02  0.27413255104E+02  0.00000000000E+00 0.  1.
         21   -1    0    0  504  502 -0.00000000000E+00 -0.00000000000E+00 -0.20315217217E+03  0.20315217217E+03  0.00000000000E+00 0.  1.
         21    1    1    2  503  501 -0.11880917362E+02 -0.17835864356E+02  0.22557369056E+02  0.31114452485E+02  0.00000000000E+00 0.  1.
         21    1    1    2  504  503  0.11880917362E+02  0.17835864356E+02 -0.19829628612E+03  0.19945097479E+03  0.00000000000E+00 0.  1.
</event>
<event>
 4    1  0.3183954E+006  0.3009755E+02  0.7546771E-02  0.1418751E+00
         21   -1    0    0  503  501  0.00000000000E+00  0.00000000000E+00  0.28092079095E+03  0.28092079095E+03  0.00000000000E+00 0.  1.
         21   -1    0    0  501  502 -0.00000000000E+00 -0.00000000000E+00 -0.45967085642E+01  0.45967085642E+01  0.00000000000E+00 0.  1.
         21    1    1    2  503  504 -0.25671748104E+02 -0.15710628740E+02  0.21615771051E+03  0.21824302582E+03  0.00000000000E+00 0.  1.
         21    1    1    2  504  502  0.25671748104E+02  0.15710628740E+02  0.60166371876E+02  0.67274473694E+02  0.00000000000E+00 0.  1.
</event>
<event>
 4    1  0.3183954E+006  0.2462624E+02  0.7546771E-02  0.1473028E+00
         21   -1    0    0  503  501  0.00000000000E+00  0.00000000000E+00  0.97673373774E+02  0.97673373774E+02  0.00000000000E+00 0. -1.
         21   -1    0    0  504  502 -0.00000000000E+00 -0.00000000000E+00 -0.11196426162E+03  0.11196426162E+03  0.00000000000E+00 0.  1.
         21    1    1    2  503  502  0.20225240078E+02  0.14049607918E+02  0.94725559500E+02  0.97874324730E+02  0.00000000000E+00 0. -1.
         21    1    1    2  504  501 -0.20225240078E+02 -0.14049607918E+02 -0.10901644735E+03  0.11176331067E+03  0.00000000000E+00 0.  1.
</event>
<event>
 4    1  0.3183954E+006  0.2106394E+02  0.7546771E-02  0.1518354E+00
         21   -1    0    0  504  501  0.00000000000E+00  0.00000000000E+00  0.74993951741E+01  0.74993951741E+01  0.00000000000E+00 0.  1.
         21   -1    0    0  503  502 -0.00000000000E+00 -0.00000000000E+00 -0.66604991655E+02  0.66604991655E+02  0.00000000000E+00 0.  1.
         21    1    1    2  503  501 -0.18088969050E+02 -0.10792538428E+02 -0.41937728499E+02  0.46930403351E+02  0.00000000000E+00 0.  1.
         21    1    1    2  504  502  0.18088969050E+02  0.10792538428E+02 -0.17167867981E+02  0.27173983478E+02  0.00000000000E+00 0.  1.
</event>
<event>
 4    1  0.3183954E+006  0.2131831E+02  0.7546771E-02  0.1514768E+00
         21   -1    0    0  504  501  0.00000000000E+00  0.00000000000E+00  0.50542749803E+02  0.50542749803E+02  0.00000000000E+00 0. -1.
         21   -1    0    0  503  502 -0.00000000000E+00 -0.00000000000E+00 -0.14172677300E+02  0.14172677300E+02  0.00000000000E+00 0. -1.
         21    1    1    2  503  501  0.20885473430E+02  0.42740416838E+01  0.37748845431E+02  0.43352575057E+02  0.00000000000E+00 0. -1.
         21    1    1    2  504  502 -0.20885473430E+02 -0.42740416838E+01 -0.13787729280E+01  0.21362852045E+02  0.00000000000E+00 0. -1.
</event>
<event>
 4    1  0.3183954E+006  0.3005484E+02  0.7546771E-02  0.1419120E+00
         21   -1    0    0  504  501  0.00000000000E+00  0.00000000000E+00  0.12770273187E+03  0.12770273187E+03  0.00000000000E+00 0.  1.
         21   -1    0    0  501  502 -0.00000000000E+00 -0.00000000000E+00 -0.73112894236E+01  0.73112894236E+01  0.00000000000E+00 0.  1.
         21    1    1    2  503  502  0.19929367864E+02 -0.22496972421E+02  0.48018939061E+02  0.56649024530E+02  0.00000000000E+00 0.  1.
         21    1    1    2  504  503 -0.19929367864E+02  0.22496972421E+02  0.72372503384E+02  0.78364996763E+02  0.00000000000E+00 0.  1.
</event>
<event>
 4    1  0.3183954E+006  0.2650662E+02  0.7546771E-02  0.1452628E+00
         21   -1    0    0  504  501  0.00000000000E+00  0.00000000000E+00  0.41687857340E+02  0.41687857340E+02  0.00000000000E+00 0.  1.
         21   -1    0    0  501  502 -0.00000000000E+00 -0.00000000000E+00 -0.33573163194E+02  0.33573163194E+02  0.00000000000E+00 0.  1.
         21    1    1    2  503  502 -0.12350939712E+02 -0.23453260582E+02 -0.22498069318E+02  0.34767287308E+02  0.00000000000E+00 0.  1.
         21    1    1    2  504  503  0.12350939712E+02  0.23453260582E+02  0.30612763465E+02  0.40493733227E+02  0.00000000000E+00 0.  1.
</event>
<event>
 4    1  0.3183954E+006  0.3415435E+02  0.7546771E-02  0.1386608E+00
         21   -1    0    0  504  501  0.00000000000E+00  0.00000000000E+00  0.46963832189E+02  0.46963832189E+02  0.00000000000E+00 0. -1.
         21   -1    0    0  503  502 -0.00000000000E+00 -0.00000000000E+00 -0.32954931602E+03  0.32954931602E+03  0.00000000000E+00 0. -1.
         21    1    1    2  503  501 -0.18027086583E+02  0.29009379488E+02  0.39730252834E+02  0.52392871072E+02  0.00000000000E+00 0. -1.
         21    1    1    2  504  502  0.18027086583E+02 -0.29009379488E+02 -0.32231573667E+03  0.32412027714E+03  0.00000000000E+00 0. -1.
</event>
<event>
 4    1  0.3183954E+006  0.6536047E+02  0.7546771E-02  0.1242632E+00
         21   -1    0    0  502  501  0.00000000000E+00  0.00000000000E+00  0.13811287022E+03  0.13811287022E+03  0.00000000000E+00 0.  1.
         21   -1    0    0  504  502 -0.00000000000E+00 -0.00000000000E+00 -0.44360664250E+02  0.44360664250E+02  0.00000000000E+00 0.  1.
         21    1    1    2  503  501 -0.60336790924E+01 -0.65081378834E+02  0.97075774392E+02  0.11702861671E+03  0.00000000000E+00 0.  1.
         21    1    1    2  504  503  0.60336790924E+01  0.65081378834E+02 -0.33235684205E+01  0.65444917766E+02  0.00000000000E+00 0.  1.
</event>
<event>
 4    1  0.3183954E+006  0.2348091E+02  0.7546771E-02  0.1486546E+00
         21   -1    0    0  504  501  0.00000000000E+00  0.00000000000E+00  0.42862742162E+03  0.42862742162E+03  0.00000000000E+00 0. -1.
         21   -1    0    0  501  502 -0.00000000000E+00 -0.00000000000E+00 -0.29768740341E+02  0.29768740341E+02  0.00000000000E+00 0.  1.
         21    1    1    2  503  502 -0.15149126773E+02  0.17940378152E+02 -0.24762174852E+02  0.34125042324E+02  0.00000000000E+00 0.  1.
         21    1    1    2  504  503  0.15149126773E+02 -0.17940378152E+02  0.42362085613E+03  0.42427111964E+03  0.00000000000E+00 0. -1.
</event>
<event>
 4    1  0.3183954E+006  0.2252527E+02  0.7546771E-02  0.1498547E+00
         21   -1    0    0  503  501  0.00000000000E+00  0.00000000000E+00  0.44683930131E+02  0.44683930131E+02  0.00000000000E+00 0.  1.
         21   -1    0    0  504  502 -0.00000000000E+00 -0.00000000000E+00 -0.15224509627E+03  0.15224509627E+03  0.00000000000E+00 0. -1.
         21    1    1    2  503  502  0.25071918043E+01 -0.22385306087E+02  0.40940847497E+02  0.46728373962E+02  0.00000000000E+00 0.  1.
         21    1    1    2  504  501 -0.25071918043E+01  0.22385306087E+02 -0.14850201364E+03  0.15020065244E+03  0.00000000000E+00 0. -1.
</event>
<event>
 4    1  0.3183954E+006  0.2211129E+02  0.7546771E-02  0.1503970E+00
         21   -1    0    0  502  501  0.00000000000E+00  0.00000000000E+00  0.86508616824E+02  0.86508616824E+02  0.00000000000E+00 0. -1.
         21   -1    0    0  503  502 -0.00000000000E+00 -0.00000000000E+00 -0.61413583670E+01  0.61413583670E+01  0.00000000000E+00 0. -1.
         21    1    1    2  503  504  0.17671658593E+02 -0.13289902005E+02  0.27101156446E+02  0.34976873695E+02  0.00000000000E+00 0. -1.
         21    1    1    2  504  501 -0.17671658593E+02  0.13289902005E+02  0.53266102010E+02  0.57673101496E+02  0.00000000000E+00 0. -1.
</event>
<event>
 4    1  0.3183954E+006  0.2044669E+02  0.7546771E-02  0.1527313E+00
         21   -1    0    0  504  501  0.00000000000E+00  0.00000000000E+00  0.25530930193E+02  0.25530930193E+02  0.00000000000E+00 0. -1.
         21   -1    0    0  503  502 -0.00000000000E+00 -0.00000000000E+00 -0.76919348807E+02  0.76919348807E+02  0.00000000000E+00 0.  1.
         21    1    1    2  503  501  0.20342714317E+02  0.20594354178E+01  0.19752494811E+02  0.28429357208E+02  0.00000000000E+00 0. -1.
         21    1    1    2  504  502 -0.20342714317E+02 -0.20594354178E+01 -0.71140913425E+02  0.74020921792E+02  0.00000000000E+00 0.  1.
</event>
<event>
 4    1  0.3183954E+006  0.2266062E+02  0.7546771E-02  0.1496804E+00
         21   -1    0    0  504  501  0.00000000000E+00  0.00000000000E+00  0.14665718410E+02  0.14665718410E+02  0.00000000000E+00 0. -1.
         21   -1    0    0  501  502 -0.00000000000E+00 -0.00000000000E+00 -0.49582850872E+02  0.49582850872E+02  0.00000000000E+00 0. -1.
         21    1    1    2  503  502  0.18417588419E+02 -0.13202130618E+02 -0.34871904740E+02  0.41587901561E+02  0.00000000000E+00 0. -1.
         21    1    1    2  504  503 -0.18417588419E+02  0.13202130618E+02 -0.45227721286E-01  0.22660667721E+02  0.00000000000E+00 0. -1.
</event>
<event>
 4    1  0.3183954E+006  0.4046272E+02  0.7546771E-02  0.1345795E+00
         21   -1    0    0  503  501  0.00000000000E+00  0.00000000000E+00  0.38812516805E+02  0.38812516805E+02  0.00000000000E+00 0.  1.
         21   -1    0    0  504  502 -0.00000000000E+00 -0.00000000000E+00 -0.13247377707E+03  0.13247377707E+03  0.00000000000E+00 0. -1.
         21    1    1    2  503  502 -0.62935581355E+01  0.39970279039E+02  0.23874206726E+02  0.46980951749E+02  0.00000000000E+00 0.  1.
         21    1    1    2  504  501  0.62935581355E+01 -0.39970279039E+02 -0.11753546699E+03  0.12430534212E+03  0.00000000000E+00 0. -1.
</event>
<event>
 4    1  0.3183954E+006  0.2034143E+02  0.7546771E-02  0.1528879E+00
         21   -1    0    0  503  501  0.00000000000E+00  0.00000000000E+00  0.80049292777E+01  0.80049292777E+01  0.00000000000E+00 0.  1.
         21   -1    0    0  504  502 -0.00000000000E+00 -0.00000000000E+00 -0.20536665902E+03  0.20536665902E+03  0.00000000000E+00 0.  1.
         21    1    1    2  503  502 -0.20314246606E+02  0.10511959313E+01 -0.63927475591E+01  0.21322308726E+02  0.00000000000E+00 0.  1.
         21    1    1    2  504  501  0.20314246606E+02 -0.10511959313E+01 -0.19096898218E+03  0.19204927957E+03  0.00000000000E+00 0.  1.
</event>
<event>
 4    1  0.3183954E+006  0.2973503E+02  0.7546771E-02  0.1421913E+00
         21   -1    0    0  502  501  0.00000000000E+00  0.00000000000E+00  0.11483021154E+02  0.11483021154E+02  0.00000000000E+00 0. -1.
         21   -1    0    0  504  502 -0.00000000000E+00 -0.00000000000E+00 -0.78584469816E+03  0.78584469816E+03  0.00000000000E+00 0.  1.
         21    1    1    2  503  501 -0.18112969487E+02  0.23581608227E+02 -0.85512026836E+01  0.30940183864E+02  0.00000000000E+00 0. -1.
         21    1    1    2  504  503  0.18112969487E+02 -0.23581608227E+02 -0.76581047432E+03  0.76638753545E+03  0.00000000000E+00 0.  1.
</event>
<event>
 4    1  0.3183954E+006  0.2329662E+02  0.7546771E-02  0.1488807E+00
         21   -1    0    0  503  501  0.00000000000E+00  0.00000000000E+00  0.25807558070E+02  0.25807558070E+02  0.00000000000E+00 0.  1.
         21   -1    0    0  504  502 -0.00000000000E+00 -0.00000000000E+00 -0.37631049921E+02  0.37631049921E+02  0.00000000000E+00 0. -1.
         21    1    1    2  503  502 -0.21517164847E+02  0.89299460541E+01  0.15156024480E+02  0.27792758007E+02  0.00000000000E+00 0.  1.
         21    1    1    2  504  501  0.21517164847E+02 -0.89299460541E+01 -0.26979516331E+02  0.35645849984E+02  0.00000000000E+00 0. -1.
</event>
<event>
 4    1  0.3183954E+006  0.2178124E+02  0.7546771E-02  0.1508397E+00
         21   -1    0    0  503  501  0.00000000000E+00  0.00000000000E+00  0.16558984811E+02  0.16558984811E+02  0.00000000000E+00 0.  1.
         21   -1    0    0  504  502 -0.00000000000E+00 -0.00000000000E+00 -0.83773165969E+02  0.83773165969E+02  0.00000000000E+00 0.  1.
         21    1    1    2  503  502 -0.19708266677E+01 -0.21691892431E+02 -0.74300396065E+02  0.77427199423E+02  0.00000000000E+00 0.  1.
         21    1    1    2  504  501  0.19708266677E+01  0.21691892431E+02  0.70862149074E+01  0.22904951358E+02  0.00000000000E+00 0.  1.
</event>
<event>
 4    1  0.3183954E+006  0.2243182E+02  0.7546771E-02  0.1499759E+00
         21   -1    0    0  503  501  0.00000000000E+00  0.00000000000E+00  0.25294711822E+01  0.25294711822E+01  0.00000000000E+00 0. -1.
         21   -1    0    0  504  502 -0.00000000000E+00 -0.00000000000E+00 -0.20410859673E+03  0.20410859673E+03  0.00000000000E+00 0. -1.
         21    1    1    2  503  502 -0.15520247723E+01  0.22378062293E+02 -0.84331585990E+02  0.87263983684E+02  0.00000000000E+00 0. -1.
         21    1    1    2  504  501  0.15520247723E+01 -0.22378062293E+02 -0.11724753955E+03  0.11937408422E+03  0.00000000000E+00 0. -1.
</event>
<event>
 4    1  0.3183954E+006  0.2144904E+02  0.7546771E-02  0.1512949E+00
         21   -1    0    0  503  501  0.00000000000E+00  0.00000000000E+00  0.94866929753E+02  0.94866929753E+02  0.00000000000E+00 0. -1.
         21   -1    0    0  504  502 -0.00000000000E+00 -0.00000000000E+00 -0.86871222970E+01  0.86871222970E+01  0.00000000000E+00 0.  1.
         21    1    1    2  503  502  0.20081094642E+02 -0.75373086550E+01  0.77503316092E+02  0.80416574094E+02  0.00000000000E+00 0. -1.
         21    1    1    2  504  501 -0.20081094642E+02  0.75373086550E+01  0.86764913641E+01  0.23137477956E+02  0.00000000000E+00 0.  1.
</event>
<event>
 4    1  0.3183954E+006  0.2859777E+02  0.7546771E-02  0.1432186E+00
         21   -1    0    0  502  501  0.00000000000E+00  0.00000000000E+00  0.81478582130E+01  0.81478582130E+01  0.00000000000E+00 0.  1.
         21   -1    0    0  504  502 -0.00000000000E+00 -0.00000000000E+00 -0.33664755882E+03  0.33664755882E+03  0.00000000000E+00 0. -1.
         21    1    1    2  503  501 -0.11353514041E+02  0.26247475063E+02 -0.19821844017E+02  0.34795656747E+02  0.00000000000E+00 0.  1.
         21    1    1    2  504  503  0.11353514041E+02 -0.26247475063E+02 -0.30867785659E+03  0.30999976028E+03  0.00000000000E+00 0. -1.
</event>
<event>
 4    1  0.3183954E+006  0.2190752E+02  0.7546771E-02  0.1506692E+00
         21   -1    0    0  503  501  0.00000000000E+00  0.00000000000E+00  0.16764145381E+02  0.16764145381E+02  0.00000000000E+00 0. -1.
         21   -1    0    0  501  502 -0.00000000000E+00 -0.00000000000E+00 -0.29405644134E+02  0.29405644134E+02  0.00000000000E+00 0. -1.
         21    1    1    2  503  504 -0.19410358393E+02 -0.10157629963E+02 -0.10072591676E+02  0.24112166275E+02  0.00000000000E+00 0. -1.
         21    1    1    2  504  502  0.19410358393E+02  0.10157629963E+02 -0.25689070771E+01  0.22057623240E+02  0.00000000000E+00 0. -1.
</event>
<event>
 4    1  0.3183954E+006  0.2741987E+02  0.7546771E-02  0.1443435E+00
         21   -1    0    0  504  501  0.00000000000E+00  0.00000000000E+00  0.21907180454E+03  0.21907180454E+03  0.00000000000E+00 0.  1.
         21   -1    0    0  501  502 -0.00000000000E+00 -0.00000000000E+00 -0.19822135213E+02  0.19822135213E+02  0.00000000000E+00 0.  1.
         21    1    1    2  503  502  0.15535517404E+02 -0.22594184784E+02 -0.89905856741E+01  0.28856197217E+02  0.00000000000E+00 0.  1.
         21    1    1    2  504  503 -0.15535517404E+02  0.22594184784E+02  0.20824025500E+03  0.21003774253E+03  0.00000000000E+00 0.  1.
</event>
<event>
 4    1  0.3183954E+006  0.2045362E+02  0.7546771E-02  0.1527211E+00
         21   -1    0    0  502  501  0.00000000000E+00  0.00000000000E+00  0.86574260380E+02  0.86574260380E+02  0.00000000000E+00 0. -1.
         21   -1    0    0  503  502 -0.00000000000E+00 -0.00000000000E+00 -0.16123143164E+02  0.16123143164E+02  0.00000000000E+00 0.  1.
         21    1    1    2  503  504  0.19180563473E+02  0.71032682620E+01 -0.77447354077E+01  0.21870787862E+02  0.00000000000E+00 0.  1.
         21    1    1    2  504  501 -0.19180563473E+02 -0.71032682620E+01  0.78195852623E+02  0.80826615682E+02  0.00000000000E+00 0. -1.
</event>
<event>
 4    1  0.3183954E+006  0.2176906E+02  0.7546771E-02  0.1508562E+00
         21   -1    0    0  504  501  0.00000000000E+00  0.00000000000E+00  0.63102697816E+01  0.63102697816E+01  0.00000000000E+00 0. -1.
         21   -1    0    0  501  502 -0.00000000000E+00 -0.00000000000E+00 -0.23368795015E+03  0.23368795015E+03  0.00000000000E+00 0.  1.
         21    1    1    2  503  502  0.17444822760E+02 -0.13021916535E+02 -0.21254345194E+03  0.21365535592E+03  0.00000000000E+00 0.  1.
         21    1    1    2  504  503 -0.17444822760E+02  0.13021916535E+02 -0.14834228437E+02  0.26342864018E+02  0.00000000000E+00 0. -1.
</event>
<event>
 4    1  0.3183954E+006  0.2190788E+02  0.7546771E-02  0.1506687E+00
         21   -1    0    0  503  501  0.00000000000E+00  0.00000000000E+00  0.33696144079E+03  0.33696144079E+03  0.00000000000E+00 0. -1.
         21   -1    0    0  504  502 -0.00000000000E+00 -0.00000000000E+00 -0.14469856036E+01  0.14469856036E+01  0.00000000000E+00 0. -1.
         21    1    1    2  503  502 -0.17943743951E+02 -0.12568906930E+02  0.18891410206E+03  0.19018016018E+03  0.00000000000E+00 0. -1.
         21    1    1    2  504  501  0.17943743951E+02  0.12568906930E+02  0.14660035313E+03  0.14822826622E+03  0.00000000000E+00 0. -1.
</event>
<event>
 4    1  0.3183954E+006  0.2635949E+02  0.7546771E-02  0.1454150E+00
         21   -1    0    0  503  501  0.00000000000E+00  0.00000000000E+00  0.13777755553E+04  0.13777755553E+04  0.00000000000E+00 0. -1.
         21   -1    0    0  504  502 -0.00000000000E+00 -0.00000000000E+00 -0.14823245116E+03  0.14823245116E+03  0.00000000000E+00 0.  1.
         21    1    1    2  503  502 -0.26035599894E+02  0.41195172628E+01 -0.14693342163E+03  0.14927911199E+03  0.00000000000E+00 0.  1.
         21    1    1    2  504  501  0.26035599894E+02 -0.41195172628E+01  0.13764765258E+04  0.13767288945E+04  0.00000000000E+00 0. -1.
</event>
<event>
 4    1  0.3183954E+006  0.2704503E+02  0.7546771E-02  0.1447156E+00
         21   -1    0    0  503  501  0.00000000000E+00  0.00000000000E+00  0.37864325252E+02  0.37864325252E+02  0.00000000000E+00 0.  1.
         21   -1    0    0  501  502 -0.00000000000E+00 -0.00000000000E+00 -0.20470428308E+02  0.20470428308E+02  0.00000000000E+00 0. -1.
         21    1    1    2  503  504  0.75681863572E+01 -0.25964516226E+02  0.15619840477E+02  0.31231602010E+02  0.00000000000E+00 0.  1.
         21    1    1    2  504  502 -0.75681863572E+01  0.25964516226E+02  0.17740564671E+01  0.27103151550E+02  0.00000000000E+00 0. -1.
</event>
<event>
 4    1  0.3183954E+006  0.3630739E+02  0.7546771E-02  0.1371598E+00
         21   -1    0    0  504  501  0.00000000000E+00  0.00000000000E+00  0.18365232055E+03  0.18365232055E+03  0.00000000000E+00 0. -1.
         21   -1    0    0  501  502 -0.00000000000E+00 -0.00000000000E+00 -0.96700565769E+01  0.96700565769E+01  0.00000000000E+00 0. -1.
         21    1    1    2  503  502  0.14225154404E+02 -0.33404666644E+02  0.37919487859E+02  0.52498707897E+02  0.00000000000E+00 0. -1.
         21    1    1    2  504  503 -0.14225154404E+02  0.33404666644E+02  0.13606277611E+03  0.14082366923E+03  0.00000000000E+00 0. -1.
</event>
<event>
 4    1  0.3183954E+006  0.2042495E+02  0.7546771E-02  0.1527636E+00
         21   -1    0    0  503  501  0.00000000000E+00  0.00000000000E+00  0.16336407448E+03  0.16336407448E+03  0.00000000000E+00 0.  1.
         21   -1    0    0  504  502 -0.00000000000E+00 -0.00000000000E+00 -0.13700756735E+03  0.13700756735E+03  0.00000000000E+00 0. -1.
         21    1    1    2  503  502 -0.39792518615E+01  0.20033576921E+02 -0.13560133240E+03  0.13713095930E+03  0.00000000000E+00 0. -1.
         21    1    1    2  504  501  0.39792518615E+01 -0.20033576921E+02  0.16195783953E+03  0.16324068253E+03  0.00000000000E+00 0.  1.
</event>
<event>
 4    1  0.3183954E+006  0.2130439E+02  0.7546771E-02  0.1514963E+00
         21   -1    0    0  504  501  0.00000000000E+00  0.00000000000E+00  0.25461189325E+02  0.25461189325E+02  0.00000000000E+00 0.  1.
         21   -1    0    0  503  502 -0.00000000000E+00 -0.00000000000E+00 -0.27299649431E+02  0.27299649431E+02  0.00000000000E+00 0.  1.
         21    1    1    2  503  501  0.21264384657E+02 -0.13049376902E+01  0.14620970996E+02  0.25838918516E+02  0.00000000000E+00 0.  1.
         21    1    1    2  504  502 -0.21264384657E+02  0.13049376902E+01 -0.16459431102E+02  0.26921920240E+02  0.00000000000E+00 0.  1.
</event>
<event>
 4    1  0.3183954E+006  0.2461042E+02  0.7546771E-02  0.1473209E+00
         21   -1    0    0  504  501  0.00000000000E+00  0.00000000000E+00  0.32548163259E+01  0.32548163259E+01  0.00000000000E+00 0.  1.
         21   -1    0    0  503  502 -0.00000000000E+00 -0.00000000000E+00 -0.66818196411E+03  0.66818196411E+03  0.00000000000E+00 0. -1.
         21    1    1    2  503  501  0.11793308146E+02  0.21600706166E+02 -0.47299416124E+02  0.53318921496E+02  0.00000000000E+00 0.  1.
         21    1    1    2  504  502 -0.11793308146E+02 -0.21600706166E+02 -0.61762773166E+03  0.61811785894E+03  0.00000000000E+00 0. -1.
</event>
<event>
 4    1  0.3183954E+006  0.3815592E+02  0.7546771E-02  0.1359645E+00
         21   -1    0    0  503  501  0.00000000000E+00  0.00000000000E+00  0.52382796054E+02  0.52382796054E+02  0.00000000000E+00 0.  1.
         21   -1    0    0  504  502 -0.00000000000E+00 -0.00000000000E+00 -0.31617785654E+02  0.31617785654E+02  0.00000000000E+00 0.  1.
         21    1    1    2  503  502  0.24324964127E+02 -0.29396772387E+02  0.24990518198E+02  0.45611403249E+02  0.00000000000E+00 0.  1.
         21    1    1    2  504  501 -0.24324964127E+02  0.29396772387E+02 -0.42255077987E+01  0.38389178458E+02  0.00000000000E+00 0.  1.
</event>
<event>
 4    1  0.3183954E+006  0.2904947E+02  0.7546771E-02  0.1428040E+00
         21   -1    0    0  503  501  0.00000000000E+00  0.00000000000E+00  0.11324815103E+03  0.11324815103E+03  0.00000000000E+00 0.  1.
         21   -1    0    0  504  502 -0.00000000000E+00 -0.00000000000E+00 -0.75973013374E+01  0.75973013374E+01  0.00000000000E+00 0.  1.
         21    1    1    2  503  502  0.23586882264E+02  0.16956738105E+02  0.61195066736E+02  0.67740004243E+02  0.00000000000E+00 0.  1.
         21    1    1    2  504  501 -0.23586882264E+02 -0.16956738105E+02  0.44455782955E+02  0.53105448122E+02  0.00000000000E+00 0.  1.
</event>
<event>
 4    1  0.3183954E+006  0.5416991E+02  0.7546771E-02  0.1281039E+00
         21   -1    0    0  504  501  0.00000000000E+00  0.00000000000E+00  0.52968587487E+02  0.52968587487E+02  0.00000000000E+00 0. -1.
         21   -1    0    0  503  502 -0.00000000000E+00 -0.00000000000E+00 -0.12315211034E+03  0.12315211034E+03  0.00000000000E+00 0. -1.
         21    1    1    2  503  501 -0.60775340700E+01 -0.53827895515E+02 -0.10040869486E+03  0.11408893355E+03  0.00000000000E+00 0. -1.
         21    1    1    2  504  502  0.60775340700E+01  0.53827895515E+02  0.30225172008E+02  0.62031764273E+02  0.00000000000E+00 0. -1.
</event>
<event>
 4    1  0.3183954E+006  0.2365515E+02  0.7546771E-02  0.1484431E+00
         21   -1    0    0  502  501  0.00000000000E+00  0.00000000000E+00  0.21705723082E+03  0.21705723082E+03  0.00000000000E+00 0.  1.
         21   -1    0    0  503  502 -0.00000000000E+00 -0.00000000000E+00 -0.90206522522E+02  0.90206522522E+02  0.00000000000E+00 0.  1.
         21    1    1    2  503  504 -0.76651638167E+00  0.23642732655E+02 -0.87995325724E+02  0.91119392579E+02  0.00000000000E+00 0.  1.
         21    1    1    2  504  501  0.76651638167E+00 -0.23642732655E+02  0.21484603403E+03  0.21614436077E+03  0.00000000000E+00 0.  1.
</event>
<event>
 4    1  0.3183954E+006  0.2135942E+02  0.7546771E-02  0.1514195E+00
         21   -1    0    0  502  501  0.00000000000E+00  0.00000000000E+00  0.17688474153E+01  0.17688474153E+01  0.00000000000E+00 0. -1.
         21   -1    0    0  504  502 -0.00000000000E+00 -0.00000000000E+00 -0.70543953490E+03  0.70543953490E+03  0.00000000000E+00 0. -1.
         21    1    1    2  503  501  0.19045071664E+02  0.96700496385E+01 -0.70196503024E+02  0.73374202902E+02  0.00000000000E+00 0. -1.
         21    1    1    2  504  503 -0.19045071664E+02 -0.96700496385E+01 -0.63347418446E+03  0.63383417942E+03  0.00000000000E+00 0. -1.
</event>
<event>
 4    1  0.3183954E+006  0.2935044E+02  0.7546771E-02  0.1425326E+00
         21   -1    0    0  504  501  0.00000000000E+00  0.00000000000E+00  0.54221522987E+02  0.54221522987E+02  0.00000000000E+00 0. -1.
         21   -1    0    0  503  502 -0.00000000000E+00 -0.00000000000E+00 -0.16251307671E+02  0.16251307671E+02  0.00000000000E+00 0.  1.
         21    1    1    2  503  501 -0.96666187323E+01  0.27712894831E+02  0.24256723261E+02  0.38076720985E+02  0.00000000000E+00 0.  1.
         21    1    1    2  504  502  0.96666187323E+01 -0.27712894831E+02  0.13713492055E+02  0.32396109673E+02  0.00000000000E+00 0. -1.
</event>
<event>
 4    1  0.3183954E+006  0.3537414E+02  0.7546771E-02  0.1377952E+00
         21   -1    0    0  503  501  0.00000000000E+00  0.00000000000E+00  0.49560050876E+02  0.49560050876E+02  0.00000000000E+00 0.  1.
         21   -1    0    0  504  502 -0.00000000000E+00 -0.00000000000E+00 -0.66359218460E+02  0.66359218460E+02  0.00000000000E+00 0. -1.
         21    1    1    2  503  502  0.30815784895E+02 -0.17370015500E+02 -0.54019149449E+02  0.64570880003E+02  0.00000000000E+00 0. -1.
         21    1    1    2  504  501 -0.30815784895E+02  0.17370015500E+02  0.37219981865E+02  0.51348389334E+02  0.00000000000E+00 0.  1.
</event>
<event>
 4    1  0.3183954E+006  0.2109746E+02  0.7546771E-02  0.1517878E+00
         21   -1    0    0  503  501  0.00000000000E+00  0.00000000000E+00  0.56513909675E+02  0.56513909675E+02  0.00000000000E+00 0.  1.
         21   -1    0    0  501  502 -0.00000000000E+00 -0.00000000000E+00 -0.81843097422E+01  0.81843097422E+01  0.00000000000E+00 0.  1.
         21    1    1    2  503  504 -0.87620485832E+01 -0.19191905200E+02  0.30443580413E+02  0.37039361616E+02  0.00000000000E+00 0.  1.
         21    1    1    2  504  502  0.87620485832E+01  0.19191905200E+02  0.17886019520E+02  0.27658857801E+02  0.00000000000E+00 0.  1.
</event>
<event>
 4    1  0.3183954E+006  0.2132451E+02  0.7546771E-02  0.1514682E+00
         21   -1    0    0  503  501  0.00000000000E+00  0.00000000000E+00  0.10033365124E+03  0.10033365124E+03  0.00000000000E+00 0.  1.
         21   -1    0    0  504  502 -0.00000000000E+00 -0.00000000000E+00 -0.81773473124E+01  0.81773473124E+01  0.00000000000E+00 0.  1.
         21    1    1    2  503  502  0.69781964522E+01  0.20150424101E+02  0.98543929972E+01  0.23491357528E+02  0.00000000000E+00 0.  1.
         21    1    1    2  504  501 -0.69781964522E+01 -0.20150424101E+02  0.82301910935E+02  0.85019641029E+02  0.00000000000E+00 0.  1.
</event>
<event>
 4    1  0.3183954E+006  0.2162898E+02  0.7546771E-02  0.1510471E+00
         21   -1    0    0  504  501  0.00000000000E+00  0.00000000000E+00  0.10392741845E+02  0.10392741845E+02  0.00000000000E+00 0.  1.
         21   -1    0    0  501  502 -0.00000000000E+00 -0.00000000000E+00 -0.45041309284E+02  0.45041309284E+02  0.00000000000E+00 0.  1.
         21    1    1    2  503  502  0.83165138214E+01  0.19966182610E+02 -0.18013987156E+02  0.28148118648E+02  0.00000000000E+00 0.  1.
         21    1    1    2  504  503 -0.83165138214E+01 -0.19966182610E+02 -0.16634580284E+02  0.27285932481E+02  0.00000000000E+00 0.  1.
</event>
<event>
 4    1  0.3183954E+006  0.3137766E+02  0.7546771E-02  0.1407991E+00
         21   -1    0    0  504  501  0.00000000000E+00  0.00000000000E+00  0.11718582907E+02  0.11718582907E+02  0.00000000000E+00 0.  1.
         21   -1    0    0  503  502 -0.00000000000E+00 -0.00000000000E+00 -0.84272099803E+02  0.84272099803E+02  0.00000000000E+00 0.  1.
         21    1    1    2  503  501 -0.14483012586E+02  0.27835229719E+02 -0.33634990286E+02  0.45998589529E+02  0.00000000000E+00 0.  1.
         21    1    1    2  504  502  0.14483012586E+02 -0.27835229719E+02 -0.38918526611E+02  0.49992093181E+02  0.00000000000E+00 0.  1.
</event>
<event>
 4    1  0.3183954E+006  0.2826257E+02  0.7546771E-02  0.1435322E+00
         21   -1    0    0  503  501  0.00000000000E+00  0.00000000000E+00  0.61531170803E+02  0.61531170803E+02  0.00000000000E+00 0. -1.
         21   -1    0    0  504  502 -0.00000000000E+00 -0.00000000000E+00 -0.10828432911E+03  0.10828432911E+03  0.00000000000E+00 0. -1.
         21    1    1    2  503  502 -0.11443361342E+01  0.28239390748E+02  0.56279185124E+02  0.62977133733E+02  0.00000000000E+00 0. -1.
         21    1    1    2  504  501  0.11443361342E+01 -0.28239390748E+02 -0.10303234343E+03  0.10683836618E+03  0.00000000000E+00 0. -1.
</event>
<event>
 4    1  0.3183954E+006  0.3374472E+02  0.7546771E-02  0.1389610E+00
         21   -1    0    0  503  501  0.00000000000E+00  0.00000000000E+00  0.33674422268E+02  0.33674422268E+02  0.00000000000E+00 0.  1.
         21   -1    0    0  504  502 -0.00000000000E+00 -0.00000000000E+00 -0.15676939493E+03  0.15676939493E+03  0.00000000000E+00 0. -1.
         21    1    1    2  503  502 -0.19929460504E+02  0.27230913747E+02 -0.14587668677E+03  0.14972880084E+03  0.00000000000E+00 0. -1.
         21    1    1    2  504  501  0.19929460504E+02 -0.27230913747E+02  0.22781714103E+02  0.40715016357E+02  0.00000000000E+00 0.  1.
</event>
<event>
 4    1  0.3183954E+006  0.2006902E+02  0.7546771E-02  0.1532983E+00
         21   -1    0    0  504  501  0.00000000000E+00  0.00000000000E+00  0.58104677940E+01  0.58104677940E+01  0.00000000000E+00 0. -1.
         21   -1    0    0  503  502 -0.00000000000E+00 -0.00000000000E+00 -0.69449138499E+02  0.69449138499E+02  0.00000000000E+00 0. -1.
         21    1    1    2  503  501  0.20051438519E+02  0.83992904175E+00 -0.33459157136E+02  0.39016417874E+02  0.00000000000E+00 0. -1.
         21    1    1    2  504  502 -0.20051438519E+02 -0.83992904175E+00 -0.30179513570E+02  0.36243188419E+02  0.00000000000E+00 0. -1.
</event>
<event>
 4    1  0.3183954E+006  0.2332526E+02  0.7546771E-02  0.1488454E+00
         21   -1    0    0  503  501  0.00000000000E+00  0.00000000000E+00  0.35931548130E+02  0.35931548130E+02  0.00000000000E+00 0. -1.
         21   -1    0    0  504  502 -0.00000000000E+00 -0.00000000000E+00 -0.17282272247E+02  0.17282272247E+02  0.00000000000E+00 0. -1.
         21    1    1    2  503  502  0.22478518427E+02  0.62276880843E+01  0.18688392592E+02  0.29888524674E+02  0.00000000000E+00 0. -1.
         21    1    1    2  504  501 -0.22478518427E+02 -0.62276880843E+01 -0.39116708148E-01  0.23325295703E+02  0.00000000000E+00 0. -1.
</event>
<event>
 4    1  0.3183954E+006  0.2502815E+02  0.7546771E-02  0.1468489E+00
         21   -1    0    0  504  501  0.00000000000E+00  0.00000000000E+00  0.33978121462E+01  0.33978121462E+01  0.00000000000E+00 0. -1.
         21   -1    0    0  503  502 -0.00000000000E+00 -0.00000000000E+00 -0.18589249752E+03  0.18589249752E+03  0.00000000000E+00 0. -1.
         21    1    1    2  503  501 -0.74233915492E+01 -0.23901910566E+02 -0.99851159872E+02  0.10294009034E+03  0.00000000000E+00 0. -1.
         21    1    1    2  504  502  0.74233915492E+01  0.23901910566E+02 -0.82643525502E+02  0.86350219329E+02  0.00000000000E+00 0. -1.
</event>
<event>
 4    1  0.3183954E+006  0.3439340E+02  0.7546771E-02  0.1384879E+00
         21   -1    0    0  504  501  0.00000000000E+00  0.00000000000E+00  0.28880775310E+03  0.28880775310E+03  0.00000000000E+00 0.  1.
         21   -1    0    0  503  502 -0.00000000000E+00 -0.00000000000E+00 -0.11303753060E+02  0.11303753060E+02  0.00000000000E+00 0.  1.
         21    1    1    2  503  501  0.78747090568E+01 -0.33479771867E+02  0.18927251564E+02  0.39257445393E+02  0.00000000000E+00 0.  1.
         21    1    1    2  504  502 -0.78747090568E+01  0.33479771867E+02  0.25857674848E+03  0.26085406077E+03  0.00000000000E+00 0.  1.
</event>
<event>
 4    1  0.3183954E+006  0.2313549E+02  0.7546771E-02  0.1490804E+00
         21   -1    0    0  502  501  0.00000000000E+00  0.00000000000E+00  0.13914649427E+02  0.13914649427E+02  0.00000000000E+00 0.  1.
         21   -1    0    0  504  502 -0.00000000000E+00 -0.00000000000E+00 -0.10130083542E+03  0.10130083542E+03  0.00000000000E+00 0.  1.
         21    1    1    2  503  501 -0.18936809101E+02 -0.13290913424E+02  0.16772483658E+01  0.23196212636E+02  0.00000000000E+00 0.  1.
         21    1    1    2  504  503  0.18936809101E+02  0.13290913424E+02 -0.89063434359E+02  0.92019272212E+02  0.00000000000E+00 0.  1.
</event>
<event>
 4    1  0.3183954E+006  0.2609304E+02  0.7546771E-02  0.1456938E+00
         21   -1    0    0  503  501  0.00000000000E+00  0.00000000000E+00  0.28813075551E+02  0.28813075551E+02  0.00000000000E+00 0. -1.
         21   -1    0    0  501  502 -0.00000000000E+00 -0.00000000000E+00 -0.15319859366E+03  0.15319859366E+03  0.00000000000E+00 0.  1.
         21    1    1    2  503  504 -0.22736940692E+02 -0.12801499351E+02  0.21500807587E+02  0.33810228993E+02  0.00000000000E+00 0. -1.
         21    1    1    2  504  502  0.22736940692E+02  0.12801499351E+02 -0.14588632570E+03  0.14820144022E+03  0.00000000000E+00 0.  1.
</event>
<event>
 4    1  0.3183954E+006  0.2008498E+02  0.7546771E-02  0.1532741E+00
         21   -1    0    0  504  501  0.00000000000E+00  0.00000000000E+00  0.99170803629E+01  0.99170803629E+01  0.00000000000E+00 0. -1.
         21   -1    0    0  503  502 -0.00000000000E+00 -0.00000000000E+00 -0.40687065502E+02  0.40687065502E+02  0.00000000000E+00 0. -1.
         21    1    1    2  503  501  0.20258113613E+01 -0.19982552184E+02 -0.15764122266E+02  0.25532603750E+02  0.00000000000E+00 0. -1.
         21    1    1    2  504  502 -0.20258113613E+01  0.19982552184E+02 -0.15005862873E+02  0.25071542115E+02  0.00000000000E+00 0. -1.
</event>
<event>
 4    1  0.3183954E+006  0.2105528E+02  0.7546771E-02  0.1518477E+00
         21   -1    0    0  503  501  0.00000000000E+00  0.00000000000E+00  0.61578301697E+01  0.61578301697E+01  0.00000000000E+00 0.  1.
         21   -1    0    0  501  502 -0.00000000000E+00 -0.00000000000E+00 -0.11684295849E+03  0.11684295849E+03  0.00000000000E+00 0.  1.
         21    1    1    2  503  504 -0.94779042082E+01  0.18801444203E+02 -0.17239994485E+02  0.27212908373E+02  0.00000000000E+00 0.  1.
         21    1    1    2  504  502  0.94779042082E+01 -0.18801444203E+02 -0.93445133836E+02  0.95787880287E+02  0.00000000000E+00 0.  1.
</event>
<event>
 4    1  0.3183954E+006  0.3721134E+02  0.7546771E-02  0.1365650E+00
         21   -1    0    0  503  501  0.00000000000E+00  0.00000000000E+00  0.22494286980E+02  0.22494286980E+02  0.00000000000E+00 0.  1.
         21   -1    0    0  501  502 -0.00000000000E+00 -0.00000000000E+00 -0.61648946184E+02  0.61648946184E+02  0.00000000000E+00 0.  1.
         21    1    1    2  503  504  0.37020031786E+02 -0.37684321758E+01 -0.21200921534E+02  0.42827128183E+02  0.00000000000E+00 0.  1.
         21    1    1    2  504  502 -0.37020031786E+02  0.37684321758E+01 -0.17953737669E+02  0.41316104981E+02  0.00000000000E+00 0.  1.
</event>
<event>
 4    1  0.3183954E+006  0.6822782E+02  0.7546771E-02  0.1234178E+00
         21   -1    0    0  504  501  0.00000000000E+00  0.00000000000E+00  0.20012210702E+04  0.20012210702E+04  0.00000000000E+00 0.  1.
         21   -1    0    0  501  502 -0.00000000000E+00 -0.00000000000E+00 -0.19693529820E+02  0.19693529820E+02  0.00000000000E+00 0. -1.
         21    1    1    2  503  502 -0.64899004176E+02  0.21051237058E+02  0.41856026264E+02  0.80043502292E+02  0.00000000000E+00 0. -1.
         21    1    1    2  504  503  0.64899004176E+02 -0.21051237058E+02  0.19396715141E+04  0.19408710977E+04  0.00000000000E+00 0.  1.
</event>
<event>
 4    1  0.3183954E+006  0.2111292E+02  0.7546771E-02  0.1517659E+00
         21   -1    0    0  503  501  0.00000000000E+00  0.00000000000E+00  0.61079382922E+02  0.61079382922E+02  0.00000000000E+00 0.  1.
         21   -1    0    0  504  502 -0.00000000000E+00 -0.00000000000E+00 -0.93911864680E+02  0.93911864680E+02  0.00000000000E+00 0. -1.
         21    1    1    2  503  502 -0.20899358063E+02 -0.29953324479E+01 -0.90839852821E+02  0.93261106816E+02  0.00000000000E+00 0. -1.
         21    1    1    2  504  501  0.20899358063E+02  0.29953324479E+01  0.58007371063E+02  0.61730140787E+02  0.00000000000E+00 0.  1.
</event>
<event>
 4    1  0.3183954E+006  0.3102210E+02  0.7546771E-02  0.1410917E+00
         21   -1    0    0  502  501  0.00000000000E+00  0.00000000000E+00  0.33667978020E+03  0.33667978020E+03  0.00000000000E+00 0. -1.
         21   -1    0    0  504  502 -0.00000000000E+00 -0.00000000000E+00 -0.11410969682E+03  0.11410969682E+03  0.00000000000E+00 0. -1.
         21    1    1    2  503  501  0.16444098544E+02 -0.26305178923E+02  0.33383883875E+03  0.33527711086E+03  0.00000000000E+00 0. -1.
         21    1    1    2  504  503 -0.16444098544E+02  0.26305178923E+02 -0.11126875537E+03  0.11551236616E+03  0.00000000000E+00 0. -1.
</event>
<event>
 4    1  0.3183954E+006  0.2216724E+02  0.7546771E-02  0.1503229E+00
         21   -1    0    0  503  501  0.00000000000E+00  0.00000000000E+00  0.43374570606E+02  0.43374570606E+02  0.00000000000E+00 0. -1.
         21   -1    0    0  504  502 -0.00000000000E+00 -0.00000000000E+00 -0.66658717926E+02  0.66658717926E+02  0.00000000000E+00 0.  1.
         21    1    1    2  503  502 -0.17916787205E+02 -0.13052780247E+02  0.38481869022E+02  0.44409915327E+02  0.00000000000E+00 0. -1.
         21    1    1    2  504  501  0.17916787205E+02  0.13052780247E+02 -0.61766016343E+02  0.65623373205E+02  0.00000000000E+00 0.  1.
</event>
<event>
 4    1  0.3183954E+006  0.2638986E+02  0.7546771E-02  0.1453835E+00
         21   -1    0    0  503  501  0.00000000000E+00  0.00000000000E+00  0.31602081216E+02  0.31602081216E+02  0.00000000000E+00 0. -1.
         21   -1    0    0  501  502 -0.00000000000E+00 -0.00000000000E+00 -0.52078234740E+02  0.52078234740E+02  0.00000000000E+00 0.  1.
         21    1    1    2  503  504  0.10222700752E+02  0.24329423870E+02  0.21539584015E+02  0.34064323801E+02  0.00000000000E+00 0. -1.
         21    1    1    2  504  502 -0.10222700752E+02 -0.24329423870E+02 -0.42015737540E+02  0.49615992155E+02  0.00000000000E+00 0.  1.
</event>
<event>
 4    1  0.3183954E+006  0.4593839E+02  0.7546771E-02  0.1316813E+00
         21   -1    0    0  503  501  0.00000000000E+00  0.00000000000E+00  0.16551552050E+02  0.16551552050E+02  0.00000000000E+00 0.  1.
         21   -1    0    0  504  502 -0.00000000000E+00 -0.00000000000E+00 -0.13352475393E+03  0.13352475393E+03  0.00000000000E+00 0.  1.
         21    1    1    2  503  502 -0.13619353987E+02  0.43873100242E+02 -0.42548266557E+02  0.62615419147E+02  0.00000000000E+00 0.  1.
         21    1    1    2  504  501  0.13619353987E+02 -0.43873100242E+02 -0.74424935322E+02  0.87460886833E+02  0.00000000000E+00 0.  1.
</event>
<event>
 4    1  0.3183954E+006  0.2171628E+02  0.7546771E-02  0.1509279E+00
         21   -1    0    0  502  501  0.00000000000E+00  0.00000000000E+00  0.42523988103E+01  0.42523988103E+01  0.00000000000E+00 0. -1.
         21   -1    0    0  503  502 -0.00000000000E+00 -0.00000000000E+00 -0.14708781939E+03  0.14708781939E+03  0.00000000000E+00 0.  1.
         21    1    1    2  503  504  0.52384064837E+01 -0.21075006890E+02 -0.10895034415E+03  0.11109353855E+03  0.00000000000E+00 0.  1.
         21    1    1    2  504  501 -0.52384064837E+01  0.21075006890E+02 -0.33885076425E+02  0.40246679642E+02  0.00000000000E+00 0. -1.
</event>
<event>
 4    1  0.3183954E+006  0.2390182E+02  0.7546771E-02  0.1481474E+00
         21   -1    0    0  504  501  0.00000000000E+00  0.00000000000E+00  0.20372675264E+03  0.20372675264E+03  0.00000000000E+00 0. -1.
         21   -1    0    0  503  502 -0.00000000000E+00 -0.00000000000E+00 -0.37586096990E+02  0.37586096990E+02  0.00000000000E+00 0.  1.
         21    1    1    2  503  501  0.19436448621E+02 -0.13911200121E+02 -0.32997878126E+02  0.40745024048E+02  0.00000000000E+00 0.  1.
         21    1    1    2  504  502 -0.19436448621E+02  0.13911200121E+02  0.19913853378E+03  0.20056782559E+03  0.00000000000E+00 0. -1.
</event>
<event>
 4    1  0.3183954E+006  0.2980857E+02  0.7546771E-02  0.1421267E+00
         21   -1    0    0  504  501  0.00000000000E+00  0.00000000000E+00  0.28687001358E+02  0.28687001358E+02  0.00000000000E+00 0. -1.
         21   -1    0    0  503  502 -0.00000000000E+00 -0.00000000000E+00 -0.49484994948E+02  0.49484994948E+02  0.00000000000E+00 0. -1.
         21    1    1    2  503  501  0.29305237168E+02  0.54546906767E+01  0.13506598904E+02  0.32725812286E+02  0.00000000000E+00 0. -1.
         21    1    1    2  504  502 -0.29305237168E+02 -0.54546906767E+01 -0.34304592493E+02  0.45446184020E+02  0.00000000000E+00 0. -1.
</event>
<event>
 4    1  0.3183954E+006  0.2146834E+02  0.7546771E-02  0.1512682E+00
         21   -1    0    0  502  501  0.00000000000E+00  0.00000000000E+00  0.15893850481E+02  0.15893850481E+02  0.00000000000E+00 0. -1.
         21   -1    0    0  503  502 -0.00000000000E+00 -0.00000000000E+00 -0.33191919465E+03  0.33191919465E+03  0.00000000000E+00 0.  1.
         21    1    1    2  503  504  0.21228268017E+02 -0.32016176196E+01 -0.32414896843E+03  0.32485911323E+03  0.00000000000E+00 0.  1.
         21    1    1    2  504  501 -0.21228268017E+02  0.32016176196E+01  0.81236242591E+01  0.22953931896E+02  0.00000000000E+00 0. -1.
</event>
<event>
 4    1  0.3183954E+006  0.2447614E+02  0.7546771E-02  0.1474750E+00
         21   -1    0    0  502  501  0.00000000000E+00  0.00000000000E+00  0.13716676963E+02  0.13716676963E+02  0.00000000000E+00 0.  1.
         21   -1    0    0  504  502 -0.00000000000E+00 -0.00000000000E+00 -0.74296552994E+03  0.74296552994E+03  0.00000000000E+00 0. -1.
         21    1    1    2  503  501  0.18580330140E+02  0.15932761434E+02  0.24278215647E+01  0.24596257288E+02  0.00000000000E+00 0.  1.
         21    1    1    2  504  503 -0.18580330140E+02 -0.15932761434E+02 -0.73167667454E+03  0.73208594961E+03  0.00000000000E+00 0. -1.
</event>
<event>
 4    1  0.3183954E+006  0.2914258E+02  0.7546771E-02  0.1427197E+00
         21   -1    0    0  502  501  0.00000000000E+00  0.00000000000E+00  0.13605358871E+02  0.13605358871E+02  0.00000000000E+00 0.  1.
         21   -1    0    0  504  502 -0.00000000000E+00 -0.00000000000E+00 -0.17088726676E+03  0.17088726676E+03  0.00000000000E+00 0. -1.
         21    1    1    2  503  501  0.60848637855E+01 -0.28500254791E+02 -0.51494561891E+01  0.29594036383E+02  0.00000000000E+00 0.  1.
         21    1    1    2  504  503 -0.60848637855E+01  0.28500254791E+02 -0.15213245170E+03  0.15489858924E+03  0.00000000000E+00 0. -1.
</event>
<event>
 4    1  0.3183954E+006  0.2144239E+02  0.7546771E-02  0.1513041E+00
         21   -1    0    0  502  501  0.00000000000E+00  0.00000000000E+00  0.60549241202E+02  0.60549241202E+02  0.00000000000E+00 0. -1.
         21   -1    0    0  504  502 -0.00000000000E+00 -0.00000000000E+00 -0.17921851072E+02  0.17921851072E+02  0.00000000000E+00 0.  1.
         21    1    1    2  503  501 -0.14190834606E+02  0.16074711713E+02  0.51099225268E+02  0.55415764602E+02  0.00000000000E+00 0. -1.
         21    1    1    2  504  503  0.14190834606E+02 -0.16074711713E+02 -0.84718351383E+01  0.23055327672E+02  0.00000000000E+00 0.  1.
</event>
<event>
 4    1  0.3183954E+006  0.3534934E+02  0.7546771E-02  0.1378124E+00
         21   -1    0    0  503  501  0.00000000000E+00  0.00000000000E+00  0.21251906131E+03  0.21251906131E+03  0.00000000000E+00 0.  1.
         21   -1    0    0  504  502 -0.00000000000E+00 -0.00000000000E+00 -0.96568958378E+01  0.96568958378E+01  0.00000000000E+00 0.  1.
         21    1    1    2  503  502  0.11259488167E+02  0.33508204037E+02  0.17090561095E+03  0.17452307488E+03  0.00000000000E+00 0.  1.
         21    1    1    2  504  501 -0.11259488167E+02 -0.33508204037E+02  0.31956554526E+02  0.47652882271E+02  0.00000000000E+00 0.  1.
</event>
<event>
 4    1  0.3183954E+006  0.2006532E+02  0.7546771E-02  0.1533040E+00
         21   -1    0    0  503  501  0.00000000000E+00  0.00000000000E+00  0.49502098252E+02  0.49502098252E+02  0.00000000000E+00 0.  1.
         21   -1    0    0  504  502 -0.00000000000E+00 -0.00000000000E+00 -0.81874386853E+01  0.81874386853E+01  0.00000000000E+00 0.  1.
         21    1    1    2  503  502  0.12513932930E+02  0.15684974177E+02  0.23002227816E+02  0.30524079295E+02  0.00000000000E+00 0.  1.
         21    1    1    2  504  501 -0.12513932930E+02 -0.15684974177E+02  0.18312431750E+02  0.27165457642E+02  0.00000000000E+00 0.  1.
</event>
<event>
 4    1  0.3183954E+006  0.2736424E+02  0.7546771E-02  0.1443983E+00
         21   -1    0    0  504  501  0.00000000000E+00  0.00000000000E+00  0.44059328480E+01  0.44059328480E+01  0.00000000000E+00 0. -1.
         21   -1    0    0  503  502 -0.00000000000E+00 -0.00000000000E+00 -0.17216493624E+03  0.17216493624E+03  0.00000000000E+00 0. -1.
         21    1    1    2  503  501  0.14908910616E+02 -0.22946148815E+02 -0.93886555134E+02  0.97793080513E+02  0.00000000000E+00 0. -1.
         21    1    1    2  504  502 -0.14908910616E+02  0.22946148815E+02 -0.73872448253E+02  0.78777788571E+02  0.00000000000E+00 0. -1.
</event>
<event>
 4    1  0.3183954E+006  0.3365488E+02  0.7546771E-02  0.1390275E+00
         21   -1    0    0  504  501  0.00000000000E+00  0.00000000000E+00  0.21454870336E+02  0.21454870336E+02  0.00000000000E+00 0. -1.
         21   -1    0    0  503  502 -0.00000000000E+00 -0.00000000000E+00 -0.15928994007E+03  0.15928994007E+03  0.00000000000E+00 0. -1.
         21    1    1    2  503  501  0.15554981706E+02  0.29844488401E+02  0.49769037808E+01  0.34020883513E+02  0.00000000000E+00 0. -1.
         21    1    1    2  504  502 -0.15554981706E+02 -0.29844488401E+02 -0.14281197352E+03  0.14672392690E+03  0.00000000000E+00 0. -1.
</event>
<event>
 4    1  0.3183954E+006  0.2355368E+02  0.7546771E-02  0.1485660E+00
         21   -1    0    0  504  501  0.00000000000E+00  0.00000000000E+00  0.52238485204E+02  0.52238485204E+02  0.00000000000E+00 0. -1.
         21   -1    0    0  501  502 -0.00000000000E+00 -0.00000000000E+00 -0.54424126706E+03  0.54424126706E+03  0.00000000000E+00 0. -1.
         21    1    1    2  503  502  0.16740899719E+02  0.16568592241E+02 -0.54131707670E+03  0.54182926600E+03  0.00000000000E+00 0. -1.
         21    1    1    2  504  503 -0.16740899719E+02 -0.16568592241E+02  0.49314294844E+02  0.54650486258E+02  0.00000000000E+00 0. -1.
</event>
<event>
 4    1  0.3183954E+006  0.2404250E+02  0.7546771E-02  0.1479807E+00
         21   -1    0    0  504  501  0.00000000000E+00  0.00000000000E+00  0.16104150859E+01  0.16104150859E+01  0.00000000000E+00 0.  1.
         21   -1    0    0  503  502 -0.00000000000E+00 -0.00000000000E+00 -0.35900364844E+03  0.35900364844E+03  0.00000000000E+00 0.  1.
         21    1    1    2  503  501 -0.24342269269E+01  0.23918950154E+02 -0.17628699919E+03  0.17791893581E+03  0.00000000000E+00 0.  1.
         21    1    1    2  504  502  0.24342269269E+01 -0.23918950154E+02 -0.18110623416E+03  0.18269512771E+03  0.00000000000E+00 0.  1.
</event>
<event>
 4    1  0.3183954E+006  0.4623502E+02  0.7546771E-02  0.1315377E+00
         21   -1    0    0  502  501  0.00000000000E+00  0.00000000000E+00  0.10801386642E+02  0.10801386642E+02  0.00000000000E+00 0.  1.
         21   -1    0    0  503  502 -0.00000000000E+00 -0.00000000000E+00 -0.44110206121E+03  0.44110206121E+03  0.00000000000E+00 0.  1.
         21    1    1    2  503  504  0.17811228604E+02 -0.42666577625E+02 -0.38292367268E+03  0.38570482990E+03  0.00000000000E+00 0.  1.
         21    1    1    2  504  501 -0.17811228604E+02  0.42666577625E+02 -0.47377001890E+02  0.66198617951E+02  0.00000000000E+00 0.  1.
</event>
<event>
 4    1  0.3183954E+006  0.3207410E+02  0.7546771E-02  0.1402389E+00
         21   -1    0    0  503  501  0.00000000000E+00  0.00000000000E+00  0.94488277519E+02  0.94488277519E+02  0.00000000000E+00 0.  1.
         21   -1    0    0  504  502 -0.00000000000E+00 -0.00000000000E+00 -0.18167664689E+02  0.18167664689E+02  0.00000000000E+00 0. -1.
         21    1    1    2  503  502 -0.10759850103E+02  0.30215456918E+02  0.73817151944E+02  0.80484285001E+02  0.00000000000E+00 0.  1.
         21    1    1    2  504  501  0.10759850103E+02 -0.30215456918E+02  0.25034608851E+01  0.32171657207E+02  0.00000000000E+00 0. -1.
</event>
<event>
 4    1  0.3183954E+006  0.2496752E+02  0.7546771E-02  0.1469167E+00
         21   -1    0    0  504  501  0.00000000000E+00  0.00000000000E+00  0.51692985413E+02  0.51692985413E+02  0.00000000000E+00 0.  1.
         21   -1    0    0  503  502 -0.00000000000E+00 -0.00000000000E+00 -0.20835625448E+03  0.20835625448E+03  0.00000000000E+00 0.  1.
         21    1    1    2  503  501 -0.22589570658E+01 -0.24865123630E+02  0.47874128736E+02  0.53993605755E+02  0.00000000000E+00 0.  1.
         21    1    1    2  504  502  0.22589570658E+01  0.24865123630E+02 -0.20453739781E+03  0.20605563414E+03  0.00000000000E+00 0.  1.
</event>
<event>
 4    1  0.3183954E+006  0.2280606E+02  0.7546771E-02  0.1494948E+00
         21   -1    0    0  503  501  0.00000000000E+00  0.00000000000E+00  0.35287566696E+01  0.35287566696E+01  0.00000000000E+00 0.  1.
         21   -1    0    0  501  502 -0.00000000000E+00 -0.00000000000E+00 -0.39255811205E+03  0.39255811205E+03  0.00000000000E+00 0.  1.
         21    1    1    2  503  504 -0.54679617576E+01 -0.22140861321E+02 -0.38006431699E+02  0.44323867119E+02  0.00000000000E+00 0.  1.
         21    1    1    2  504  502  0.54679617576E+01  0.22140861321E+02 -0.35102292368E+03  0.35176300160E+03  0.00000000000E+00 0.  1.
</event>
<event>
 4    1  0.3183954E+006  0.2616125E+02  0.7546771E-02  0.1456220E+00
         21   -1    0    0  503  501  0.00000000000E+00  0.00000000000E+00  0.50704954784E+02  0.50704954784E+02  0.00000000000E+00 0.  1.
         21   -1    0    0  504  502 -0.00000000000E+00 -0.00000000000E+00 -0.13540542725E+02  0.13540542725E+02  0.00000000000E+00 0.  1.
         21    1    1    2  503  502 -0.39181906765E+00 -0.26158313218E+02  0.20384686610E+02  0.33165438649E+02  0.00000000000E+00 0.  1.
         21    1    1    2  504  501  0.39181906765E+00  0.26158313218E+02  0.16779725450E+02  0.31080058860E+02  0.00000000000E+00 0.  1.
</event>
<event>
 4    1  0.3183954E+006  0.2491702E+02  0.7546771E-02  0.1469734E+00
         21   -1    0    0  504  501  0.00000000000E+00  0.00000000000E+00  0.16680493066E+03  0.16680493066E+03  0.00000000000E+00 0. -1.
         21   -1    0    0  503  502 -0.00000000000E+00 -0.00000000000E+00 -0.21590388383E+02  0.21590388383E+02  0.00000000000E+00 0.  1.
         21    1    1    2  503  501 -0.16632234921E+02 -0.18553347063E+02  0.15830155425E+03  0.16025055384E+03  0.00000000000E+00 0. -1.
         21    1    1    2  504  502  0.16632234921E+02  0.18553347063E+02 -0.13087011981E+02  0.28144765202E+02  0.00000000000E+00 0.  1.
</event>
<event>
 4    1  0.3183954E+006  0.2034653E+02  0.7546771E-02  0.1528803E+00
         21   -1    0    0  503  501  0.00000000000E+00  0.00000000000E+00  0.27793863598E+03  0.27793863598E+03  0.00000000000E+00 0. -1.
         21   -1    0    0  504  502 -0.00000000000E+00 -0.00000000000E+00 -0.21415211871E+02  0.21415211871E+02  0.00000000000E+00 0. -1.
         21    1    1    2  503  502  0.10574449319E+01 -0.20319033779E+02  0.27263967466E+03  0.27339783014E+03  0.00000000000E+00 0. -1.
         21    1    1    2  504  501 -0.10574449319E+01  0.20319033779E+02 -0.16116250556E+02  0.25956017712E+02  0.00000000000E+00 0. -1.
</event>
<event>
 4    1  0.3183954E+006  0.2699876E+02  0.7546771E-02  0.1447621E+00
         21   -1    0    0  502  501  0.00000000000E+00  0.00000000000E+00  0.65558094511E+02  0.65558094511E+02  0.00000000000E+00 0. -1.
         21   -1    0    0  504  502 -0.00000000000E+00 -0.00000000000E+00 -0.13140462061E+02  0.13140462061E+02  0.00000000000E+00 0. -1.
         21    1    1    2  503  501  0.18335409293E+02  0.19817808681E+02  0.41642757053E+02  0.49629144561E+02  0.00000000000E+00 0. -1.
         21    1    1    2  504  503 -0.18335409293E+02 -0.19817808681E+02  0.10774875397E+02  0.29069412011E+02  0.00000000000E+00 0. -1.
</event>
<event>
 4    1  0.3183954E+006  0.2154966E+02  0.7546771E-02  0.1511560E+00
         21   -1    0    0  504  501  0.00000000000E+00  0.00000000000E+00  0.10466503959E+02  0.10466503959E+02  0.00000000000E+00 0.  1.
         21   -1    0    0  503  502 -0.00000000000E+00 -0.00000000000E+00 -0.75753736925E+02  0.75753736925E+02  0.00000000000E+00 0.  1.
         21    1    1    2  503  501 -0.80923765209E+01  0.19972516917E+02 -0.48952982692E+01  0.22098686270E+02  0.00000000000E+00 0.  1.
         21    1    1    2  504  502  0.80923765209E+01 -0.19972516917E+02 -0.60391934696E+02  0.64121554614E+02  0.00000000000E+00 0.  1.
</event>
<event>
 4    1  0.3183954E+006  0.2360427E+02  0.7546771E-02  0.1485047E+00
         21   -1    0    0  504  501  0.00000000000E+00  0.00000000000E+00  0.41097801399E+03  0.41097801399E+03  0.00000000000E+00 0.  1.
         21   -1    0    0  503  502 -0.00000000000E+00 -0.00000000000E+00 -0.21631805318E+01  0.21631805318E+01  0.00000000000E+00 0.  1.
         21    1    1    2  503  501 -0.21912451060E+02 -0.87753038088E+01  0.78198777254E+02  0.81683598307E+02  0.00000000000E+00 0.  1.
         21    1    1    2  504  502  0.21912451060E+02  0.87753038088E+01  0.33061605621E+03  0.33145759622E+03  0.00000000000E+00 0.  1.
</event>
<event>
 4    1  0.3183954E+006  0.3787646E+02  0.7546771E-02  0.1361400E+00
         21   -1    0    0  504  501  0.00000000000E+00  0.00000000000E+00  0.55558434937E+02  0.55558434937E+02  0.00000000000E+00 0. -1.
         21   -1    0    0  501  502 -0.00000000000E+00 -0.00000000000E+00 -0.51484140795E+02  0.51484140795E+02  0.00000000000E+00 0.  1.
         21    1    1    2  503  502 -0.34816363002E+02 -0.14914650166E+02 -0.35749370517E+02  0.52083043446E+02  0.00000000000E+00 0.  1.
         21    1    1    2  504  503  0.34816363002E+02  0.14914650166E+02  0.39823664658E+02  0.54959532286E+02  0.00000000000E+00 0. -1.
</event>
<event>
 4    1  0.3183954E+006  0.5419555E+02  0.7546771E-02  0.1280940E+00
         21   -1    0    0  504  501  0.00000000000E+00  0.00000000000E+00  0.67934895538E+01  0.67934895538E+01  0.00000000000E+00 0.  1.
         21   -1    0    0  501  502 -0.00000000000E+00 -0.00000000000E+00 -0.79975955298E+03  0.79975955298E+03  0.00000000000E+00 0.  1.
         21    1    1    2  503  502 -0.69749820440E+01  0.53744832060E+02 -0.66982047380E+03  0.67200939314E+03  0.00000000000E+00 0.  1.
         21    1    1    2  504  503  0.69749820440E+01 -0.53744832060E+02 -0.12314558963E+03  0.13454364939E+03  0.00000000000E+00 0.  1.
</event>
<event>
 4    1  0.3183954E+006  0.2174139E+02  0.7546771E-02  0.1508938E+00
         21   -1    0    0  504  501  0.00000000000E+00  0.00000000000E+00  0.76925722494E+03  0.76925722494E+03  0.00000000000E+00 0.  1.
         21   -1    0    0  503  502 -0.00000000000E+00 -0.00000000000E+00 -0.10417186550E+01  0.10417186550E+01  0.00000000000E+00 0.  1.
         21    1    1    2  503  501  0.70000375924E+01  0.20583676084E+02  0.63076428124E+03  0.63113886485E+03  0.00000000000E+00 0.  1.
         21    1    1    2  504  502 -0.70000375924E+01 -0.20583676084E+02  0.13745122505E+03  0.13916007874E+03  0.00000000000E+00 0.  1.
</event>
<event>
 4    1  0.3183954E+006  0.2551343E+02  0.7546771E-02  0.1463141E+00
         21   -1    0    0  503  501  0.00000000000E+00  0.00000000000E+00  0.44027681010E+01  0.44027681010E+01  0.00000000000E+00 0. -1.
         21   -1    0    0  504  502 -0.00000000000E+00 -0.00000000000E+00 -0.30614585991E+03  0.30614585991E+03  0.00000000000E+00 0. -1.
         21    1    1    2  503  502  0.93133879709E+01 -0.23752807533E+02 -0.26252563354E+03  0.26376247520E+03  0.00000000000E+00 0. -1.
         21    1    1    2  504  501 -0.93133879709E+01  0.23752807533E+02 -0.39217458269E+02  0.46786152805E+02  0.00000000000E+00 0. -1.
</event>
<event>
 4    1  0.3183954E+006  0.2870715E+02  0.7546771E-02  0.1431174E+00
         21   -1    0    0  503  501  0.00000000000E+00  0.00000000000E+00  0.17896402479E+03  0.17896402479E+03  0.00000000000E+00 0. -1.
         21   -1    0    0  504  502 -0.00000000000E+00 -0.00000000000E+00 -0.22527677882E+03  0.22527677882E+03  0.00000000000E+00 0.  1.
         21    1    1    2  503  502  0.24608604820E+01  0.28601479586E+02 -0.22320036127E+03  0.22503888939E+03  0.00000000000E+00 0.  1.
         21    1    1    2  504  501 -0.24608604820E+01 -0.28601479586E+02  0.17688760723E+03  0.17920191422E+03  0.00000000000E+00 0. -1.
</event>
<event>
 4    1  0.3183954E+006  0.2397239E+02  0.7546771E-02  0.1480636E+00
         21   -1    0    0  503  501  0.00000000000E+00  0.00000000000E+00  0.10858907350E+03  0.10858907350E+03  0.00000000000E+00 0.  1.
         21   -1    0    0  501  502 -0.00000000000E+00 -0.00000000000E+00 -0.81671713591E+02  0.81671713591E+02  0.00000000000E+00 0. -1.
         21    1    1    2  503  504 -0.69538624961E+01  0.22941652500E+02  0.10545530384E+03  0.10814571989E+03  0.00000000000E+00 0.  1.
         21    1    1    2  504  502  0.69538624961E+01 -0.22941652500E+02 -0.78537943935E+02  0.82115067196E+02  0.00000000000E+00 0. -1.
</event>
<event>
 4    1  0.3183954E+006  0.3493093E+02  0.7546771E-02  0.1381049E+00
         21   -1    0    0  502  501  0.00000000000E+00  0.00000000000E+00  0.29838187687E+03  0.29838187687E+03  0.00000000000E+00 0. -1.
         21   -1    0    0  503  502 -0.00000000000E+00 -0.00000000000E+00 -0.22686876418E+02  0.22686876418E+02  0.00000000000E+00 0. -1.
         21    1    1    2  503  504  0.18335316090E+02 -0.29731908500E+02 -0.75004726784E+01  0.35727122604E+02  0.00000000000E+00 0. -1.
         21    1    1    2  504  501 -0.18335316090E+02  0.29731908500E+02  0.28319547313E+03  0.28534163068E+03  0.00000000000E+00 0. -1.
</event>
<event>
 4    1  0.3183954E+006  0.2151715E+02  0.7546771E-02  0.1512008E+00
         21   -1    0    0  503  501  0.00000000000E+00  0.00000000000E+00  0.10628782170E+02  0.10628782170E+02  0.00000000000E+00 0.  1.
         21   -1    0    0  504  502 -0.00000000000E+00 -0.00000000000E+00 -0.69987146589E+02  0.69987146589E+02  0.00000000000E+00 0.  1.
         21    1    1    2  503  502 -0.14099637115E+02 -0.16253855724E+02 -0.49101790803E+01  0.22070284350E+02  0.00000000000E+00 0.  1.
         21    1    1    2  504  501  0.14099637115E+02  0.16253855724E+02 -0.54448185339E+02  0.58545644410E+02  0.00000000000E+00 0.  1.
</event>
<event>
 4    1  0.3183954E+006  0.2355448E+02  0.7546771E-02  0.1485650E+00
         21   -1    0    0  503  501  0.00000000000E+00  0.00000000000E+00  0.91273027660E+03  0.91273027660E+03  0.00000000000E+00 0. -1.
         21   -1    0    0  501  502 -0.00000000000E+00 -0.00000000000E+00 -0.16277127727E+03  0.16277127727E+03  0.00000000000E+00 0. -1.
         21    1    1    2  503  504  0.19433116847E+02  0.13310425235E+02  0.91172523547E+03  0.91202945042E+03  0.00000000000E+00 0. -1.
         21    1    1    2  504  502 -0.19433116847E+02 -0.13310425235E+02 -0.16176623613E+03  0.16347210344E+03  0.00000000000E+00 0. -1.
</event>
<event>
 4    1  0.3183954E+006  0.3598019E+02  0.7546771E-02  0.1373800E+00
         21   -1    0    0  503  501  0.00000000000E+00  0.00000000000E+00  0.48234434155E+01  0.48234434155E+01  0.00000000000E+00 0. -1.
         21   -1    0    0  504  502 -0.00000000000E+00 -0.00000000000E+00 -0.32318684280E+03  0.32318684280E+03  0.00000000000E+00 0. -1.
         21    1    1    2  503  502 -0.31960195480E+02  0.16526340359E+02 -0.22671222829E+03  0.22954957738E+03  0.00000000000E+00 0. -1.
         21    1    1    2  504  501  0.31960195480E+02 -0.16526340359E+02 -0.91651171099E+02  0.98460708836E+02  0.00000000000E+00 0. -1.
</event>
<event>
 4    1  0.3183954E+006  0.2938656E+02  0.7546771E-02  0.1425003E+00
         21   -1    0    0  504  501  0.00000000000E+00  0.00000000000E+00  0.17619468945E+02  0.17619468945E+02  0.00000000000E+00 0.  1.
         21   -1    0    0  503  502 -0.00000000000E+00 -0.00000000000E+00 -0.52812723259E+02  0.52812723259E+02  0.00000000000E+00 0.  1.
         21    1    1    2  503  501 -0.23202362818E+02 -0.18033871436E+02 -0.81497197394E+01  0.30495706110E+02  0.00000000000E+00 0.  1.
         21    1    1    2  504  502  0.23202362818E+02  0.18033871436E+02 -0.27043534575E+02  0.39936486095E+02  0.00000000000E+00 0.  1.
</event>
<event>
 4    1  0.3183954E+006  0.2512348E+02  0.7546771E-02  0.1467427E+00
         21   -1    0    0  504  501  0.00000000000E+00  0.00000000000E+00  0.18504474224E+02  0.18504474224E+02  0.00000000000E+00 0.  1.
         21   -1    0    0  503  502 -0.00000000000E+00 -0.00000000000E+00 -0.12641750382E+03  0.12641750382E+03  0.00000000000E+00 0.  1.
         21    1    1    2  503  501  0.17865421176E+02  0.17663967858E+02  0.79617782404E+01  0.26354865718E+02  0.00000000000E+00 0.  1.
         21    1    1    2  504  502 -0.17865421176E+02 -0.17663967858E+02 -0.11587480784E+03  0.11856711233E+03  0.00000000000E+00 0.  1.
</event>
<event>
 4    1  0.3183954E+006  0.2644522E+02  0.7546771E-02  0.1453262E+00
         21   -1    0    0  502  501  0.00000000000E+00  0.00000000000E+00  0.15098280025E+02  0.15098280025E+02  0.00000000000E+00 0.  1.
         21   -1    0    0  503  502 -0.00000000000E+00 -0.00000000000E+00 -0.65389603572E+02  0.65389603572E+02  0.00000000000E+00 0.  1.
         21    1    1    2  503  504  0.14169638516E+02 -0.22328699627E+02 -0.46878634772E+02  0.53823376713E+02  0.00000000000E+00 0.  1.
         21    1    1    2  504  501 -0.14169638516E+02  0.22328699627E+02 -0.34126887745E+01  0.26664506884E+02  0.00000000000E+00 0.  1.
</event>
<event>
 4    1  0.3183954E+006  0.2481959E+02  0.7546771E-02  0.1470832E+00
         21   -1    0    0  504  501  0.00000000000E+00  0.00000000000E+00  0.71206155307E+03  0.71206155307E+03  0.00000000000E+00 0. -1.
         21   -1    0    0  501  502 -0.00000000000E+00 -0.00000000000E+00 -0.11699006842E+02  0.11699006842E+02  0.00000000000E+00 0.  1.
         21    1    1    2  503  502  0.10565800814E+02  0.22458317551E+02  0.19379879113E+01  0.24895139509E+02  0.00000000000E+00 0.  1.
         21    1    1    2  504  503 -0.10565800814E+02 -0.22458317551E+02  0.69842455832E+03  0.69886542041E+03  0.00000000000E+00 0. -1.
</event>
<event>
 4    1  0.3183954E+006  0.2145294E+02  0.7546771E-02  0.1512895E+00
         21   -1    0    0  502  501  0.00000000000E+00  0.00000000000E+00  0.94324490010E+02  0.94324490010E+02  0.00000000000E+00 0.  1.
         21   -1    0    0  503  502 -0.00000000000E+00 -0.00000000000E+00 -0.31377931119E+02  0.31377931119E+02  0.00000000000E+00 0.  1.
         21    1    1    2  503  504  0.21004691770E+02 -0.43624994604E+01 -0.26284966603E+02  0.33928276514E+02  0.00000000000E+00 0.  1.
         21    1    1    2  504  501 -0.21004691770E+02  0.43624994604E+01  0.89231525494E+02  0.91774144616E+02  0.00000000000E+00 0.  1.
</event>
<event>
 4    1  0.3183954E+006  0.3215235E+02  0.7546771E-02  0.1401770E+00
         21   -1    0    0  502  501  0.00000000000E+00  0.00000000000E+00  0.49038226692E+02  0.49038226692E+02  0.00000000000E+00 0. -1.
         21   -1    0    0  503  502 -0.00000000000E+00 -0.00000000000E+00 -0.13121685595E+03  0.13121685595E+03  0.00000000000E+00 0.  1.
         21    1    1    2  503  504 -0.30003400869E+02 -0.11557224434E+02 -0.12366023589E+03  0.12777177873E+03  0.00000000000E+00 0.  1.
         21    1    1    2  504  501  0.30003400869E+02  0.11557224434E+02  0.41481606633E+02  0.52483303909E+02  0.00000000000E+00 0. -1.
</event>
<event>
 4    1  0.3183954E+006  0.2483520E+02  0.7546771E-02  0.1470656E+00
         21   -1    0    0  503  501  0.00000000000E+00  0.00000000000E+00  0.34249873095E+03  0.34249873095E+03  0.00000000000E+00 0.  1.
         21   -1    0    0  504  502 -0.00000000000E+00 -0.00000000000E+00 -0.52993151003E+01  0.52993151003E+01  0.00000000000E+00 0.  1.
         21    1    1    2  503  502  0.22302576171E+02 -0.10926215231E+02  0.30989456731E+03  0.31088813089E+03  0.00000000000E+00 0.  1.
         21    1    1    2  504  501 -0.22302576171E+02  0.10926215231E+02  0.27304848547E+02  0.36909915162E+02  0.00000000000E+00 0.  1.
</event>
<event>
 4    1  0.3183954E+006  0.2156780E+02  0.7546771E-02  0.1511310E+00
         21   -1    0    0  504  501  0.00000000000E+00  0.00000000000E+00  0.47596390686E+02  0.47596390686E+02  0.00000000000E+00 0.  1.
         21   -1    0    0  503  502 -0.00000000000E+00 -0.00000000000E+00 -0.10374562061E+02  0.10374562061E+02  0.00000000000E+00 0.  1.
         21    1    1    2  503  501 -0.88335550311E+01  0.19675829217E+02  0.25589327937E+02  0.33466156847E+02  0.00000000000E+00 0.  1.
         21    1    1    2  504  502  0.88335550311E+01 -0.19675829217E+02  0.11632500688E+02  0.24504795900E+02  0.00000000000E+00 0.  1.
</event>
<event>
 4    1  0.3183954E+006  0.2755779E+02  0.7546771E-02  0.1442084E+00
         21   -1    0    0  504  501  0.00000000000E+00  0.00000000000E+00  0.41784570911E+02  0.41784570911E+02  0.00000000000E+00 0.  1.
         21   -1    0    0  503  502 -0.00000000000E+00 -0.00000000000E+00 -0.79317285564E+02  0.79317285564E+02  0.00000000000E+00 0. -1.
         21    1    1    2  503  501  0.18489186734E+00  0.27557168459E+02 -0.71929171356E+02  0.77027510738E+02  0.00000000000E+00 0. -1.
         21    1    1    2  504  502 -0.18489186734E+00 -0.27557168459E+02  0.34396456703E+02  0.44074345738E+02  0.00000000000E+00 0.  1.
</event>
<event>
 4    1  0.3183954E+006  0.3419698E+02  0.7546771E-02  0.1386298E+00
         21   -1    0    0  504  501  0.00000000000E+00  0.00000000000E+00  0.51933589205E+01  0.51933589205E+01  0.00000000000E+00 0. -1.
         21   -1    0    0  503  502 -0.00000000000E+00 -0.00000000000E+00 -0.80378071772E+03  0.80378071772E+03  0.00000000000E+00 0.  1.
         21    1    1    2  503  501 -0.32587319042E+02 -0.10368232247E+02 -0.74247670953E+03  0.74326381440E+03  0.00000000000E+00 0.  1.
         21    1    1    2  504  502  0.32587319042E+02  0.10368232247E+02 -0.56110649271E+02  0.65710262241E+02  0.00000000000E+00 0. -1.
</event>
<event>
 4    1  0.3183954E+006  0.2175955E+02  0.7546771E-02  0.1508691E+00
         21   -1    0    0  503  501  0.00000000000E+00  0.00000000000E+00  0.16671500251E+03  0.16671500251E+03  0.00000000000E+00 0.  1.
         21   -1    0    0  504  502 -0.00000000000E+00 -0.00000000000E+00 -0.38445318642E+01  0.38445318642E+01  0.00000000000E+00 0.  1.
         21    1    1    2  503  502 -0.21733812721E+02  0.10581019373E+01  0.37844289394E+02  0.43653962418E+02  0.00000000000E+00 0.  1.
         21    1    1    2  504  501  0.21733812721E+02 -0.10581019373E+01  0.12502618126E+03  0.12690557196E+03  0.00000000000E+00 0.  1.
</event>
<event>
 4    1  0.3183954E+006  0.2246725E+02  0.7546771E-02  0.1499298E+00
         21   -1    0    0  503  501  0.00000000000E+00  0.00000000000E+00  0.88449886620E+02  0.88449886620E+02  0.00000000000E+00 0.  1.
         21   -1    0    0  504  502 -0.00000000000E+00 -0.00000000000E+00 -0.25469506312E+02  0.25469506312E+02  0.00000000000E+00 0. -1.
         21    1    1    2  503  502  0.19332814284E+02 -0.11446386834E+02  0.81664240578E+02  0.84698439589E+02  0.00000000000E+00 0.  1.
         21    1    1    2  504  501 -0.19332814284E+02  0.11446386834E+02 -0.18683860270E+02  0.29220953343E+02  0.00000000000E+00 0. -1.
</event>
<event>
 4    1  0.3183954E+006  0.2181900E+02  0.7546771E-02  0.1507885E+00
         21   -1    0    0  504  501  0.00000000000E+00  0.00000000000E+00  0.65316840273E+01  0.65316840273E+01  0.00000000000E+00 0.  1.
         21   -1    0    0  503  502 -0.00000000000E+00 -0.00000000000E+00 -0.30528826604E+03  0.30528826604E+03  0.00000000000E+00 0.  1.
         21    1    1    2  503  501  0.12437392543E+02  0.17927076824E+02 -0.13346957863E+02  0.25577531174E+02  0.00000000000E+00 0.  1.
         21    1    1    2  504  502 -0.12437392543E+02 -0.17927076824E+02 -0.28540962415E+03  0.28624241889E+03  0.00000000000E+00 0.  1.
</event>
<event>
 4    1  0.3183954E+006  0.3247126E+02  0.7546771E-02  0.1399269E+00
         21   -1    0    0  502  501  0.00000000000E+00  0.00000000000E+00  0.53427328321E+02  0.53427328321E+02  0.00000000000E+00 0. -1.
         21   -1    0    0  503  502 -0.00000000000E+00 -0.00000000000E+00 -0.14213289479E+03  0.14213289479E+03  0.00000000000E+00 0. -1.
         21    1    1    2  503  504  0.30416584097E+02 -0.11367244779E+02 -0.13509103005E+03  0.13893872478E+03  0.00000000000E+00 0. -1.
         21    1    1    2  504  501 -0.30416584097E+02  0.11367244779E+02  0.46385463582E+02  0.56621498336E+02  0.00000000000E+00 0. -1.
</event>
<event>
 4    1  0.3183954E+006  0.5284262E+02  0.7546771E-02  0.1286297E+00
         21   -1    0    0  503  501  0.00000000000E+00  0.00000000000E+00  0.34889350512E+03  0.34889350512E+03  0.00000000000E+00 0.  1.
         21   -1    0    0  504  502 -0.00000000000E+00 -0.00000000000E+00 -0.96377337952E+02  0.96377337952E+02  0.00000000000E+00 0. -1.
         21    1    1    2  503  502  0.12244077071E+02  0.51404524203E+02  0.33944907278E+03  0.34353750238E+03  0.00000000000E+00 0.  1.
         21    1    1    2  504  501 -0.12244077071E+02 -0.51404524203E+02 -0.86932905607E+02  0.10173334070E+03  0.00000000000E+00 0. -1.
</event>
<event>
 4    1  0.3183954E+006  0.2183332E+02  0.7546771E-02  0.1507692E+00
         21   -1    0    0  502  501  0.00000000000E+00  0.00000000000E+00  0.13164946118E+02  0.13164946118E+02  0.00000000000E+00 0.  1.
         21   -1    0    0  504  502 -0.00000000000E+00 -0.00000000000E+00 -0.38514560931E+02  0.38514560931E+02  0.00000000000E+00 0.  1.
         21    1    1    2  503  501 -0.51294776754E+01  0.21222211765E+02 -0.63531118767E+01  0.22738861976E+02  0.00000000000E+00 0.  1.
         21    1    1    2  504  503  0.51294776754E+01 -0.21222211765E+02 -0.18996502937E+02  0.28940645073E+02  0.00000000000E+00 0.  1.
</event>
<event>
 4    1  0.3183954E+006  0.2228599E+02  0.7546771E-02  0.1501664E+00
         21   -1    0    0  503  501  0.00000000000E+00  0.00000000000E+00  0.80625609281E+01  0.80625609281E+01  0.00000000000E+00 0.  1.
         21   -1    0    0  504  502 -0.00000000000E+00 -0.00000000000E+00 -0.96974906178E+03  0.96974906178E+03  0.00000000000E+00 0.  1.
         21    1    1    2  503  502 -0.18996865172E+02  0.11652651226E+02 -0.77205932785E+01  0.23585434648E+02  0.00000000000E+00 0.  1.
         21    1    1    2  504  501  0.18996865172E+02 -0.11652651226E+02 -0.95396590757E+03  0.95422618806E+03  0.00000000000E+00 0.  1.
</event>
<event>
 4    1  0.3183954E+006  0.2706641E+02  0.7546771E-02  0.1446942E+00
         21   -1    0    0  502  501  0.00000000000E+00  0.00000000000E+00  0.23677754589E+03  0.23677754589E+03  0.00000000000E+00 0.  1.
         21   -1    0    0  503  502 -0.00000000000E+00 -0.00000000000E+00 -0.42497315331E+01  0.42497315331E+01  0.00000000000E+00 0. -1.
         21    1    1    2  503  504  0.54446477244E+00 -0.27060936488E+02  0.53417111317E+02  0.59883040228E+02  0.00000000000E+00 0. -1.
         21    1    1    2  504  501 -0.54446477244E+00  0.27060936488E+02  0.17911070304E+03  0.18114423720E+03  0.00000000000E+00 0.  1.
</event>
<event>
 4    1  0.3183954E+006  0.2533228E+02  0.7546771E-02  0.1465120E+00
         21   -1    0    0  502  501  0.00000000000E+00  0.00000000000E+00  0.15593506270E+04  0.15593506270E+04  0.00000000000E+00 0. -1.
         21   -1    0    0  503  502 -0.00000000000E+00 -0.00000000000E+00 -0.30001131661E+01  0.30001131661E+01  0.00000000000E+00 0. -1.
         21    1    1    2  503  504  0.47511360455E+01  0.24882750532E+02  0.52553133410E+02  0.58340006847E+02  0.00000000000E+00 0. -1.
         21    1    1    2  504  501 -0.47511360455E+01 -0.24882750532E+02  0.15037973805E+04  0.15040107334E+04  0.00000000000E+00 0. -1.
</event>
<event>
 4    1  0.3183954E+006  0.3471597E+02  0.7546771E-02  0.1382571E+00
         21   -1    0    0  504  501  0.00000000000E+00  0.00000000000E+00  0.89675233240E+01  0.89675233240E+01  0.00000000000E+00 0.  1.
         21   -1    0    0  501  502 -0.00000000000E+00 -0.00000000000E+00 -0.28623303580E+03  0.28623303580E+03  0.00000000000E+00 0.  1.
         21    1    1    2  503  502 -0.22033822248E+02  0.26827401596E+02 -0.24613467956E+03  0.24857087376E+03  0.00000000000E+00 0.  1.
         21    1    1    2  504  503  0.22033822248E+02 -0.26827401596E+02 -0.31130832918E+02  0.46629685367E+02  0.00000000000E+00 0.  1.
</event>
<event>
 4    1  0.3183954E+006  0.3472769E+02  0.7546771E-02  0.1382488E+00
         21   -1    0    0  503  501  0.00000000000E+00  0.00000000000E+00  0.28864867190E+03  0.28864867190E+03  0.00000000000E+00 0. -1.
         21   -1    0    0  504  502 -0.00000000000E+00 -0.00000000000E+00 -0.75605120595E+01  0.75605120595E+01  0.00000000000E+00 0. -1.
         21    1    1    2  503  502  0.10413059039E+02 -0.33129754350E+02  0.23960539380E+03  0.24210897786E+03  0.00000000000E+00 0. -1.
         21    1    1    2  504  501 -0.10413059039E+02  0.33129754350E+02  0.41482766044E+02  0.54100206104E+02  0.00000000000E+00 0. -1.
</event>
<event>
 4    1  0.3183954E+006  0.2158907E+02  0.7546771E-02  0.1511018E+00
         21   -1    0    0  504  501  0.00000000000E+00  0.00000000000E+00  0.27410003377E+01  0.27410003377E+01  0.00000000000E+00 0. -1.
         21   -1    0    0  503  502 -0.00000000000E+00 -0.00000000000E+00 -0.10220480026E+04  0.10220480026E+04  0.00000000000E+00 0. -1.
         21    1    1    2  503  501 -0.20795888303E+02 -0.57981934734E+01 -0.97748545009E+03  0.97772383276E+03  0.00000000000E+00 0. -1.
         21    1    1    2  504  502  0.20795888303E+02  0.57981934734E+01 -0.41821552223E+02  0.47065170224E+02  0.00000000000E+00 0. -1.
</event>
<event>
 4    1  0.3183954E+006  0.3155308E+02  0.7546771E-02  0.1406564E+00
         21   -1    0    0  504  501  0.00000000000E+00  0.00000000000E+00  0.52203462139E+02  0.52203462139E+02  0.00000000000E+00 0.  1.
         21   -1    0    0  503  502 -0.00000000000E+00 -0.00000000000E+00 -0.19978602478E+02  0.19978602478E+02  0.00000000000E+00 0. -1.
         21    1    1    2  503  501  0.29588457267E+02  0.10959940484E+02  0.84220008625E+01  0.32657727989E+02  0.00000000000E+00 0. -1.
         21    1    1    2  504  502 -0.29588457267E+02 -0.10959940484E+02  0.23802858799E+02  0.39524336628E+02  0.00000000000E+00 0.  1.
</event>
<event>
 4    1  0.3183954E+006  0.2675728E+02  0.7546771E-02  0.1450062E+00
         21   -1    0    0  504  501  0.00000000000E+00  0.00000000000E+00  0.14221325726E+03  0.14221325726E+03  0.00000000000E+00 0. -1.
         21   -1    0    0  503  502 -0.00000000000E+00 -0.00000000000E+00 -0.11696775700E+02  0.11696775700E+02  0.00000000000E+00 0. -1.
         21    1    1    2  503  501 -0.20534607340E+02  0.17154655014E+02  0.12333733310E+03  0.12620637869E+03  0.00000000000E+00 0. -1.
         21    1    1    2  504  502  0.20534607340E+02 -0.17154655014E+02  0.71791484668E+01  0.27703654271E+02  0.00000000000E+00 0. -1.
</event>
<event>
 4    1  0.3183954E+006  0.2663353E+02  0.7546771E-02  0.1451325E+00
         21   -1    0    0  503  501  0.00000000000E+00  0.00000000000E+00  0.40289245110E+03  0.40289245110E+03  0.00000000000E+00 0.  1.
         21   -1    0    0  501  502 -0.00000000000E+00 -0.00000000000E+00 -0.41139159572E+01  0.41139159572E+01  0.00000000000E+00 0. -1.
         21    1    1    2  503  504 -0.18791270343E+02  0.18874133478E+02  0.35330421604E+03  0.35430666636E+03  0.00000000000E+00 0.  1.
         21    1    1    2  504  502  0.18791270343E+02 -0.18874133478E+02  0.45474319102E+02  0.52699700696E+02  0.00000000000E+00 0. -1.
</event>
<event>
 4    1  0.3183954E+006  0.3850479E+02  0.7546771E-02  0.1357478E+00
         21   -1    0    0  503  501  0.00000000000E+00  0.00000000000E+00  0.11768952167E+02  0.11768952167E+02  0.00000000000E+00 0. -1.
         21   -1    0    0  504  502 -0.00000000000E+00 -0.00000000000E+00 -0.15254798295E+03  0.15254798295E+03  0.00000000000E+00 0. -1.
         21    1    1    2  503  502  0.36284086284E+02 -0.12887351817E+02 -0.10467828384E+03  0.11153547356E+03  0.00000000000E+00 0. -1.
         21    1    1    2  504  501 -0.36284086284E+02  0.12887351817E+02 -0.36100746942E+02  0.52781461557E+02  0.00000000000E+00 0. -1.
</event>
<event>
 4    1  0.3183954E+006  0.2122065E+02  0.7546771E-02  0.1516138E+00
         21   -1    0    0  504  501  0.00000000000E+00  0.00000000000E+00  0.28641009431E+02  0.28641009431E+02  0.00000000000E+00 0. -1.
         21   -1    0    0  503  502 -0.00000000000E+00 -0.00000000000E+00 -0.45342102303E+02  0.45342102303E+02  0.00000000000E+00 0. -1.
         21    1    1    2  503  501 -0.17802820336E+02 -0.11548839260E+02  0.21547263682E+02  0.30242365522E+02  0.00000000000E+00 0. -1.
         21    1    1    2  504  502  0.17802820336E+02  0.11548839260E+02 -0.38248356553E+02  0.43740746212E+02  0.00000000000E+00 0. -1.
</event>
<event>
 4    1  0.3183954E+006  0.2103624E+02  0.7546771E-02  0.1518748E+00
         21   -1    0    0  503  501  0.00000000000E+00  0.00000000000E+00  0.46128986593E+00  0.46128986593E+00  0.00000000000E+00 0. -1.
         21   -1    0    0  501  502 -0.00000000000E+00 -0.00000000000E+00 -0.10325474036E+04  0.10325474036E+04  0.00000000000E+00 0. -1.
         21    1    1    2  503  504 -0.46351444478E+01  0.20519227769E+02 -0.37849188438E+03  0.37907602115E+03  0.00000000000E+00 0. -1.
         21    1    1    2  504  502  0.46351444478E+01 -0.20519227769E+02 -0.65359422939E+03  0.65393267235E+03  0.00000000000E+00 0. -1.
</event>
<event>
 4    1  0.3183954E+006  0.2216574E+02  0.7546771E-02  0.1503248E+00
         21   -1    0    0  504  501  0.00000000000E+00  0.00000000000E+00  0.57258929219E+02  0.57258929219E+02  0.00000000000E+00 0. -1.
         21   -1    0    0  501  502 -0.00000000000E+00 -0.00000000000E+00 -0.15661240165E+02  0.15661240165E+02  0.00000000000E+00 0.  1.
         21    1    1    2  503  502  0.46290444366E+01  0.21676988691E+02 -0.37165428073E+01  0.22475154762E+02  0.00000000000E+00 0.  1.
         21    1    1    2  504  503 -0.46290444366E+01 -0.21676988691E+02  0.45314231861E+02  0.50445014623E+02  0.00000000000E+00 0. -1.
</event>
<event>
 4    1  0.3183954E+006  0.2014648E+02  0.7546771E-02  0.1531808E+00
         21   -1    0    0  504  501  0.00000000000E+00  0.00000000000E+00  0.29539738892E+02  0.29539738892E+02  0.00000000000E+00 0.  1.
         21   -1    0    0  503  502 -0.00000000000E+00 -0.00000000000E+00 -0.69237179050E+02  0.69237179050E+02  0.00000000000E+00 0. -1.
         21    1    1    2  503  501  0.14712704086E+02 -0.13762884465E+02  0.24368418302E+02  0.31618040118E+02  0.00000000000E+00 0.  1.
         21    1    1    2  504  502 -0.14712704086E+02  0.13762884465E+02 -0.64065858461E+02  0.67158877825E+02  0.00000000000E+00 0. -1.
</event>
<event>
 4    1  0.3183954E+006  0.2291370E+02  0.7546771E-02  0.1493585E+00
         21   -1    0    0  502  501  0.00000000000E+00  0.00000000000E+00  0.30639105327E+03  0.30639105327E+03  0.00000000000E+00 0.  1.
         21   -1    0    0  504  502 -0.00000000000E+00 -0.00000000000E+00 -0.23646460271E+02  0.23646460271E+02  0.00000000000E+00 0. -1.
         21    1    1    2  503  501 -0.19785835822E+02 -0.11556745336E+02  0.30029929636E+03  0.30117221826E+03  0.00000000000E+00 0.  1.
         21    1    1    2  504  503  0.19785835822E+02  0.11556745336E+02 -0.17554703351E+02  0.28865295282E+02  0.00000000000E+00 0. -1.
</event>
<event>
 4    1  0.3183954E+006  0.2908570E+02  0.7546771E-02  0.1427712E+00
         21   -1    0    0  504  501  0.00000000000E+00  0.00000000000E+00  0.34071517478E+03  0.34071517478E+03  0.00000000000E+00 0.  1.
         21   -1    0    0  503  502 -0.00000000000E+00 -0.00000000000E+00 -0.43330872926E+01  0.43330872926E+01  0.00000000000E+00 0.  1.
         21    1    1    2  503  501 -0.86004020354E+01  0.27785081893E+02  0.28092466834E+03  0.28242635672E+03  0.00000000000E+00 0.  1.
         21    1    1    2  504  502  0.86004020354E+01 -0.27785081893E+02  0.55457419151E+02  0.62621905351E+02  0.00000000000E+00 0.  1.
</event>
<event>
 4    1  0.3183954E+006  0.2354594E+02  0.7546771E-02  0.1485754E+00
         21   -1    0    0  503  501  0.00000000000E+00  0.00000000000E+00  0.74679758082E+00  0.74679758082E+00  0.00000000000E+00 0. -1.
         21   -1    0    0  504  502 -0.00000000000E+00 -0.00000000000E+00 -0.74239132516E+03  0.74239132516E+03  0.00000000000E+00 0. -1.
         21    1    1    2  503  502  0.23382550589E+02 -0.27690299339E+01 -0.37192089003E+03  0.37266547954E+03  0.00000000000E+00 0. -1.
         21    1    1    2  504  501 -0.23382550589E+02  0.27690299339E+01 -0.36972363754E+03  0.37047264320E+03  0.00000000000E+00 0. -1.
</event>
<event>
 4    1  0.3183954E+006  0.3429199E+02  0.7546771E-02  0.1385610E+00
         21   -1    0    0  503  501  0.00000000000E+00  0.00000000000E+00  0.73922292088E+02  0.73922292088E+02  0.00000000000E+00 0. -1.
         21   -1    0    0  501  502 -0.00000000000E+00 -0.00000000000E+00 -0.71042867180E+02  0.71042867180E+02  0.00000000000E+00 0. -1.
         21    1    1    2  503  504 -0.13582544963E+02 -0.31487377492E+02  0.65293606228E+02  0.73750901575E+02  0.00000000000E+00 0. -1.
         21    1    1    2  504  502  0.13582544963E+02  0.31487377492E+02 -0.62414181319E+02  0.71214257693E+02  0.00000000000E+00 0. -1.
</event>
<event>
 4    1  0.3183954E+006  0.3077149E+02  0.7546771E-02  0.1413008E+00
         21   -1    0    0  503  501  0.00000000000E+00  0.00000000000E+00  0.16841109859E+01  0.16841109859E+01  0.00000000000E+00 0. -1.
         21   -1    0    0  501  502 -0.00000000000E+00 -0.00000000000E+00 -0.87016762259E+03  0.87016762259E+03  0.00000000000E+00 0. -1.
         21    1    1    2  503  504 -0.20962299570E+02 -0.22527025294E+02 -0.17492463760E+03  0.17761056757E+03  0.00000000000E+00 0. -1.
         21    1    1    2  504  502  0.20962299570E+02  0.22527025294E+02 -0.69355887400E+03  0.69424116600E+03  0.00000000000E+00 0. -1.
</event>
<event>
 4    1  0.3183954E+006  0.2298742E+02  0.7546771E-02  0.1492656E+00
         21   -1    0    0  504  501  0.00000000000E+00  0.00000000000E+00  0.20492274021E+03  0.20492274021E+03  0.00000000000E+00 0. -1.
         21   -1    0    0  503  502 -0.00000000000E+00 -0.00000000000E+00 -0.19115503068E+02  0.19115503068E+02  0.00000000000E+00 0.  1.
         21    1    1    2  503  501  0.22919649512E+02 -0.17639058724E+01 -0.11286343490E+02  0.25608655705E+02  0.00000000000E+00 0.  1.
         21    1    1    2  504  502 -0.22919649512E+02  0.17639058724E+01  0.19709358063E+03  0.19842958757E+03  0.00000000000E+00 0. -1.
</event>
<event>
 4    1  0.3183954E+006  0.2077411E+02  0.7546771E-02  0.1522514E+00
         21   -1    0    0  502  501  0.00000000000E+00  0.00000000000E+00  0.41509236764E+03  0.41509236764E+03  0.00000000000E+00 0.  1.
         21   -1    0    0  504  502 -0.00000000000E+00 -0.00000000000E+00 -0.12268584098E+02  0.12268584098E+02  0.00000000000E+00 0. -1.
         21    1    1    2  503  501 -0.16923620523E+02 -0.12048025067E+02  0.40583796109E+03  0.40636930802E+03  0.00000000000E+00 0.  1.
         21    1    1    2  504  503  0.16923620523E+02  0.12048025067E+02 -0.30141775491E+01  0.20991643716E+02  0.00000000000E+00 0. -1.
</event>
<event>
 4    1  0.3183954E+006  0.2389190E+02  0.7546771E-02  0.1481592E+00
         21   -1    0    0  503  501  0.00000000000E+00  0.00000000000E+00  0.21072197583E+03  0.21072197583E+03  0.00000000000E+00 0. -1.
         21   -1    0    0  504  502 -0.00000000000E+00 -0.00000000000E+00 -0.16300702732E+02  0.16300702732E+02  0.00000000000E+00 0.  1.
         21    1    1    2  503  502  0.22685535941E+02 -0.74959667588E+01 -0.64406613047E+01  0.24744801002E+02  0.00000000000E+00 0.  1.
         21    1    1    2  504  501 -0.22685535941E+02  0.74959667588E+01  0.20086193440E+03  0.20227787756E+03  0.00000000000E+00 0. -1.
</event>
<event>
 4    1  0.3183954E+006  0.2391605E+02  0.7546771E-02  0.1481305E+00
         21   -1    0    0  504  501  0.00000000000E+00  0.00000000000E+00  0.18681658585E+03  0.18681658585E+03  0.00000000000E+00 0.  1.
         21   -1    0    0  501  502 -0.00000000000E+00 -0.00000000000E+00 -0.20588426207E+02  0.20588426207E+02  0.00000000000E+00 0.  1.
         21    1    1    2  503  502  0.18073189761E+02  0.15663249747E+02 -0.12567424641E+02  0.27016989893E+02  0.00000000000E+00 0.  1.
         21    1    1    2  504  503 -0.18073189761E+02 -0.15663249747E+02  0.17879558429E+03  0.18038802217E+03  0.00000000000E+00 0.  1.
</event>
<event>
 4    1  0.3183954E+006  0.2316193E+02  0.7546771E-02  0.1490475E+00
         21   -1    0    0  504  501  0.00000000000E+00  0.00000000000E+00  0.36258764521E+01  0.36258764521E+01  0.00000000000E+00 0.  1.
         21   -1    0    0  501  502 -0.00000000000E+00 -0.00000000000E+00 -0.31198323071E+03  0.31198323071E+03  0.00000000000E+00 0.  1.
         21    1    1    2  503  502  0.21322031110E+02  0.90468647602E+01 -0.26860085340E+03  0.26959765062E+03  0.00000000000E+00 0.  1.
         21    1    1    2  504  503 -0.21322031110E+02 -0.90468647602E+01 -0.39756500858E+02  0.46011456542E+02  0.00000000000E+00 0.  1.
</event>
<event>
 4    1  0.3183954E+006  0.4229273E+02  0.7546771E-02  0.1335550E+00
         21   -1    0    0  503  501  0.00000000000E+00  0.00000000000E+00  0.11000357763E+04  0.11000357763E+04  0.00000000000E+00 0.  1.
         21   -1    0    0  504  502 -0.00000000000E+00 -0.00000000000E+00 -0.16794007038E+01  0.16794007038E+01  0.00000000000E+00 0.  1.
         21    1    1    2  503  502  0.37692299761E+02  0.19182417548E+02  0.45096384598E+03  0.45294267295E+03  0.00000000000E+00 0.  1.
         21    1    1    2  504  501 -0.37692299761E+02 -0.19182417548E+02  0.64739252958E+03  0.64877250401E+03  0.00000000000E+00 0.  1.
</event>
<event>
 4    1  0.3183954E+006  0.3108292E+02  0.7546771E-02  0.1410413E+00
         21   -1    0    0  503  501  0.00000000000E+00  0.00000000000E+00  0.61112101386E+03  0.61112101386E+03  0.00000000000E+00 0.  1.
         21   -1    0    0  504  502 -0.00000000000E+00 -0.00000000000E+00 -0.15809537962E+01  0.15809537962E+01  0.00000000000E+00 0. -1.
         21    1    1    2  503  502 -0.28394177775E+02  0.12645898678E+02  0.30553358690E+03  0.30711060029E+03  0.00000000000E+00 0. -1.
         21    1    1    2  504  501  0.28394177775E+02 -0.12645898678E+02  0.30400647316E+03  0.30559136737E+03  0.00000000000E+00 0.  1.
</event>
<event>
 4    1  0.3183954E+006  0.5368480E+02  0.7546771E-02  0.1282941E+00
         21   -1    0    0  504  501  0.00000000000E+00  0.00000000000E+00  0.14440059208E+04  0.14440059208E+04  0.00000000000E+00 0. -1.
         21   -1    0    0  503  502 -0.00000000000E+00 -0.00000000000E+00 -0.14027588428E+02  0.14027588428E+02  0.00000000000E+00 0. -1.
         21    1    1    2  503  501 -0.44505342404E+02  0.30022191510E+02  0.13901538457E+04  0.13911900561E+04  0.00000000000E+00 0. -1.
         21    1    1    2  504  502  0.44505342404E+02 -0.30022191510E+02  0.39824486646E+02  0.66843453098E+02  0.00000000000E+00 0. -1.
</event>
<event>
 4    1  0.3183954E+006  0.3440677E+02  0.7546771E-02  0.1384782E+00
         21   -1    0    0  504  501  0.00000000000E+00  0.00000000000E+00  0.18243710662E+02  0.18243710662E+02  0.00000000000E+00 0. -1.
         21   -1    0    0  503  502 -0.00000000000E+00 -0.00000000000E+00 -0.64957694498E+02  0.64957694498E+02  0.00000000000E+00 0. -1.
         21    1    1    2  503  501  0.32717996870E+02 -0.10647009829E+02 -0.24704425455E+02  0.42357228126E+02  0.00000000000E+00 0. -1.
         21    1    1    2  504  502 -0.32717996870E+02  0.10647009829E+02 -0.22009558381E+02  0.40844177034E+02  0.00000000000E+00 0. -1.
</event>
<event>
 4    1  0.3183954E+006  0.2372379E+02  0.7546771E-02  0.1483604E+00
         21   -1    0    0  502  501  0.00000000000E+00  0.00000000000E+00  0.17051643152E+03  0.17051643152E+03  0.00000000000E+00 0. -1.
         21   -1    0    0  504  502 -0.00000000000E+00 -0.00000000000E+00 -0.20013872080E+02  0.20013872080E+02  0.00000000000E+00 0.  1.
         21    1    1    2  503  501  0.23723793605E+02  0.22439854758E-02  0.16230720632E+03  0.16403184938E+03  0.00000000000E+00 0. -1.
         21    1    1    2  504  503 -0.23723793605E+02 -0.22439854758E-02 -0.11804646879E+02  0.26498454219E+02  0.00000000000E+00 0.  1.
</event>
<event>
 4    1  0.3183954E+006  0.2843769E+02  0.7546771E-02  0.1433677E+00
         21   -1    0    0  504  501  0.00000000000E+00  0.00000000000E+00  0.69987064524E+01  0.69987064524E+01  0.00000000000E+00 0. -1.
         21   -1    0    0  503  502 -0.00000000000E+00 -0.00000000000E+00 -0.12387451790E+03  0.12387451790E+03  0.00000000000E+00 0. -1.
         21    1    1    2  503  501  0.27025962506E+02  0.88486887039E+01 -0.75400962132E+02  0.80585402099E+02  0.00000000000E+00 0. -1.
         21    1    1    2  504  502 -0.27025962506E+02 -0.88486887039E+01 -0.41474849315E+02  0.50287822252E+02  0.00000000000E+00 0. -1.
</event>
<event>
 4    1  0.3183954E+006  0.2859388E+02  0.7546771E-02  0.1432222E+00
         21   -1    0    0  504  501  0.00000000000E+00  0.00000000000E+00  0.14584864807E+03  0.14584864807E+03  0.00000000000E+00 0.  1.
         21   -1    0    0  503  502 -0.00000000000E+00 -0.00000000000E+00 -0.58799425826E+01  0.58799425826E+01  0.00000000000E+00 0.  1.
         21    1    1    2  503  501 -0.13879011588E+02  0.24999663131E+02  0.53605811639E+02  0.60755190402E+02  0.00000000000E+00 0.  1.
         21    1    1    2  504  502  0.13879011588E+02 -0.24999663131E+02  0.86362893847E+02  0.90973400250E+02  0.00000000000E+00 0.  1.
</event>
<event>
 4    1  0.3183954E+006  0.2075823E+02  0.7546771E-02  0.1522745E+00
         21   -1    0    0  503  501  0.00000000000E+00  0.00000000000E+00  0.72291247721E+02  0.72291247721E+02  0.00000000000E+00 0. -1.
         21   -1    0    0  501  502 -0.00000000000E+00 -0.00000000000E+00 -0.37003522577E+03  0.37003522577E+03  0.00000000000E+00 0. -1.
         21    1    1    2  503  504  0.20700614135E+02  0.15455636565E+01  0.70502724935E+02  0.73495159132E+02  0.00000000000E+00 0. -1.
         21    1    1    2  504  502 -0.20700614135E+02 -0.15455636565E+01 -0.36824670298E+03  0.36883131436E+03  0.00000000000E+00 0. -1.
</event>
<event>
 4    1  0.3183954E+006  0.2611296E+02  0.7546771E-02  0.1456728E+00
         21   -1    0    0  503  501  0.00000000000E+00  0.00000000000E+00  0.33504297493E+02  0.33504297493E+02  0.00000000000E+00 0. -1.
         21   -1    0    0  504  502 -0.00000000000E+00 -0.00000000000E+00 -0.34558575336E+02  0.34558575336E+02  0.00000000000E+00 0.  1.
         21    1    1    2  503  502  0.36164707862E+01 -0.25861320177E+02  0.21292308274E+02  0.33693458325E+02  0.00000000000E+00 0. -1.
         21    1    1    2  504  501 -0.36164707862E+01  0.25861320177E+02 -0.22346586117E+02  0.34369414504E+02  0.00000000000E+00 0.  1.
</event>
<event>
 4    1  0.3183954E+006  0.2183785E+02  0.7546771E-02  0.1507631E+00
         21   -1    0    0  503  501  0.00000000000E+00  0.00000000000E+00  0.38540154693E+02  0.38540154693E+02  0.00000000000E+00 0.  1.
         21   -1    0    0  504  502 -0.00000000000E+00 -0.00000000000E+00 -0.24192110283E+02  0.24192110283E+02  0.00000000000E+00 0.  1.
         21    1    1    2  503  502 -0.20036207925E+02  0.86857389779E+01 -0.14748984159E+02  0.26351930163E+02  0.00000000000E+00 0.  1.
         21    1    1    2  504  501  0.20036207925E+02 -0.86857389779E+01  0.29097028569E+02  0.36380334813E+02  0.00000000000E+00 0.  1.
</event>
<event>
 4    1  0.3183954E+006  0.2039317E+02  0.7546771E-02  0.1528108E+00
         21   -1    0    0  502  501  0.00000000000E+00  0.00000000000E+00  0.22214491164E+01  0.22214491164E+01  0.00000000000E+00 0.  1.
         21   -1    0    0  504  502 -0.00000000000E+00 -0.00000000000E+00 -0.50335788144E+03  0.50335788144E+03  0.00000000000E+00 0. -1.
         21    1    1    2  503  501 -0.14869669344E+02 -0.13956151510E+02 -0.50229512537E+02  0.54211485509E+02  0.00000000000E+00 0.  1.
         21    1    1    2  504  503  0.14869669344E+02  0.13956151510E+02 -0.45090691979E+03  0.45136784505E+03  0.00000000000E+00 0. -1.
</event>
<event>
 4    1  0.3183954E+006  0.3578170E+02  0.7546771E-02  0.1375149E+00
         21   -1    0    0  504  501  0.00000000000E+00  0.00000000000E+00  0.34755520225E+02  0.34755520225E+02  0.00000000000E+00 0. -1.
         21   -1    0    0  503  502 -0.00000000000E+00 -0.00000000000E+00 -0.42216089545E+02  0.42216089545E+02  0.00000000000E+00 0. -1.
         21    1    1    2  503  501  0.15934729082E+02 -0.32037698438E+02  0.10005984163E+02  0.37154399890E+02  0.00000000000E+00 0. -1.
         21    1    1    2  504  502 -0.15934729082E+02  0.32037698438E+02 -0.17466553483E+02  0.39817209881E+02  0.00000000000E+00 0. -1.
</event>
<event>
 4    1  0.3183954E+006  0.2115862E+02  0.7546771E-02  0.1517012E+00
         21   -1    0    0  502  501  0.00000000000E+00  0.00000000000E+00  0.61557155399E+02  0.61557155399E+02  0.00000000000E+00 0.  1.
         21   -1    0    0  504  502 -0.00000000000E+00 -0.00000000000E+00 -0.35665808211E+02  0.35665808211E+02  0.00000000000E+00 0.  1.
         21    1    1    2  503  501  0.18593909828E+02  0.10097221894E+02  0.56318648702E+02  0.60162094082E+02  0.00000000000E+00 0.  1.
         21    1    1    2  504  503 -0.18593909828E+02 -0.10097221894E+02 -0.30427301515E+02  0.37060869528E+02  0.00000000000E+00 0.  1.
</event>
<event>
 4    1  0.3183954E+006  0.2058707E+02  0.7546771E-02  0.1525243E+00
         21   -1    0    0  504  501  0.00000000000E+00  0.00000000000E+00  0.23523103328E+03  0.23523103328E+03  0.00000000000E+00 0.  1.
         21   -1    0    0  501  502 -0.00000000000E+00 -0.00000000000E+00 -0.93425417307E+01  0.93425417307E+01  0.00000000000E+00 0. -1.
         21    1    1    2  503  502  0.15066212039E+02  0.14029856825E+02  0.30802293092E+01  0.20816230214E+02  0.00000000000E+00 0. -1.
         21    1    1    2  504  503 -0.15066212039E+02 -0.14029856825E+02  0.22280826224E+03  0.22375734480E+03  0.00000000000E+00 0.  1.
</event>
<event>
 4    1  0.3183954E+006  0.3203354E+02  0.7546771E-02  0.1402711E+00
         21   -1    0    0  504  501  0.00000000000E+00  0.00000000000E+00  0.12065177248E+03  0.12065177248E+03  0.00000000000E+00 0. -1.
         21   -1    0    0  501  502 -0.00000000000E+00 -0.00000000000E+00 -0.55959326595E+02  0.55959326595E+02  0.00000000000E+00 0. -1.
         21    1    1    2  503  502  0.13944570371E+02  0.28839155807E+02 -0.48972301529E+02  0.58518665976E+02  0.00000000000E+00 0. -1.
         21    1    1    2  504  503 -0.13944570371E+02 -0.28839155807E+02  0.11366474742E+03  0.11809243310E+03  0.00000000000E+00 0. -1.
</event>
<event>
 4    1  0.3183954E+006  0.2197171E+02  0.7546771E-02  0.1505830E+00
         21   -1    0    0  502  501  0.00000000000E+00  0.00000000000E+00  0.74829917221E+03  0.74829917221E+03  0.00000000000E+00 0. -1.
         21   -1    0    0  503  502 -0.00000000000E+00 -0.00000000000E+00 -0.13033805848E+01  0.13033805848E+01  0.00000000000E+00 0.  1.
         21    1    1    2  503  504 -0.14441768166E+02  0.16558729243E+02  0.10714437187E+03  0.10937400333E+03  0.00000000000E+00 0.  1.
         21    1    1    2  504  501  0.14441768166E+02 -0.16558729243E+02  0.63985141976E+03  0.64022854946E+03  0.00000000000E+00 0. -1.
</event>
<event>
 4    1  0.3183954E+006  0.2832546E+02  0.7546771E-02  0.1434729E+00
         21   -1    0    0  504  501  0.00000000000E+00  0.00000000000E+00  0.11238289236E+03  0.11238289236E+03  0.00000000000E+00 0.  1.
         21   -1    0    0  503  502 -0.00000000000E+00 -0.00000000000E+00 -0.57763934604E+02  0.57763934604E+02  0.00000000000E+00 0.  1.
         21    1    1    2  503  501  0.28149303139E+02  0.31540834503E+01 -0.52333329533E+02  0.59507217123E+02  0.00000000000E+00 0.  1.
         21    1    1    2  504  502 -0.28149303139E+02 -0.31540834503E+01  0.10695228729E+03  0.11063960984E+03  0.00000000000E+00 0.  1.
</event>
<event>
 4    1  0.3183954E+006  0.2383545E+02  0.7546771E-02  0.1482266E+00
         21   -1    0    0  504  501  0.00000000000E+00  0.00000000000E+00  0.82947242079E+01  0.82947242079E+01  0.00000000000E+00 0.  1.
         21   -1    0    0  503  502 -0.00000000000E+00 -0.00000000000E+00 -0.13587140826E+03  0.13587140826E+03  0.00000000000E+00 0. -1.
         21    1    1    2  503  501 -0.15068858279E+02  0.18467765974E+02 -0.11454935009E+03  0.11700291653E+03  0.00000000000E+00 0. -1.
         21    1    1    2  504  502  0.15068858279E+02 -0.18467765974E+02 -0.13027333956E+02  0.27163215935E+02  0.00000000000E+00 0.  1.
</event>
<event>
 4    1  0.3183954E+006  0.4972476E+02  0.7546771E-02  0.1299370E+00
         21   -1    0    0  502  501  0.00000000000E+00  0.00000000000E+00  0.32840564784E+02  0.32840564784E+02  0.00000000000E+00 0.  1.
         21   -1    0    0  503  502 -0.00000000000E+00 -0.00000000000E+00 -0.25474187756E+03  0.25474187756E+03  0.00000000000E+00 0. -1.
         21    1    1    2  503  504  0.39527429246E+02  0.30168427385E+02 -0.23163661239E+03  0.23691363801E+03  0.00000000000E+00 0. -1.
         21    1    1    2  504  501 -0.39527429246E+02 -0.30168427385E+02  0.97352996206E+01  0.50668804331E+02  0.00000000000E+00 0.  1.
</event>
<event>
 4    1  0.3183954E+006  0.2033605E+02  0.7546771E-02  0.1528959E+00
         21   -1    0    0  504  501  0.00000000000E+00  0.00000000000E+00  0.12224052516E+03  0.12224052516E+03  0.00000000000E+00 0. -1.
         21   -1    0    0  501  502 -0.00000000000E+00 -0.00000000000E+00 -0.14905333945E+03  0.14905333945E+03  0.00000000000E+00 0. -1.
         21    1    1    2  503  502  0.19991061255E+02  0.37299078602E+01 -0.14750508744E+03  0.14890032090E+03  0.00000000000E+00 0. -1.
         21    1    1    2  504  503 -0.19991061255E+02 -0.37299078602E+01  0.12069227315E+03  0.12239354371E+03  0.00000000000E+00 0. -1.
</event>
<event>
 4    1  0.3183954E+006  0.2213399E+02  0.7546771E-02  0.1503669E+00
         21   -1    0    0  504  501  0.00000000000E+00  0.00000000000E+00  0.13571810214E+03  0.13571810214E+03  0.00000000000E+00 0. -1.
         21   -1    0    0  501  502 -0.00000000000E+00 -0.00000000000E+00 -0.12690556277E+02  0.12690556277E+02  0.00000000000E+00 0.  1.
         21    1    1    2  503  502  0.18616585351E+02  0.11972313498E+02 -0.12559507580E+01  0.22169595236E+02  0.00000000000E+00 0.  1.
         21    1    1    2  504  503 -0.18616585351E+02 -0.11972313498E+02  0.12428349662E+03  0.12623906318E+03  0.00000000000E+00 0. -1.
</event>
<event>
 4    1  0.3183954E+006  0.4161499E+02  0.7546771E-02  0.1339273E+00
         21   -1    0    0  503  501  0.00000000000E+00  0.00000000000E+00  0.12466259030E+03  0.12466259030E+03  0.00000000000E+00 0. -1.
         21   -1    0    0  504  502 -0.00000000000E+00 -0.00000000000E+00 -0.50628654298E+02  0.50628654298E+02  0.00000000000E+00 0.  1.
         21    1    1    2  503  502  0.38755404618E+02  0.15160024512E+02  0.11167595165E+03  0.11917770726E+03  0.00000000000E+00 0. -1.
         21    1    1    2  504  501 -0.38755404618E+02 -0.15160024512E+02 -0.37642015651E+02  0.56113537338E+02  0.00000000000E+00 0.  1.
</event>
<event>
 4    1  0.3183954E+006  0.3148232E+02  0.7546771E-02  0.1407138E+00
         21   -1    0    0  503  501  0.00000000000E+00  0.00000000000E+00  0.15406791136E+02  0.15406791136E+02  0.00000000000E+00 0. -1.
         21   -1    0    0  504  502 -0.00000000000E+00 -0.00000000000E+00 -0.92116054249E+02  0.92116054249E+02  0.00000000000E+00 0. -1.
         21    1    1    2  503  502  0.25302447941E+01  0.31380476151E+02 -0.88284267630E+01  0.32696751234E+02  0.00000000000E+00 0. -1.
         21    1    1    2  504  501 -0.25302447941E+01 -0.31380476151E+02 -0.67880836351E+02  0.74826094151E+02  0.00000000000E+00 0. -1.
</event>
<event>
 4    1  0.3183954E+006  0.2282278E+02  0.7546771E-02  0.1494736E+00
         21   -1    0    0  502  501  0.00000000000E+00  0.00000000000E+00  0.10866048794E+03  0.10866048794E+03  0.00000000000E+00 0.  1.
         21   -1    0    0  504  502 -0.00000000000E+00 -0.00000000000E+00 -0.16977389075E+03  0.16977389075E+03  0.00000000000E+00 0.  1.
         21    1    1    2  503  501  0.21565333768E+02  0.74709994271E+01  0.10668098504E+03  0.10909496791E+03  0.00000000000E+00 0.  1.
         21    1    1    2  504  503 -0.21565333768E+02 -0.74709994271E+01 -0.16779438785E+03  0.16933941079E+03  0.00000000000E+00 0.  1.
</event>
<event>
 4    1  0.3183954E+006  0.2450548E+02  0.7546771E-02  0.1474412E+00
         21   -1    0    0  503  501  0.00000000000E+00  0.00000000000E+00  0.93687255668E+02  0.93687255668E+02  0.00000000000E+00 0. -1.
         21   -1    0    0  504  502 -0.00000000000E+00 -0.00000000000E+00 -0.65068457587E+01  0.65068457587E+01  0.00000000000E+00 0. -1.
         21    1    1    2  503  502 -0.20169948747E+01 -0.24422327188E+02  0.49707692459E+02  0.55419969535E+02  0.00000000000E+00 0. -1.
         21    1    1    2  504  501  0.20169948747E+01  0.24422327188E+02  0.37472717450E+02  0.44774131892E+02  0.00000000000E+00 0. -1.
</event>
<event>
 4    1  0.3183954E+006  0.2077901E+02  0.7546771E-02  0.1522444E+00
         21   -1    0    0  504  501  0.00000000000E+00  0.00000000000E+00  0.26004954447E+02  0.26004954447E+02  0.00000000000E+00 0. -1.
         21   -1    0    0  503  502 -0.00000000000E+00 -0.00000000000E+00 -0.22675645240E+02  0.22675645240E+02  0.00000000000E+00 0. -1.
         21    1    1    2  503  501 -0.11693594338E+02 -0.17176350354E+02  0.14260448983E+02  0.25201737345E+02  0.00000000000E+00 0. -1.
         21    1    1    2  504  502  0.11693594338E+02  0.17176350354E+02 -0.10931139776E+02  0.23478862341E+02  0.00000000000E+00 0. -1.
</event>
<event>
 4    1  0.3183954E+006  0.3344669E+02  0.7546771E-02  0.1391825E+00
         21   -1    0    0  504  501  0.00000000000E+00  0.00000000000E+00  0.43380021880E+02  0.43380021880E+02  0.00000000000E+00 0. -1.
         21   -1    0    0  503  502 -0.00000000000E+00 -0.00000000000E+00 -0.80422876708E+02  0.80422876708E+02  0.00000000000E+00 0.  1.
         21    1    1    2  503  501  0.14507187982E+02 -0.30136732436E+02  0.32499254759E+02  0.46635637714E+02  0.00000000000E+00 0. -1.
         21    1    1    2  504  502 -0.14507187982E+02  0.30136732436E+02 -0.69542109587E+02  0.77167260875E+02  0.00000000000E+00 0.  1.
</event>
<event>
 4    1  0.3183954E+006  0.4050461E+02  0.7546771E-02  0.1345554E+00
         21   -1    0    0  504  501  0.00000000000E+00  0.00000000000E+00  0.54973351812E+01  0.54973351812E+01  0.00000000000E+00 0. -1.
         21   -1    0    0  501  502 -0.00000000000E+00 -0.00000000000E+00 -0.29851853733E+03  0.29851853733E+03  0.00000000000E+00 0. -1.
         21    1    1    2  503  502  0.50988238534E+01  0.40182405717E+02 -0.14404223373E+03  0.14962883690E+03  0.00000000000E+00 0. -1.
         21    1    1    2  504  503 -0.50988238534E+01 -0.40182405717E+02 -0.14897896842E+03  0.15438703561E+03  0.00000000000E+00 0. -1.
</event>
<event>
 4    1  0.3183954E+006  0.2668600E+02  0.7546771E-02  0.1450788E+00
         21   -1    0    0  504  501  0.00000000000E+00  0.00000000000E+00  0.19289774467E+02  0.19289774467E+02  0.00000000000E+00 0.  1.
         21   -1    0    0  503  502 -0.00000000000E+00 -0.00000000000E+00 -0.81270589456E+02  0.81270589456E+02  0.00000000000E+00 0. -1.
         21    1    1    2  503  501  0.17631884746E+02  0.20031457405E+02  0.61536144895E+01  0.27386303452E+02  0.00000000000E+00 0.  1.
         21    1    1    2  504  502 -0.17631884746E+02 -0.20031457405E+02 -0.68134429479E+02  0.73174060471E+02  0.00000000000E+00 0. -1.
</event>
<event>
 4    1  0.3183954E+006  0.2213111E+02  0.7546771E-02  0.1503707E+00
         21   -1    0    0  503  501  0.00000000000E+00  0.00000000000E+00  0.17391134915E+03  0.17391134915E+03  0.00000000000E+00 0. -1.
         21   -1    0    0  504  502 -0.00000000000E+00 -0.00000000000E+00 -0.38087472539E+01  0.38087472539E+01  0.00000000000E+00 0.  1.
         21    1    1    2  503  502 -0.20817507020E+01  0.22032981567E+02  0.39691629348E+02  0.45444597072E+02  0.00000000000E+00 0.  1.
         21    1    1    2  504  501  0.20817507020E+01 -0.22032981567E+02  0.13041097255E+03  0.13227549933E+03  0.00000000000E+00 0. -1.
</event>
<event>
 4    1  0.3183954E+006  0.2610154E+02  0.7546771E-02  0.1456848E+00
         21   -1    0    0  504  501  0.00000000000E+00  0.00000000000E+00  0.34186769107E+02  0.34186769107E+02  0.00000000000E+00 0.  1.
         21   -1    0    0  503  502 -0.00000000000E+00 -0.00000000000E+00 -0.22125045678E+02  0.22125045678E+02  0.00000000000E+00 0.  1.
         21    1    1    2  503  501 -0.84060739903E+01 -0.24710892858E+02 -0.28406912240E+01  0.26255662864E+02  0.00000000000E+00 0.  1.
         21    1    1    2  504  502  0.84060739903E+01  0.24710892858E+02  0.14902414653E+02  0.30056151921E+02  0.00000000000E+00 0.  1.
</event>
<event>
 4    1  0.3183954E+006  0.2003760E+02  0.7546771E-02  0.1533462E+00
         21   -1    0    0  504  501  0.00000000000E+00  0.00000000000E+00  0.59087516817E+01  0.59087516817E+01  0.00000000000E+00 0.  1.
         21   -1    0    0  503  502 -0.00000000000E+00 -0.00000000000E+00 -0.74676511760E+02  0.74676511760E+02  0.00000000000E+00 0.  1.
         21    1    1    2  503  501 -0.13056113580E+01 -0.19995017552E+02 -0.46475864747E+02  0.50611375716E+02  0.00000000000E+00 0.  1.
         21    1    1    2  504  502  0.13056113580E+01  0.19995017552E+02 -0.22291895332E+02  0.29973887726E+02  0.00000000000E+00 0.  1.
</event>
<event>
 4    1  0.3183954E+006  0.2012725E+02  0.7546771E-02  0.1532099E+00
         21   -1    0    0  502  501  0.00000000000E+00  0.00000000000E+00  0.84764680384E+01  0.84764680384E+01  0.00000000000E+00 0. -1.
         21   -1    0    0  503  502 -0.00000000000E+00 -0.00000000000E+00 -0.10934922050E+03  0.10934922050E+03  0.00000000000E+00 0. -1.
         21    1    1    2  503  504 -0.18384807905E+02  0.81917544734E+01 -0.94638405795E+02  0.96755019790E+02  0.00000000000E+00 0. -1.
         21    1    1    2  504  501  0.18384807905E+02 -0.81917544734E+01 -0.62343466625E+01  0.21070668745E+02  0.00000000000E+00 0. -1.
</event>
<event>
 4    1  0.3183954E+006  0.2275376E+02  0.7546771E-02  0.1495614E+00
         21   -1    0    0  504  501  0.00000000000E+00  0.00000000000E+00  0.29500853969E+03  0.29500853969E+03  0.00000000000E+00 0.  1.
         21   -1    0    0  503  502 -0.00000000000E+00 -0.00000000000E+00 -0.18898672833E+01  0.18898672833E+01  0.00000000000E+00 0.  1.
         21    1    1    2  503  501 -0.13391524969E+02 -0.18395665591E+02  0.10689947600E+03  0.10929424241E+03  0.00000000000E+00 0.  1.
         21    1    1    2  504  502  0.13391524969E+02  0.18395665591E+02  0.18621919641E+03  0.18760416457E+03  0.00000000000E+00 0.  1.
</event>
<event>
 4    1  0.3183954E+006  0.2084540E+02  0.7546771E-02  0.1521484E+00
         21   -1    0    0  503  501  0.00000000000E+00  0.00000000000E+00  0.25788071325E+02  0.25788071325E+02  0.00000000000E+00 0. -1.
         21   -1    0    0  501  502 -0.00000000000E+00 -0.00000000000E+00 -0.62890925302E+02  0.62890925302E+02  0.00000000000E+00 0. -1.
         21    1    1    2  503  504  0.20752872224E+02 -0.19619289992E+01  0.19386051525E+02  0.28466644774E+02  0.00000000000E+00 0. -1.
         21    1    1    2  504  502 -0.20752872224E+02  0.19619289992E+01 -0.56488905502E+02  0.60212351854E+02  0.00000000000E+00 0. -1.
</event>
<event>
 4    1  0.3183954E+006  0.2462520E+02  0.7546771E-02  0.1473040E+00
         21   -1    0    0  503  501  0.00000000000E+00  0.00000000000E+00  0.80051708959E+01  0.80051708959E+01  0.00000000000E+00 0. -1.
         21   -1    0    0  501  502 -0.00000000000E+00 -0.00000000000E+00 -0.14501083875E+03  0.14501083875E+03  0.00000000000E+00 0. -1.
         21    1    1    2  503  504  0.23354425972E+02 -0.78084150278E+01 -0.15628239807E+02  0.29165775100E+02  0.00000000000E+00 0. -1.
         21    1    1    2  504  502 -0.23354425972E+02  0.78084150278E+01 -0.12137742805E+03  0.12385023455E+03  0.00000000000E+00 0. -1.
</event>
<event>
 4    1  0.3183954E+006  0.2542098E+02  0.7546771E-02  0.1464149E+00
         21   -1    0    0  503  501  0.00000000000E+00  0.00000000000E+00  0.53555297807E+01  0.53555297807E+01  0.00000000000E+00 0.  1.
         21   -1    0    0  504  502 -0.00000000000E+00 -0.00000000000E+00 -0.29091240753E+03  0.29091240753E+03  0.00000000000E+00 0.  1.
         21    1    1    2  503  502  0.35696420883E+01  0.25169100917E+02 -0.29456615160E+02  0.38909101279E+02  0.00000000000E+00 0.  1.
         21    1    1    2  504  501 -0.35696420883E+01 -0.25169100917E+02 -0.25610026259E+03  0.25735883603E+03  0.00000000000E+00 0.  1.
</event>
<event>
 4    1  0.3183954E+006  0.3102963E+02  0.7546771E-02  0.1410855E+00
         21   -1    0    0  503  501  0.00000000000E+00  0.00000000000E+00  0.23387138528E+02  0.23387138528E+02  0.00000000000E+00 0. -1.
         21   -1    0    0  504  502 -0.00000000000E+00 -0.00000000000E+00 -0.42171669818E+02  0.42171669818E+02  0.00000000000E+00 0. -1.
         21    1    1    2  503  502  0.18166500223E+02 -0.25155841132E+02 -0.14445268158E+02  0.34227238358E+02  0.00000000000E+00 0. -1.
         21    1    1    2  504  501 -0.18166500223E+02  0.25155841132E+02 -0.43392631316E+01  0.31331569988E+02  0.00000000000E+00 0. -1.
</event>
<event>
 4    1  0.3183954E+006  0.2860779E+02  0.7546771E-02  0.1432093E+00
         21   -1    0    0  504  501  0.00000000000E+00  0.00000000000E+00  0.81525495252E+02  0.81525495252E+02  0.00000000000E+00 0.  1.
         21   -1    0    0  503  502 -0.00000000000E+00 -0.00000000000E+00 -0.15862441651E+03  0.15862441651E+03  0.00000000000E+00 0.  1.
         21    1    1    2  503  501 -0.13979580008E+02 -0.24959506824E+02  0.77663890953E+02  0.82765243889E+02  0.00000000000E+00 0.  1.
         21    1    1    2  504  502  0.13979580008E+02  0.24959506824E+02 -0.15476281221E+03  0.15738466788E+03  0.00000000000E+00 0.  1.
</event>
<event>
 4    1  0.3183954E+006  0.2364741E+02  0.7546771E-02  0.1484525E+00
         21   -1    0    0  504  501  0.00000000000E+00  0.00000000000E+00  0.36102673913E+03  0.36102673913E+03  0.00000000000E+00 0. -1.
         21   -1    0    0  503  502 -0.00000000000E+00 -0.00000000000E+00 -0.24588519658E+02  0.24588519658E+02  0.00000000000E+00 0. -1.
         21    1    1    2  503  501  0.28246739710E+01  0.23478102746E+02 -0.18416936383E+02  0.29973048515E+02  0.00000000000E+00 0. -1.
         21    1    1    2  504  502 -0.28246739710E+01 -0.23478102746E+02  0.35485515586E+03  0.35564221028E+03  0.00000000000E+00 0. -1.
</event>
<event>
 4    1  0.3183954E+006  0.2058998E+02  0.7546771E-02  0.1525200E+00
         21   -1    0    0  503  501  0.00000000000E+00  0.00000000000E+00  0.56743109183E+02  0.56743109183E+02  0.00000000000E+00 0.  1.
         21   -1    0    0  504  502 -0.00000000000E+00 -0.00000000000E+00 -0.26749716427E+03  0.26749716427E+03  0.00000000000E+00 0.  1.
         21    1    1    2  503  502  0.19228354582E+02  0.73632673500E+01 -0.26521707768E+03  0.26601512291E+03  0.00000000000E+00 0.  1.
         21    1    1    2  504  501 -0.19228354582E+02 -0.73632673500E+01  0.54463022590E+02  0.58225150542E+02  0.00000000000E+00 0.  1.
</event>
<event>
 4    1  0.3183954E+006  0.2426734E+02  0.7546771E-02  0.1477169E+00
         21   -1    0    0  504  501  0.00000000000E+00  0.00000000000E+00  0.36923131571E+03  0.36923131571E+03  0.00000000000E+00 0.  1.
         21   -1    0    0  501  502 -0.00000000000E+00 -0.00000000000E+00 -0.88729830239E+01  0.88729830239E+01  0.00000000000E+00 0.  1.
         21    1    1    2  503  502  0.19283252886E+02 -0.14732951701E+02  0.89593808216E+01  0.25868401814E+02  0.00000000000E+00 0.  1.
         21    1    1    2  504  503 -0.19283252886E+02  0.14732951701E+02  0.35139895186E+03  0.35223589692E+03  0.00000000000E+00 0.  1.
</event>
<event>
 4    1  0.3183954E+006  0.2251182E+02  0.7546771E-02  0.1498721E+00
         21   -1    0    0  504  501  0.00000000000E+00  0.00000000000E+00  0.48030784607E+02  0.48030784607E+02  0.00000000000E+00 0.  1.
         21   -1    0    0  503  502 -0.00000000000E+00 -0.00000000000E+00 -0.17231311393E+02  0.17231311393E+02  0.00000000000E+00 0.  1.
         21    1    1    2  503  501  0.22368645333E+02  0.25349452741E+01 -0.49174620026E+01  0.23042649026E+02  0.00000000000E+00 0.  1.
         21    1    1    2  504  502 -0.22368645333E+02 -0.25349452741E+01  0.35716935216E+02  0.42219446974E+02  0.00000000000E+00 0.  1.
</event>
<event>
 4    1  0.3183954E+006  0.2243915E+02  0.7546771E-02  0.1499663E+00
         21   -1    0    0  504  501  0.00000000000E+00  0.00000000000E+00  0.76755893081E+02  0.76755893081E+02  0.00000000000E+00 0. -1.
         21   -1    0    0  503  502 -0.00000000000E+00 -0.00000000000E+00 -0.68121866934E+01  0.68121866934E+01  0.00000000000E+00 0. -1.
         21    1    1    2  503  501  0.11357983674E+02  0.19352302433E+02  0.26931691851E+02  0.35054691962E+02  0.00000000000E+00 0. -1.
         21    1    1    2  504  502 -0.11357983674E+02 -0.19352302433E+02  0.43012014536E+02  0.48513387813E+02  0.00000000000E+00 0. -1.
</event>
<event>
 4    1  0.3183954E+006  0.4865673E+02  0.7546771E-02  0.1304104E+00
         21   -1    0    0  504  501  0.00000000000E+00  0.00000000000E+00  0.30714114365E+03  0.30714114365E+03  0.00000000000E+00 0. -1.
         21   -1    0    0  501  502 -0.00000000000E+00 -0.00000000000E+00 -0.10907105414E+02  0.10907105414E+02  0.00000000000E+00 0.  1.
         21    1    1    2  503  502  0.30783375114E+02  0.37681044227E+02  0.61994809311E+02  0.78808842517E+02  0.00000000000E+00 0.  1.
         21    1    1    2  504  503 -0.30783375114E+02 -0.37681044227E+02  0.23423922892E+03  0.23923940654E+03  0.00000000000E+00 0. -1.
</event>
<event>
 4    1  0.3183954E+006  0.2426913E+02  0.7546771E-02  0.1477148E+00
         21   -1    0    0  504  501  0.00000000000E+00  0.00000000000E+00  0.83370887333E+03  0.83370887333E+03  0.00000000000E+00 0.  1.
         21   -1    0    0  503  502 -0.00000000000E+00 -0.00000000000E+00 -0.70988271384E+00  0.70988271384E+00  0.00000000000E+00 0.  1.
         21    1    1    2  503  501  0.16100462193E+02  0.18159460524E+02  0.44542402492E+03  0.44608469248E+03  0.00000000000E+00 0.  1.
         21    1    1    2  504  502 -0.16100462193E+02 -0.18159460524E+02  0.38757496570E+03  0.38833406356E+03  0.00000000000E+00 0.  1.
</event>
<event>
 4    1  0.3183954E+006  0.3782964E+02  0.7546771E-02  0.1361696E+00
         21   -1    0    0  504  501  0.00000000000E+00  0.00000000000E+00  0.40459971711E+02  0.40459971711E+02  0.00000000000E+00 0. -1.
         21   -1    0    0  503  502 -0.00000000000E+00 -0.00000000000E+00 -0.36262346870E+02  0.36262346870E+02  0.00000000000E+00 0. -1.
         21    1    1    2  503  501  0.34545307459E+02  0.15417640589E+02 -0.39178295468E+01  0.38031977297E+02  0.00000000000E+00 0. -1.
         21    1    1    2  504  502 -0.34545307459E+02 -0.15417640589E+02  0.81154543874E+01  0.38690341284E+02  0.00000000000E+00 0. -1.
</event>
<event>
 4    1  0.3183954E+006  0.2762246E+02  0.7546771E-02  0.1441454E+00
         21   -1    0    0  503  501  0.00000000000E+00  0.00000000000E+00  0.22003866647E+01  0.22003866647E+01  0.00000000000E+00 0. -1.
         21   -1    0    0  504  502 -0.00000000000E+00 -0.00000000000E+00 -0.39235431208E+03  0.39235431208E+03  0.00000000000E+00 0. -1.
         21    1    1    2  503  502 -0.21277968493E+02 -0.17613874836E+02 -0.12782493938E+03  0.13077543981E+03  0.00000000000E+00 0. -1.
         21    1    1    2  504  501  0.21277968493E+02  0.17613874836E+02 -0.26232898604E+03  0.26377925894E+03  0.00000000000E+00 0. -1.
</event>
<event>
 4    1  0.3183954E+006  0.2117117E+02  0.7546771E-02  0.1516835E+00
         21   -1    0    0  502  501  0.00000000000E+00  0.00000000000E+00  0.51244942525E+03  0.51244942525E+03  0.00000000000E+00 0.  1.
         21   -1    0    0  503  502 -0.00000000000E+00 -0.00000000000E+00 -0.56949191891E+02  0.56949191891E+02  0.00000000000E+00 0. -1.
         21    1    1    2  503  504 -0.14116038411E+02 -0.15778341965E+02 -0.54754442410E+02  0.58704919549E+02  0.00000000000E+00 0. -1.
         21    1    1    2  504  501  0.14116038411E+02  0.15778341965E+02  0.51025467577E+03  0.51069369759E+03  0.00000000000E+00 0.  1.
</event>
<event>
 4    1  0.3183954E+006  0.2701398E+02  0.7546771E-02  0.1447468E+00
         21   -1    0    0  504  501  0.00000000000E+00  0.00000000000E+00  0.61106649576E+01  0.61106649576E+01  0.00000000000E+00 0. -1.
         21   -1    0    0  503  502 -0.00000000000E+00 -0.00000000000E+00 -0.14298003527E+03  0.14298003527E+03  0.00000000000E+00 0. -1.
         21    1    1    2  503  501 -0.24982699132E+02 -0.10277145991E+02 -0.38176588944E+02  0.46767584169E+02  0.00000000000E+00 0. -1.
         21    1    1    2  504  502  0.24982699132E+02  0.10277145991E+02 -0.98692781369E+02  0.10232311606E+03  0.00000000000E+00 0. -1.
</event>
<event>
 4    1  0.3183954E+006  0.2684889E+02  0.7546771E-02  0.1449132E+00
         21   -1    0    0  504  501  0.00000000000E+00  0.00000000000E+00  0.48537115169E+03  0.48537115169E+03  0.00000000000E+00 0. -1.
         21   -1    0    0  503  502 -0.00000000000E+00 -0.00000000000E+00 -0.31086286336E+02  0.31086286336E+02  0.00000000000E+00 0.  1.
         21    1    1    2  503  501  0.21332965851E+02 -0.16302381221E+02  0.47912708960E+03  0.47987876704E+03  0.00000000000E+00 0. -1.
         21    1    1    2  504  502 -0.21332965851E+02  0.16302381221E+02 -0.24842224249E+02  0.36578670986E+02  0.00000000000E+00 0.  1.
</event>
<event>
 4    1  0.3183954E+006  0.2670218E+02  0.7546771E-02  0.1450623E+00
         21   -1    0    0  504  501  0.00000000000E+00  0.00000000000E+00  0.57979639150E+01  0.57979639150E+01  0.00000000000E+00 0. -1.
         21   -1    0    0  503  502 -0.00000000000E+00 -0.00000000000E+00 -0.29858654462E+03  0.29858654462E+03  0.00000000000E+00 0. -1.
         21    1    1    2  503  501  0.23187987549E+02  0.13240987695E+02 -0.26311114020E+03  0.26446262235E+03  0.00000000000E+00 0. -1.
         21    1    1    2  504  502 -0.23187987549E+02 -0.13240987695E+02 -0.29677440501E+02  0.39921886183E+02  0.00000000000E+00 0. -1.
</event>
<event>
 4    1  0.3183954E+006  0.2181010E+02  0.7546771E-02  0.1508006E+00
         21   -1    0    0  504  501  0.00000000000E+00  0.00000000000E+00  0.52625288594E+02  0.52625288594E+02  0.00000000000E+00 0. -1.
         21   -1    0    0  503  502 -0.00000000000E+00 -0.00000000000E+00 -0.90758794057E+01  0.90758794057E+01  0.00000000000E+00 0.  1.
         21    1    1    2  503  501  0.21204949283E+02 -0.51020275539E+01  0.19808419120E+02  0.29462756614E+02  0.00000000000E+00 0.  1.
         21    1    1    2  504  502 -0.21204949283E+02  0.51020275539E+01  0.23740990069E+02  0.32238411386E+02  0.00000000000E+00 0. -1.
</event>
<event>
 4    1  0.3183954E+006  0.2303707E+02  0.7546771E-02  0.1492033E+00
         21   -1    0    0  502  501  0.00000000000E+00  0.00000000000E+00  0.11727928799E+03  0.11727928799E+03  0.00000000000E+00 0. -1.
         21   -1    0    0  504  502 -0.00000000000E+00 -0.00000000000E+00 -0.10492291403E+02  0.10492291403E+02  0.00000000000E+00 0. -1.
         21    1    1    2  503  501  0.32290553440E+01 -0.22809638748E+02  0.10157188414E+03  0.10415159176E+03  0.00000000000E+00 0. -1.
         21    1    1    2  504  503 -0.32290553440E+01  0.22809638748E+02  0.52151124542E+01  0.23619987641E+02  0.00000000000E+00 0. -1.
</event>
<event>
 4    1  0.3183954E+006  0.2264787E+02  0.7546771E-02  0.1496968E+00
         21   -1    0    0  503  501  0.00000000000E+00  0.00000000000E+00  0.35021837588E+02  0.35021837588E+02  0.00000000000E+00 0. -1.
         21   -1    0    0  504  502 -0.00000000000E+00 -0.00000000000E+00 -0.15029776837E+02  0.15029776837E+02  0.00000000000E+00 0. -1.
         21    1    1    2  503  502  0.22477766433E+02  0.27705577749E+01  0.59964581132E+01  0.23428262507E+02  0.00000000000E+00 0. -1.
         21    1    1    2  504  501 -0.22477766433E+02 -0.27705577749E+01  0.13995602638E+02  0.26623351918E+02  0.00000000000E+00 0. -1.
</event>
<event>
 4    1  0.3183954E+006  0.3289276E+02  0.7546771E-02  0.1396015E+00
         21   -1    0    0  503  501  0.00000000000E+00  0.00000000000E+00  0.14927017868E+03  0.14927017868E+03  0.00000000000E+00 0.  1.
         21   -1    0    0  504  502 -0.00000000000E+00 -0.00000000000E+00 -0.14779324147E+02  0.14779324147E+02  0.00000000000E+00 0.  1.
         21    1    1    2  503  502  0.34255588866E+01 -0.32713901458E+02  0.12579837414E+03  0.13002755377E+03  0.00000000000E+00 0.  1.
         21    1    1    2  504  501 -0.34255588866E+01  0.32713901458E+02  0.86924803898E+01  0.34021949057E+02  0.00000000000E+00 0.  1.
</event>
<event>
 4    1  0.3183954E+006  0.2498124E+02  0.7546771E-02  0.1469013E+00
         21   -1    0    0  504  501  0.00000000000E+00  0.00000000000E+00  0.84538633777E+02  0.84538633777E+02  0.00000000000E+00 0. -1.
         21   -1    0    0  501  502 -0.00000000000E+00 -0.00000000000E+00 -0.11944794915E+02  0.11944794915E+02  0.00000000000E+00 0.  1.
         21    1    1    2  503  502 -0.22690262074E+02  0.10450571470E+02  0.64808872977E+01  0.25808222279E+02  0.00000000000E+00 0.  1.
         21    1    1    2  504  503  0.22690262074E+02 -0.10450571470E+02  0.66112951565E+02  0.70675206414E+02  0.00000000000E+00 0. -1.
</event>
<event>
 4    1  0.3183954E+006  0.2548423E+02  0.7546771E-02  0.1463459E+00
         21   -1    0    0  504  501  0.00000000000E+00  0.00000000000E+00  0.47359597372E+01  0.47359597372E+01  0.00000000000E+00 0. -1.
         21   -1    0    0  501  502 -0.00000000000E+00 -0.00000000000E+00 -0.13755275038E+03  0.13755275038E+03  0.00000000000E+00 0. -1.
         21    1    1    2  503  502 -0.21404942997E+02  0.13830199452E+02 -0.70348707451E+02  0.74822367255E+02  0.00000000000E+00 0. -1.
         21    1    1    2  504  503  0.21404942997E+02 -0.13830199452E+02 -0.62468083196E+02  0.67466342866E+02  0.00000000000E+00 0. -1.
</event>
<event>
 4    1  0.3183954E+006  0.2130607E+02  0.7546771E-02  0.1514940E+00
         21   -1    0    0  504  501  0.00000000000E+00  0.00000000000E+00  0.42572460948E+03  0.42572460948E+03  0.00000000000E+00 0.  1.
         21   -1    0    0  501  502 -0.00000000000E+00 -0.00000000000E+00 -0.64316404948E+01  0.64316404948E+01  0.00000000000E+00 0.  1.
         21    1    1    2  503  502  0.20145324649E+02 -0.69364579865E+01  0.12291218953E+02  0.24597207523E+02  0.00000000000E+00 0.  1.
         21    1    1    2  504  503 -0.20145324649E+02  0.69364579865E+01  0.40700175003E+03  0.40755904245E+03  0.00000000000E+00 0.  1.
</event>
<event>
 4    1  0.3183954E+006  0.2780225E+02  0.7546771E-02  0.1439712E+00
         21   -1    0    0  503  501  0.00000000000E+00  0.00000000000E+00  0.11637560312E+03  0.11637560312E+03  0.00000000000E+00 0. -1.
         21   -1    0    0  504  502 -0.00000000000E+00 -0.00000000000E+00 -0.90211123329E+02  0.90211123329E+02  0.00000000000E+00 0.  1.
         21    1    1    2  503  502  0.11283151938E+02 -0.25409749958E+02 -0.86335832225E+02  0.90701934029E+02  0.00000000000E+00 0.  1.
         21    1    1    2  504  501 -0.11283151938E+02  0.25409749958E+02  0.11250031201E+03  0.11588479242E+03  0.00000000000E+00 0. -1.
</event>
<event>
 4    1  0.3183954E+006  0.2472501E+02  0.7546771E-02  0.1471903E+00
         21   -1    0    0  502  501  0.00000000000E+00  0.00000000000E+00  0.86426339094E+02  0.86426339094E+02  0.00000000000E+00 0.  1.
         21   -1    0    0  503  502 -0.00000000000E+00 -0.00000000000E+00 -0.38295170389E+02  0.38295170389E+02  0.00000000000E+00 0.  1.
         21    1    1    2  503  504 -0.67710582355E+01 -0.23779801400E+02 -0.32242178637E+02  0.40631075145E+02  0.00000000000E+00 0.  1.
         21    1    1    2  504  501  0.67710582355E+01  0.23779801400E+02  0.80373347341E+02  0.84090434338E+02  0.00000000000E+00 0.  1.
</event>
<event>
 4    1  0.3183954E+006  0.2337929E+02  0.7546771E-02  0.1487789E+00
         21   -1    0    0  503  501  0.00000000000E+00  0.00000000000E+00  0.82039714694E+01  0.82039714694E+01  0.00000000000E+00 0. -1.
         21   -1    0    0  504  502 -0.00000000000E+00 -0.00000000000E+00 -0.98512118722E+03  0.98512118722E+03  0.00000000000E+00 0.  1.
         21    1    1    2  503  502  0.16668841027E+02 -0.16393325934E+02 -0.96803217398E+03  0.96831445371E+03  0.00000000000E+00 0.  1.
         21    1    1    2  504  501 -0.16668841027E+02  0.16393325934E+02 -0.88850417673E+01  0.25010704980E+02  0.00000000000E+00 0. -1.
</event>
<event>
 4    1  0.3183954E+006  0.2365316E+02  0.7546771E-02  0.1484455E+00
         21   -1    0    0  504  501  0.00000000000E+00  0.00000000000E+00  0.48570488257E+01  0.48570488257E+01  0.00000000000E+00 0.  1.
         21   -1    0    0  501  502 -0.00000000000E+00 -0.00000000000E+00 -0.52001796102E+03  0.52001796102E+03  0.00000000000E+00 0.  1.
         21    1    1    2  503  502 -0.50748406527E+01  0.23102337350E+02 -0.48913496586E+03  0.48970653132E+03  0.00000000000E+00 0.  1.
         21    1    1    2  504  503  0.50748406527E+01 -0.23102337350E+02 -0.26025946337E+02  0.35168478520E+02  0.00000000000E+00 0.  1.
</event>
<event>
 4    1  0.3183954E+006  0.2347227E+02  0.7546771E-02  0.1486651E+00
         21   -1    0    0  504  501  0.00000000000E+00  0.00000000000E+00  0.97042714914E+00  0.97042714914E+00  0.00000000000E+00 0. -1.
         21   -1    0    0  503  502 -0.00000000000E+00 -0.00000000000E+00 -0.56950590722E+03  0.56950590722E+03  0.00000000000E+00 0. -1.
         21    1    1    2  503  501 -0.18696510904E+02  0.14191130071E+02 -0.30016322632E+03  0.30107957441E+03  0.00000000000E+00 0. -1.
         21    1    1    2  504  502  0.18696510904E+02 -0.14191130071E+02 -0.26837225375E+03  0.26939675996E+03  0.00000000000E+00 0. -1.
</event>
<event>
 4    1  0.3183954E+006  0.3053877E+02  0.7546771E-02  0.1414971E+00
         21   -1    0    0  503  501  0.00000000000E+00  0.00000000000E+00  0.17854969235E+02  0.17854969235E+02  0.00000000000E+00 0. -1.
         21   -1    0    0  504  502 -0.00000000000E+00 -0.00000000000E+00 -0.75119273565E+02  0.75119273565E+02  0.00000000000E+00 0. -1.
         21    1    1    2  503  502 -0.22672444426E+02  0.20459145249E+02 -0.54291505163E+02  0.62291122108E+02  0.00000000000E+00 0. -1.
         21    1    1    2  504  501  0.22672444426E+02 -0.20459145249E+02 -0.29727991674E+01  0.30683120693E+02  0.00000000000E+00 0. -1.
</event>
<event>
 4    1  0.3183954E+006  0.2072053E+02  0.7546771E-02  0.1523293E+00
         21   -1    0    0  504  501  0.00000000000E+00  0.00000000000E+00  0.13941010915E+02  0.13941010915E+02  0.00000000000E+00 0.  1.
         21   -1    0    0  503  502 -0.00000000000E+00 -0.00000000000E+00 -0.31045112849E+02  0.31045112849E+02  0.00000000000E+00 0. -1.
         21    1    1    2  503  501 -0.22822358615E+01  0.20594464189E+02 -0.65409951368E+01  0.21728441572E+02  0.00000000000E+00 0. -1.
         21    1    1    2  504  502  0.22822358615E+01 -0.20594464189E+02 -0.10563106798E+02  0.23257682193E+02  0.00000000000E+00 0.  1.
</event>
<event>
 4    1  0.3183954E+006  0.7798956E+02  0.7546771E-02  0.1208593E+00
         21   -1    0    0  502  501  0.00000000000E+00  0.00000000000E+00  0.14984806416E+03  0.14984806416E+03  0.00000000000E+00 0. -1.
         21   -1    0    0  503  502 -0.00000000000E+00 -0.00000000000E+00 -0.82638197195E+02  0.82638197195E+02  0.00000000000E+00 0. -1.
         21    1    1    2  503  504 -0.77956440099E+02  0.22725783747E+01 -0.49313149528E+02  0.92272194521E+02  0.00000000000E+00 0. -1.
         21    1    1    2  504  501  0.77956440099E+02 -0.22725783747E+01  0.11652301649E+03  0.14021406683E+03  0.00000000000E+00 0. -1.
</event>
<event>
 4    1  0.3183954E+006  0.2035202E+02  0.7546771E-02  0.1528721E+00
         21   -1    0    0  503  501  0.00000000000E+00  0.00000000000E+00  0.70067331437E+02  0.70067331437E+02  0.00000000000E+00 0.  1.
         21   -1    0    0  501  502 -0.00000000000E+00 -0.00000000000E+00 -0.77996172529E+02  0.77996172529E+02  0.00000000000E+00 0.  1.
         21    1    1    2  503  504  0.12343583656E+02  0.16181490952E+02  0.67206531340E+02  0.70220528064E+02  0.00000000000E+00 0.  1.
         21    1    1    2  504  502 -0.12343583656E+02 -0.16181490952E+02 -0.75135372431E+02  0.77842975902E+02  0.00000000000E+00 0.  1.
</event>
<event>
 4    1  0.3183954E+006  0.5070226E+02  0.7546771E-02  0.1295156E+00
         21   -1    0    0  502  501  0.00000000000E+00  0.00000000000E+00  0.46084600022E+03  0.46084600022E+03  0.00000000000E+00 0.  1.
         21   -1    0    0  504  502 -0.00000000000E+00 -0.00000000000E+00 -0.66766791658E+02  0.66766791658E+02  0.00000000000E+00 0. -1.
         21    1    1    2  503  501 -0.46681995368E+02  0.19786611741E+02  0.44958536548E+03  0.45243532084E+03  0.00000000000E+00 0.  1.
         21    1    1    2  504  503  0.46681995368E+02 -0.19786611741E+02 -0.55506156914E+02  0.75177471034E+02  0.00000000000E+00 0. -1.
</event>
<event>
 4    1  0.3183954E+006  0.2407328E+02  0.7546771E-02  0.1479443E+00
         21   -1    0    0  503  501  0.00000000000E+00  0.00000000000E+00  0.84319269792E+02  0.84319269792E+02  0.00000000000E+00 0. -1.
         21   -1    0    0  504  502 -0.00000000000E+00 -0.00000000000E+00 -0.15132009797E+02  0.15132009797E+02  0.00000000000E+00 0. -1.
         21    1    1    2  503  502 -0.14270344862E+02  0.19387631522E+02 -0.21428131918E+01  0.24168463892E+02  0.00000000000E+00 0. -1.
         21    1    1    2  504  501  0.14270344862E+02 -0.19387631522E+02  0.71330073186E+02  0.75282815697E+02  0.00000000000E+00 0. -1.
</event>
<event>
 4    1  0.3183954E+006  0.2668288E+02  0.7546771E-02  0.1450820E+00
         21   -1    0    0  503  501  0.00000000000E+00  0.00000000000E+00  0.41151447581E+02  0.41151447581E+02  0.00000000000E+00 0. -1.
         21   -1    0    0  501  502 -0.00000000000E+00 -0.00000000000E+00 -0.43187255003E+02  0.43187255003E+02  0.00000000000E+00 0.  1.
         21    1    1    2  503  504 -0.40304630349E+01 -0.26376719461E+02  0.31629655779E+02  0.41381289087E+02  0.00000000000E+00 0. -1.
         21    1    1    2  504  502  0.40304630349E+01  0.26376719461E+02 -0.33665463201E+02  0.42957413497E+02  0.00000000000E+00 0.  1.
</event>
<event>
 4    1  0.3183954E+006  0.6354129E+02  0.7546771E-02  0.1248253E+00
         21   -1    0    0  503  501  0.00000000000E+00  0.00000000000E+00  0.36489407099E+03  0.36489407099E+03  0.00000000000E+00 0.  1.
         21   -1    0    0  504  502 -0.00000000000E+00 -0.00000000000E+00 -0.33935320304E+03  0.33935320304E+03  0.00000000000E+00 0.  1.
         21    1    1    2  503  502  0.35659411285E+02 -0.52591840973E+02 -0.33356501458E+03  0.33956312271E+03  0.00000000000E+00 0.  1.
         21    1    1    2  504  501 -0.35659411285E+02  0.52591840973E+02  0.35910588254E+03  0.36468415132E+03  0.00000000000E+00 0.  1.
</event>
<event>
 4    1  0.3183954E+006  0.2469271E+02  0.7546771E-02  0.1472271E+00
         21   -1    0    0  503  501  0.00000000000E+00  0.00000000000E+00  0.42242387198E+02  0.42242387198E+02  0.00000000000E+00 0.  1.
         21   -1    0    0  504  502 -0.00000000000E+00 -0.00000000000E+00 -0.87373187984E+02  0.87373187984E+02  0.00000000000E+00 0.  1.
         21    1    1    2  503  502 -0.10965571513E+02  0.22124334556E+02 -0.81778573236E+02  0.85425201075E+02  0.00000000000E+00 0.  1.
         21    1    1    2  504  501  0.10965571513E+02 -0.22124334556E+02  0.36647772450E+02  0.44190374107E+02  0.00000000000E+00 0.  1.
</event>
<event>
 4    1  0.3183954E+006  0.2338988E+02  0.7546771E-02  0.1487660E+00
         21   -1    0    0  504  501  0.00000000000E+00  0.00000000000E+00  0.49793479104E+02  0.49793479104E+02  0.00000000000E+00 0. -1.
         21   -1    0    0  501  502 -0.00000000000E+00 -0.00000000000E+00 -0.11246482732E+03  0.11246482732E+03  0.00000000000E+00 0. -1.
         21    1    1    2  503  502  0.17341577864E+02 -0.15695735686E+02 -0.10840009638E+03  0.11089484811E+03  0.00000000000E+00 0. -1.
         21    1    1    2  504  503 -0.17341577864E+02  0.15695735686E+02  0.45728748164E+02  0.51363458316E+02  0.00000000000E+00 0. -1.
</event>
<event>
 4    1  0.3183954E+006  0.2434930E+02  0.7546771E-02  0.1476216E+00
         21   -1    0    0  503  501  0.00000000000E+00  0.00000000000E+00  0.46837605982E+02  0.46837605982E+02  0.00000000000E+00 0. -1.
         21   -1    0    0  504  502 -0.00000000000E+00 -0.00000000000E+00 -0.17004963291E+02  0.17004963291E+02  0.00000000000E+00 0. -1.
         21    1    1    2  503  502 -0.21948779341E+02  0.10542272491E+02  0.31054937469E+02  0.39462609709E+02  0.00000000000E+00 0. -1.
         21    1    1    2  504  501  0.21948779341E+02 -0.10542272491E+02 -0.12222947771E+01  0.24379959564E+02  0.00000000000E+00 0. -1.
</event>
<event>
 4    1  0.3183954E+006  0.2286143E+02  0.7546771E-02  0.1494245E+00
         21   -1    0    0  503  501  0.00000000000E+00  0.00000000000E+00  0.22522690377E+02  0.22522690377E+02  0.00000000000E+00 0.  1.
         21   -1    0    0  504  502 -0.00000000000E+00 -0.00000000000E+00 -0.34701167543E+02  0.34701167543E+02  0.00000000000E+00 0. -1.
         21    1    1    2  503  502 -0.92722448309E+01  0.20896665927E+02 -0.22557452004E+02  0.32116721688E+02  0.00000000000E+00 0. -1.
         21    1    1    2  504  501  0.92722448309E+01 -0.20896665927E+02  0.10378974838E+02  0.25107136232E+02  0.00000000000E+00 0.  1.
</event>
<event>
 4    1  0.3183954E+006  0.2536096E+02  0.7546771E-02  0.1464806E+00
         21   -1    0    0  504  501  0.00000000000E+00  0.00000000000E+00  0.24505917396E+01  0.24505917396E+01  0.00000000000E+00 0. -1.
         21   -1    0    0  503  502 -0.00000000000E+00 -0.00000000000E+00 -0.30343017158E+03  0.30343017158E+03  0.00000000000E+00 0. -1.
         21    1    1    2  503  501  0.12620218891E+02  0.21997921749E+02 -0.20668961262E+03  0.20823970431E+03  0.00000000000E+00 0. -1.
         21    1    1    2  504  502 -0.12620218891E+02 -0.21997921749E+02 -0.94289967226E+02  0.97641059016E+02  0.00000000000E+00 0. -1.
</event>
<event>
 4    1  0.3183954E+006  0.2260339E+02  0.7546771E-02  0.1497539E+00
         21   -1    0    0  502  501  0.00000000000E+00  0.00000000000E+00  0.38951246815E+03  0.38951246815E+03  0.00000000000E+00 0.  1.
         21   -1    0    0  503  502 -0.00000000000E+00 -0.00000000000E+00 -0.11445789819E+03  0.11445789819E+03  0.00000000000E+00 0.  1.
         21    1    1    2  503  504  0.63611171959E+01 -0.21689850909E+02 -0.11300987729E+03  0.11524819221E+03  0.00000000000E+00 0.  1.
         21    1    1    2  504  501 -0.63611171959E+01  0.21689850909E+02  0.38806444724E+03  0.38872217413E+03  0.00000000000E+00 0.  1.
</event>
<event>
 4    1  0.3183954E+006  0.2328972E+02  0.7546771E-02  0.1488892E+00
         21   -1    0    0  504  501  0.00000000000E+00  0.00000000000E+00  0.52482070351E+03  0.52482070351E+03  0.00000000000E+00 0. -1.
         21   -1    0    0  503  502 -0.00000000000E+00 -0.00000000000E+00 -0.41542787250E+01  0.41542787250E+01  0.00000000000E+00 0. -1.
         21    1    1    2  503  501 -0.10215693924E+02  0.20929661521E+02  0.31094677189E+02  0.38849582793E+02  0.00000000000E+00 0. -1.
         21    1    1    2  504  502  0.10215693924E+02 -0.20929661521E+02  0.48957174759E+03  0.49012539944E+03  0.00000000000E+00 0. -1.
</event>
<event>
 4    1  0.3183954E+006  0.2161563E+02  0.7546771E-02  0.1510654E+00
         21   -1    0    0  503  501  0.00000000000E+00  0.00000000000E+00  0.11105054048E+02  0.11105054048E+02  0.00000000000E+00 0.  1.
         21   -1    0    0  504  502 -0.00000000000E+00 -0.00000000000E+00 -0.44702756934E+02  0.44702756934E+02  0.00000000000E+00 0. -1.
         21    1    1    2  503  502  0.16009264530E+02 -0.14523740009E+02 -0.10032389117E+02  0.23830325345E+02  0.00000000000E+00 0.  1.
         21    1    1    2  504  501 -0.16009264530E+02  0.14523740009E+02 -0.23565313769E+02  0.31977485637E+02  0.00000000000E+00 0. -1.
</event>
<event>
 4    1  0.3183954E+006  0.2075638E+02  0.7546771E-02  0.1522772E+00
         21   -1    0    0  503  501  0.00000000000E+00  0.00000000000E+00  0.15005636853E+02  0.15005636853E+02  0.00000000000E+00 0.  1.
         21   -1    0    0  504  502 -0.00000000000E+00 -0.00000000000E+00 -0.41468320817E+02  0.41468320817E+02  0.00000000000E+00 0. -1.
         21    1    1    2  503  502  0.53918641845E+01  0.20043834212E+02  0.24303617804E+01  0.20898185272E+02  0.00000000000E+00 0.  1.
         21    1    1    2  504  501 -0.53918641845E+01 -0.20043834212E+02 -0.28893045744E+02  0.35575772397E+02  0.00000000000E+00 0. -1.
</event>
<event>
 4    1  0.3183954E+006  0.2181406E+02  0.7546771E-02  0.1507952E+00
         21   -1    0    0  504  501  0.00000000000E+00  0.00000000000E+00  0.35238635741E+02  0.35238635741E+02  0.00000000000E+00 0. -1.
         21   -1    0    0  501  502 -0.00000000000E+00 -0.00000000000E+00 -0.27833477438E+02  0.27833477438E+02  0.00000000000E+00 0. -1.
         21    1    1    2  503  502  0.18691368299E+02 -0.11246596861E+02 -0.18925247744E+02  0.28879373124E+02  0.00000000000E+00 0. -1.
         21    1    1    2  504  503 -0.18691368299E+02  0.11246596861E+02  0.26330406047E+02  0.34192740055E+02  0.00000000000E+00 0. -1.
</event>
<event>
 4    1  0.3183954E+006  0.2630886E+02  0.7546771E-02  0.1454677E+00
         21   -1    0    0  502  501  0.00000000000E+00  0.00000000000E+00  0.19534671388E+02  0.19534671388E+02  0.00000000000E+00 0.  1.
         21   -1    0    0  504  502 -0.00000000000E+00 -0.00000000000E+00 -0.68340413143E+02  0.68340413143E+02  0.00000000000E+00 0.  1.
         21    1    1    2  503  501  0.18812673267E+02 -0.18391281127E+02  0.60865570146E+01  0.27003741838E+02  0.00000000000E+00 0.  1.
         21    1    1    2  504  503 -0.18812673267E+02  0.18391281127E+02 -0.54892298770E+02  0.60871342693E+02  0.00000000000E+00 0.  1.
</event>
<event>
 4    1  0.3183954E+006  0.2421936E+02  0.7546771E-02  0.1477729E+00
         21   -1    0    0  503  501  0.00000000000E+00  0.00000000000E+00  0.10702625284E+03  0.10702625284E+03  0.00000000000E+00 0. -1.
         21   -1    0    0  504  502 -0.00000000000E+00 -0.00000000000E+00 -0.56000643305E+01  0.56000643305E+01  0.00000000000E+00 0. -1.
         21    1    1    2  503  502  0.74271588740E+01 -0.23052438336E+02  0.42491221538E+02  0.48908910334E+02  0.00000000000E+00 0. -1.
         21    1    1    2  504  501 -0.74271588740E+01  0.23052438336E+02  0.58934966974E+02  0.63717406840E+02  0.00000000000E+00 0. -1.
</event>
<event>
 4    1  0.3183954E+006  0.2883630E+02  0.7546771E-02  0.1429986E+00
         21   -1    0    0  504  501  0.00000000000E+00  0.00000000000E+00  0.10560788768E+03  0.10560788768E+03  0.00000000000E+00 0. -1.
         21   -1    0    0  501  502 -0.00000000000E+00 -0.00000000000E+00 -0.81503160938E+01  0.81503160938E+01  0.00000000000E+00 0. -1.
         21    1    1    2  503  502 -0.67426069521E+01 -0.28036933298E+02  0.38251517082E+02  0.47903141195E+02  0.00000000000E+00 0. -1.
         21    1    1    2  504  503  0.67426069521E+01  0.28036933298E+02  0.59206054502E+02  0.65855062576E+02  0.00000000000E+00 0. -1.
</event>
<event>
 4    1  0.3183954E+006  0.3085046E+02  0.7546771E-02  0.1412347E+00
         21   -1    0    0  503  501  0.00000000000E+00  0.00000000000E+00  0.67202578207E+03  0.67202578207E+03  0.00000000000E+00 0.  1.
         21   -1    0    0  504  502 -0.00000000000E+00 -0.00000000000E+00 -0.49449884450E+01  0.49449884450E+01  0.00000000000E+00 0.  1.
         21    1    1    2  503  502 -0.13477724006E+02 -0.27750712380E+02  0.47605268636E+02  0.56727530212E+02  0.00000000000E+00 0.  1.
         21    1    1    2  504  501  0.13477724006E+02  0.27750712380E+02  0.61947552499E+03  0.62024324030E+03  0.00000000000E+00 0.  1.
</event>
<event>
 4    1  0.3183954E+006  0.2113812E+02  0.7546771E-02  0.1517302E+00
         21   -1    0    0  504  501  0.00000000000E+00  0.00000000000E+00  0.81364679780E+02  0.81364679780E+02  0.00000000000E+00 0.  1.
         21   -1    0    0  501  502 -0.00000000000E+00 -0.00000000000E+00 -0.87462136593E+02  0.87462136593E+02  0.00000000000E+00 0. -1.
         21    1    1    2  503  502  0.13113516941E+02 -0.16578774560E+02 -0.84769104021E+02  0.87364873313E+02  0.00000000000E+00 0. -1.
         21    1    1    2  504  503 -0.13113516941E+02  0.16578774560E+02  0.78671647208E+02  0.81461943059E+02  0.00000000000E+00 0.  1.
</event>
<event>
 4    1  0.3183954E+006  0.2526542E+02  0.7546771E-02  0.1465856E+00
         21   -1    0    0  504  501  0.00000000000E+00  0.00000000000E+00  0.35404857737E+02  0.35404857737E+02  0.00000000000E+00 0.  1.
         21   -1    0    0  501  502 -0.00000000000E+00 -0.00000000000E+00 -0.51825746966E+02  0.51825746966E+02  0.00000000000E+00 0.  1.
         21    1    1    2  503  502  0.22794046859E+02  0.10898287939E+02 -0.43431197836E+02  0.50245499278E+02  0.00000000000E+00 0.  1.
         21    1    1    2  504  503 -0.22794046859E+02 -0.10898287939E+02  0.27010308607E+02  0.36985105424E+02  0.00000000000E+00 0.  1.
</event>
<event>
 4    1  0.3183954E+006  0.2223159E+02  0.7546771E-02  0.1502379E+00
         21   -1    0    0  503  501  0.00000000000E+00  0.00000000000E+00  0.14507680035E+02  0.14507680035E+02  0.00000000000E+00 0. -1.
         21   -1    0    0  504  502 -0.00000000000E+00 -0.00000000000E+00 -0.34088115275E+02  0.34088115275E+02  0.00000000000E+00 0. -1.
         21    1    1    2  503  502  0.21491160802E+02 -0.56897668295E+01 -0.10384696274E+02  0.24537427654E+02  0.00000000000E+00 0. -1.
         21    1    1    2  504  501 -0.21491160802E+02  0.56897668295E+01 -0.91957389662E+01  0.24058367657E+02  0.00000000000E+00 0. -1.
</event>
<event>
 4    1  0.3183954E+006  0.3577886E+02  0.7546771E-02  0.1375169E+00
         21   -1    0    0  504  501  0.00000000000E+00  0.00000000000E+00  0.21288471411E+03  0.21288471411E+03  0.00000000000E+00 0.  1.
         21   -1    0    0  503  502 -0.00000000000E+00 -0.00000000000E+00 -0.83795656203E+01  0.83795656203E+01  0.00000000000E+00 0.  1.
         21    1    1    2  503  501 -0.34656803321E+02  0.88900480381E+01  0.16104315802E+03  0.16496977213E+03  0.00000000000E+00 0.  1.
         21    1    1    2  504  502  0.34656803321E+02 -0.88900480381E+01  0.43461990464E+02  0.56294507598E+02  0.00000000000E+00 0.  1.
</event>
<event>
 4    1  0.3183954E+006  0.2088919E+02  0.7546771E-02  0.1520853E+00
         21   -1    0    0  504  501  0.00000000000E+00  0.00000000000E+00  0.70846674493E+03  0.70846674493E+03  0.00000000000E+00 0. -1.
         21   -1    0    0  503  502 -0.00000000000E+00 -0.00000000000E+00 -0.44296347503E+01  0.44296347503E+01  0.00000000000E+00 0. -1.
         21    1    1    2  503  501 -0.19443257087E+02 -0.76366320232E+01  0.21278652886E+02  0.29818441667E+02  0.00000000000E+00 0. -1.
         21    1    1    2  504  502  0.19443257087E+02  0.76366320232E+01  0.68275845729E+03  0.68307793801E+03  0.00000000000E+00 0. -1.
</event>
<event>
 4    1  0.3183954E+006  0.2063767E+02  0.7546771E-02  0.1524501E+00
         21   -1    0    0  504  501  0.00000000000E+00  0.00000000000E+00  0.14211318234E+02  0.14211318234E+02  0.00000000000E+00 0. -1.
         21   -1    0    0  503  502 -0.00000000000E+00 -0.00000000000E+00 -0.33569663023E+02  0.33569663023E+02  0.00000000000E+00 0. -1.
         21    1    1    2  503  501  0.19646207027E+02 -0.63198028736E+01 -0.17502326016E+02  0.27060021709E+02  0.00000000000E+00 0. -1.
         21    1    1    2  504  502 -0.19646207027E+02  0.63198028736E+01 -0.18560187734E+01  0.20720959549E+02  0.00000000000E+00 0. -1.
</event>
<event>
 4    1  0.3183954E+006  0.2386359E+02  0.7546771E-02  0.1481930E+00
         21   -1    0    0  503  501  0.00000000000E+00  0.00000000000E+00  0.38046281569E+02  0.38046281569E+02  0.00000000000E+00 0.  1.
         21   -1    0    0  504  502 -0.00000000000E+00 -0.00000000000E+00 -0.16004937637E+02  0.16004937637E+02  0.00000000000E+00 0.  1.
         21    1    1    2  503  502 -0.22869514209E+02  0.68158681492E+01  0.41411562383E+01  0.24220237690E+02  0.00000000000E+00 0.  1.
         21    1    1    2  504  501  0.22869514209E+02 -0.68158681492E+01  0.17900187693E+02  0.29830981516E+02  0.00000000000E+00 0.  1.
</event>
<event>
 4    1  0.3183954E+006  0.2014666E+02  0.7546771E-02  0.1531805E+00
         21   -1    0    0  503  501  0.00000000000E+00  0.00000000000E+00  0.94870297361E+02  0.94870297361E+02  0.00000000000E+00 0. -1.
         21   -1    0    0  504  502 -0.00000000000E+00 -0.00000000000E+00 -0.45330820101E+01  0.45330820101E+01  0.00000000000E+00 0. -1.
         21    1    1    2  503  502 -0.15920128401E+02 -0.12346554680E+02  0.56950635499E+02  0.60409128321E+02  0.00000000000E+00 0. -1.
         21    1    1    2  504  501  0.15920128401E+02  0.12346554680E+02  0.33386579852E+02  0.38994251050E+02  0.00000000000E+00 0. -1.
</event>
<event>
 4    1  0.3183954E+006  0.2566878E+02  0.7546771E-02  0.1461459E+00
         21   -1    0    0  503  501  0.00000000000E+00  0.00000000000E+00  0.16893918076E+02  0.16893918076E+02  0.00000000000E+00 0. -1.
         21   -1    0    0  501  502 -0.00000000000E+00 -0.00000000000E+00 -0.90507809934E+02  0.90507809934E+02  0.00000000000E+00 0. -1.
         21    1    1    2  503  504 -0.25657662080E+02 -0.75548331685E+00  0.37036754381E+01  0.25934602180E+02  0.00000000000E+00 0. -1.
         21    1    1    2  504  502  0.25657662080E+02  0.75548331685E+00 -0.77317567296E+02  0.81467125831E+02  0.00000000000E+00 0. -1.
</event>
<event>
 4    1  0.3183954E+006  0.2052111E+02  0.7546771E-02  0.1526213E+00
         21   -1    0    0  502  501  0.00000000000E+00  0.00000000000E+00  0.13328415949E+02  0.13328415949E+02  0.00000000000E+00 0.  1.
         21   -1    0    0  504  502 -0.00000000000E+00 -0.00000000000E+00 -0.38604721445E+02  0.38604721445E+02  0.00000000000E+00 0.  1.
         21    1    1    2  503  501  0.20471402942E+02 -0.14274526071E+01 -0.15735988738E+01  0.20581354980E+02  0.00000000000E+00 0.  1.
         21    1    1    2  504  503 -0.20471402942E+02  0.14274526071E+01 -0.23702706622E+02  0.31351782415E+02  0.00000000000E+00 0.  1.
</event>
<event>
 4    1  0.3183954E+006  0.3078390E+02  0.7546771E-02  0.1412904E+00
         21   -1    0    0  502  501  0.00000000000E+00  0.00000000000E+00  0.18746583153E+03  0.18746583153E+03  0.00000000000E+00 0. -1.
         21   -1    0    0  504  502 -0.00000000000E+00 -0.00000000000E+00 -0.39593620262E+02  0.39593620262E+02  0.00000000000E+00 0. -1.
         21    1    1    2  503  501 -0.83590841626E+01  0.29627257363E+02  0.17997109001E+03  0.18258488959E+03  0.00000000000E+00 0. -1.
         21    1    1    2  504  503  0.83590841626E+01 -0.29627257363E+02 -0.32098878740E+02  0.44474562204E+02  0.00000000000E+00 0. -1.
</event>
<event>
 4    1  0.3183954E+006  0.2091063E+02  0.7546771E-02  0.1520545E+00
         21   -1    0    0  503  501  0.00000000000E+00  0.00000000000E+00  0.79985425019E+01  0.79985425019E+01  0.00000000000E+00 0.  1.
         21   -1    0    0  504  502 -0.00000000000E+00 -0.00000000000E+00 -0.27706010508E+03  0.27706010508E+03  0.00000000000E+00 0.  1.
         21    1    1    2  503  502  0.20910297886E+02  0.11801453658E+00 -0.26222702168E+03  0.26305943318E+03  0.00000000000E+00 0.  1.
         21    1    1    2  504  501 -0.20910297886E+02 -0.11801453658E+00 -0.68345409000E+01  0.21999214405E+02  0.00000000000E+00 0.  1.
</event>
<event>
 4    1  0.3183954E+006  0.2504034E+02  0.7546771E-02  0.1468353E+00
         21   -1    0    0  504  501  0.00000000000E+00  0.00000000000E+00  0.45587268521E+03  0.45587268521E+03  0.00000000000E+00 0. -1.
         21   -1    0    0  503  502 -0.00000000000E+00 -0.00000000000E+00 -0.16708347025E+01  0.16708347025E+01  0.00000000000E+00 0. -1.
         21    1    1    2  503  501 -0.23526857099E+02  0.85735403258E+01  0.13090687931E+03  0.13328026730E+03  0.00000000000E+00 0. -1.
         21    1    1    2  504  502  0.23526857099E+02 -0.85735403258E+01  0.32329497120E+03  0.32426325262E+03  0.00000000000E+00 0. -1.
</event>
<event>
 4    1  0.3183954E+006  0.5339924E+02  0.7546771E-02  0.1284071E+00
         21   -1    0    0  503  501  0.00000000000E+00  0.00000000000E+00  0.49726189840E+02  0.49726189840E+02  0.00000000000E+00 0.  1.
         21   -1    0    0  504  502 -0.00000000000E+00 -0.00000000000E+00 -0.36969093439E+03  0.36969093439E+03  0.00000000000E+00 0.  1.
         21    1    1    2  503  502 -0.40945784054E+02 -0.34277136436E+02  0.32777067756E+02  0.62656328370E+02  0.00000000000E+00 0.  1.
         21    1    1    2  504  501  0.40945784054E+02  0.34277136436E+02 -0.35274181230E+03  0.35676079586E+03  0.00000000000E+00 0.  1.
</event>
<event>
 4    1  0.3183954E+006  0.2067214E+02  0.7546771E-02  0.1523998E+00
         21   -1    0    0  504  501  0.00000000000E+00  0.00000000000E+00  0.19342791606E+02  0.19342791606E+02  0.00000000000E+00 0. -1.
         21   -1    0    0  503  502 -0.00000000000E+00 -0.00000000000E+00 -0.62402626042E+02  0.62402626042E+02  0.00000000000E+00 0.  1.
         21    1    1    2  503  501 -0.18163924310E+02 -0.98696162341E+01 -0.54380052272E+02  0.58176692550E+02  0.00000000000E+00 0.  1.
         21    1    1    2  504  502  0.18163924310E+02  0.98696162341E+01  0.11320217835E+02  0.23568725099E+02  0.00000000000E+00 0. -1.
</event>
<event>
 4    1  0.3183954E+006  0.2997442E+02  0.7546771E-02  0.1419819E+00
         21   -1    0    0  502  501  0.00000000000E+00  0.00000000000E+00  0.31952314083E+03  0.31952314083E+03  0.00000000000E+00 0. -1.
         21   -1    0    0  503  502 -0.00000000000E+00 -0.00000000000E+00 -0.24815519860E+02  0.24815519860E+02  0.00000000000E+00 0.  1.
         21    1    1    2  503  504  0.16742828902E+02  0.24862497177E+02 -0.14767908548E+02  0.33414924935E+02  0.00000000000E+00 0.  1.
         21    1    1    2  504  501 -0.16742828902E+02 -0.24862497177E+02  0.30947552952E+03  0.31092373576E+03  0.00000000000E+00 0. -1.
</event>
<event>
 4    1  0.3183954E+006  0.2193514E+02  0.7546771E-02  0.1506321E+00
         21   -1    0    0  503  501  0.00000000000E+00  0.00000000000E+00  0.10992089916E+04  0.10992089916E+04  0.00000000000E+00 0. -1.
         21   -1    0    0  501  502 -0.00000000000E+00 -0.00000000000E+00 -0.25239168908E+02  0.25239168908E+02  0.00000000000E+00 0.  1.
         21    1    1    2  503  504  0.19044154043E+02  0.10884421971E+02  0.10943123267E+04  0.10945321461E+04  0.00000000000E+00 0. -1.
         21    1    1    2  504  502 -0.19044154043E+02 -0.10884421971E+02 -0.20342504056E+02  0.29916014376E+02  0.00000000000E+00 0.  1.
</event>
<event>
 4    1  0.3183954E+006  0.2015691E+02  0.7546771E-02  0.1531651E+00
         21   -1    0    0  504  501  0.00000000000E+00  0.00000000000E+00  0.51221017340E+01  0.51221017340E+01  0.00000000000E+00 0.  1.
         21   -1    0    0  503  502 -0.00000000000E+00 -0.00000000000E+00 -0.17796153807E+03  0.17796153807E+03  0.00000000000E+00 0.  1.
         21    1    1    2  503  501 -0.19664095638E+02  0.44299246570E+01 -0.18267561675E+02  0.27203027392E+02  0.00000000000E+00 0.  1.
         21    1    1    2  504  502  0.19664095638E+02 -0.44299246570E+01 -0.15457187466E+03  0.15588061241E+03  0.00000000000E+00 0.  1.
</event>
<event>
 4    1  0.3183954E+006  0.2370504E+02  0.7546771E-02  0.1483830E+00
         21   -1    0    0  503  501  0.00000000000E+00  0.00000000000E+00  0.60536459772E+02  0.60536459772E+02  0.00000000000E+00 0. -1.
         21   -1    0    0  504  502 -0.00000000000E+00 -0.00000000000E+00 -0.38940214298E+02  0.38940214298E+02  0.00000000000E+00 0.  1.
         21    1    1    2  503  502 -0.74274503843E+01 -0.22511370281E+02  0.54205249222E+02  0.59161962902E+02  0.00000000000E+00 0. -1.
         21    1    1    2  504  501  0.74274503843E+01  0.22511370281E+02 -0.32609003747E+02  0.40314711168E+02  0.00000000000E+00 0.  1.
</event>
<event>
 4    1  0.3183954E+006  0.2467037E+02  0.7546771E-02  0.1472525E+00
         21   -1    0    0  504  501  0.00000000000E+00  0.00000000000E+00  0.11965031045E+02  0.11965031045E+02  0.00000000000E+00 0.  1.
         21   -1    0    0  501  502 -0.00000000000E+00 -0.00000000000E+00 -0.82941730980E+02  0.82941730980E+02  0.00000000000E+00 0.  1.
         21    1    1    2  503  502  0.18970980221E+02 -0.15771150173E+02 -0.64997790369E+02  0.69522226814E+02  0.00000000000E+00 0.  1.
         21    1    1    2  504  503 -0.18970980221E+02  0.15771150173E+02 -0.59789095659E+01  0.25384535212E+02  0.00000000000E+00 0.  1.
</event>
<event>
 4    1  0.3183954E+006  0.2504964E+02  0.7546771E-02  0.1468249E+00
         21   -1    0    0  503  501  0.00000000000E+00  0.00000000000E+00  0.23488461698E+02  0.23488461698E+02  0.00000000000E+00 0.  1.
         21   -1    0    0  504  502 -0.00000000000E+00 -0.00000000000E+00 -0.44210782681E+02  0.44210782681E+02  0.00000000000E+00 0.  1.
         21    1    1    2  503  502 -0.25046196186E+02  0.41533093193E+00 -0.31655373592E+02  0.40367649429E+02  0.00000000000E+00 0.  1.
         21    1    1    2  504  501  0.25046196186E+02 -0.41533093193E+00  0.10933052608E+02  0.27331594950E+02  0.00000000000E+00 0.  1.
</event>
<event>
 4    1  0.3183954E+006  0.2699366E+02  0.7546771E-02  0.1447672E+00
         21   -1    0    0  504  501  0.00000000000E+00  0.00000000000E+00  0.24080134752E+03  0.24080134752E+03  0.00000000000E+00 0. -1.
         21   -1    0    0  503  502 -0.00000000000E+00 -0.00000000000E+00 -0.81166848900E+01  0.81166848900E+01  0.00000000000E+00 0. -1.
         21    1    1    2  503  501 -0.80929422498E+01  0.25751930171E+02  0.21490816822E+03  0.21659681066E+03  0.00000000000E+00 0. -1.
         21    1    1    2  504  502  0.80929422498E+01 -0.25751930171E+02  0.17776494413E+02  0.32321221750E+02  0.00000000000E+00 0. -1.
</event>
<event>
 4    1  0.3183954E+006  0.2188940E+02  0.7546771E-02  0.1506936E+00
         21   -1    0    0  503  501  0.00000000000E+00  0.00000000000E+00  0.54426971012E+02  0.54426971012E+02  0.00000000000E+00 0. -1.
         21   -1    0    0  504  502 -0.00000000000E+00 -0.00000000000E+00 -0.97613834660E+01  0.97613834660E+01  0.00000000000E+00 0. -1.
         21    1    1    2  503  502  0.33026431533E+01  0.21638820059E+02  0.32386695132E+02  0.39090203465E+02  0.00000000000E+00 0. -1.
         21    1    1    2  504  501 -0.33026431533E+01 -0.21638820059E+02  0.12278892414E+02  0.25098151013E+02  0.00000000000E+00 0. -1.
</event>
<event>
 4    1  0.3183954E+006  0.3105660E+02  0.7546771E-02  0.1410631E+00
         21   -1    0    0  504  501  0.00000000000E+00  0.00000000000E+00  0.54075263033E+02  0.54075263033E+02  0.00000000000E+00 0. -1.
         21   -1    0    0  503  502 -0.00000000000E+00 -0.00000000000E+00 -0.18705891939E+02  0.18705891939E+02  0.00000000000E+00 0. -1.
         21    1    1    2  503  501  0.29637155443E+02  0.92817653963E+01  0.98393153371E+01  0.32577972281E+02  0.00000000000E+00 0. -1.
         21    1    1    2  504  502 -0.29637155443E+02 -0.92817653963E+01  0.25530055757E+02  0.40203182692E+02  0.00000000000E+00 0. -1.
</event>
<event>
 4    1  0.3183954E+006  0.3009669E+02  0.7546771E-02  0.1418758E+00
         21   -1    0    0  504  501  0.00000000000E+00  0.00000000000E+00  0.16137965653E+02  0.16137965653E+02  0.00000000000E+00 0.  1.
         21   -1    0    0  503  502 -0.00000000000E+00 -0.00000000000E+00 -0.13911289910E+03  0.13911289910E+03  0.00000000000E+00 0. -1.
         21    1    1    2  503  501  0.47242744259E+01 -0.29723589989E+02 -0.15336532097E+01  0.30135737304E+02  0.00000000000E+00 0.  1.
         21    1    1    2  504  502 -0.47242744259E+01  0.29723589989E+02 -0.12144128023E+03  0.12511512744E+03  0.00000000000E+00 0. -1.
</event>
<event>
 4    1  0.3183954E+006  0.6830082E+02  0.7546771E-02  0.1233969E+00
         21   -1    0    0  503  501  0.00000000000E+00  0.00000000000E+00  0.54206356796E+03  0.54206356796E+03  0.00000000000E+00 0.  1.
         21   -1    0    0  504  502 -0.00000000000E+00 -0.00000000000E+00 -0.92398206339E+01  0.92398206339E+01  0.00000000000E+00 0.  1.
         21    1    1    2  503  502  0.16166037117E+02  0.66360089750E+02  0.19421638522E+03  0.20587619230E+03  0.00000000000E+00 0.  1.
         21    1    1    2  504  501 -0.16166037117E+02 -0.66360089750E+02  0.33860736211E+03  0.34542719629E+03  0.00000000000E+00 0.  1.
</event>
<event>
 4    1  0.3183954E+006  0.2123121E+02  0.7546771E-02  0.1515989E+00
         21   -1    0    0  504  501  0.00000000000E+00  0.00000000000E+00  0.33167275724E+01  0.33167275724E+01  0.00000000000E+00 0. -1.
         21   -1    0    0  503  502 -0.00000000000E+00 -0.00000000000E+00 -0.17766445299E+03  0.17766445299E+03  0.00000000000E+00 0. -1.
         21    1    1    2  503  501 -0.46077203234E+01 -0.20725179317E+02 -0.43303236421E+02  0.48227942407E+02  0.00000000000E+00 0. -1.
         21    1    1    2  504  502  0.46077203234E+01  0.20725179317E+02 -0.13104448899E+03  0.13275323815E+03  0.00000000000E+00 0. -1.
</event>
<event>
 4    1  0.3183954E+006  0.2587985E+02  0.7546771E-02  0.1459197E+00
         21   -1    0    0  503  501  0.00000000000E+00  0.00000000000E+00  0.60128504846E+01  0.60128504846E+01  0.00000000000E+00 0.  1.
         21   -1    0    0  504  502 -0.00000000000E+00 -0.00000000000E+00 -0.16372520926E+03  0.16372520926E+03  0.00000000000E+00 0. -1.
         21    1    1    2  503  502 -0.21731803066E+02 -0.14053300558E+02 -0.12683966808E+03  0.12945295640E+03  0.00000000000E+00 0. -1.
         21    1    1    2  504  501  0.21731803066E+02  0.14053300558E+02 -0.30872690697E+02  0.40285103350E+02  0.00000000000E+00 0.  1.
</event>
<event>
 4    1  0.3183954E+006  0.2304529E+02  0.7546771E-02  0.1491930E+00
         21   -1    0    0  504  501  0.00000000000E+00  0.00000000000E+00  0.78533527941E+01  0.78533527941E+01  0.00000000000E+00 0. -1.
         21   -1    0    0  501  502 -0.00000000000E+00 -0.00000000000E+00 -0.11221565938E+03  0.11221565938E+03  0.00000000000E+00 0. -1.
         21    1    1    2  503  502  0.91290826160E+01  0.21159989299E+02 -0.90024951808E+02  0.92927806627E+02  0.00000000000E+00 0. -1.
         21    1    1    2  504  503 -0.91290826160E+01 -0.21159989299E+02 -0.14337354779E+02  0.27141205548E+02  0.00000000000E+00 0. -1.
</event>
<event>
 4    1  0.3183954E+006  0.2089075E+02  0.7546771E-02  0.1520830E+00
         21   -1    0    0  504  501  0.00000000000E+00  0.00000000000E+00  0.68600057461E+02  0.68600057461E+02  0.00000000000E+00 0.  1.
         21   -1    0    0  501  502 -0.00000000000E+00 -0.00000000000E+00 -0.11245120712E+02  0.11245120712E+02  0.00000000000E+00 0.  1.
         21    1    1    2  503  502  0.20856821110E+02  0.11901035143E+01  0.23692159128E+01  0.21024664498E+02  0.00000000000E+00 0.  1.
         21    1    1    2  504  503 -0.20856821110E+02 -0.11901035143E+01  0.54985720836E+02  0.58820513675E+02  0.00000000000E+00 0.  1.
</event>
<event>
 4    1  0.3183954E+006  0.2237237E+02  0.7546771E-02  0.1500533E+00
         21   -1    0    0  503  501  0.00000000000E+00  0.00000000000E+00  0.11737285880E+04  0.11737285880E+04  0.00000000000E+00 0. -1.
         21   -1    0    0  501  502 -0.00000000000E+00 -0.00000000000E+00 -0.15166963847E+01  0.15166963847E+01  0.00000000000E+00 0. -1.
         21    1    1    2  503  504  0.10215103902E+02  0.19904136591E+02  0.10843175326E+04  0.10845483090E+04  0.00000000000E+00 0. -1.
         21    1    1    2  504  502 -0.10215103902E+02 -0.19904136591E+02  0.87894358970E+02  0.90696975362E+02  0.00000000000E+00 0. -1.
</event>
<event>
 4    1  0.3183954E+006  0.2386224E+02  0.7546771E-02  0.1481946E+00
         21   -1    0    0  504  501  0.00000000000E+00  0.00000000000E+00  0.90931864104E+02  0.90931864104E+02  0.00000000000E+00 0.  1.
         21   -1    0    0  503  502 -0.00000000000E+00 -0.00000000000E+00 -0.69644977946E+01  0.69644977946E+01  0.00000000000E+00 0.  1.
         21    1    1    2  503  501 -0.23860177683E+02  0.31396360217E+00  0.57530577377E+02  0.62283015226E+02  0.00000000000E+00 0.  1.
         21    1    1    2  504  502  0.23860177683E+02 -0.31396360217E+00  0.26436788932E+02  0.35613346673E+02  0.00000000000E+00 0.  1.
</event>
<event>
 4    1  0.3183954E+006  0.2127333E+02  0.7546771E-02  0.1515398E+00
         21   -1    0    0  504  501  0.00000000000E+00  0.00000000000E+00  0.66897875216E+03  0.66897875216E+03  0.00000000000E+00 0. -1.
         21   -1    0    0  503  502 -0.00000000000E+00 -0.00000000000E+00 -0.14389760197E+01  0.14389760197E+01  0.00000000000E+00 0.  1.
         21    1    1    2  503  501  0.19113210529E+02 -0.93402301777E+01  0.89760904174E+02  0.92247355706E+02  0.00000000000E+00 0.  1.
         21    1    1    2  504  502 -0.19113210529E+02  0.93402301777E+01  0.57777887196E+03  0.57817037247E+03  0.00000000000E+00 0. -1.
</event>
<event>
 4    1  0.3183954E+006  0.2487997E+02  0.7546771E-02  0.1470151E+00
         21   -1    0    0  504  501  0.00000000000E+00  0.00000000000E+00  0.13734184020E+01  0.13734184020E+01  0.00000000000E+00 0. -1.
         21   -1    0    0  503  502 -0.00000000000E+00 -0.00000000000E+00 -0.13522461966E+04  0.13522461966E+04  0.00000000000E+00 0.  1.
         21    1    1    2  503  501  0.11162942928E+02 -0.22235149030E+02 -0.12280612123E+04  0.12283132150E+04  0.00000000000E+00 0.  1.
         21    1    1    2  504  502 -0.11162942928E+02  0.22235149030E+02 -0.12281156597E+03  0.12530640001E+03  0.00000000000E+00 0. -1.
</event>
<event>
 4    1  0.3183954E+006  0.4471432E+02  0.7546771E-02  0.1322874E+00
         21   -1    0    0  503  501  0.00000000000E+00  0.00000000000E+00  0.45434264887E+03  0.45434264887E+03  0.00000000000E+00 0. -1.
         21   -1    0    0  501  502 -0.00000000000E+00 -0.00000000000E+00 -0.42323234088E+02  0.42323234088E+02  0.00000000000E+00 0. -1.
         21    1    1    2  503  504 -0.38235558623E+02  0.23182160809E+02  0.44107812295E+03  0.44333878813E+03  0.00000000000E+00 0. -1.
         21    1    1    2  504  502  0.38235558623E+02 -0.23182160809E+02 -0.29058708159E+02  0.53327094828E+02  0.00000000000E+00 0. -1.
</event>
<event>
 4    1  0.3183954E+006  0.2006038E+02  0.7546771E-02  0.1533115E+00
         21   -1    0    0  504  501  0.00000000000E+00  0.00000000000E+00  0.64877440654E+03  0.64877440654E+03  0.00000000000E+00 0. -1.
         21   -1    0    0  503  502 -0.00000000000E+00 -0.00000000000E+00 -0.36972344675E+01  0.36972344675E+01  0.00000000000E+00 0.  1.
         21    1    1    2  503  501  0.38819773714E+01 -0.19681187376E+02  0.24924146183E+02  0.31994248668E+02  0.00000000000E+00 0.  1.
         21    1    1    2  504  502 -0.38819773714E+01  0.19681187376E+02  0.62015302589E+03  0.62047739234E+03  0.00000000000E+00 0. -1.
</event>
<event>
 4    1  0.3183954E+006  0.2167458E+02  0.7546771E-02  0.1509848E+00
         21   -1    0    0  504  501  0.00000000000E+00  0.00000000000E+00  0.27872053084E+02  0.27872053084E+02  0.00000000000E+00 0.  1.
         21   -1    0    0  501  502 -0.00000000000E+00 -0.00000000000E+00 -0.11677102070E+03  0.11677102070E+03  0.00000000000E+00 0. -1.
         21    1    1    2  503  502 -0.10412802599E+02  0.19009495425E+02 -0.11134813591E+03  0.11343806568E+03  0.00000000000E+00 0. -1.
         21    1    1    2  504  503  0.10412802599E+02 -0.19009495425E+02  0.22449168289E+02  0.31205008111E+02  0.00000000000E+00 0.  1.
</event>
<event>
 4    1  0.3183954E+006  0.2124990E+02  0.7546771E-02  0.1515727E+00
         21   -1    0    0  502  501  0.00000000000E+00  0.00000000000E+00  0.16972224288E+03  0.16972224288E+03  0.00000000000E+00 0. -1.
         21   -1    0    0  504  502 -0.00000000000E+00 -0.00000000000E+00 -0.29096275471E+02  0.29096275471E+02  0.00000000000E+00 0.  1.
         21    1    1    2  503  501  0.19848845079E+02 -0.75882605696E+01  0.16506829623E+03  0.16643046827E+03  0.00000000000E+00 0. -1.
         21    1    1    2  504  503 -0.19848845079E+02  0.75882605696E+01 -0.24442328822E+02  0.32388050076E+02  0.00000000000E+00 0.  1.
</event>
<event>
 4    1  0.3183954E+006  0.2879907E+02  0.7546771E-02  0.1430328E+00
         21   -1    0    0  502  501  0.00000000000E+00  0.00000000000E+00  0.34504852682E+02  0.34504852682E+02  0.00000000000E+00 0. -1.
         21   -1    0    0  504  502 -0.00000000000E+00 -0.00000000000E+00 -0.10327879203E+03  0.10327879203E+03  0.00000000000E+00 0. -1.
         21    1    1    2  503  501  0.22100814482E+02  0.18464574732E+02  0.25957818676E+02  0.38771057133E+02  0.00000000000E+00 0. -1.
         21    1    1    2  504  503 -0.22100814482E+02 -0.18464574732E+02 -0.94731758027E+02  0.99012587582E+02  0.00000000000E+00 0. -1.
</event>
<event>
 4    1  0.3183954E+006  0.2463296E+02  0.7546771E-02  0.1472952E+00
         21   -1    0    0  504  501  0.00000000000E+00  0.00000000000E+00  0.14032272683E+03  0.14032272683E+03  0.00000000000E+00 0.  1.
         21   -1    0    0  503  502 -0.00000000000E+00 -0.00000000000E+00 -0.33545805437E+02  0.33545805437E+02  0.00000000000E+00 0.  1.
         21    1    1    2  503  501  0.23760062346E+02  0.64993792915E+01 -0.27749478282E+02  0.37105471817E+02  0.00000000000E+00 0.  1.
         21    1    1    2  504  502 -0.23760062346E+02 -0.64993792915E+01  0.13452639968E+03  0.13676306045E+03  0.00000000000E+00 0.  1.
</event>
<event>
 4    1  0.3183954E+006  0.3307887E+02  0.7546771E-02  0.1394597E+00
         21   -1    0    0  504  501  0.00000000000E+00  0.00000000000E+00  0.20553983379E+02  0.20553983379E+02  0.00000000000E+00 0.  1.
         21   -1    0    0  503  502 -0.00000000000E+00 -0.00000000000E+00 -0.83412137987E+02  0.83412137987E+02  0.00000000000E+00 0. -1.
         21    1    1    2  503  501 -0.29210918110E+02  0.15522035427E+02 -0.62695575028E+02  0.70886856672E+02  0.00000000000E+00 0. -1.
         21    1    1    2  504  502  0.29210918110E+02 -0.15522035427E+02 -0.16257957927E+00  0.33079264695E+02  0.00000000000E+00 0.  1.
</event>
<event>
 4    1  0.3183954E+006  0.2010995E+02  0.7546771E-02  0.1532362E+00
         21   -1    0    0  504  501  0.00000000000E+00  0.00000000000E+00  0.11074850594E+02  0.11074850594E+02  0.00000000000E+00 0.  1.
         21   -1    0    0  501  502 -0.00000000000E+00 -0.00000000000E+00 -0.36517141928E+02  0.36517141928E+02  0.00000000000E+00 0.  1.
         21    1    1    2  503  502  0.20089713919E+02 -0.90196626198E+00 -0.12592922371E+02  0.23727449132E+02  0.00000000000E+00 0.  1.
         21    1    1    2  504  503 -0.20089713919E+02  0.90196626198E+00 -0.12849368963E+02  0.23864543390E+02  0.00000000000E+00 0.  1.
</event>
<event>
 4    1  0.3183954E+006  0.2445435E+02  0.7546771E-02  0.1475001E+00
         21   -1    0    0  502  501  0.00000000000E+00  0.00000000000E+00  0.12482868553E+03  0.12482868553E+03  0.00000000000E+00 0.  1.
         21   -1    0    0  504  502 -0.00000000000E+00 -0.00000000000E+00 -0.74460691349E+01  0.74460691349E+01  0.00000000000E+00 0. -1.
         21    1    1    2  503  501  0.24286669812E+02  0.28588404015E+01  0.98186739515E+02  0.10118621999E+03  0.00000000000E+00 0.  1.
         21    1    1    2  504  503 -0.24286669812E+02 -0.28588404015E+01  0.19195876875E+02  0.31088534672E+02  0.00000000000E+00 0. -1.
</event>
<event>
 4    1  0.3183954E+006  0.2143139E+02  0.7546771E-02  0.1513194E+00
         21   -1    0    0  503  501  0.00000000000E+00  0.00000000000E+00  0.50221539093E+02  0.50221539093E+02  0.00000000000E+00 0.  1.
         21   -1    0    0  504  502 -0.00000000000E+00 -0.00000000000E+00 -0.10227427778E+02  0.10227427778E+02  0.00000000000E+00 0.  1.
         21    1    1    2  503  502  0.20183130366E+01  0.21336141354E+02  0.10166883910E+02  0.23720667019E+02  0.00000000000E+00 0.  1.
         21    1    1    2  504  501 -0.20183130366E+01 -0.21336141354E+02  0.29827227404E+02  0.36728299852E+02  0.00000000000E+00 0.  1.
</event>
<event>
 4    1  0.3183954E+006  0.2355278E+02  0.7546771E-02  0.1485671E+00
         21   -1    0    0  502  501  0.00000000000E+00  0.00000000000E+00  0.10005073897E+03  0.10005073897E+03  0.00000000000E+00 0.  1.
         21   -1    0    0  504  502 -0.00000000000E+00 -0.00000000000E+00 -0.52771637865E+02  0.52771637865E+02  0.00000000000E+00 0. -1.
         21    1    1    2  503  501 -0.13086767620E+02  0.19582387458E+02  0.95925249717E+02  0.98774424415E+02  0.00000000000E+00 0.  1.
         21    1    1    2  504  503  0.13086767620E+02 -0.19582387458E+02 -0.48646148616E+02  0.54047952417E+02  0.00000000000E+00 0. -1.
</event>
<event>
 4    1  0.3183954E+006  0.2287828E+02  0.7546771E-02  0.1494032E+00
         21   -1    0    0  504  501  0.00000000000E+00  0.00000000000E+00  0.97622654649E+00  0.97622654649E+00  0.00000000000E+00 0.  1.
         21   -1    0    0  503  502 -0.00000000000E+00 -0.00000000000E+00 -0.55278356629E+03  0.55278356629E+03  0.00000000000E+00 0.  1.
         21    1    1    2  503  501  0.22263684700E+02  0.52672676924E+01 -0.32391539632E+03  0.32472234253E+03  0.00000000000E+00 0.  1.
         21    1    1    2  504  502 -0.22263684700E+02 -0.52672676924E+01 -0.22789194343E+03  0.22903745031E+03  0.00000000000E+00 0.  1.
</event>
<event>
 4    1  0.3183954E+006  0.2284391E+02  0.7546771E-02  0.1494468E+00
         21   -1    0    0  504  501  0.00000000000E+00  0.00000000000E+00  0.90924800249E+01  0.90924800249E+01  0.00000000000E+00 0.  1.
         21   -1    0    0  503  502 -0.00000000000E+00 -0.00000000000E+00 -0.67822396738E+02  0.67822396738E+02  0.00000000000E+00 0.  1.
         21    1    1    2  503  501 -0.11633791487E+02  0.19659580472E+02 -0.14284153525E+02  0.26942183479E+02  0.00000000000E+00 0.  1.
         21    1    1    2  504  502  0.11633791487E+02 -0.19659580472E+02 -0.44445763189E+02  0.49972693285E+02  0.00000000000E+00 0.  1.
</event>
<event>
 4    1  0.3183954E+006  0.8440513E+02  0.7546771E-02  0.1193974E+00
         21   -1    0    0  503  501  0.00000000000E+00  0.00000000000E+00  0.10322738540E+03  0.10322738540E+03  0.00000000000E+00 0.  1.
         21   -1    0    0  504  502 -0.00000000000E+00 -0.00000000000E+00 -0.14595368086E+03  0.14595368086E+03  0.00000000000E+00 0. -1.
         21    1    1    2  503  502 -0.72894638453E+02  0.42551108248E+02  0.69095530612E+02  0.10907986743E+03  0.00000000000E+00 0.  1.
         21    1    1    2  504  501  0.72894638453E+02 -0.42551108248E+02 -0.11182182607E+03  0.14010119884E+03  0.00000000000E+00 0. -1.
</event>
<event>
 4    1  0.3183954E+006  0.2036749E+02  0.7546771E-02  0.1528490E+00
         21   -1    0    0  503  501  0.00000000000E+00  0.00000000000E+00  0.64627874289E+01  0.64627874289E+01  0.00000000000E+00 0.  1.
         21   -1    0    0  504  502 -0.00000000000E+00 -0.00000000000E+00 -0.10617769710E+03  0.10617769710E+03  0.00000000000E+00 0.  1.
         21    1    1    2  503  502  0.34798073308E+01 -0.20068024833E+02 -0.85274979896E+02  0.87673581403E+02  0.00000000000E+00 0.  1.
         21    1    1    2  504  501 -0.34798073308E+01  0.20068024833E+02 -0.14439929774E+02  0.24966903125E+02  0.00000000000E+00 0.  1.
</event>
<event>
 4    1  0.3183954E+006  0.2363589E+02  0.7546771E-02  0.1484664E+00
         21   -1    0    0  502  501  0.00000000000E+00  0.00000000000E+00  0.37696985734E+03  0.37696985734E+03  0.00000000000E+00 0.  1.
         21   -1    0    0  504  502 -0.00000000000E+00 -0.00000000000E+00 -0.47377661603E+02  0.47377661603E+02  0.00000000000E+00 0.  1.
         21    1    1    2  503  501  0.56944768295E+01  0.22939660727E+02  0.37362512093E+03  0.37437198892E+03  0.00000000000E+00 0.  1.
         21    1    1    2  504  503 -0.56944768295E+01 -0.22939660727E+02 -0.44032925188E+02  0.49975530025E+02  0.00000000000E+00 0.  1.
</event>
<event>
 4    1  0.3183954E+006  0.2916584E+02  0.7546771E-02  0.1426986E+00
         21   -1    0    0  504  501  0.00000000000E+00  0.00000000000E+00  0.12750692542E+02  0.12750692542E+02  0.00000000000E+00 0.  1.
         21   -1    0    0  503  502 -0.00000000000E+00 -0.00000000000E+00 -0.67432729492E+02  0.67432729492E+02  0.00000000000E+00 0.  1.
         21    1    1    2  503  501 -0.26845167114E+02  0.11401022889E+02 -0.23201192597E+02  0.37268507593E+02  0.00000000000E+00 0.  1.
         21    1    1    2  504  502  0.26845167114E+02 -0.11401022889E+02 -0.31480844353E+02  0.42914914441E+02  0.00000000000E+00 0.  1.
</event>
<event>
 4    1  0.3183954E+006  0.2022230E+02  0.7546771E-02  0.1530664E+00
         21   -1    0    0  503  501  0.00000000000E+00  0.00000000000E+00  0.42052992115E+01  0.42052992115E+01  0.00000000000E+00 0. -1.
         21   -1    0    0  504  502 -0.00000000000E+00 -0.00000000000E+00 -0.11999112910E+04  0.11999112910E+04  0.00000000000E+00 0. -1.
         21    1    1    2  503  502  0.17934341617E+02  0.93435007442E+01 -0.20706384294E+02  0.28942977834E+02  0.00000000000E+00 0. -1.
         21    1    1    2  504  501 -0.17934341617E+02 -0.93435007442E+01 -0.11749996075E+04  0.11751736124E+04  0.00000000000E+00 0. -1.
</event>
<event>
 4    1  0.3183954E+006  0.3112486E+02  0.7546771E-02  0.1410067E+00
         21   -1    0    0  504  501  0.00000000000E+00  0.00000000000E+00  0.54460891097E+03  0.54460891097E+03  0.00000000000E+00 0. -1.
         21   -1    0    0  501  502 -0.00000000000E+00 -0.00000000000E+00 -0.62943475033E+01  0.62943475033E+01  0.00000000000E+00 0. -1.
         21    1    1    2  503  502  0.86082412214E+01 -0.29910782563E+02  0.35851968171E+02  0.47477577362E+02  0.00000000000E+00 0. -1.
         21    1    1    2  504  503 -0.86082412214E+01  0.29910782563E+02  0.50246259529E+03  0.50342568111E+03  0.00000000000E+00 0. -1.
</event>
<event>
 4    1  0.3183954E+006  0.2104935E+02  0.7546771E-02  0.1518561E+00
         21   -1    0    0  504  501  0.00000000000E+00  0.00000000000E+00  0.24067309586E+03  0.24067309586E+03  0.00000000000E+00 0. -1.
         21   -1    0    0  503  502 -0.00000000000E+00 -0.00000000000E+00 -0.18861377472E+01  0.18861377472E+01  0.00000000000E+00 0. -1.
         21    1    1    2  503  501 -0.96048939924E+01  0.18730216637E+02  0.10062823133E+03  0.10280620577E+03  0.00000000000E+00 0. -1.
         21    1    1    2  504  502  0.96048939924E+01 -0.18730216637E+02  0.13815872678E+03  0.13975302784E+03  0.00000000000E+00 0. -1.
</event>
<event>
 4    1  0.3183954E+006  0.4252398E+02  0.7546771E-02  0.1334298E+00
         21   -1    0    0  503  501  0.00000000000E+00  0.00000000000E+00  0.85018680220E+02  0.85018680220E+02  0.00000000000E+00 0. -1.
         21   -1    0    0  504  502 -0.00000000000E+00 -0.00000000000E+00 -0.21304684324E+02  0.21304684324E+02  0.00000000000E+00 0. -1.
         21    1    1    2  503  502  0.37963300035E+02  0.19159254494E+02  0.34023045128E+02  0.54459680334E+02  0.00000000000E+00 0. -1.
         21    1    1    2  504  501 -0.37963300035E+02 -0.19159254494E+02  0.29690950768E+02  0.51863684209E+02  0.00000000000E+00 0. -1.
</event>
<event>
 4    1  0.3183954E+006  0.1817300E+03  0.7546771E-02  0.1068905E+00
         21   -1    0    0  503  501  0.00000000000E+00  0.00000000000E+00  0.20920040557E+03  0.20920040557E+03  0.00000000000E+00 0. -1.
         21   -1    0    0  504  502 -0.00000000000E+00 -0.00000000000E+00 -0.16264251570E+03  0.16264251570E+03  0.00000000000E+00 0. -1.
         21    1    1    2  503  502  0.55012084819E+02 -0.17320351492E+03 -0.85802076349E+01  0.18193242432E+03  0.00000000000E+00 0. -1.
         21    1    1    2  504  501 -0.55012084819E+02  0.17320351492E+03  0.55138097503E+02  0.18991049695E+03  0.00000000000E+00 0. -1.
</event>
<event>
 4    1  0.3183954E+006  0.2984860E+02  0.7546771E-02  0.1420917E+00
         21   -1    0    0  504  501  0.00000000000E+00  0.00000000000E+00  0.52922251320E+01  0.52922251320E+01  0.00000000000E+00 0. -1.
         21   -1    0    0  503  502 -0.00000000000E+00 -0.00000000000E+00 -0.28225006430E+03  0.28225006430E+03  0.00000000000E+00 0. -1.
         21    1    1    2  503  501 -0.12245594780E+02 -0.27221032141E+02 -0.22981012358E+03  0.23174044119E+03  0.00000000000E+00 0. -1.
         21    1    1    2  504  502  0.12245594780E+02  0.27221032141E+02 -0.47147715592E+02  0.55801848248E+02  0.00000000000E+00 0. -1.
</event>
<event>
 4    1  0.3183954E+006  0.2064516E+02  0.7546771E-02  0.1524392E+00
         21   -1    0    0  504  501  0.00000000000E+00  0.00000000000E+00  0.63371390946E+00  0.63371390946E+00  0.00000000000E+00 0.  1.
         21   -1    0    0  503  502 -0.00000000000E+00 -0.00000000000E+00 -0.79107100873E+03  0.79107100873E+03  0.00000000000E+00 0.  1.
         21    1    1    2  503  501  0.20525399408E+02  0.22204997572E+01 -0.54842265150E+03  0.54881110349E+03  0.00000000000E+00 0.  1.
         21    1    1    2  504  502 -0.20525399408E+02 -0.22204997572E+01 -0.24201464332E+03  0.24289361915E+03  0.00000000000E+00 0.  1.
</event>
<event>
 4    1  0.3183954E+006  0.2042336E+02  0.7546771E-02  0.1527659E+00
         21   -1    0    0  502  501  0.00000000000E+00  0.00000000000E+00  0.53645085378E+03  0.53645085378E+03  0.00000000000E+00 0.  1.
         21   -1    0    0  504  502 -0.00000000000E+00 -0.00000000000E+00 -0.12329738418E+02  0.12329738418E+02  0.00000000000E+00 0. -1.
         21    1    1    2  503  501  0.58789185095E+00  0.20414898836E+02  0.52765811505E+03  0.52805321710E+03  0.00000000000E+00 0.  1.
         21    1    1    2  504  503 -0.58789185095E+00 -0.20414898836E+02 -0.35369996954E+01  0.20727375091E+02  0.00000000000E+00 0. -1.
</event>
<event>
 4    1  0.3183954E+006  0.2754926E+02  0.7546771E-02  0.1442167E+00
         21   -1    0    0  503  501  0.00000000000E+00  0.00000000000E+00  0.14442153904E+02  0.14442153904E+02  0.00000000000E+00 0. -1.
         21   -1    0    0  501  502 -0.00000000000E+00 -0.00000000000E+00 -0.12138348334E+03  0.12138348334E+03  0.00000000000E+00 0. -1.
         21    1    1    2  503  504 -0.26702413014E+02 -0.67781275049E+01 -0.23300431515E+01  0.27647621495E+02  0.00000000000E+00 0. -1.
         21    1    1    2  504  502  0.26702413014E+02  0.67781275049E+01 -0.10461128629E+03  0.10817801575E+03  0.00000000000E+00 0. -1.
</event>
<event>
 4    1  0.3183954E+006  0.2209459E+02  0.7546771E-02  0.1504192E+00
         21   -1    0    0  503  501  0.00000000000E+00  0.00000000000E+00  0.19149006570E+03  0.19149006570E+03  0.00000000000E+00 0. -1.
         21   -1    0    0  504  502 -0.00000000000E+00 -0.00000000000E+00 -0.91520044038E+01  0.91520044038E+01  0.00000000000E+00 0. -1.
         21    1    1    2  503  502 -0.16560301960E+02 -0.14626248202E+02  0.59583678620E+01  0.22883900127E+02  0.00000000000E+00 0. -1.
         21    1    1    2  504  501  0.16560301960E+02  0.14626248202E+02  0.17637969344E+03  0.17775816998E+03  0.00000000000E+00 0. -1.
</event>
<event>
 4    1  0.3183954E+006  0.2513867E+02  0.7546771E-02  0.1467258E+00
         21   -1    0    0  502  501  0.00000000000E+00  0.00000000000E+00  0.21858347934E+03  0.21858347934E+03  0.00000000000E+00 0.  1.
         21   -1    0    0  503  502 -0.00000000000E+00 -0.00000000000E+00 -0.38720539833E+01  0.38720539833E+01  0.00000000000E+00 0. -1.
         21    1    1    2  503  504 -0.17083948189E+02  0.18441572717E+02  0.51372146320E+02  0.57193096677E+02  0.00000000000E+00 0. -1.
         21    1    1    2  504  501  0.17083948189E+02 -0.18441572717E+02  0.16333927904E+03  0.16526243665E+03  0.00000000000E+00 0.  1.
</event>
<event>
 4    1  0.3183954E+006  0.4208640E+02  0.7546771E-02  0.1336675E+00
         21   -1    0    0  503  501  0.00000000000E+00  0.00000000000E+00  0.29994906726E+02  0.29994906726E+02  0.00000000000E+00 0. -1.
         21   -1    0    0  501  502 -0.00000000000E+00 -0.00000000000E+00 -0.14659573180E+03  0.14659573180E+03  0.00000000000E+00 0.  1.
         21    1    1    2  503  504  0.28793448313E+02  0.30695314922E+02  0.99317392035E+01  0.43242392019E+02  0.00000000000E+00 0. -1.
         21    1    1    2  504  502 -0.28793448313E+02 -0.30695314922E+02 -0.12653256428E+03  0.13334824651E+03  0.00000000000E+00 0.  1.
</event>
<event>
 4    1  0.3183954E+006  0.2043414E+02  0.7546771E-02  0.1527499E+00
         21   -1    0    0  502  501  0.00000000000E+00  0.00000000000E+00  0.18325082546E+01  0.18325082546E+01  0.00000000000E+00 0.  1.
         21   -1    0    0  503  502 -0.00000000000E+00 -0.00000000000E+00 -0.24510334940E+03  0.24510334940E+03  0.00000000000E+00 0. -1.
         21    1    1    2  503  504 -0.18937524537E+02  0.76762004211E+01 -0.15438458820E+03  0.15573103403E+03  0.00000000000E+00 0. -1.
         21    1    1    2  504  501  0.18937524537E+02 -0.76762004211E+01 -0.88886252947E+02  0.91204823619E+02  0.00000000000E+00 0.  1.
</event>
<event>
 4    1  0.3183954E+006  0.2175294E+02  0.7546771E-02  0.1508781E+00
         21   -1    0    0  504  501  0.00000000000E+00  0.00000000000E+00  0.59504676451E+00  0.59504676451E+00  0.00000000000E+00 0. -1.
         21   -1    0    0  503  502 -0.00000000000E+00 -0.00000000000E+00 -0.14004247957E+04  0.14004247957E+04  0.00000000000E+00 0. -1.
         21    1    1    2  503  501  0.48115117529E+01  0.21214138193E+02 -0.11604229532E+04  0.11606268222E+04  0.00000000000E+00 0. -1.
         21    1    1    2  504  502 -0.48115117529E+01 -0.21214138193E+02 -0.23940679580E+03  0.24039302023E+03  0.00000000000E+00 0. -1.
</event>
<event>
 4    1  0.3183954E+006  0.2467289E+02  0.7546771E-02  0.1472496E+00
         21   -1    0    0  503  501  0.00000000000E+00  0.00000000000E+00  0.93785232359E+00  0.93785232359E+00  0.00000000000E+00 0.  1.
         21   -1    0    0  504  502 -0.00000000000E+00 -0.00000000000E+00 -0.82604152522E+03  0.82604152522E+03  0.00000000000E+00 0.  1.
         21    1    1    2  503  502 -0.31546026610E-01 -0.24672866320E+02 -0.22117476655E+03  0.22254668877E+03  0.00000000000E+00 0.  1.
         21    1    1    2  504  501  0.31546026610E-01  0.24672866320E+02 -0.60392890635E+03  0.60443268877E+03  0.00000000000E+00 0.  1.
</event>
<event>
 4    1  0.3183954E+006  0.2191921E+02  0.7546771E-02  0.1506535E+00
         21   -1    0    0  503  501  0.00000000000E+00  0.00000000000E+00  0.10808484429E+03  0.10808484429E+03  0.00000000000E+00 0.  1.
         21   -1    0    0  501  502 -0.00000000000E+00 -0.00000000000E+00 -0.51305448057E+01  0.51305448057E+01  0.00000000000E+00 0.  1.
         21    1    1    2  503  504 -0.43125664860E+01  0.21490782705E+02  0.72167515074E+02  0.75422822825E+02  0.00000000000E+00 0.  1.
         21    1    1    2  504  502  0.43125664860E+01 -0.21490782705E+02  0.30786784410E+02  0.37792566270E+02  0.00000000000E+00 0.  1.
</event>
<event>
 4    1  0.3183954E+006  0.2112947E+02  0.7546771E-02  0.1517424E+00
         21   -1    0    0  503  501  0.00000000000E+00  0.00000000000E+00  0.24277009991E+02  0.24277009991E+02  0.00000000000E+00 0.  1.
         21   -1    0    0  504  502 -0.00000000000E+00 -0.00000000000E+00 -0.26966393016E+02  0.26966393016E+02  0.00000000000E+00 0.  1.
         21    1    1    2  503  502 -0.19882723448E+02 -0.71506657799E+01 -0.15794042952E+02  0.26380039908E+02  0.00000000000E+00 0.  1.
         21    1    1    2  504  501  0.19882723448E+02  0.71506657799E+01  0.13104659926E+02  0.24863363099E+02  0.00000000000E+00 0.  1.
</event>
<event>
 4    1  0.3183954E+006  0.2191938E+02  0.7546771E-02  0.1506532E+00
         21   -1    0    0  504  501  0.00000000000E+00  0.00000000000E+00  0.19062188766E+03  0.19062188766E+03  0.00000000000E+00 0.  1.
         21   -1    0    0  503  502 -0.00000000000E+00 -0.00000000000E+00 -0.31687618642E+01  0.31687618642E+01  0.00000000000E+00 0.  1.
         21    1    1    2  503  501  0.20983234580E+02  0.63374404191E+01  0.49899854718E+02  0.54501878733E+02  0.00000000000E+00 0.  1.
         21    1    1    2  504  502 -0.20983234580E+02 -0.63374404191E+01  0.13755327107E+03  0.13928877079E+03  0.00000000000E+00 0.  1.
</event>
<event>
 4    1  0.3183954E+006  0.2087660E+02  0.7546771E-02  0.1521034E+00
         21   -1    0    0  503  501  0.00000000000E+00  0.00000000000E+00  0.34930796434E+03  0.34930796434E+03  0.00000000000E+00 0. -1.
         21   -1    0    0  504  502 -0.00000000000E+00 -0.00000000000E+00 -0.12955729448E+02  0.12955729448E+02  0.00000000000E+00 0.  1.
         21    1    1    2  503  502  0.19173564503E+02 -0.82587335986E+01 -0.40130180930E+01  0.21258799840E+02  0.00000000000E+00 0.  1.
         21    1    1    2  504  501 -0.19173564503E+02  0.82587335986E+01  0.34036525299E+03  0.34100489395E+03  0.00000000000E+00 0. -1.
</event>
<event>
 4    1  0.3183954E+006  0.2173009E+02  0.7546771E-02  0.1509091E+00
         21   -1    0    0  503  501  0.00000000000E+00  0.00000000000E+00  0.76272549301E+02  0.76272549301E+02  0.00000000000E+00 0. -1.
         21   -1    0    0  504  502 -0.00000000000E+00 -0.00000000000E+00 -0.37093452020E+02  0.37093452020E+02  0.00000000000E+00 0. -1.
         21    1    1    2  503  502  0.15671512848E+02  0.15053251569E+02  0.71326554355E+02  0.74563221858E+02  0.00000000000E+00 0. -1.
         21    1    1    2  504  501 -0.15671512848E+02 -0.15053251569E+02 -0.32147457073E+02  0.38802779463E+02  0.00000000000E+00 0. -1.
</event>
<event>
 4    1  0.3183954E+006  0.2401598E+02  0.7546771E-02  0.1480120E+00
         21   -1    0    0  503  501  0.00000000000E+00  0.00000000000E+00  0.30891712133E+02  0.30891712133E+02  0.00000000000E+00 0.  1.
         21   -1    0    0  504  502 -0.00000000000E+00 -0.00000000000E+00 -0.26023773556E+02  0.26023773556E+02  0.00000000000E+00 0.  1.
         21    1    1    2  503  502 -0.65111171744E+01  0.23116500640E+02  0.17560951454E+02  0.29751542223E+02  0.00000000000E+00 0.  1.
         21    1    1    2  504  501  0.65111171744E+01 -0.23116500640E+02 -0.12693012878E+02  0.27163943466E+02  0.00000000000E+00 0.  1.
</event>
<event>
 4    1  0.3183954E+006  0.2036390E+02  0.7546771E-02  0.1528544E+00
         21   -1    0    0  502  501  0.00000000000E+00  0.00000000000E+00  0.29796268261E+01  0.29796268261E+01  0.00000000000E+00 0. -1.
         21   -1    0    0  504  502 -0.00000000000E+00 -0.00000000000E+00 -0.23903831614E+03  0.23903831614E+03  0.00000000000E+00 0. -1.
         21    1    1    2  503  501 -0.12645587530E+02 -0.15961752106E+02 -0.39814778682E+02  0.44720297582E+02  0.00000000000E+00 0. -1.
         21    1    1    2  504  503  0.12645587530E+02  0.15961752106E+02 -0.19624391063E+03  0.19729764538E+03  0.00000000000E+00 0. -1.
</event>
<event>
 4    1  0.3183954E+006  0.2809813E+02  0.7546771E-02  0.1436878E+00
         21   -1    0    0  503  501  0.00000000000E+00  0.00000000000E+00  0.18759717828E+03  0.18759717828E+03  0.00000000000E+00 0. -1.
         21   -1    0    0  501  502 -0.00000000000E+00 -0.00000000000E+00 -0.24234783789E+02  0.24234783789E+02  0.00000000000E+00 0. -1.
         21    1    1    2  503  504 -0.26602717116E+02  0.90443665562E+01  0.17796250108E+03  0.18016702505E+03  0.00000000000E+00 0. -1.
         21    1    1    2  504  502  0.26602717116E+02 -0.90443665562E+01 -0.14600106586E+02  0.31664937023E+02  0.00000000000E+00 0. -1.
</event>
<event>
 4    1  0.3183954E+006  0.3894715E+02  0.7546771E-02  0.1354768E+00
         21   -1    0    0  503  501  0.00000000000E+00  0.00000000000E+00  0.27973086900E+02  0.27973086900E+02  0.00000000000E+00 0. -1.
         21   -1    0    0  504  502 -0.00000000000E+00 -0.00000000000E+00 -0.71959806944E+02  0.71959806944E+02  0.00000000000E+00 0. -1.
         21    1    1    2  503  502 -0.37588200871E+02 -0.10198405140E+02  0.28110749842E+01  0.39048462898E+02  0.00000000000E+00 0. -1.
         21    1    1    2  504  501  0.37588200871E+02  0.10198405140E+02 -0.46797795029E+02  0.60884430946E+02  0.00000000000E+00 0. -1.
</event>
<event>
 4    1  0.3183954E+006  0.3331864E+02  0.7546771E-02  0.1392785E+00
         21   -1    0    0  503  501  0.00000000000E+00  0.00000000000E+00  0.77430201965E+01  0.77430201965E+01  0.00000000000E+00 0.  1.
         21   -1    0    0  504  502 -0.00000000000E+00 -0.00000000000E+00 -0.14523514917E+03  0.14523514917E+03  0.00000000000E+00 0.  1.
         21    1    1    2  503  502  0.85644558205E+01 -0.32199097439E+02 -0.77409599194E+02  0.84275606356E+02  0.00000000000E+00 0.  1.
         21    1    1    2  504  501 -0.85644558205E+01  0.32199097439E+02 -0.60082529780E+02  0.68702563010E+02  0.00000000000E+00 0.  1.
</event>
<event>
 4    1  0.3183954E+006  0.2065888E+02  0.7546771E-02  0.1524191E+00
         21   -1    0    0  503  501  0.00000000000E+00  0.00000000000E+00  0.67902929238E+02  0.67902929238E+02  0.00000000000E+00 0. -1.
         21   -1    0    0  501  502 -0.00000000000E+00 -0.00000000000E+00 -0.64430429496E+02  0.64430429496E+02  0.00000000000E+00 0.  1.
         21    1    1    2  503  504  0.20565957227E+02 -0.19572273294E+01  0.64592801222E+02  0.67816069668E+02  0.00000000000E+00 0. -1.
         21    1    1    2  504  502 -0.20565957227E+02  0.19572273294E+01 -0.61120301480E+02  0.64517289066E+02  0.00000000000E+00 0.  1.
</event>
<event>
 4    1  0.3183954E+006  0.2375597E+02  0.7546771E-02  0.1483217E+00
         21   -1    0    0  503  501  0.00000000000E+00  0.00000000000E+00  0.39616644128E+03  0.39616644128E+03  0.00000000000E+00 0.  1.
         21   -1    0    0  501  502 -0.00000000000E+00 -0.00000000000E+00 -0.16494211734E+01  0.16494211734E+01  0.00000000000E+00 0.  1.
         21    1    1    2  503  504  0.22571590851E+02 -0.74073831245E+01  0.27070728701E+03  0.27174764264E+03  0.00000000000E+00 0.  1.
         21    1    1    2  504  502 -0.22571590851E+02  0.74073831245E+01  0.12380973310E+03  0.12606821982E+03  0.00000000000E+00 0.  1.
</event>
<event>
 4    1  0.3183954E+006  0.2316404E+02  0.7546771E-02  0.1490448E+00
         21   -1    0    0  503  501  0.00000000000E+00  0.00000000000E+00  0.10880346326E+02  0.10880346326E+02  0.00000000000E+00 0.  1.
         21   -1    0    0  501  502 -0.00000000000E+00 -0.00000000000E+00 -0.10473209785E+03  0.10473209785E+03  0.00000000000E+00 0.  1.
         21    1    1    2  503  504 -0.10241262478E+02  0.20777134576E+02 -0.48770847030E+01  0.23671897549E+02  0.00000000000E+00 0.  1.
         21    1    1    2  504  502  0.10241262478E+02 -0.20777134576E+02 -0.88974666817E+02  0.91940546624E+02  0.00000000000E+00 0.  1.
</event>
<event>
 4    1  0.3183954E+006  0.3911550E+02  0.7546771E-02  0.1353748E+00
         21   -1    0    0  502  501  0.00000000000E+00  0.00000000000E+00  0.22035217909E+03  0.22035217909E+03  0.00000000000E+00 0.  1.
         21   -1    0    0  504  502 -0.00000000000E+00 -0.00000000000E+00 -0.15833682363E+02  0.15833682363E+02  0.00000000000E+00 0. -1.
         21    1    1    2  503  501  0.28326512525E+02 -0.26974642117E+02  0.19074787709E+03  0.19471716731E+03  0.00000000000E+00 0.  1.
         21    1    1    2  504  503 -0.28326512525E+02  0.26974642117E+02  0.13770619639E+02  0.41468694149E+02  0.00000000000E+00 0. -1.
</event>
<event>
 4    1  0.3183954E+006  0.3556598E+02  0.7546771E-02  0.1376627E+00
         21   -1    0    0  502  501  0.00000000000E+00  0.00000000000E+00  0.83562595230E+02  0.83562595230E+02  0.00000000000E+00 0. -1.
         21   -1    0    0  503  502 -0.00000000000E+00 -0.00000000000E+00 -0.17433854876E+03  0.17433854876E+03  0.00000000000E+00 0.  1.
         21    1    1    2  503  504 -0.25908360017E+02 -0.24365870693E+02 -0.16861312772E+03  0.17232331709E+03  0.00000000000E+00 0.  1.
         21    1    1    2  504  501  0.25908360017E+02  0.24365870693E+02  0.77837174183E+02  0.85577826907E+02  0.00000000000E+00 0. -1.
</event>
<event>
 4    1  0.3183954E+006  0.2686639E+02  0.7546771E-02  0.1448955E+00
         21   -1    0    0  502  501  0.00000000000E+00  0.00000000000E+00  0.46723274030E+02  0.46723274030E+02  0.00000000000E+00 0. -1.
         21   -1    0    0  503  502 -0.00000000000E+00 -0.00000000000E+00 -0.44426252779E+02  0.44426252779E+02  0.00000000000E+00 0. -1.
         21    1    1    2  503  504  0.72433537090E+01  0.25871541889E+02 -0.35659063602E+02  0.44647191061E+02  0.00000000000E+00 0. -1.
         21    1    1    2  504  501 -0.72433537090E+01 -0.25871541889E+02  0.37956084853E+02  0.46502335748E+02  0.00000000000E+00 0. -1.
</event>
<event>
 4    1  0.3183954E+006  0.3007686E+02  0.7546771E-02  0.1418930E+00
         21   -1    0    0  504  501  0.00000000000E+00  0.00000000000E+00  0.87355840005E+03  0.87355840005E+03  0.00000000000E+00 0.  1.
         21   -1    0    0  503  502 -0.00000000000E+00 -0.00000000000E+00 -0.10586786234E+01  0.10586786234E+01  0.00000000000E+00 0. -1.
         21    1    1    2  503  501 -0.23515292773E+02  0.18752293408E+02  0.50088023879E+03  0.50178245397E+03  0.00000000000E+00 0.  1.
         21    1    1    2  504  502  0.23515292773E+02 -0.18752293408E+02  0.37161948264E+03  0.37283462470E+03  0.00000000000E+00 0. -1.
</event>
<event>
 4    1  0.3183954E+006  0.2471999E+02  0.7546771E-02  0.1471960E+00
         21   -1    0    0  503  501  0.00000000000E+00  0.00000000000E+00  0.73621928489E+01  0.73621928489E+01  0.00000000000E+00 0. -1.
         21   -1    0    0  504  502 -0.00000000000E+00 -0.00000000000E+00 -0.60797161499E+03  0.60797161499E+03  0.00000000000E+00 0.  1.
         21    1    1    2  503  502  0.42007707004E+01 -0.24360447837E+02 -0.14409982415E+02  0.28613379502E+02  0.00000000000E+00 0. -1.
         21    1    1    2  504  501 -0.42007707004E+01  0.24360447837E+02 -0.58619943973E+03  0.58672042834E+03  0.00000000000E+00 0.  1.
</event>
<event>
 4    1  0.3183954E+006  0.2248226E+02  0.7546771E-02  0.1499104E+00
         21   -1    0    0  503  501  0.00000000000E+00  0.00000000000E+00  0.10324118699E+02  0.10324118699E+02  0.00000000000E+00 0.  1.
         21   -1    0    0  501  502 -0.00000000000E+00 -0.00000000000E+00 -0.25679856058E+03  0.25679856058E+03  0.00000000000E+00 0. -1.
         21    1    1    2  503  504 -0.19228437078E+02  0.11649866046E+02 -0.30801799188E+01  0.22692282381E+02  0.00000000000E+00 0.  1.
         21    1    1    2  504  502  0.19228437078E+02 -0.11649866046E+02 -0.24339426196E+03  0.24443039689E+03  0.00000000000E+00 0. -1.
</event>
<event>
 4    1  0.3183954E+006  0.2991980E+02  0.7546771E-02  0.1420295E+00
         21   -1    0    0  502  501  0.00000000000E+00  0.00000000000E+00  0.19372298787E+04  0.19372298787E+04  0.00000000000E+00 0.  1.
         21   -1    0    0  504  502 -0.00000000000E+00 -0.00000000000E+00 -0.23506624454E+01  0.23506624454E+01  0.00000000000E+00 0.  1.
         21    1    1    2  503  501  0.29546107834E+02 -0.47140205619E+01  0.18366968754E+04  0.18369405561E+04  0.00000000000E+00 0.  1.
         21    1    1    2  504  503 -0.29546107834E+02  0.47140205619E+01  0.98182340857E+02  0.10263998507E+03  0.00000000000E+00 0.  1.
</event>
<event>
 4    1  0.3183954E+006  0.2663352E+02  0.7546771E-02  0.1451325E+00
         21   -1    0    0  502  501  0.00000000000E+00  0.00000000000E+00  0.74521961531E+03  0.74521961531E+03  0.00000000000E+00 0.  1.
         21   -1    0    0  503  502 -0.00000000000E+00 -0.00000000000E+00 -0.11671659628E+01  0.11671659628E+01  0.00000000000E+00 0.  1.
         21    1    1    2  503  504  0.25967980061E+02  0.59168013118E+01  0.21174008892E+03  0.21340855133E+03  0.00000000000E+00 0.  1.
         21    1    1    2  504  501 -0.25967980061E+02 -0.59168013118E+01  0.53231236043E+03  0.53297822994E+03  0.00000000000E+00 0.  1.
</event>
<event>
 4    1  0.3183954E+006  0.2122582E+02  0.7546771E-02  0.1516065E+00
         21   -1    0    0  503  501  0.00000000000E+00  0.00000000000E+00  0.40971065058E+03  0.40971065058E+03  0.00000000000E+00 0. -1.
         21   -1    0    0  504  502 -0.00000000000E+00 -0.00000000000E+00 -0.16768439661E+01  0.16768439661E+01  0.00000000000E+00 0.  1.
         21    1    1    2  503  502 -0.20525063303E+02 -0.54089888770E+01  0.32469774984E+03  0.32539078680E+03  0.00000000000E+00 0. -1.
         21    1    1    2  504  501  0.20525063303E+02  0.54089888770E+01  0.83336056778E+02  0.85996707748E+02  0.00000000000E+00 0.  1.
</event>
<event>
 4    1  0.3183954E+006  0.2139255E+02  0.7546771E-02  0.1513733E+00
         21   -1    0    0  503  501  0.00000000000E+00  0.00000000000E+00  0.10088423451E+03  0.10088423451E+03  0.00000000000E+00 0. -1.
         21   -1    0    0  504  502 -0.00000000000E+00 -0.00000000000E+00 -0.45365062379E+01  0.45365062379E+01  0.00000000000E+00 0. -1.
         21    1    1    2  503  502  0.77558247030E+01  0.19937112065E+02  0.48528399690E+02  0.53034392905E+02  0.00000000000E+00 0. -1.
         21    1    1    2  504  501 -0.77558247030E+01 -0.19937112065E+02  0.47819328586E+02  0.52386347847E+02  0.00000000000E+00 0. -1.
</event>
<event>
 4    1  0.3183954E+006  0.2669842E+02  0.7546771E-02  0.1450661E+00
         21   -1    0    0  503  501  0.00000000000E+00  0.00000000000E+00  0.82038725573E+03  0.82038725573E+03  0.00000000000E+00 0.  1.
         21   -1    0    0  504  502 -0.00000000000E+00 -0.00000000000E+00 -0.24461021711E+01  0.24461021711E+01  0.00000000000E+00 0. -1.
         21    1    1    2  503  502 -0.15694549641E+02  0.21598309148E+02  0.73933485916E+03  0.73981676097E+03  0.00000000000E+00 0.  1.
         21    1    1    2  504  501  0.15694549641E+02 -0.21598309148E+02  0.78606294399E+02  0.83016596929E+02  0.00000000000E+00 0. -1.
</event>
<event>
 4    1  0.3183954E+006  0.8575738E+02  0.7546771E-02  0.1191077E+00
         21   -1    0    0  504  501  0.00000000000E+00  0.00000000000E+00  0.56582891604E+02  0.56582891604E+02  0.00000000000E+00 0. -1.
         21   -1    0    0  503  502 -0.00000000000E+00 -0.00000000000E+00 -0.27559491570E+03  0.27559491570E+03  0.00000000000E+00 0. -1.
         21    1    1    2  503  501 -0.72682590525E+02 -0.45514499633E+02  0.11224284388E+02  0.86488803913E+02  0.00000000000E+00 0. -1.
         21    1    1    2  504  502  0.72682590525E+02  0.45514499633E+02 -0.23023630848E+03  0.24568900339E+03  0.00000000000E+00 0. -1.
</event>
<event>
 4    1  0.3183954E+006  0.2108350E+02  0.7546771E-02  0.1518076E+00
         21   -1    0    0  504  501  0.00000000000E+00  0.00000000000E+00  0.40997562425E+03  0.40997562425E+03  0.00000000000E+00 0. -1.
         21   -1    0    0  503  502 -0.00000000000E+00 -0.00000000000E+00 -0.10868514679E+01  0.10868514679E+01  0.00000000000E+00 0. -1.
         21    1    1    2  503  501  0.52464628903E+01  0.20420294892E+02  0.19437830459E+03  0.19551838561E+03  0.00000000000E+00 0. -1.
         21    1    1    2  504  502 -0.52464628903E+01 -0.20420294892E+02  0.21451046819E+03  0.21554409010E+03  0.00000000000E+00 0. -1.
</event>
<event>
 4    1  0.3183954E+006  0.2710112E+02  0.7546771E-02  0.1446595E+00
         21   -1    0    0  504  501  0.00000000000E+00  0.00000000000E+00  0.59134074223E+03  0.59134074223E+03  0.00000000000E+00 0. -1.
         21   -1    0    0  503  502 -0.00000000000E+00 -0.00000000000E+00 -0.14257507301E+01  0.14257507301E+01  0.00000000000E+00 0. -1.
         21    1    1    2  503  501  0.24978154038E+02  0.10514874259E+02  0.40134614735E+03  0.40226011579E+03  0.00000000000E+00 0. -1.
         21    1    1    2  504  502 -0.24978154038E+02 -0.10514874259E+02  0.18856884415E+03  0.19050637718E+03  0.00000000000E+00 0. -1.
</event>
<event>
 4    1  0.3183954E+006  0.2688213E+02  0.7546771E-02  0.1448796E+00
         21   -1    0    0  503  501  0.00000000000E+00  0.00000000000E+00  0.14688980635E+03  0.14688980635E+03  0.00000000000E+00 0. -1.
         21   -1    0    0  504  502 -0.00000000000E+00 -0.00000000000E+00 -0.60230189039E+01  0.60230189039E+01  0.00000000000E+00 0. -1.
         21    1    1    2  503  502  0.50568867155E+01  0.26402210602E+02  0.10315721174E+03  0.10660234126E+03  0.00000000000E+00 0. -1.
         21    1    1    2  504  501 -0.50568867155E+01 -0.26402210602E+02  0.37709575708E+02  0.46310483997E+02  0.00000000000E+00 0. -1.
</event>
<event>
 4    1  0.3183954E+006  0.2383912E+02  0.7546771E-02  0.1482222E+00
         21   -1    0    0  503  501  0.00000000000E+00  0.00000000000E+00  0.34454170023E+01  0.34454170023E+01  0.00000000000E+00 0. -1.
         21   -1    0    0  504  502 -0.00000000000E+00 -0.00000000000E+00 -0.19450221943E+03  0.19450221943E+03  0.00000000000E+00 0. -1.
         21    1    1    2  503  502 -0.20812611843E+02  0.11624921989E+02 -0.13411098353E+03  0.13621328689E+03  0.00000000000E+00 0. -1.
         21    1    1    2  504  501  0.20812611843E+02 -0.11624921989E+02 -0.56945818895E+02  0.61734349536E+02  0.00000000000E+00 0. -1.
</event>
<event>
 4    1  0.3183954E+006  0.3220781E+02  0.7546771E-02  0.1401333E+00
         21   -1    0    0  504  501  0.00000000000E+00  0.00000000000E+00  0.17120129887E+03  0.17120129887E+03  0.00000000000E+00 0. -1.
         21   -1    0    0  503  502 -0.00000000000E+00 -0.00000000000E+00 -0.64190878677E+01  0.64190878677E+01  0.00000000000E+00 0. -1.
         21    1    1    2  503  501  0.24445131265E+02  0.20970891842E+02  0.10341970416E+03  0.10831887165E+03  0.00000000000E+00 0. -1.
         21    1    1    2  504  502 -0.24445131265E+02 -0.20970891842E+02  0.61362506838E+02  0.69301515082E+02  0.00000000000E+00 0. -1.
</event>
<event>
 4    1  0.3183954E+006  0.2773754E+02  0.7546771E-02  0.1440337E+00
         21   -1    0    0  504  501  0.00000000000E+00  0.00000000000E+00  0.43937720444E+02  0.43937720444E+02  0.00000000000E+00 0.  1.
         21   -1    0    0  503  502 -0.00000000000E+00 -0.00000000000E+00 -0.11447494906E+03  0.11447494906E+03  0.00000000000E+00 0. -1.
         21    1    1    2  503  501 -0.26917702604E+02  0.66938975368E+01 -0.10816583639E+03  0.11166565783E+03  0.00000000000E+00 0. -1.
         21    1    1    2  504  502  0.26917702604E+02 -0.66938975368E+01  0.37628607770E+02  0.46747011674E+02  0.00000000000E+00 0.  1.
</event>
<event>
 4    1  0.3183954E+006  0.3146173E+02  0.7546771E-02  0.1407305E+00
         21   -1    0    0  502  501  0.00000000000E+00  0.00000000000E+00  0.30250529653E+02  0.30250529653E+02  0.00000000000E+00 0.  1.
         21   -1    0    0  504  502 -0.00000000000E+00 -0.00000000000E+00 -0.50427211587E+02  0.50427211587E+02  0.00000000000E+00 0.  1.
         21    1    1    2  503  501 -0.20999968933E+02  0.23427368011E+02  0.13814467940E+02  0.34361021399E+02  0.00000000000E+00 0.  1.
         21    1    1    2  504  503  0.20999968933E+02 -0.23427368011E+02 -0.33991149874E+02  0.46316719841E+02  0.00000000000E+00 0.  1.
</event>
<event>
 4    1  0.3183954E+006  0.2062227E+02  0.7546771E-02  0.1524727E+00
         21   -1    0    0  503  501  0.00000000000E+00  0.00000000000E+00  0.18269178542E+03  0.18269178542E+03  0.00000000000E+00 0. -1.
         21   -1    0    0  504  502 -0.00000000000E+00 -0.00000000000E+00 -0.28660303328E+01  0.28660303328E+01  0.00000000000E+00 0. -1.
         21    1    1    2  503  502  0.20266352939E+02  0.38148160276E+01  0.49708309145E+02  0.53816297539E+02  0.00000000000E+00 0. -1.
         21    1    1    2  504  501 -0.20266352939E+02 -0.38148160276E+01  0.13011744594E+03  0.13174151821E+03  0.00000000000E+00 0. -1.
</event>
<event>
 4    1  0.3183954E+006  0.2102045E+02  0.7546771E-02  0.1518973E+00
         21   -1    0    0  502  501  0.00000000000E+00  0.00000000000E+00  0.14507462581E+03  0.14507462581E+03  0.00000000000E+00 0.  1.
         21   -1    0    0  504  502 -0.00000000000E+00 -0.00000000000E+00 -0.60746015816E+01  0.60746015816E+01  0.00000000000E+00 0. -1.
         21    1    1    2  503  501  0.11447520117E+02  0.17629912137E+02  0.12286504549E+03  0.12465022632E+03  0.00000000000E+00 0.  1.
         21    1    1    2  504  503 -0.11447520117E+02 -0.17629912137E+02  0.16134978737E+02  0.26499001069E+02  0.00000000000E+00 0. -1.
</event>
<event>
 4    1  0.3183954E+006  0.2018886E+02  0.7546771E-02  0.1531168E+00
         21   -1    0    0  502  501  0.00000000000E+00  0.00000000000E+00  0.25225617470E+01  0.25225617470E+01  0.00000000000E+00 0.  1.
         21   -1    0    0  504  502 -0.00000000000E+00 -0.00000000000E+00 -0.58076937276E+03  0.58076937276E+03  0.00000000000E+00 0.  1.
         21    1    1    2  503  501  0.60370734336E+01  0.19265091773E+02 -0.41346750088E+02  0.46012430489E+02  0.00000000000E+00 0.  1.
         21    1    1    2  504  503 -0.60370734336E+01 -0.19265091773E+02 -0.53690006093E+03  0.53727950402E+03  0.00000000000E+00 0.  1.
</event>
<event>
 4    1  0.3183954E+006  0.2992640E+02  0.7546771E-02  0.1420237E+00
         21   -1    0    0  504  501  0.00000000000E+00  0.00000000000E+00  0.16445241958E+03  0.16445241958E+03  0.00000000000E+00 0.  1.
         21   -1    0    0  501  502 -0.00000000000E+00 -0.00000000000E+00 -0.23654992112E+02  0.23654992112E+02  0.00000000000E+00 0. -1.
         21    1    1    2  503  502 -0.97771449393E+01 -0.28284219791E+02 -0.12121203496E+02  0.32287973404E+02  0.00000000000E+00 0. -1.
         21    1    1    2  504  503  0.97771449393E+01  0.28284219791E+02  0.15291863096E+03  0.15581943828E+03  0.00000000000E+00 0.  1.
</event>
<event>
 4    1  0.3183954E+006  0.4846975E+02  0.7546771E-02  0.1304947E+00
         21   -1    0    0  502  501  0.00000000000E+00  0.00000000000E+00  0.85452172671E+02  0.85452172671E+02  0.00000000000E+00 0.  1.
         21   -1    0    0  503  502 -0.00000000000E+00 -0.00000000000E+00 -0.37782825847E+02  0.37782825847E+02  0.00000000000E+00 0.  1.
         21    1    1    2  503  504 -0.36559200903E+02  0.31823604117E+02 -0.83215998907E+01  0.49178917987E+02  0.00000000000E+00 0.  1.
         21    1    1    2  504  501  0.36559200903E+02 -0.31823604117E+02  0.55990946715E+02  0.74056080532E+02  0.00000000000E+00 0.  1.
</event>
<event>
 4    1  0.3183954E+006  0.2523249E+02  0.7546771E-02  0.1466219E+00
         21   -1    0    0  503  501  0.00000000000E+00  0.00000000000E+00  0.51763409149E+02  0.51763409149E+02  0.00000000000E+00 0.  1.
         21   -1    0    0  504  502 -0.00000000000E+00 -0.00000000000E+00 -0.12635264290E+02  0.12635264290E+02  0.00000000000E+00 0.  1.
         21    1    1    2  503  502  0.25227990188E+02  0.47659255858E+00  0.14317329403E+02  0.29011455507E+02  0.00000000000E+00 0.  1.
         21    1    1    2  504  501 -0.25227990188E+02 -0.47659255858E+00  0.24810815455E+02  0.35387217932E+02  0.00000000000E+00 0.  1.
</event>
<event>
 4    1  0.3183954E+006  0.2517007E+02  0.7546771E-02  0.1466910E+00
         21   -1    0    0  504  501  0.00000000000E+00  0.00000000000E+00  0.83628313768E+00  0.83628313768E+00  0.00000000000E+00 0. -1.
         21   -1    0    0  503  502 -0.00000000000E+00 -0.00000000000E+00 -0.15077068029E+04  0.15077068029E+04  0.00000000000E+00 0. -1.
         21    1    1    2  503  501  0.10075017165E+01 -0.25149900376E+02 -0.12854738524E+04  0.12857202486E+04  0.00000000000E+00 0. -1.
         21    1    1    2  504  502 -0.10075017165E+01  0.25149900376E+02 -0.22139666739E+03  0.22282283743E+03  0.00000000000E+00 0. -1.
</event>
<event>
 4    1  0.3183954E+006  0.2922674E+02  0.7546771E-02  0.1426437E+00
         21   -1    0    0  504  501  0.00000000000E+00  0.00000000000E+00  0.18753316679E+02  0.18753316679E+02  0.00000000000E+00 0. -1.
         21   -1    0    0  503  502 -0.00000000000E+00 -0.00000000000E+00 -0.11883674689E+03  0.11883674689E+03  0.00000000000E+00 0. -1.
         21    1    1    2  503  501 -0.21749897252E+02 -0.19522917824E+02 -0.10406689153E+03  0.10809310923E+03  0.00000000000E+00 0. -1.
         21    1    1    2  504  502  0.21749897252E+02  0.19522917824E+02  0.39834613219E+01  0.29496954333E+02  0.00000000000E+00 0. -1.
</event>
<event>
 4    1  0.3183954E+006  0.3887761E+02  0.7546771E-02  0.1355191E+00
         21   -1    0    0  503  501  0.00000000000E+00  0.00000000000E+00  0.32872003300E+02  0.32872003300E+02  0.00000000000E+00 0.  1.
         21   -1    0    0  504  502 -0.00000000000E+00 -0.00000000000E+00 -0.46190299443E+02  0.46190299443E+02  0.00000000000E+00 0.  1.
         21    1    1    2  503  502  0.15088971521E+02 -0.35830037469E+02 -0.93238275460E+01  0.39980025097E+02  0.00000000000E+00 0.  1.
         21    1    1    2  504  501 -0.15088971521E+02  0.35830037469E+02 -0.39944685970E+01  0.39082277646E+02  0.00000000000E+00 0.  1.
</event>
<event>
 4    1  0.3183954E+006  0.2679106E+02  0.7546771E-02  0.1449718E+00
         21   -1    0    0  502  501  0.00000000000E+00  0.00000000000E+00  0.15452729531E+02  0.15452729531E+02  0.00000000000E+00 0.  1.
         21   -1    0    0  504  502 -0.00000000000E+00 -0.00000000000E+00 -0.79409658839E+02  0.79409658839E+02  0.00000000000E+00 0.  1.
         21    1    1    2  503  501  0.20252806116E+02  0.17538096860E+02 -0.14203507390E+01  0.26828686015E+02  0.00000000000E+00 0.  1.
         21    1    1    2  504  503 -0.20252806116E+02 -0.17538096860E+02 -0.62536578569E+02  0.68033702355E+02  0.00000000000E+00 0.  1.
</event>
<event>
 4    1  0.3183954E+006  0.3367326E+02  0.7546771E-02  0.1390138E+00
         21   -1    0    0  503  501  0.00000000000E+00  0.00000000000E+00  0.20662734623E+03  0.20662734623E+03  0.00000000000E+00 0. -1.
         21   -1    0    0  504  502 -0.00000000000E+00 -0.00000000000E+00 -0.15951410958E+02  0.15951410958E+02  0.00000000000E+00 0. -1.
         21    1    1    2  503  502 -0.20822113686E+02  0.26463706153E+02  0.18547414052E+03  0.18850608734E+03  0.00000000000E+00 0. -1.
         21    1    1    2  504  501  0.20822113686E+02 -0.26463706153E+02  0.52017947439E+01  0.34072669843E+02  0.00000000000E+00 0. -1.
</event>
<event>
 4    1  0.3183954E+006  0.2257836E+02  0.7546771E-02  0.1497862E+00
         21   -1    0    0  504  501  0.00000000000E+00  0.00000000000E+00  0.10547159488E+04  0.10547159488E+04  0.00000000000E+00 0. -1.
         21   -1    0    0  503  502 -0.00000000000E+00 -0.00000000000E+00 -0.49605420108E+00  0.49605420108E+00  0.00000000000E+00 0. -1.
         21    1    1    2  503  501 -0.88022488151E+01  0.20791893549E+02  0.61159000870E+03  0.61200663490E+03  0.00000000000E+00 0. -1.
         21    1    1    2  504  502  0.88022488151E+01 -0.20791893549E+02  0.44262988588E+03  0.44320536808E+03  0.00000000000E+00 0. -1.
</event>
<event>
 4    1  0.3183954E+006  0.2398227E+02  0.7546771E-02  0.1480519E+00
         21   -1    0    0  504  501  0.00000000000E+00  0.00000000000E+00  0.92293953956E+02  0.92293953956E+02  0.00000000000E+00 0.  1.
         21   -1    0    0  501  502 -0.00000000000E+00 -0.00000000000E+00 -0.63471696861E+01  0.63471696861E+01  0.00000000000E+00 0.  1.
         21    1    1    2  503  502  0.23594803494E+02 -0.42935213843E+01  0.36321353905E+02  0.43524588766E+02  0.00000000000E+00 0.  1.
         21    1    1    2  504  503 -0.23594803494E+02  0.42935213843E+01  0.49625430365E+02  0.55116534876E+02  0.00000000000E+00 0.  1.
</event>
<event>
 4    1  0.3183954E+006  0.2094012E+02  0.7546771E-02  0.1520121E+00
         21   -1    0    0  503  501  0.00000000000E+00  0.00000000000E+00  0.39394718547E+02  0.39394718547E+02  0.00000000000E+00 0.  1.
         21   -1    0    0  504  502 -0.00000000000E+00 -0.00000000000E+00 -0.24358130410E+02  0.24358130410E+02  0.00000000000E+00 0. -1.
         21    1    1    2  503  502  0.20138477710E+02  0.57384965906E+01 -0.15971881953E+02  0.26336090080E+02  0.00000000000E+00 0. -1.
         21    1    1    2  504  501 -0.20138477710E+02 -0.57384965906E+01  0.31008470090E+02  0.37416758878E+02  0.00000000000E+00 0.  1.
</event>
<event>
 4    1  0.3183954E+006  0.2657173E+02  0.7546771E-02  0.1451958E+00
         21   -1    0    0  503  501  0.00000000000E+00  0.00000000000E+00  0.17901505648E+02  0.17901505648E+02  0.00000000000E+00 0. -1.
         21   -1    0    0  501  502 -0.00000000000E+00 -0.00000000000E+00 -0.39852199487E+02  0.39852199487E+02  0.00000000000E+00 0.  1.
         21    1    1    2  503  504  0.63235128492E+01 -0.25808327270E+02 -0.80427457372E+01  0.27762246491E+02  0.00000000000E+00 0.  1.
         21    1    1    2  504  502 -0.63235128492E+01  0.25808327270E+02 -0.13907948101E+02  0.29991458644E+02  0.00000000000E+00 0. -1.
</event>
<event>
 4    1  0.3183954E+006  0.4254496E+02  0.7546771E-02  0.1334185E+00
         21   -1    0    0  502  501  0.00000000000E+00  0.00000000000E+00  0.20217586466E+02  0.20217586466E+02  0.00000000000E+00 0. -1.
         21   -1    0    0  504  502 -0.00000000000E+00 -0.00000000000E+00 -0.15776643827E+03  0.15776643827E+03  0.00000000000E+00 0. -1.
         21    1    1    2  503  501  0.11282179329E+02  0.41021778764E+02 -0.10247874741E+02  0.43761773731E+02  0.00000000000E+00 0. -1.
         21    1    1    2  504  503 -0.11282179329E+02 -0.41021778764E+02 -0.12730097706E+03  0.13422225100E+03  0.00000000000E+00 0. -1.
</event>
<event>
 4    1  0.3183954E+006  0.2017414E+02  0.7546771E-02  0.1531390E+00
         21   -1    0    0  502  501  0.00000000000E+00  0.00000000000E+00  0.10672675696E+03  0.10672675696E+03  0.00000000000E+00 0.  1.
         21   -1    0    0  504  502 -0.00000000000E+00 -0.00000000000E+00 -0.10518203839E+03  0.10518203839E+03  0.00000000000E+00 0. -1.
         21    1    1    2  503  501  0.13885868787E+02  0.14634842084E+02  0.10478830423E+03  0.10671262652E+03  0.00000000000E+00 0.  1.
         21    1    1    2  504  503 -0.13885868787E+02 -0.14634842084E+02 -0.10324358567E+03  0.10519616883E+03  0.00000000000E+00 0. -1.
</event>
<event>
 4    1  0.3183954E+006  0.2707468E+02  0.7546771E-02  0.1446859E+00
         21   -1    0    0  503  501  0.00000000000E+00  0.00000000000E+00  0.45820181997E+03  0.45820181997E+03  0.00000000000E+00 0.  1.
         21   -1    0    0  504  502 -0.00000000000E+00 -0.00000000000E+00 -0.16026875830E+01  0.16026875830E+01  0.00000000000E+00 0.  1.
         21    1    1    2  503  502  0.27068130158E+02  0.59570097900E+00  0.23803132893E+03  0.23956617475E+03  0.00000000000E+00 0.  1.
         21    1    1    2  504  501 -0.27068130158E+02 -0.59570097900E+00  0.21856780346E+03  0.22023833281E+03  0.00000000000E+00 0.  1.
</event>
<event>
 4    1  0.3183954E+006  0.2438827E+02  0.7546771E-02  0.1475764E+00
         21   -1    0    0  503  501  0.00000000000E+00  0.00000000000E+00  0.94720201330E+02  0.94720201330E+02  0.00000000000E+00 0. -1.
         21   -1    0    0  504  502 -0.00000000000E+00 -0.00000000000E+00 -0.62938814621E+01  0.62938814621E+01  0.00000000000E+00 0. -1.
         21    1    1    2  503  502  0.81189556693E+01 -0.22997177316E+02  0.46634465640E+02  0.52626618657E+02  0.00000000000E+00 0. -1.
         21    1    1    2  504  501 -0.81189556693E+01  0.22997177316E+02  0.41791854227E+02  0.48387464135E+02  0.00000000000E+00 0. -1.
</event>
<event>
 4    1  0.3183954E+006  0.2846471E+02  0.7546771E-02  0.1433425E+00
         21   -1    0    0  504  501  0.00000000000E+00  0.00000000000E+00  0.41872488766E+02  0.41872488766E+02  0.00000000000E+00 0.  1.
         21   -1    0    0  503  502 -0.00000000000E+00 -0.00000000000E+00 -0.65945100601E+02  0.65945100601E+02  0.00000000000E+00 0.  1.
         21    1    1    2  503  501 -0.59810272989E+01  0.27829250362E+02  0.33278244872E+02  0.43791339841E+02  0.00000000000E+00 0.  1.
         21    1    1    2  504  502  0.59810272989E+01 -0.27829250362E+02 -0.57350856708E+02  0.64026249526E+02  0.00000000000E+00 0.  1.
</event>
<event>
 4    1  0.3183954E+006  0.2013384E+02  0.7546771E-02  0.1531999E+00
         21   -1    0    0  502  501  0.00000000000E+00  0.00000000000E+00  0.11735919940E+02  0.11735919940E+02  0.00000000000E+00 0. -1.
         21   -1    0    0  503  502 -0.00000000000E+00 -0.00000000000E+00 -0.11961315401E+03  0.11961315401E+03  0.00000000000E+00 0. -1.
         21    1    1    2  503  504 -0.10091839109E+02 -0.17422008549E+02 -0.10932474500E+03  0.11116326492E+03  0.00000000000E+00 0. -1.
         21    1    1    2  504  501  0.10091839109E+02  0.17422008549E+02  0.14475109259E+01  0.20185809034E+02  0.00000000000E+00 0. -1.
</event>
<event>
 4    1  0.3183954E+006  0.2868483E+02  0.7546771E-02  0.1431380E+00
         21   -1    0    0  504  501  0.00000000000E+00  0.00000000000E+00  0.56540218076E+01  0.56540218076E+01  0.00000000000E+00 0.  1.
         21   -1    0    0  501  502 -0.00000000000E+00 -0.00000000000E+00 -0.19270380896E+03  0.19270380896E+03  0.00000000000E+00 0.  1.
         21    1    1    2  503  502  0.28507750790E+02  0.31823870661E+01 -0.14259681962E+03  0.14545333413E+03  0.00000000000E+00 0.  1.
         21    1    1    2  504  503 -0.28507750790E+02 -0.31823870661E+01 -0.44452967533E+02  0.52904496643E+02  0.00000000000E+00 0.  1.
</event>
<event>
 4    1  0.3183954E+006  0.2445438E+02  0.7546771E-02  0.1475001E+00
         21   -1    0    0  504  501  0.00000000000E+00  0.00000000000E+00  0.14522469627E+01  0.14522469627E+01  0.00000000000E+00 0.  1.
         21   -1    0    0  501  502 -0.00000000000E+00 -0.00000000000E+00 -0.85945679119E+03  0.85945679119E+03  0.00000000000E+00 0.  1.
         21    1    1    2  503  502  0.12133742563E+02  0.21231790059E+02 -0.73966852293E+03  0.74007265889E+03  0.00000000000E+00 0.  1.
         21    1    1    2  504  503 -0.12133742563E+02 -0.21231790059E+02 -0.11833602130E+03  0.12083637927E+03  0.00000000000E+00 0.  1.
</event>
<event>
 4    1  0.3183954E+006  0.2483844E+02  0.7546771E-02  0.1470619E+00
         21   -1    0    0  503  501  0.00000000000E+00  0.00000000000E+00  0.74670051180E+02  0.74670051180E+02  0.00000000000E+00 0.  1.
         21   -1    0    0  504  502 -0.00000000000E+00 -0.00000000000E+00 -0.26248435103E+02  0.26248435103E+02  0.00000000000E+00 0.  1.
         21    1    1    2  503  502 -0.24089125703E+02  0.60549431327E+01 -0.17558534007E+02  0.30417929416E+02  0.00000000000E+00 0.  1.
         21    1    1    2  504  501  0.24089125703E+02 -0.60549431327E+01  0.65980150083E+02  0.70500556867E+02  0.00000000000E+00 0.  1.
</event>
<event>
 4    1  0.3183954E+006  0.2038087E+02  0.7546771E-02  0.1528291E+00
         21   -1    0    0  503  501  0.00000000000E+00  0.00000000000E+00  0.68420536237E+01  0.68420536237E+01  0.00000000000E+00 0. -1.
         21   -1    0    0  501  502 -0.00000000000E+00 -0.00000000000E+00 -0.74661406511E+02  0.74661406511E+02  0.00000000000E+00 0.  1.
         21    1    1    2  503  504 -0.11268854960E+02 -0.16982126639E+02 -0.16293564816E+02  0.26093293615E+02  0.00000000000E+00 0. -1.
         21    1    1    2  504  502  0.11268854960E+02  0.16982126639E+02 -0.51525788072E+02  0.55410166519E+02  0.00000000000E+00 0.  1.
</event>
<event>
 4    1  0.3183954E+006  0.2682190E+02  0.7546771E-02  0.1449405E+00
         21   -1    0    0  504  501  0.00000000000E+00  0.00000000000E+00  0.52119485757E+02  0.52119485757E+02  0.00000000000E+00 0. -1.
         21   -1    0    0  503  502 -0.00000000000E+00 -0.00000000000E+00 -0.18664330381E+02  0.18664330381E+02  0.00000000000E+00 0. -1.
         21    1    1    2  503  501 -0.24933614732E+02 -0.98857963430E+01 -0.13345019724E+01  0.26855074165E+02  0.00000000000E+00 0. -1.
         21    1    1    2  504  502  0.24933614732E+02  0.98857963430E+01  0.34789657348E+02  0.43928741972E+02  0.00000000000E+00 0. -1.
</event>
<event>
 4    1  0.3183954E+006  0.2398978E+02  0.7546771E-02  0.1480430E+00
         21   -1    0    0  502  501  0.00000000000E+00  0.00000000000E+00  0.28254805743E+03  0.28254805743E+03  0.00000000000E+00 0.  1.
         21   -1    0    0  503  502 -0.00000000000E+00 -0.00000000000E+00 -0.12383663168E+02  0.12383663168E+02  0.00000000000E+00 0. -1.
         21    1    1    2  503  504 -0.20675651028E+02  0.12166629390E+02  0.28833326100E+00  0.23991510003E+02  0.00000000000E+00 0. -1.
         21    1    1    2  504  501  0.20675651028E+02 -0.12166629390E+02  0.26987606100E+03  0.27094021060E+03  0.00000000000E+00 0.  1.
</event>
<event>
 4    1  0.3183954E+006  0.3392693E+02  0.7546771E-02  0.1388268E+00
         21   -1    0    0  503  501  0.00000000000E+00  0.00000000000E+00  0.46647827492E+02  0.46647827492E+02  0.00000000000E+00 0. -1.
         21   -1    0    0  501  502 -0.00000000000E+00 -0.00000000000E+00 -0.56946024997E+03  0.56946024997E+03  0.00000000000E+00 0. -1.
         21    1    1    2  503  504  0.74614904940E+01 -0.33096263124E+02  0.39899843347E+02  0.52373981826E+02  0.00000000000E+00 0. -1.
         21    1    1    2  504  502 -0.74614904940E+01  0.33096263124E+02 -0.56271226583E+03  0.56373409564E+03  0.00000000000E+00 0. -1.
</event>
<event>
 4    1  0.3183954E+006  0.3561053E+02  0.7546771E-02  0.1376321E+00
         21   -1    0    0  503  501  0.00000000000E+00  0.00000000000E+00  0.82924976985E+02  0.82924976985E+02  0.00000000000E+00 0.  1.
         21   -1    0    0  501  502 -0.00000000000E+00 -0.00000000000E+00 -0.12412602126E+03  0.12412602126E+03  0.00000000000E+00 0. -1.
         21    1    1    2  503  504 -0.31425405215E+02 -0.16749740837E+02  0.76338301337E+02  0.84235658495E+02  0.00000000000E+00 0.  1.
         21    1    1    2  504  502  0.31425405215E+02  0.16749740837E+02 -0.11753934561E+03  0.12281533975E+03  0.00000000000E+00 0. -1.
</event>
<event>
 4    1  0.3183954E+006  0.2865183E+02  0.7546771E-02  0.1431685E+00
         21   -1    0    0  503  501  0.00000000000E+00  0.00000000000E+00  0.81861525634E+01  0.81861525634E+01  0.00000000000E+00 0. -1.
         21   -1    0    0  501  502 -0.00000000000E+00 -0.00000000000E+00 -0.34012784249E+03  0.34012784249E+03  0.00000000000E+00 0.  1.
         21    1    1    2  503  504 -0.30232035442E+01 -0.28491891094E+02 -0.19724336467E+02  0.34784724619E+02  0.00000000000E+00 0. -1.
         21    1    1    2  504  502  0.30232035442E+01  0.28491891094E+02 -0.31221735346E+03  0.31352927044E+03  0.00000000000E+00 0.  1.
</event>
<event>
 4    1  0.3183954E+006  0.4406759E+02  0.7546771E-02  0.1326168E+00
         21   -1    0    0  504  501  0.00000000000E+00  0.00000000000E+00  0.27257998299E+02  0.27257998299E+02  0.00000000000E+00 0. -1.
         21   -1    0    0  503  502 -0.00000000000E+00 -0.00000000000E+00 -0.19907245614E+03  0.19907245614E+03  0.00000000000E+00 0. -1.
         21    1    1    2  503  501 -0.46270152518E+01 -0.43824000234E+02 -0.17658946415E+03  0.18200492058E+03  0.00000000000E+00 0. -1.
         21    1    1    2  504  502  0.46270152518E+01  0.43824000234E+02  0.47750063075E+01  0.44325533859E+02  0.00000000000E+00 0. -1.
</event>
<event>
 4    1  0.3183954E+006  0.2401109E+02  0.7546771E-02  0.1480178E+00
         21   -1    0    0  503  501  0.00000000000E+00  0.00000000000E+00  0.11671660727E+02  0.11671660727E+02  0.00000000000E+00 0. -1.
         21   -1    0    0  501  502 -0.00000000000E+00 -0.00000000000E+00 -0.62851728898E+03  0.62851728898E+03  0.00000000000E+00 0. -1.
         21    1    1    2  503  504 -0.16763682530E+02 -0.17190443694E+02 -0.11639935835E+01  0.24039286333E+02  0.00000000000E+00 0. -1.
         21    1    1    2  504  502  0.16763682530E+02  0.17190443694E+02 -0.61568163467E+03  0.61614966337E+03  0.00000000000E+00 0. -1.
</event>
<event>
 4    1  0.3183954E+006  0.5148872E+02  0.7546771E-02  0.1291844E+00
         21   -1    0    0  504  501  0.00000000000E+00  0.00000000000E+00  0.62866353749E+03  0.62866353749E+03  0.00000000000E+00 0. -1.
         21   -1    0    0  501  502 -0.00000000000E+00 -0.00000000000E+00 -0.10754462553E+02  0.10754462553E+02  0.00000000000E+00 0.  1.
         21    1    1    2  503  502  0.49024363427E+02  0.15738490008E+02  0.59687778846E+02  0.78827147740E+02  0.00000000000E+00 0.  1.
         21    1    1    2  504  503 -0.49024363427E+02 -0.15738490008E+02  0.55822129609E+03  0.56059085230E+03  0.00000000000E+00 0. -1.
</event>
<event>
 4    1  0.3183954E+006  0.2862127E+02  0.7546771E-02  0.1431968E+00
         21   -1    0    0  503  501  0.00000000000E+00  0.00000000000E+00  0.44990777984E+01  0.44990777984E+01  0.00000000000E+00 0.  1.
         21   -1    0    0  504  502 -0.00000000000E+00 -0.00000000000E+00 -0.20094992859E+03  0.20094992859E+03  0.00000000000E+00 0. -1.
         21    1    1    2  503  502  0.22545472316E+02  0.17631754342E+02 -0.66744055734E+02  0.72621939240E+02  0.00000000000E+00 0.  1.
         21    1    1    2  504  501 -0.22545472316E+02 -0.17631754342E+02 -0.12970679506E+03  0.13282706715E+03  0.00000000000E+00 0. -1.
</event>
<event>
 4    1  0.3183954E+006  0.2904777E+02  0.7546771E-02  0.1428056E+00
         21   -1    0    0  503  501  0.00000000000E+00  0.00000000000E+00  0.12251558229E+03  0.12251558229E+03  0.00000000000E+00 0. -1.
         21   -1    0    0  504  502 -0.00000000000E+00 -0.00000000000E+00 -0.13290485135E+03  0.13290485135E+03  0.00000000000E+00 0.  1.
         21    1    1    2  503  502  0.24020682842E+02 -0.16333397002E+02 -0.12955189451E+03  0.13276846927E+03  0.00000000000E+00 0.  1.
         21    1    1    2  504  501 -0.24020682842E+02  0.16333397002E+02  0.11916262545E+03  0.12265196438E+03  0.00000000000E+00 0. -1.
</event>
<event>
 4    1  0.3183954E+006  0.2057696E+02  0.7546771E-02  0.1525391E+00
         21   -1    0    0  502  501  0.00000000000E+00  0.00000000000E+00  0.42130916167E+03  0.42130916167E+03  0.00000000000E+00 0. -1.
         21   -1    0    0  504  502 -0.00000000000E+00 -0.00000000000E+00 -0.66026181042E+01  0.66026181042E+01  0.00000000000E+00 0.  1.
         21    1    1    2  503  501 -0.11887341809E+02  0.16795905204E+02  0.40435416414E+03  0.40487739056E+03  0.00000000000E+00 0. -1.
         21    1    1    2  504  503  0.11887341809E+02 -0.16795905204E+02  0.10352379428E+02  0.23034389220E+02  0.00000000000E+00 0.  1.
</event>
<event>
 4    1  0.3183954E+006  0.3826065E+02  0.7546771E-02  0.1358991E+00
         21   -1    0    0  504  501  0.00000000000E+00  0.00000000000E+00  0.79393162247E+02  0.79393162247E+02  0.00000000000E+00 0. -1.
         21   -1    0    0  501  502 -0.00000000000E+00 -0.00000000000E+00 -0.59073427769E+02  0.59073427769E+02  0.00000000000E+00 0. -1.
         21    1    1    2  503  502  0.28739353062E+02  0.25257211086E+02 -0.47260978313E+02  0.60806884457E+02  0.00000000000E+00 0. -1.
         21    1    1    2  504  503 -0.28739353062E+02 -0.25257211086E+02  0.67580712790E+02  0.77659705559E+02  0.00000000000E+00 0. -1.
</event>
<event>
 4    1  0.3183954E+006  0.2213112E+02  0.7546771E-02  0.1503707E+00
         21   -1    0    0  504  501  0.00000000000E+00  0.00000000000E+00  0.12146655077E+03  0.12146655077E+03  0.00000000000E+00 0.  1.
         21   -1    0    0  501  502 -0.00000000000E+00 -0.00000000000E+00 -0.42284394500E+01  0.42284394500E+01  0.00000000000E+00 0.  1.
         21    1    1    2  503  502 -0.19801145693E+02 -0.98843763146E+01  0.72155684745E+02  0.75473366872E+02  0.00000000000E+00 0.  1.
         21    1    1    2  504  503  0.19801145693E+02  0.98843763146E+01  0.45082426578E+02  0.50221623352E+02  0.00000000000E+00 0.  1.
</event>
<event>
 4    1  0.3183954E+006  0.3050931E+02  0.7546771E-02  0.1415221E+00
         21   -1    0    0  503  501  0.00000000000E+00  0.00000000000E+00  0.29288916158E+02  0.29288916158E+02  0.00000000000E+00 0. -1.
         21   -1    0    0  504  502 -0.00000000000E+00 -0.00000000000E+00 -0.43258634822E+03  0.43258634822E+03  0.00000000000E+00 0. -1.
         21    1    1    2  503  502  0.30843763573E+01  0.30353001932E+02  0.20644033276E+02  0.36837402375E+02  0.00000000000E+00 0. -1.
         21    1    1    2  504  501 -0.30843763573E+01 -0.30353001932E+02 -0.42394146534E+03  0.42503786201E+03  0.00000000000E+00 0. -1.
</event>
<event>
 4    1  0.3183954E+006  0.2463635E+02  0.7546771E-02  0.1472913E+00
         21   -1    0    0  504  501  0.00000000000E+00  0.00000000000E+00  0.15064598702E+03  0.15064598702E+03  0.00000000000E+00 0.  1.
         21   -1    0    0  503  502 -0.00000000000E+00 -0.00000000000E+00 -0.47525854562E+01  0.47525854562E+01  0.00000000000E+00 0. -1.
         21    1    1    2  503  501 -0.91973446766E+01  0.22855166130E+02  0.42628544944E+02  0.49235582783E+02  0.00000000000E+00 0. -1.
         21    1    1    2  504  502  0.91973446766E+01 -0.22855166130E+02  0.10326485662E+03  0.10616298970E+03  0.00000000000E+00 0.  1.
</event>
<event>
 4    1  0.3183954E+006  0.2797986E+02  0.7546771E-02  0.1438006E+00
         21   -1    0    0  503  501  0.00000000000E+00  0.00000000000E+00  0.72583964393E+02  0.72583964393E+02  0.00000000000E+00 0. -1.
         21   -1    0    0  504  502 -0.00000000000E+00 -0.00000000000E+00 -0.14357187364E+02  0.14357187364E+02  0.00000000000E+00 0. -1.
         21    1    1    2  503  502 -0.34836013347E+00 -0.27977691973E+02  0.50794529684E+02  0.57991006619E+02  0.00000000000E+00 0. -1.
         21    1    1    2  504  501  0.34836013347E+00  0.27977691973E+02  0.74322473444E+01  0.28950145138E+02  0.00000000000E+00 0. -1.
</event>
<event>
 4    1  0.3183954E+006  0.2081426E+02  0.7546771E-02  0.1521933E+00
         21   -1    0    0  502  501  0.00000000000E+00  0.00000000000E+00  0.96139007473E+01  0.96139007473E+01  0.00000000000E+00 0. -1.
         21   -1    0    0  503  502 -0.00000000000E+00 -0.00000000000E+00 -0.11475784982E+03  0.11475784982E+03  0.00000000000E+00 0. -1.
         21    1    1    2  503  504  0.18484052591E+02  0.95693794237E+01 -0.10103385267E+03  0.10315557478E+03  0.00000000000E+00 0. -1.
         21    1    1    2  504  501 -0.18484052591E+02 -0.95693794237E+01 -0.41100964068E+01  0.21216175792E+02  0.00000000000E+00 0. -1.
</event>
<event>
 4    1  0.3183954E+006  0.3988771E+02  0.7546771E-02  0.1349145E+00
         21   -1    0    0  503  501  0.00000000000E+00  0.00000000000E+00  0.10834388032E+02  0.10834388032E+02  0.00000000000E+00 0. -1.
         21   -1    0    0  504  502 -0.00000000000E+00 -0.00000000000E+00 -0.29181554043E+03  0.29181554043E+03  0.00000000000E+00 0.  1.
         21    1    1    2  503  502 -0.20035527291E+02 -0.34490683052E+02 -0.24714743878E+03  0.25034553335E+03  0.00000000000E+00 0.  1.
         21    1    1    2  504  501  0.20035527291E+02  0.34490683052E+02 -0.33833713619E+02  0.52304395117E+02  0.00000000000E+00 0. -1.
</event>
<event>
 4    1  0.3183954E+006  0.3178971E+02  0.7546771E-02  0.1404656E+00
         21   -1    0    0  504  501  0.00000000000E+00  0.00000000000E+00  0.72847052403E+02  0.72847052403E+02  0.00000000000E+00 0.  1.
         21   -1    0    0  501  502 -0.00000000000E+00 -0.00000000000E+00 -0.74777226453E+03  0.74777226453E+03  0.00000000000E+00 0.  1.
         21    1    1    2  503  502 -0.31314036215E+02 -0.54787783960E+01 -0.74394840390E+03  0.74462729841E+03  0.00000000000E+00 0.  1.
         21    1    1    2  504  503  0.31314036215E+02  0.54787783960E+01  0.69023191771E+02  0.75992018522E+02  0.00000000000E+00 0.  1.
</event>
<event>
 4    1  0.3183954E+006  0.2962330E+02  0.7546771E-02  0.1422899E+00
         21   -1    0    0  503  501  0.00000000000E+00  0.00000000000E+00  0.89482948478E+02  0.89482948478E+02  0.00000000000E+00 0. -1.
         21   -1    0    0  504  502 -0.00000000000E+00 -0.00000000000E+00 -0.18740490356E+02  0.18740490356E+02  0.00000000000E+00 0. -1.
         21    1    1    2  503  502 -0.15758889545E+02  0.25083799807E+02 -0.19896242282E+01  0.29690035652E+02  0.00000000000E+00 0. -1.
         21    1    1    2  504  501  0.15758889545E+02 -0.25083799807E+02  0.72732082350E+02  0.78533403182E+02  0.00000000000E+00 0. -1.
</event>
<event>
 4    1  0.3183954E+006  0.2862523E+02  0.7546771E-02  0.1431932E+00
         21   -1    0    0  502  501  0.00000000000E+00  0.00000000000E+00  0.32188804102E+03  0.32188804102E+03  0.00000000000E+00 0.  1.
         21   -1    0    0  503  502 -0.00000000000E+00 -0.00000000000E+00 -0.10453652779E+02  0.10453652779E+02  0.00000000000E+00 0. -1.
         21    1    1    2  503  504 -0.21231797188E+02 -0.19199338485E+02  0.11188160554E+02  0.30733999848E+02  0.00000000000E+00 0. -1.
         21    1    1    2  504  501  0.21231797188E+02  0.19199338485E+02  0.30024622768E+03  0.30160769395E+03  0.00000000000E+00 0.  1.
</event>
<event>
 4    1  0.3183954E+006  0.2204687E+02  0.7546771E-02  0.1504826E+00
         21   -1    0    0  503  501  0.00000000000E+00  0.00000000000E+00  0.18806448436E+03  0.18806448436E+03  0.00000000000E+00 0.  1.
         21   -1    0    0  504  502 -0.00000000000E+00 -0.00000000000E+00 -0.35147258468E+01  0.35147258468E+01  0.00000000000E+00 0.  1.
         21    1    1    2  503  502  0.23781962691E+01  0.21918226892E+02  0.42996981196E+02  0.48319818704E+02  0.00000000000E+00 0.  1.
         21    1    1    2  504  501 -0.23781962691E+01 -0.21918226892E+02  0.14155277732E+03  0.14325939151E+03  0.00000000000E+00 0.  1.
</event>
<event>
 4    1  0.3183954E+006  0.2273960E+02  0.7546771E-02  0.1495794E+00
         21   -1    0    0  503  501  0.00000000000E+00  0.00000000000E+00  0.11663198053E+02  0.11663198053E+02  0.00000000000E+00 0.  1.
         21   -1    0    0  504  502 -0.00000000000E+00 -0.00000000000E+00 -0.11944488588E+03  0.11944488588E+03  0.00000000000E+00 0.  1.
         21    1    1    2  503  502 -0.21652345466E+02  0.69473180774E+01 -0.10587415006E+03  0.10828861872E+03  0.00000000000E+00 0.  1.
         21    1    1    2  504  501  0.21652345466E+02 -0.69473180774E+01 -0.19075377729E+01  0.22819465222E+02  0.00000000000E+00 0.  1.
</event>
<event>
 4    1  0.3183954E+006  0.2486662E+02  0.7546771E-02  0.1470301E+00
         21   -1    0    0  503  501  0.00000000000E+00  0.00000000000E+00  0.13282445852E+01  0.13282445852E+01  0.00000000000E+00 0.  1.
         21   -1    0    0  504  502 -0.00000000000E+00 -0.00000000000E+00 -0.48065539864E+03  0.48065539864E+03  0.00000000000E+00 0.  1.
         21    1    1    2  503  502 -0.12688229057E+02  0.21385916471E+02 -0.19692488792E+03  0.19848869001E+03  0.00000000000E+00 0.  1.
         21    1    1    2  504  501  0.12688229057E+02 -0.21385916471E+02 -0.28240226613E+03  0.28349495321E+03  0.00000000000E+00 0.  1.
</event>
<event>
 4    1  0.3183954E+006  0.2318015E+02  0.7546771E-02  0.1490248E+00
         21   -1    0    0  502  501  0.00000000000E+00  0.00000000000E+00  0.15042791778E+03  0.15042791778E+03  0.00000000000E+00 0.  1.
         21   -1    0    0  504  502 -0.00000000000E+00 -0.00000000000E+00 -0.20911127733E+03  0.20911127733E+03  0.00000000000E+00 0.  1.
         21    1    1    2  503  501  0.22611059571E+02 -0.51048218377E+01  0.14888593570E+03  0.15067959740E+03  0.00000000000E+00 0.  1.
         21    1    1    2  504  503 -0.22611059571E+02  0.51048218377E+01 -0.20756929526E+03  0.20885959771E+03  0.00000000000E+00 0.  1.
</event>
<event>
 4    1  0.3183954E+006  0.2608849E+02  0.7546771E-02  0.1456986E+00
         21   -1    0    0  503  501  0.00000000000E+00  0.00000000000E+00  0.83347627530E+01  0.83347627530E+01  0.00000000000E+00 0.  1.
         21   -1    0    0  504  502 -0.00000000000E+00 -0.00000000000E+00 -0.26722278230E+03  0.26722278230E+03  0.00000000000E+00 0. -1.
         21    1    1    2  503  502  0.11729625480E+02  0.23302900554E+02 -0.14630748649E+02  0.29911002894E+02  0.00000000000E+00 0.  1.
         21    1    1    2  504  501 -0.11729625480E+02 -0.23302900554E+02 -0.24425727089E+03  0.24564654215E+03  0.00000000000E+00 0. -1.
</event>
<event>
 4    1  0.3183954E+006  0.4568066E+02  0.7546771E-02  0.1318070E+00
         21   -1    0    0  504  501  0.00000000000E+00  0.00000000000E+00  0.26435900182E+02  0.26435900182E+02  0.00000000000E+00 0. -1.
         21   -1    0    0  503  502 -0.00000000000E+00 -0.00000000000E+00 -0.64964139754E+03  0.64964139754E+03  0.00000000000E+00 0.  1.
         21    1    1    2  503  501  0.45670575461E+02 -0.95999810237E+00 -0.62843968536E+03  0.63009773940E+03  0.00000000000E+00 0.  1.
         21    1    1    2  504  502 -0.45670575461E+02  0.95999810237E+00  0.52341880052E+01  0.45979558321E+02  0.00000000000E+00 0. -1.
</event>
<event>
 4    1  0.3183954E+006  0.4017313E+02  0.7546771E-02  0.1347474E+00
         21   -1    0    0  503  501  0.00000000000E+00  0.00000000000E+00  0.93706141330E+01  0.93706141330E+01  0.00000000000E+00 0.  1.
         21   -1    0    0  504  502 -0.00000000000E+00 -0.00000000000E+00 -0.18730235818E+03  0.18730235818E+03  0.00000000000E+00 0.  1.
         21    1    1    2  503  502  0.29121406828E+02  0.27673528120E+02 -0.61068390792E+02  0.73097392896E+02  0.00000000000E+00 0.  1.
         21    1    1    2  504  501 -0.29121406828E+02 -0.27673528120E+02 -0.11686335325E+03  0.12357557941E+03  0.00000000000E+00 0.  1.
</event>
<event>
 4    1  0.3183954E+006  0.2392347E+02  0.7546771E-02  0.1481217E+00
         21   -1    0    0  503  501  0.00000000000E+00  0.00000000000E+00  0.71288532330E+02  0.71288532330E+02  0.00000000000E+00 0.  1.
         21   -1    0    0  504  502 -0.00000000000E+00 -0.00000000000E+00 -0.10523413576E+02  0.10523413576E+02  0.00000000000E+00 0.  1.
         21    1    1    2  503  502 -0.23806782009E+02  0.23599788663E+01  0.10464571955E+02  0.26112059207E+02  0.00000000000E+00 0.  1.
         21    1    1    2  504  501  0.23806782009E+02 -0.23599788663E+01  0.50300546799E+02  0.55699886698E+02  0.00000000000E+00 0.  1.
</event>
<event>
 4    1  0.3183954E+006  0.2055551E+02  0.7546771E-02  0.1525707E+00
         21   -1    0    0  503  501  0.00000000000E+00  0.00000000000E+00  0.12061337132E+03  0.12061337132E+03  0.00000000000E+00 0.  1.
         21   -1    0    0  504  502 -0.00000000000E+00 -0.00000000000E+00 -0.45829559529E+01  0.45829559529E+01  0.00000000000E+00 0.  1.
         21    1    1    2  503  502 -0.10468133333E+02  0.17690307370E+02  0.88400133324E+02  0.90758538783E+02  0.00000000000E+00 0.  1.
         21    1    1    2  504  501  0.10468133333E+02 -0.17690307370E+02  0.27630282046E+02  0.34437788493E+02  0.00000000000E+00 0.  1.
</event>
<event>
 4    1  0.3183954E+006  0.2528938E+02  0.7546771E-02  0.1465592E+00
         21   -1    0    0  504  501  0.00000000000E+00  0.00000000000E+00  0.11781950084E+02  0.11781950084E+02  0.00000000000E+00 0. -1.
         21   -1    0    0  503  502 -0.00000000000E+00 -0.00000000000E+00 -0.79511361747E+02  0.79511361747E+02  0.00000000000E+00 0. -1.
         21    1    1    2  503  501 -0.13409796274E+02  0.21441320118E+02 -0.81522340438E+01  0.26570881890E+02  0.00000000000E+00 0. -1.
         21    1    1    2  504  502  0.13409796274E+02 -0.21441320118E+02 -0.59577177619E+02  0.64722429942E+02  0.00000000000E+00 0. -1.
</event>
<event>
 4    1  0.3183954E+006  0.2415559E+02  0.7546771E-02  0.1478476E+00
         21   -1    0    0  504  501  0.00000000000E+00  0.00000000000E+00  0.83201721820E+01  0.83201721820E+01  0.00000000000E+00 0.  1.
         21   -1    0    0  501  502 -0.00000000000E+00 -0.00000000000E+00 -0.10304037544E+03  0.10304037544E+03  0.00000000000E+00 0. -1.
         21    1    1    2  503  502  0.24144053267E+02  0.74640643828E+00 -0.78827805257E+02  0.82445832596E+02  0.00000000000E+00 0. -1.
         21    1    1    2  504  503 -0.24144053267E+02 -0.74640643828E+00 -0.15892397997E+02  0.28914715022E+02  0.00000000000E+00 0.  1.
</event>
<event>
 4    1  0.3183954E+006  0.2276067E+02  0.7546771E-02  0.1495525E+00
         21   -1    0    0  504  501  0.00000000000E+00  0.00000000000E+00  0.27455081916E+02  0.27455081916E+02  0.00000000000E+00 0. -1.
         21   -1    0    0  503  502 -0.00000000000E+00 -0.00000000000E+00 -0.14156898271E+04  0.14156898271E+04  0.00000000000E+00 0.  1.
         21    1    1    2  503  501  0.99284894896E+01 -0.20481047485E+02  0.22630233469E+02  0.32096349894E+02  0.00000000000E+00 0. -1.
         21    1    1    2  504  502 -0.99284894896E+01  0.20481047485E+02 -0.14108649787E+04  0.14110485592E+04  0.00000000000E+00 0.  1.
</event>
<event>
 4    1  0.3183954E+006  0.2419989E+02  0.7546771E-02  0.1477957E+00
         21   -1    0    0  502  501  0.00000000000E+00  0.00000000000E+00  0.79909878696E+02  0.79909878696E+02  0.00000000000E+00 0.  1.
         21   -1    0    0  504  502 -0.00000000000E+00 -0.00000000000E+00 -0.44018590076E+02  0.44018590076E+02  0.00000000000E+00 0. -1.
         21    1    1    2  503  501  0.15211041568E+02 -0.18821764337E+02  0.74516962463E+02  0.78348020352E+02  0.00000000000E+00 0.  1.
         21    1    1    2  504  503 -0.15211041568E+02  0.18821764337E+02 -0.38625673843E+02  0.45580448420E+02  0.00000000000E+00 0. -1.
</event>
<event>
 4    1  0.3183954E+006  0.2598867E+02  0.7546771E-02  0.1458040E+00
         21   -1    0    0  502  501  0.00000000000E+00  0.00000000000E+00  0.27417508923E+02  0.27417508923E+02  0.00000000000E+00 0.  1.
         21   -1    0    0  503  502 -0.00000000000E+00 -0.00000000000E+00 -0.54111597914E+02  0.54111597914E+02  0.00000000000E+00 0. -1.
         21    1    1    2  503  504 -0.15475148159E+02 -0.20878956480E+02 -0.43434216808E+02  0.50615632209E+02  0.00000000000E+00 0. -1.
         21    1    1    2  504  501  0.15475148159E+02  0.20878956480E+02  0.16740127816E+02  0.30913474628E+02  0.00000000000E+00 0.  1.
</event>
<event>
 4    1  0.3183954E+006  0.3907815E+02  0.7546771E-02  0.1353974E+00
         21   -1    0    0  502  501  0.00000000000E+00  0.00000000000E+00  0.73131425253E+01  0.73131425253E+01  0.00000000000E+00 0. -1.
         21   -1    0    0  504  502 -0.00000000000E+00 -0.00000000000E+00 -0.42304205857E+03  0.42304205857E+03  0.00000000000E+00 0. -1.
         21    1    1    2  503  501  0.37273480926E+02 -0.11738374658E+02 -0.54741134943E+02  0.67258409695E+02  0.00000000000E+00 0. -1.
         21    1    1    2  504  503 -0.37273480926E+02  0.11738374658E+02 -0.36098778110E+03  0.36309679140E+03  0.00000000000E+00 0. -1.
</event>
<event>
 4    1  0.3183954E+006  0.2506142E+02  0.7546771E-02  0.1468117E+00
         21   -1    0    0  503  501  0.00000000000E+00  0.00000000000E+00  0.54834128246E+02  0.54834128246E+02  0.00000000000E+00 0. -1.
         21   -1    0    0  504  502 -0.00000000000E+00 -0.00000000000E+00 -0.13889189983E+02  0.13889189983E+02  0.00000000000E+00 0. -1.
         21    1    1    2  503  502 -0.18710097305E+02  0.16673544076E+02  0.34860270497E+02  0.42933824339E+02  0.00000000000E+00 0. -1.
         21    1    1    2  504  501  0.18710097305E+02 -0.16673544076E+02  0.60846677659E+01  0.25789493889E+02  0.00000000000E+00 0. -1.
</event>
<event>
 4    1  0.3183954E+006  0.2555043E+02  0.7546771E-02  0.1462739E+00
         21   -1    0    0  504  501  0.00000000000E+00  0.00000000000E+00  0.12192323505E+03  0.12192323505E+03  0.00000000000E+00 0.  1.
         21   -1    0    0  503  502 -0.00000000000E+00 -0.00000000000E+00 -0.73451808532E+02  0.73451808532E+02  0.00000000000E+00 0. -1.
         21    1    1    2  503  501 -0.14862118259E+02 -0.20783208612E+02 -0.69823897229E+02  0.74351872496E+02  0.00000000000E+00 0. -1.
         21    1    1    2  504  502  0.14862118259E+02  0.20783208612E+02  0.11829532375E+03  0.12102317109E+03  0.00000000000E+00 0.  1.
</event>
<event>
 4    1  0.3183954E+006  0.2985206E+02  0.7546771E-02  0.1420887E+00
         21   -1    0    0  504  501  0.00000000000E+00  0.00000000000E+00  0.35780838023E+03  0.35780838023E+03  0.00000000000E+00 0. -1.
         21   -1    0    0  503  502 -0.00000000000E+00 -0.00000000000E+00 -0.32047636806E+01  0.32047636806E+01  0.00000000000E+00 0. -1.
         21    1    1    2  503  501 -0.23226772745E+02  0.18752670107E+02  0.92089163955E+02  0.96806816528E+02  0.00000000000E+00 0. -1.
         21    1    1    2  504  502  0.23226772745E+02 -0.18752670107E+02  0.26251445259E+03  0.26420632738E+03  0.00000000000E+00 0. -1.
</event>
<event>
 4    1  0.3183954E+006  0.2751023E+02  0.7546771E-02  0.1442549E+00
         21   -1    0    0  504  501  0.00000000000E+00  0.00000000000E+00  0.38148821058E+01  0.38148821058E+01  0.00000000000E+00 0.  1.
         21   -1    0    0  503  502 -0.00000000000E+00 -0.00000000000E+00 -0.75626729030E+03  0.75626729030E+03  0.00000000000E+00 0. -1.
         21    1    1    2  503  501 -0.16474380982E+02 -0.22031967842E+02 -0.49815464076E+02  0.56906882684E+02  0.00000000000E+00 0.  1.
         21    1    1    2  504  502  0.16474380982E+02  0.22031967842E+02 -0.70263694412E+03  0.70317528972E+03  0.00000000000E+00 0. -1.
</event>
<event>
 4    1  0.3183954E+006  0.2012403E+02  0.7546771E-02  0.1532148E+00
         21   -1    0    0  502  501  0.00000000000E+00  0.00000000000E+00  0.52106783757E+02  0.52106783757E+02  0.00000000000E+00 0. -1.
         21   -1    0    0  503  502 -0.00000000000E+00 -0.00000000000E+00 -0.24114189081E+02  0.24114189081E+02  0.00000000000E+00 0.  1.
         21    1    1    2  503  504  0.13088701254E+02 -0.15286018530E+02 -0.17377177949E+02  0.26588395522E+02  0.00000000000E+00 0.  1.
         21    1    1    2  504  501 -0.13088701254E+02  0.15286018530E+02  0.45369772625E+02  0.49632577316E+02  0.00000000000E+00 0. -1.
</event>
<event>
 4    1  0.3183954E+006  0.2214031E+02  0.7546771E-02  0.1503585E+00
         21   -1    0    0  503  501  0.00000000000E+00  0.00000000000E+00  0.22291779796E+01  0.22291779796E+01  0.00000000000E+00 0.  1.
         21   -1    0    0  501  502 -0.00000000000E+00 -0.00000000000E+00 -0.28602187354E+03  0.28602187354E+03  0.00000000000E+00 0.  1.
         21    1    1    2  503  504 -0.20717005670E+02  0.78101908361E+01 -0.72598773960E+02  0.75899771972E+02  0.00000000000E+00 0.  1.
         21    1    1    2  504  502  0.20717005670E+02 -0.78101908361E+01 -0.21119392160E+03  0.21235127955E+03  0.00000000000E+00 0.  1.
</event>
<event>
 4    1  0.3183954E+006  0.6629144E+02  0.7546771E-02  0.1239835E+00
         21   -1    0    0  503  501  0.00000000000E+00  0.00000000000E+00  0.44926908130E+03  0.44926908130E+03  0.00000000000E+00 0. -1.
         21   -1    0    0  504  502 -0.00000000000E+00 -0.00000000000E+00 -0.35694776052E+02  0.35694776052E+02  0.00000000000E+00 0.  1.
         21    1    1    2  503  502  0.63683598076E+02 -0.18410719570E+02  0.18366284446E+00  0.66291696245E+02  0.00000000000E+00 0.  1.
         21    1    1    2  504  501 -0.63683598076E+02  0.18410719570E+02  0.41339064240E+03  0.41867216110E+03  0.00000000000E+00 0. -1.
</event>
<event>
 4    1  0.3183954E+006  0.2175582E+02  0.7546771E-02  0.1508742E+00
         21   -1    0    0  504  501  0.00000000000E+00  0.00000000000E+00  0.90706050866E+01  0.90706050866E+01  0.00000000000E+00 0.  1.
         21   -1    0    0  501  502 -0.00000000000E+00 -0.00000000000E+00 -0.10397790815E+03  0.10397790815E+03  0.00000000000E+00 0.  1.
         21    1    1    2  503  502  0.19037619443E+02  0.10530185599E+02 -0.87348339777E+02  0.90016932989E+02  0.00000000000E+00 0.  1.
         21    1    1    2  504  503 -0.19037619443E+02 -0.10530185599E+02 -0.75589632881E+01  0.23031580250E+02  0.00000000000E+00 0.  1.
</event>
<event>
 4    1  0.3183954E+006  0.3465580E+02  0.7546771E-02  0.1382999E+00
         21   -1    0    0  504  501  0.00000000000E+00  0.00000000000E+00  0.32746667949E+01  0.32746667949E+01  0.00000000000E+00 0. -1.
         21   -1    0    0  503  502 -0.00000000000E+00 -0.00000000000E+00 -0.37898377454E+03  0.37898377454E+03  0.00000000000E+00 0. -1.
         21    1    1    2  503  501 -0.34486170260E+02 -0.34247433260E+01 -0.22217682175E+03  0.22486343618E+03  0.00000000000E+00 0. -1.
         21    1    1    2  504  502  0.34486170260E+02  0.34247433260E+01 -0.15353228600E+03  0.15739500516E+03  0.00000000000E+00 0. -1.
</event>
<event>
 4    1  0.3183954E+006  0.2272523E+02  0.7546771E-02  0.1495978E+00
         21   -1    0    0  503  501  0.00000000000E+00  0.00000000000E+00  0.31128331296E+02  0.31128331296E+02  0.00000000000E+00 0.  1.
         21   -1    0    0  504  502 -0.00000000000E+00 -0.00000000000E+00 -0.16730517548E+02  0.16730517548E+02  0.00000000000E+00 0.  1.
         21    1    1    2  503  502 -0.22725124124E+02 -0.69743673783E-01  0.50101801034E+01  0.23270969797E+02  0.00000000000E+00 0.  1.
         21    1    1    2  504  501  0.22725124124E+02  0.69743673783E-01  0.93876336442E+01  0.24587879048E+02  0.00000000000E+00 0.  1.
</event>
<event>
 4    1  0.3183954E+006  0.2189207E+02  0.7546771E-02  0.1506900E+00
         21   -1    0    0  502  501  0.00000000000E+00  0.00000000000E+00  0.42229157258E+03  0.42229157258E+03  0.00000000000E+00 0.  1.
         21   -1    0    0  503  502 -0.00000000000E+00 -0.00000000000E+00 -0.26801977187E+01  0.26801977187E+01  0.00000000000E+00 0. -1.
         21    1    1    2  503  504  0.13189746532E+02  0.17472640211E+02  0.48462190411E+02  0.53177499649E+02  0.00000000000E+00 0. -1.
         21    1    1    2  504  501 -0.13189746532E+02 -0.17472640211E+02  0.37114918445E+03  0.37179427065E+03  0.00000000000E+00 0.  1.
</event>
<event>
 4    1  0.3183954E+006  0.2569443E+02  0.7546771E-02  0.1461183E+00
         21   -1    0    0  503  501  0.00000000000E+00  0.00000000000E+00  0.18443929058E+03  0.18443929058E+03  0.00000000000E+00 0. -1.
         21   -1    0    0  504  502 -0.00000000000E+00 -0.00000000000E+00 -0.34188326857E+02  0.34188326857E+02  0.00000000000E+00 0.  1.
         21    1    1    2  503  502 -0.25422697080E+02  0.37269411556E+01  0.17855852985E+03  0.18039776107E+03  0.00000000000E+00 0. -1.
         21    1    1    2  504  501  0.25422697080E+02 -0.37269411556E+01 -0.28307566131E+02  0.38229856362E+02  0.00000000000E+00 0.  1.
</event>
<event>
 4    1  0.3183954E+006  0.3155512E+02  0.7546771E-02  0.1406547E+00
         21   -1    0    0  504  501  0.00000000000E+00  0.00000000000E+00  0.57143987640E+02  0.57143987640E+02  0.00000000000E+00 0.  1.
         21   -1    0    0  503  502 -0.00000000000E+00 -0.00000000000E+00 -0.35855032778E+02  0.35855032778E+02  0.00000000000E+00 0. -1.
         21    1    1    2  503  501 -0.26116277541E+02  0.17710609145E+02 -0.22693411327E+02  0.38867937255E+02  0.00000000000E+00 0. -1.
         21    1    1    2  504  502  0.26116277541E+02 -0.17710609145E+02  0.43982366188E+02  0.54131083162E+02  0.00000000000E+00 0.  1.
</event>
<event>
 4    1  0.3183954E+006  0.2848981E+02  0.7546771E-02  0.1433191E+00
         21   -1    0    0  504  501  0.00000000000E+00  0.00000000000E+00  0.37993901343E+02  0.37993901343E+02  0.00000000000E+00 0.  1.
         21   -1    0    0  503  502 -0.00000000000E+00 -0.00000000000E+00 -0.12064757648E+03  0.12064757648E+03  0.00000000000E+00 0.  1.
         21    1    1    2  503  501 -0.12149366592E+02 -0.25769404227E+02  0.30629329606E+02  0.41830911237E+02  0.00000000000E+00 0.  1.
         21    1    1    2  504  502  0.12149366592E+02  0.25769404227E+02 -0.11328300474E+03  0.11681056658E+03  0.00000000000E+00 0.  1.
</event>
<event>
 4    1  0.3183954E+006  0.2069321E+02  0.7546771E-02  0.1523690E+00
         21   -1    0    0  502  501  0.00000000000E+00  0.00000000000E+00  0.25178528268E+02  0.25178528268E+02  0.00000000000E+00 0.  1.
         21   -1    0    0  504  502 -0.00000000000E+00 -0.00000000000E+00 -0.21062428474E+02  0.21062428474E+02  0.00000000000E+00 0.  1.
         21    1    1    2  503  501 -0.20398668503E+02 -0.34789451269E+01  0.12203382078E+02  0.24023556565E+02  0.00000000000E+00 0.  1.
         21    1    1    2  504  503  0.20398668503E+02  0.34789451269E+01 -0.80872822847E+01  0.22217400177E+02  0.00000000000E+00 0.  1.
</event>
<event>
 4    1  0.3183954E+006  0.3347153E+02  0.7546771E-02  0.1391639E+00
         21   -1    0    0  503  501  0.00000000000E+00  0.00000000000E+00  0.16048101006E+02  0.16048101006E+02  0.00000000000E+00 0.  1.
         21   -1    0    0  501  502 -0.00000000000E+00 -0.00000000000E+00 -0.19336216886E+03  0.19336216886E+03  0.00000000000E+00 0.  1.
         21    1    1    2  503  504 -0.12406123343E+02  0.31087483114E+02 -0.49610512750E+01  0.33837191558E+02  0.00000000000E+00 0.  1.
         21    1    1    2  504  502  0.12406123343E+02 -0.31087483114E+02 -0.17235301658E+03  0.17557307831E+03  0.00000000000E+00 0.  1.
</event>
<event>
 4    1  0.3183954E+006  0.2453961E+02  0.7546771E-02  0.1474020E+00
         21   -1    0    0  504  501  0.00000000000E+00  0.00000000000E+00  0.17309042026E+03  0.17309042026E+03  0.00000000000E+00 0. -1.
         21   -1    0    0  503  502 -0.00000000000E+00 -0.00000000000E+00 -0.49036089120E+01  0.49036089120E+01  0.00000000000E+00 0. -1.
         21    1    1    2  503  501 -0.90271852065E+01 -0.22818905632E+02  0.36124953311E+02  0.43671555717E+02  0.00000000000E+00 0. -1.
         21    1    1    2  504  502  0.90271852065E+01  0.22818905632E+02  0.13206185803E+03  0.13432247345E+03  0.00000000000E+00 0. -1.
</event>
<event>
 4    1  0.3183954E+006  0.2430147E+02  0.7546771E-02  0.1476772E+00
         21   -1    0    0  502  501  0.00000000000E+00  0.00000000000E+00  0.16877241537E+03  0.16877241537E+03  0.00000000000E+00 0. -1.
         21   -1    0    0  504  502 -0.00000000000E+00 -0.00000000000E+00 -0.10152627547E+02  0.10152627547E+02  0.00000000000E+00 0.  1.
         21    1    1    2  503  501  0.20267111294E+02 -0.13409168296E+02  0.15173279976E+03  0.15366653545E+03  0.00000000000E+00 0. -1.
         21    1    1    2  504  503 -0.20267111294E+02  0.13409168296E+02  0.68869880573E+01  0.25258507460E+02  0.00000000000E+00 0.  1.
</event>
<event>
 4    1  0.3183954E+006  0.2407925E+02  0.7546771E-02  0.1479373E+00
         21   -1    0    0  503  501  0.00000000000E+00  0.00000000000E+00  0.33350395615E+01  0.33350395615E+01  0.00000000000E+00 0.  1.
         21   -1    0    0  504  502 -0.00000000000E+00 -0.00000000000E+00 -0.17725832524E+03  0.17725832524E+03  0.00000000000E+00 0. -1.
         21    1    1    2  503  502  0.23822440267E+02  0.35073942361E+01 -0.99475013393E+02  0.10234788109E+03  0.00000000000E+00 0.  1.
         21    1    1    2  504  501 -0.23822440267E+02 -0.35073942361E+01 -0.74448272289E+02  0.78245483713E+02  0.00000000000E+00 0. -1.
</event>
<event>
 4    1  0.3183954E+006  0.2539554E+02  0.7546771E-02  0.1464427E+00
         21   -1    0    0  502  501  0.00000000000E+00  0.00000000000E+00  0.13775778532E+01  0.13775778532E+01  0.00000000000E+00 0. -1.
         21   -1    0    0  503  502 -0.00000000000E+00 -0.00000000000E+00 -0.52080558631E+03  0.52080558631E+03  0.00000000000E+00 0. -1.
         21    1    1    2  503  504  0.11683527633E+02 -0.22548366835E+02 -0.34272117731E+03  0.34366079066E+03  0.00000000000E+00 0. -1.
         21    1    1    2  504  501 -0.11683527633E+02  0.22548366835E+02 -0.17670683115E+03  0.17852237350E+03  0.00000000000E+00 0. -1.
</event>
<event>
 4    1  0.3183954E+006  0.2244847E+02  0.7546771E-02  0.1499542E+00
         21   -1    0    0  503  501  0.00000000000E+00  0.00000000000E+00  0.12262129440E+02  0.12262129440E+02  0.00000000000E+00 0. -1.
         21   -1    0    0  501  502 -0.00000000000E+00 -0.00000000000E+00 -0.45297078045E+03  0.45297078045E+03  0.00000000000E+00 0.  1.
         21    1    1    2  503  504  0.20777186035E+02  0.84995621918E+01  0.14589466815E+01  0.22495833890E+02  0.00000000000E+00 0. -1.
         21    1    1    2  504  502 -0.20777186035E+02 -0.84995621918E+01 -0.44216759769E+03  0.44273707600E+03  0.00000000000E+00 0.  1.
</event>
<event>
 4    1  0.3183954E+006  0.2898919E+02  0.7546771E-02  0.1428588E+00
         21   -1    0    0  504  501  0.00000000000E+00  0.00000000000E+00  0.24024251045E+01  0.24024251045E+01  0.00000000000E+00 0.  1.
         21   -1    0    0  503  502 -0.00000000000E+00 -0.00000000000E+00 -0.16415301853E+04  0.16415301853E+04  0.00000000000E+00 0.  1.
         21    1    1    2  503  501 -0.28023559218E+02  0.74198023677E+01 -0.90416818365E+02  0.94950378523E+02  0.00000000000E+00 0.  1.
         21    1    1    2  504  502  0.28023559218E+02 -0.74198023677E+01 -0.15487109418E+04  0.15489822318E+04  0.00000000000E+00 0.  1.
</event>
<event>
 4    1  0.3183954E+006  0.2637763E+02  0.7546771E-02  0.1453962E+00
         21   -1    0    0  503  501  0.00000000000E+00  0.00000000000E+00  0.18809558218E+03  0.18809558218E+03  0.00000000000E+00 0. -1.
         21   -1    0    0  501  502 -0.00000000000E+00 -0.00000000000E+00 -0.77598548798E+02  0.77598548798E+02  0.00000000000E+00 0. -1.
         21    1    1    2  503  504  0.16262831814E+02 -0.20767750299E+02  0.18489055387E+03  0.18676267310E+03  0.00000000000E+00 0. -1.
         21    1    1    2  504  502 -0.16262831814E+02  0.20767750299E+02 -0.74393520495E+02  0.78931457878E+02  0.00000000000E+00 0. -1.
</event>
<event>
 4    1  0.3183954E+006  0.2500242E+02  0.7546771E-02  0.1468776E+00
         21   -1    0    0  504  501  0.00000000000E+00  0.00000000000E+00  0.15435135091E+03  0.15435135091E+03  0.00000000000E+00 0. -1.
         21   -1    0    0  503  502 -0.00000000000E+00 -0.00000000000E+00 -0.12865873841E+02  0.12865873841E+02  0.00000000000E+00 0.  1.
         21    1    1    2  503  501 -0.18093426375E+02 -0.17255406188E+02  0.13995202153E+03  0.14216782143E+03  0.00000000000E+00 0. -1.
         21    1    1    2  504  502  0.18093426375E+02  0.17255406188E+02  0.15334555393E+01  0.25049403318E+02  0.00000000000E+00 0.  1.
</event>
<event>
 4    1  0.3183954E+006  0.2040405E+02  0.7546771E-02  0.1527946E+00
         21   -1    0    0  502  501  0.00000000000E+00  0.00000000000E+00  0.80558893619E+01  0.80558893619E+01  0.00000000000E+00 0.  1.
         21   -1    0    0  504  502 -0.00000000000E+00 -0.00000000000E+00 -0.52674203352E+02  0.52674203352E+02  0.00000000000E+00 0. -1.
         21    1    1    2  503  501  0.17316225801E+02 -0.10792293561E+02 -0.18136658179E+02  0.27299517326E+02  0.00000000000E+00 0.  1.
         21    1    1    2  504  503 -0.17316225801E+02  0.10792293561E+02 -0.26481655811E+02  0.33430575388E+02  0.00000000000E+00 0. -1.
</event>
<event>
 4    1  0.3183954E+006  0.3083701E+02  0.7546771E-02  0.1412459E+00
         21   -1    0    0  503  501  0.00000000000E+00  0.00000000000E+00  0.11495190430E+03  0.11495190430E+03  0.00000000000E+00 0.  1.
         21   -1    0    0  501  502 -0.00000000000E+00 -0.00000000000E+00 -0.12895029926E+02  0.12895029926E+02  0.00000000000E+00 0.  1.
         21    1    1    2  503  504 -0.29938700334E+02  0.73888507428E+01  0.89301803947E+02  0.94476097936E+02  0.00000000000E+00 0.  1.
         21    1    1    2  504  502  0.29938700334E+02 -0.73888507428E+01  0.12755070423E+02  0.33370836287E+02  0.00000000000E+00 0.  1.
</event>
<event>
 4    1  0.3183954E+006  0.2942330E+02  0.7546771E-02  0.1424675E+00
         21   -1    0    0  503  501  0.00000000000E+00  0.00000000000E+00  0.51738119746E+02  0.51738119746E+02  0.00000000000E+00 0. -1.
         21   -1    0    0  504  502 -0.00000000000E+00 -0.00000000000E+00 -0.20169299083E+02  0.20169299083E+02  0.00000000000E+00 0. -1.
         21    1    1    2  503  502  0.13702259666E+02 -0.26038018668E+02  0.94392163428E+00  0.29438432773E+02  0.00000000000E+00 0. -1.
         21    1    1    2  504  501 -0.13702259666E+02  0.26038018668E+02  0.30624899029E+02  0.42468986056E+02  0.00000000000E+00 0. -1.
</event>
<event>
 4    1  0.3183954E+006  0.2134018E+02  0.7546771E-02  0.1514463E+00
         21   -1    0    0  503  501  0.00000000000E+00  0.00000000000E+00  0.49899995545E+01  0.49899995545E+01  0.00000000000E+00 0.  1.
         21   -1    0    0  504  502 -0.00000000000E+00 -0.00000000000E+00 -0.14090987158E+03  0.14090987158E+03  0.00000000000E+00 0.  1.
         21    1    1    2  503  502 -0.20175680587E+02 -0.69530596597E+01 -0.11126108782E+03  0.11328915565E+03  0.00000000000E+00 0.  1.
         21    1    1    2  504  501  0.20175680587E+02  0.69530596597E+01 -0.24658784211E+02  0.32610715487E+02  0.00000000000E+00 0.  1.
</event>
<event>
 4    1  0.3183954E+006  0.2479147E+02  0.7546771E-02  0.1471150E+00
         21   -1    0    0  503  501  0.00000000000E+00  0.00000000000E+00  0.10298304576E+02  0.10298304576E+02  0.00000000000E+00 0. -1.
         21   -1    0    0  504  502 -0.00000000000E+00 -0.00000000000E+00 -0.62548149322E+02  0.62548149322E+02  0.00000000000E+00 0. -1.
         21    1    1    2  503  502 -0.12188631043E+02  0.21588291831E+02 -0.18327209279E+02  0.30830239552E+02  0.00000000000E+00 0. -1.
         21    1    1    2  504  501  0.12188631043E+02 -0.21588291831E+02 -0.33922635467E+02  0.42016214345E+02  0.00000000000E+00 0. -1.
</event>
<event>
 4    1  0.3183954E+006  0.2039935E+02  0.7546771E-02  0.1528016E+00
         21   -1    0    0  504  501  0.00000000000E+00  0.00000000000E+00  0.25868507637E+02  0.25868507637E+02  0.00000000000E+00 0.  1.
         21   -1    0    0  501  502 -0.00000000000E+00 -0.00000000000E+00 -0.14182482324E+03  0.14182482324E+03  0.00000000000E+00 0. -1.
         21    1    1    2  503  502  0.10956918635E+02  0.17206962649E+02 -0.13692659005E+03  0.13843780080E+03  0.00000000000E+00 0. -1.
         21    1    1    2  504  503 -0.10956918635E+02 -0.17206962649E+02  0.20970274445E+02  0.29255530073E+02  0.00000000000E+00 0.  1.
</event>
<event>
 4    1  0.3183954E+006  0.3051598E+02  0.7546771E-02  0.1415165E+00
         21   -1    0    0  503  501  0.00000000000E+00  0.00000000000E+00  0.32146855867E+02  0.32146855867E+02  0.00000000000E+00 0. -1.
         21   -1    0    0  504  502 -0.00000000000E+00 -0.00000000000E+00 -0.30467647330E+02  0.30467647330E+02  0.00000000000E+00 0. -1.
         21    1    1    2  503  502  0.14001360386E+02 -0.27114330581E+02  0.77857365077E+01  0.31493534392E+02  0.00000000000E+00 0. -1.
         21    1    1    2  504  501 -0.14001360386E+02  0.27114330581E+02 -0.61065279714E+01  0.31120968805E+02  0.00000000000E+00 0. -1.
</event>
<event>
 4    1  0.3183954E+006  0.2349134E+02  0.7546771E-02  0.1486419E+00
         21   -1    0    0  502  501  0.00000000000E+00  0.00000000000E+00  0.27598556955E+02  0.27598556955E+02  0.00000000000E+00 0.  1.
         21   -1    0    0  503  502 -0.00000000000E+00 -0.00000000000E+00 -0.62447709181E+02  0.62447709181E+02  0.00000000000E+00 0. -1.
         21    1    1    2  503  504 -0.19540311534E+02 -0.13039135942E+02 -0.54546319666E+02  0.59389761997E+02  0.00000000000E+00 0. -1.
         21    1    1    2  504  501  0.19540311534E+02  0.13039135942E+02  0.19697167440E+02  0.30656504140E+02  0.00000000000E+00 0.  1.
</event>
<event>
 4    1  0.3183954E+006  0.3831761E+02  0.7546771E-02  0.1358637E+00
         21   -1    0    0  504  501  0.00000000000E+00  0.00000000000E+00  0.85541795895E+02  0.85541795895E+02  0.00000000000E+00 0. -1.
         21   -1    0    0  503  502 -0.00000000000E+00 -0.00000000000E+00 -0.19638667738E+02  0.19638667738E+02  0.00000000000E+00 0. -1.
         21    1    1    2  503  501  0.16514172431E+02  0.34576307588E+02  0.51620002043E+02  0.64287351388E+02  0.00000000000E+00 0. -1.
         21    1    1    2  504  502 -0.16514172431E+02 -0.34576307588E+02  0.14283126114E+02  0.40893112245E+02  0.00000000000E+00 0. -1.
</event>
<event>
 4    1  0.3183954E+006  0.3487166E+02  0.7546771E-02  0.1381468E+00
         21   -1    0    0  504  501  0.00000000000E+00  0.00000000000E+00  0.26233347384E+02  0.26233347384E+02  0.00000000000E+00 0. -1.
         21   -1    0    0  503  502 -0.00000000000E+00 -0.00000000000E+00 -0.40737886067E+03  0.40737886067E+03  0.00000000000E+00 0. -1.
         21    1    1    2  503  501 -0.21260880901E+02  0.27640687210E+02  0.13526084421E+02  0.37403042736E+02  0.00000000000E+00 0. -1.
         21    1    1    2  504  502  0.21260880901E+02 -0.27640687210E+02 -0.39467159771E+03  0.39620916532E+03  0.00000000000E+00 0. -1.
</event>
<event>
 4    1  0.3183954E+006  0.4600229E+02  0.7546771E-02  0.1316502E+00
         21   -1    0    0  504  501  0.00000000000E+00  0.00000000000E+00  0.64350433291E+02  0.64350433291E+02  0.00000000000E+00 0.  1.
         21   -1    0    0  503  502 -0.00000000000E+00 -0.00000000000E+00 -0.37442794298E+02  0.37442794298E+02  0.00000000000E+00 0. -1.
         21    1    1    2  503  501  0.21141097984E+02  0.40856638858E+02 -0.43022710131E+01  0.46203035600E+02  0.00000000000E+00 0. -1.
         21    1    1    2  504  502 -0.21141097984E+02 -0.40856638858E+02  0.31209910007E+02  0.55590191989E+02  0.00000000000E+00 0.  1.
</event>
<event>
 4    1  0.3183954E+006  0.2641914E+02  0.7546771E-02  0.1453532E+00
         21   -1    0    0  504  501  0.00000000000E+00  0.00000000000E+00  0.86653757684E+02  0.86653757684E+02  0.00000000000E+00 0.  1.
         21   -1    0    0  503  502 -0.00000000000E+00 -0.00000000000E+00 -0.10572519101E+02  0.10572519101E+02  0.00000000000E+00 0.  1.
         21    1    1    2  503  501  0.26051347919E+02  0.43929483538E+01  0.14317271060E+02  0.30049209211E+02  0.00000000000E+00 0.  1.
         21    1    1    2  504  502 -0.26051347919E+02 -0.43929483538E+01  0.61763967523E+02  0.67177067574E+02  0.00000000000E+00 0.  1.
</event>
<event>
 4    1  0.3183954E+006  0.2115886E+02  0.7546771E-02  0.1517009E+00
         21   -1    0    0  503  501  0.00000000000E+00  0.00000000000E+00  0.30943724811E+03  0.30943724811E+03  0.00000000000E+00 0.  1.
         21   -1    0    0  504  502 -0.00000000000E+00 -0.00000000000E+00 -0.46881684044E+01  0.46881684044E+01  0.00000000000E+00 0.  1.
         21    1    1    2  503  502 -0.20835813276E+02  0.36832354211E+01  0.28297205491E+03  0.28376201508E+03  0.00000000000E+00 0.  1.
         21    1    1    2  504  501  0.20835813276E+02 -0.36832354211E+01  0.21777024788E+02  0.30363401434E+02  0.00000000000E+00 0.  1.
</event>
<event>
 4    1  0.3183954E+006  0.3212321E+02  0.7546771E-02  0.1402001E+00
         21   -1    0    0  504  501  0.00000000000E+00  0.00000000000E+00  0.18991417449E+02  0.18991417449E+02  0.00000000000E+00 0. -1.
         21   -1    0    0  503  502 -0.00000000000E+00 -0.00000000000E+00 -0.71260039968E+02  0.71260039968E+02  0.00000000000E+00 0. -1.
         21    1    1    2  503  501  0.29016907521E+02  0.13781138766E+02 -0.41423141287E+01  0.32389187611E+02  0.00000000000E+00 0. -1.
         21    1    1    2  504  502 -0.29016907521E+02 -0.13781138766E+02 -0.48126308390E+02  0.57862269805E+02  0.00000000000E+00 0. -1.
</event>
<event>
 4    1  0.3183954E+006  0.2508059E+02  0.7546771E-02  0.1467904E+00
         21   -1    0    0  503  501  0.00000000000E+00  0.00000000000E+00  0.31696600933E+02  0.31696600933E+02  0.00000000000E+00 0. -1.
         21   -1    0    0  504  502 -0.00000000000E+00 -0.00000000000E+00 -0.23710482318E+02  0.23710482318E+02  0.00000000000E+00 0. -1.
         21    1    1    2  503  502  0.14927504199E+02 -0.20154545597E+02  0.15178078519E+02  0.29315698139E+02  0.00000000000E+00 0. -1.
         21    1    1    2  504  501 -0.14927504199E+02  0.20154545597E+02 -0.71919599035E+01  0.26091385112E+02  0.00000000000E+00 0. -1.
</event>
<event>
 4    1  0.3183954E+006  0.2298496E+02  0.7546771E-02  0.1492687E+00
         21   -1    0    0  504  501  0.00000000000E+00  0.00000000000E+00  0.51507556082E+03  0.51507556082E+03  0.00000000000E+00 0. -1.
         21   -1    0    0  503  502 -0.00000000000E+00 -0.00000000000E+00 -0.10287849974E+01  0.10287849974E+01  0.00000000000E+00 0. -1.
         21    1    1    2  503  501  0.21942255915E+02 -0.68444055472E+01  0.24287230994E+03  0.24395751150E+03  0.00000000000E+00 0. -1.
         21    1    1    2  504  502 -0.21942255915E+02  0.68444055472E+01  0.27117446588E+03  0.27214683432E+03  0.00000000000E+00 0. -1.
</event>
<event>
 4    1  0.3183954E+006  0.2040109E+02  0.7546771E-02  0.1527990E+00
         21   -1    0    0  502  501  0.00000000000E+00  0.00000000000E+00  0.50527315658E+02  0.50527315658E+02  0.00000000000E+00 0. -1.
         21   -1    0    0  504  502 -0.00000000000E+00 -0.00000000000E+00 -0.15185399612E+03  0.15185399612E+03  0.00000000000E+00 0.  1.
         21    1    1    2  503  501  0.13564716740E+02  0.15238209489E+02  0.47744542170E+02  0.51920572760E+02  0.00000000000E+00 0. -1.
         21    1    1    2  504  503 -0.13564716740E+02 -0.15238209489E+02 -0.14907122263E+03  0.15046073902E+03  0.00000000000E+00 0.  1.
</event>
<event>
 4    1  0.3183954E+006  0.2293730E+02  0.7546771E-02  0.1493287E+00
         21   -1    0    0  503  501  0.00000000000E+00  0.00000000000E+00  0.13512550041E+03  0.13512550041E+03  0.00000000000E+00 0.  1.
         21   -1    0    0  504  502 -0.00000000000E+00 -0.00000000000E+00 -0.52392626288E+01  0.52392626288E+01  0.00000000000E+00 0.  1.
         21    1    1    2  503  502 -0.22013559810E+02 -0.64438392156E+01  0.10051172185E+03  0.10309571334E+03  0.00000000000E+00 0.  1.
         21    1    1    2  504  501  0.22013559810E+02  0.64438392156E+01  0.29374515926E+02  0.37269049696E+02  0.00000000000E+00 0.  1.
</event>
<event>
 4    1  0.3183954E+006  0.2033220E+02  0.7546771E-02  0.1529017E+00
         21   -1    0    0  503  501  0.00000000000E+00  0.00000000000E+00  0.16865667863E+02  0.16865667863E+02  0.00000000000E+00 0.  1.
         21   -1    0    0  504  502 -0.00000000000E+00 -0.00000000000E+00 -0.60811188318E+02  0.60811188318E+02  0.00000000000E+00 0. -1.
         21    1    1    2  503  502 -0.93390468484E+01  0.18060471822E+02  0.80342620467E+01  0.21862017407E+02  0.00000000000E+00 0.  1.
         21    1    1    2  504  501  0.93390468484E+01 -0.18060471822E+02 -0.51979782501E+02  0.55814838774E+02  0.00000000000E+00 0. -1.
</event>
<event>
 4    1  0.3183954E+006  0.2852700E+02  0.7546771E-02  0.1432844E+00
         21   -1    0    0  504  501  0.00000000000E+00  0.00000000000E+00  0.17121275561E+01  0.17121275561E+01  0.00000000000E+00 0. -1.
         21   -1    0    0  503  502 -0.00000000000E+00 -0.00000000000E+00 -0.60480825807E+03  0.60480825807E+03  0.00000000000E+00 0. -1.
         21    1    1    2  503  501 -0.23112470294E+02  0.16721355208E+02 -0.44187461000E+03  0.44279449066E+03  0.00000000000E+00 0. -1.
         21    1    1    2  504  502  0.23112470294E+02 -0.16721355208E+02 -0.16122152051E+03  0.16372589496E+03  0.00000000000E+00 0. -1.
</event>
<event>
 4    1  0.3183954E+006  0.2006803E+02  0.7546771E-02  0.1532998E+00
         21   -1    0    0  504  501  0.00000000000E+00  0.00000000000E+00  0.11812828336E+03  0.11812828336E+03  0.00000000000E+00 0.  1.
         21   -1    0    0  503  502 -0.00000000000E+00 -0.00000000000E+00 -0.10046523795E+03  0.10046523795E+03  0.00000000000E+00 0. -1.
         21    1    1    2  503  501 -0.58427320184E+01 -0.19198654303E+02 -0.98594774386E+02  0.10061637730E+03  0.00000000000E+00 0. -1.
         21    1    1    2  504  502  0.58427320184E+01  0.19198654303E+02  0.11625781979E+03  0.11797714401E+03  0.00000000000E+00 0.  1.
</event>
<event>
 4    1  0.3183954E+006  0.9546819E+02  0.7546771E-02  0.1171901E+00
         21   -1    0    0  504  501  0.00000000000E+00  0.00000000000E+00  0.41368113865E+03  0.41368113865E+03  0.00000000000E+00 0. -1.
         21   -1    0    0  503  502 -0.00000000000E+00 -0.00000000000E+00 -0.36177218600E+02  0.36177218600E+02  0.00000000000E+00 0.  1.
         21    1    1    2  503  501  0.95385666506E+02  0.39687271873E+01  0.32940035293E+03  0.34295592819E+03  0.00000000000E+00 0. -1.
         21    1    1    2  504  502 -0.95385666506E+02 -0.39687271873E+01  0.48103567128E+02  0.10690242907E+03  0.00000000000E+00 0.  1.
</event>
<event>
 4    1  0.3183954E+006  0.2297072E+02  0.7546771E-02  0.1492866E+00
         21   -1    0    0  503  501  0.00000000000E+00  0.00000000000E+00  0.85745265523E+02  0.85745265523E+02  0.00000000000E+00 0.  1.
         21   -1    0    0  504  502 -0.00000000000E+00 -0.00000000000E+00 -0.19581845800E+03  0.19581845800E+03  0.00000000000E+00 0. -1.
         21    1    1    2  503  502 -0.22966371111E+02  0.44713940168E+00  0.83515520455E+02  0.86616951531E+02  0.00000000000E+00 0.  1.
         21    1    1    2  504  501  0.22966371111E+02 -0.44713940168E+00 -0.19358871294E+03  0.19494677200E+03  0.00000000000E+00 0. -1.
</event>
<event>
 4    1  0.3183954E+006  0.2305743E+02  0.7546771E-02  0.1491778E+00
         21   -1    0    0  503  501  0.00000000000E+00  0.00000000000E+00  0.38608909660E+03  0.38608909660E+03  0.00000000000E+00 0. -1.
         21   -1    0    0  504  502 -0.00000000000E+00 -0.00000000000E+00 -0.11979346381E+03  0.11979346381E+03  0.00000000000E+00 0.  1.
         21    1    1    2  503  502 -0.11514774266E+02 -0.19976360163E+02  0.38463114124E+03  0.38532163163E+03  0.00000000000E+00 0. -1.
         21    1    1    2  504  501  0.11514774266E+02  0.19976360163E+02 -0.11833550844E+03  0.12056092878E+03  0.00000000000E+00 0.  1.
</event>
<event>
 4    1  0.3183954E+006  0.2097086E+02  0.7546771E-02  0.1519681E+00
         21   -1    0    0  504  501  0.00000000000E+00  0.00000000000E+00  0.47255688612E+02  0.47255688612E+02  0.00000000000E+00 0. -1.
         21   -1    0    0  503  502 -0.00000000000E+00 -0.00000000000E+00 -0.82078283234E+02  0.82078283234E+02  0.00000000000E+00 0. -1.
         21    1    1    2  503  501  0.28449062609E+01  0.20776993500E+02 -0.78301933038E+02  0.81061517800E+02  0.00000000000E+00 0. -1.
         21    1    1    2  504  502 -0.28449062609E+01 -0.20776993500E+02  0.43479338416E+02  0.48272454046E+02  0.00000000000E+00 0. -1.
</event>
<event>
 4    1  0.3183954E+006  0.2563305E+02  0.7546771E-02  0.1461845E+00
         21   -1    0    0  504  501  0.00000000000E+00  0.00000000000E+00  0.81749677011E+01  0.81749677011E+01  0.00000000000E+00 0. -1.
         21   -1    0    0  503  502 -0.00000000000E+00 -0.00000000000E+00 -0.91234030896E+02  0.91234030896E+02  0.00000000000E+00 0. -1.
         21    1    1    2  503  501  0.25552851165E+02 -0.20261432283E+01 -0.58678429466E+02  0.64032894232E+02  0.00000000000E+00 0. -1.
         21    1    1    2  504  502 -0.25552851165E+02  0.20261432283E+01 -0.24380633728E+02  0.35376104365E+02  0.00000000000E+00 0. -1.
</event>
<event>
 4    1  0.3183954E+006  0.2878863E+02  0.7546771E-02  0.1430423E+00
         21   -1    0    0  502  501  0.00000000000E+00  0.00000000000E+00  0.55329326459E+02  0.55329326459E+02  0.00000000000E+00 0. -1.
         21   -1    0    0  503  502 -0.00000000000E+00 -0.00000000000E+00 -0.22790746712E+02  0.22790746712E+02  0.00000000000E+00 0.  1.
         21    1    1    2  503  504  0.13785089836E+02 -0.25273637038E+02 -0.65984741622E+01  0.29535153498E+02  0.00000000000E+00 0.  1.
         21    1    1    2  504  501 -0.13785089836E+02  0.25273637038E+02  0.39137053909E+02  0.48584919672E+02  0.00000000000E+00 0. -1.
</event>
<event>
 4    1  0.3183954E+006  0.3798830E+02  0.7546771E-02  0.1360695E+00
         21   -1    0    0  502  501  0.00000000000E+00  0.00000000000E+00  0.37895463896E+02  0.37895463896E+02  0.00000000000E+00 0.  1.
         21   -1    0    0  503  502 -0.00000000000E+00 -0.00000000000E+00 -0.10892877233E+03  0.10892877233E+03  0.00000000000E+00 0.  1.
         21    1    1    2  503  504 -0.36326158308E+02 -0.11113993297E+02 -0.94721664498E+02  0.10205539843E+03  0.00000000000E+00 0.  1.
         21    1    1    2  504  501  0.36326158308E+02  0.11113993297E+02  0.23688356063E+02  0.44768837793E+02  0.00000000000E+00 0.  1.
</event>
<event>
 4    1  0.3183954E+006  0.2674824E+02  0.7546771E-02  0.1450154E+00
         21   -1    0    0  502  501  0.00000000000E+00  0.00000000000E+00  0.14084732466E+03  0.14084732466E+03  0.00000000000E+00 0.  1.
         21   -1    0    0  504  502 -0.00000000000E+00 -0.00000000000E+00 -0.17396133111E+02  0.17396133111E+02  0.00000000000E+00 0. -1.
         21    1    1    2  503  501 -0.63200834508E+01  0.25990864218E+02  0.12830058307E+03  0.13105917783E+03  0.00000000000E+00 0.  1.
         21    1    1    2  504  503  0.63200834508E+01 -0.25990864218E+02 -0.48493915229E+01  0.27184279939E+02  0.00000000000E+00 0. -1.
</event>
<event>
 4    1  0.3183954E+006  0.2565052E+02  0.7546771E-02  0.1461656E+00
         21   -1    0    0  504  501  0.00000000000E+00  0.00000000000E+00  0.11378430139E+01  0.11378430139E+01  0.00000000000E+00 0.  1.
         21   -1    0    0  503  502 -0.00000000000E+00 -0.00000000000E+00 -0.81878846314E+03  0.81878846314E+03  0.00000000000E+00 0. -1.
         21    1    1    2  503  501  0.13380039068E+01 -0.25615602324E+02 -0.63103238701E+03  0.63155349955E+03  0.00000000000E+00 0. -1.
         21    1    1    2  504  502 -0.13380039068E+01  0.25615602324E+02 -0.18661823312E+03  0.18837280661E+03  0.00000000000E+00 0.  1.
</event>
<event>
 4    1  0.3183954E+006  0.2032737E+02  0.7546771E-02  0.1529089E+00
         21   -1    0    0  503  501  0.00000000000E+00  0.00000000000E+00  0.12519649569E+03  0.12519649569E+03  0.00000000000E+00 0. -1.
         21   -1    0    0  501  502 -0.00000000000E+00 -0.00000000000E+00 -0.11844205477E+02  0.11844205477E+02  0.00000000000E+00 0. -1.
         21    1    1    2  503  504 -0.18459178140E+02 -0.85123818039E+01  0.11487193914E+03  0.11665660849E+03  0.00000000000E+00 0. -1.
         21    1    1    2  504  502  0.18459178140E+02  0.85123818039E+01 -0.15196489272E+01  0.20384092681E+02  0.00000000000E+00 0. -1.
</event>
<event>
 4    1  0.3183954E+006  0.3494156E+02  0.7546771E-02  0.1380975E+00
         21   -1    0    0  504  501  0.00000000000E+00  0.00000000000E+00  0.84943246199E+02  0.84943246199E+02  0.00000000000E+00 0.  1.
         21   -1    0    0  503  502 -0.00000000000E+00 -0.00000000000E+00 -0.20018903856E+02  0.20018903856E+02  0.00000000000E+00 0. -1.
         21    1    1    2  503  501  0.31253523506E+02 -0.15624651472E+02  0.60332289692E+02  0.69720138014E+02  0.00000000000E+00 0.  1.
         21    1    1    2  504  502 -0.31253523506E+02  0.15624651472E+02  0.45920526507E+01  0.35242012041E+02  0.00000000000E+00 0. -1.
</event>
<event>
 4    1  0.3183954E+006  0.2719147E+02  0.7546771E-02  0.1445694E+00
         21   -1    0    0  503  501  0.00000000000E+00  0.00000000000E+00  0.51221664432E+02  0.51221664432E+02  0.00000000000E+00 0.  1.
         21   -1    0    0  501  502 -0.00000000000E+00 -0.00000000000E+00 -0.20383416004E+02  0.20383416004E+02  0.00000000000E+00 0.  1.
         21    1    1    2  503  504  0.12792003924E+02 -0.23994599044E+02  0.34760267288E+02  0.44132214193E+02  0.00000000000E+00 0.  1.
         21    1    1    2  504  502 -0.12792003924E+02  0.23994599044E+02 -0.39220188596E+01  0.27472866243E+02  0.00000000000E+00 0.  1.
</event>
<event>
 4    1  0.3183954E+006  0.2020056E+02  0.7546771E-02  0.1530992E+00
         21   -1    0    0  503  501  0.00000000000E+00  0.00000000000E+00  0.22393875004E+02  0.22393875004E+02  0.00000000000E+00 0. -1.
         21   -1    0    0  504  502 -0.00000000000E+00 -0.00000000000E+00 -0.30938076767E+02  0.30938076767E+02  0.00000000000E+00 0.  1.
         21    1    1    2  503  502  0.61182021385E+01  0.19251763808E+02 -0.21367772351E+02  0.29404838077E+02  0.00000000000E+00 0.  1.
         21    1    1    2  504  501 -0.61182021385E+01 -0.19251763808E+02  0.12823570588E+02  0.23927113694E+02  0.00000000000E+00 0. -1.
</event>
<event>
 4    1  0.3183954E+006  0.2128608E+02  0.7546771E-02  0.1515219E+00
         21   -1    0    0  503  501  0.00000000000E+00  0.00000000000E+00  0.85410642650E+03  0.85410642650E+03  0.00000000000E+00 0. -1.
         21   -1    0    0  504  502 -0.00000000000E+00 -0.00000000000E+00 -0.42031250855E+01  0.42031250855E+01  0.00000000000E+00 0.  1.
         21    1    1    2  503  502  0.37911906198E+01  0.20945739881E+02  0.82611063928E+03  0.82638482893E+03  0.00000000000E+00 0. -1.
         21    1    1    2  504  501 -0.37911906198E+01 -0.20945739881E+02  0.23792662132E+02  0.31924722658E+02  0.00000000000E+00 0.  1.
</event>
<event>
 4    1  0.3183954E+006  0.2228276E+02  0.7546771E-02  0.1501706E+00
         21   -1    0    0  503  501  0.00000000000E+00  0.00000000000E+00  0.57027192596E+03  0.57027192596E+03  0.00000000000E+00 0.  1.
         21   -1    0    0  504  502 -0.00000000000E+00 -0.00000000000E+00 -0.41060476560E+01  0.41060476560E+01  0.00000000000E+00 0. -1.
         21    1    1    2  503  502  0.78257665438E+01 -0.20863331963E+02  0.53801119542E+03  0.53847243907E+03  0.00000000000E+00 0.  1.
         21    1    1    2  504  501 -0.78257665438E+01  0.20863331963E+02  0.28154682882E+02  0.35905534543E+02  0.00000000000E+00 0. -1.
</event>
<event>
 4    1  0.3183954E+006  0.2170135E+02  0.7546771E-02  0.1509482E+00
         21   -1    0    0  504  501  0.00000000000E+00  0.00000000000E+00  0.69879308463E+02  0.69879308463E+02  0.00000000000E+00 0.  1.
         21   -1    0    0  501  502 -0.00000000000E+00 -0.00000000000E+00 -0.10485384111E+02  0.10485384111E+02  0.00000000000E+00 0.  1.
         21    1    1    2  503  502  0.13339312624E+02 -0.17117575310E+02  0.56797420510E+01  0.22432300719E+02  0.00000000000E+00 0.  1.
         21    1    1    2  504  503 -0.13339312624E+02  0.17117575310E+02  0.53714182301E+02  0.57932391855E+02  0.00000000000E+00 0.  1.
</event>
<event>
 4    1  0.3183954E+006  0.2850924E+02  0.7546771E-02  0.1433009E+00
         21   -1    0    0  504  501  0.00000000000E+00  0.00000000000E+00  0.10722523183E+03  0.10722523183E+03  0.00000000000E+00 0.  1.
         21   -1    0    0  501  502 -0.00000000000E+00 -0.00000000000E+00 -0.91892775460E+02  0.91892775460E+02  0.00000000000E+00 0. -1.
         21    1    1    2  503  502  0.21391520646E+02  0.18846205526E+02 -0.87698181627E+02  0.92215766976E+02  0.00000000000E+00 0. -1.
         21    1    1    2  504  503 -0.21391520646E+02 -0.18846205526E+02  0.10303063800E+03  0.10690224031E+03  0.00000000000E+00 0.  1.
</event>
<event>
 4    1  0.3183954E+006  0.2150644E+02  0.7546771E-02  0.1512156E+00
         21   -1    0    0  503  501  0.00000000000E+00  0.00000000000E+00  0.23599912759E+02  0.23599912759E+02  0.00000000000E+00 0.  1.
         21   -1    0    0  501  502 -0.00000000000E+00 -0.00000000000E+00 -0.11742492414E+03  0.11742492414E+03  0.00000000000E+00 0.  1.
         21    1    1    2  503  504 -0.21475867000E+02 -0.11462677576E+01  0.17447072444E+02  0.27693449226E+02  0.00000000000E+00 0.  1.
         21    1    1    2  504  502  0.21475867000E+02  0.11462677576E+01 -0.11127208382E+03  0.11333138767E+03  0.00000000000E+00 0.  1.
</event>
<event>
 4    1  0.3183954E+006  0.2411364E+02  0.7546771E-02  0.1478968E+00
         21   -1    0    0  503  501  0.00000000000E+00  0.00000000000E+00  0.18991912353E+02  0.18991912353E+02  0.00000000000E+00 0.  1.
         21   -1    0    0  504  502 -0.00000000000E+00 -0.00000000000E+00 -0.14733490234E+03  0.14733490234E+03  0.00000000000E+00 0.  1.
         21    1    1    2  503  502  0.99541937233E+01 -0.21963183500E+02  0.98484867223E+01  0.26047266514E+02  0.00000000000E+00 0.  1.
         21    1    1    2  504  501 -0.99541937233E+01  0.21963183500E+02 -0.13819147670E+03  0.14027954817E+03  0.00000000000E+00 0.  1.
</event>
<event>
 4    1  0.3183954E+006  0.5563561E+02  0.7546771E-02  0.1275428E+00
         21   -1    0    0  504  501  0.00000000000E+00  0.00000000000E+00  0.89597501902E+03  0.89597501902E+03  0.00000000000E+00 0.  1.
         21   -1    0    0  503  502 -0.00000000000E+00 -0.00000000000E+00 -0.41287387781E+01  0.41287387781E+01  0.00000000000E+00 0.  1.
         21    1    1    2  503  501 -0.29964260088E+02  0.46877121788E+02  0.26407973113E+03  0.26987668633E+03  0.00000000000E+00 0.  1.
         21    1    1    2  504  502  0.29964260088E+02 -0.46877121788E+02  0.62776654911E+03  0.63022707147E+03  0.00000000000E+00 0.  1.
</event>
<event>
 4    1  0.3183954E+006  0.2104386E+02  0.7546771E-02  0.1518639E+00
         21   -1    0    0  504  501  0.00000000000E+00  0.00000000000E+00  0.17352345507E+03  0.17352345507E+03  0.00000000000E+00 0. -1.
         21   -1    0    0  501  502 -0.00000000000E+00 -0.00000000000E+00 -0.15688281929E+02  0.15688281929E+02  0.00000000000E+00 0. -1.
         21    1    1    2  503  502 -0.13590961221E+02  0.16066418952E+02 -0.76520219587E+01  0.22391906683E+02  0.00000000000E+00 0. -1.
         21    1    1    2  504  503  0.13590961221E+02 -0.16066418952E+02  0.16548719510E+03  0.16681983032E+03  0.00000000000E+00 0. -1.
</event>
<event>
 4    1  0.3183954E+006  0.2905848E+02  0.7546771E-02  0.1427958E+00
         21   -1    0    0  504  501  0.00000000000E+00  0.00000000000E+00  0.55727569460E+02  0.55727569460E+02  0.00000000000E+00 0. -1.
         21   -1    0    0  503  502 -0.00000000000E+00 -0.00000000000E+00 -0.17449101599E+02  0.17449101599E+02  0.00000000000E+00 0. -1.
         21    1    1    2  503  501  0.57919044694E+01  0.28475411492E+02  0.32414016483E+02  0.43532329154E+02  0.00000000000E+00 0. -1.
         21    1    1    2  504  502 -0.57919044694E+01 -0.28475411492E+02  0.58644513778E+01  0.29644341905E+02  0.00000000000E+00 0. -1.
</event>
<event>
 4    1  0.3183954E+006  0.3932045E+02  0.7546771E-02  0.1352515E+00
         21   -1    0    0  504  501  0.00000000000E+00  0.00000000000E+00  0.56923509714E+02  0.56923509714E+02  0.00000000000E+00 0. -1.
         21   -1    0    0  503  502 -0.00000000000E+00 -0.00000000000E+00 -0.58005808750E+02  0.58005808750E+02  0.00000000000E+00 0. -1.
         21    1    1    2  503  501 -0.39312772406E+02  0.77693359608E+00  0.41362934271E+02  0.57070044958E+02  0.00000000000E+00 0. -1.
         21    1    1    2  504  502  0.39312772406E+02 -0.77693359608E+00 -0.42445233307E+02  0.57859273505E+02  0.00000000000E+00 0. -1.
</event>
<event>
 4    1  0.3183954E+006  0.9067835E+02  0.7546771E-02  0.1181021E+00
         21   -1    0    0  504  501  0.00000000000E+00  0.00000000000E+00  0.14034449555E+03  0.14034449555E+03  0.00000000000E+00 0. -1.
         21   -1    0    0  503  502 -0.00000000000E+00 -0.00000000000E+00 -0.93895712832E+02  0.93895712832E+02  0.00000000000E+00 0.  1.
         21    1    1    2  503  501  0.88367607903E+02 -0.20340329113E+02  0.95043620641E+02  0.13136153524E+03  0.00000000000E+00 0. -1.
         21    1    1    2  504  502 -0.88367607903E+02  0.20340329113E+02 -0.48594837926E+02  0.10287867314E+03  0.00000000000E+00 0.  1.
</event>
<event>
 4    1  0.3183954E+006  0.2276202E+02  0.7546771E-02  0.1495508E+00
         21   -1    0    0  504  501  0.00000000000E+00  0.00000000000E+00  0.39587047516E+03  0.39587047516E+03  0.00000000000E+00 0.  1.
         21   -1    0    0  503  502 -0.00000000000E+00 -0.00000000000E+00 -0.13241822265E+03  0.13241822265E+03  0.00000000000E+00 0. -1.
         21    1    1    2  503  501 -0.12682114292E+02  0.18901678519E+02 -0.13110961605E+03  0.13307081158E+03  0.00000000000E+00 0. -1.
         21    1    1    2  504  502  0.12682114292E+02 -0.18901678519E+02  0.39456186856E+03  0.39521788623E+03  0.00000000000E+00 0.  1.
</event>
<event>
 4    1  0.3183954E+006  0.2900756E+02  0.7546771E-02  0.1428421E+00
         21   -1    0    0  503  501  0.00000000000E+00  0.00000000000E+00  0.25511008980E+02  0.25511008980E+02  0.00000000000E+00 0.  1.
         21   -1    0    0  504  502 -0.00000000000E+00 -0.00000000000E+00 -0.11387673673E+03  0.11387673673E+03  0.00000000000E+00 0.  1.
         21    1    1    2  503  502 -0.28077450428E+02 -0.72866550417E+01  0.14557089622E+02  0.32455314241E+02  0.00000000000E+00 0.  1.
         21    1    1    2  504  501  0.28077450428E+02  0.72866550417E+01 -0.10292281737E+03  0.10693243147E+03  0.00000000000E+00 0.  1.
</event>
<event>
 4    1  0.3183954E+006  0.3053134E+02  0.7546771E-02  0.1415034E+00
         21   -1    0    0  502  501  0.00000000000E+00  0.00000000000E+00  0.20930277841E+03  0.20930277841E+03  0.00000000000E+00 0. -1.
         21   -1    0    0  504  502 -0.00000000000E+00 -0.00000000000E+00 -0.66466460144E+01  0.66466460144E+01  0.00000000000E+00 0. -1.
         21    1    1    2  503  501  0.25679297002E+02 -0.16514731024E+02  0.16334911110E+03  0.16617790086E+03  0.00000000000E+00 0. -1.
         21    1    1    2  504  503 -0.25679297002E+02  0.16514731024E+02  0.39307021294E+02  0.49771523568E+02  0.00000000000E+00 0. -1.
</event>
<event>
 4    1  0.3183954E+006  0.2088886E+02  0.7546771E-02  0.1520858E+00
         21   -1    0    0  504  501  0.00000000000E+00  0.00000000000E+00  0.23660168655E+02  0.23660168655E+02  0.00000000000E+00 0.  1.
         21   -1    0    0  501  502 -0.00000000000E+00 -0.00000000000E+00 -0.79994300370E+02  0.79994300370E+02  0.00000000000E+00 0. -1.
         21    1    1    2  503  502 -0.19040165291E+02 -0.85916542007E+01 -0.73629231802E+02  0.76535012850E+02  0.00000000000E+00 0. -1.
         21    1    1    2  504  503  0.19040165291E+02  0.85916542007E+01  0.17295100087E+02  0.27119456175E+02  0.00000000000E+00 0.  1.
</event>
<event>
 4    1  0.3183954E+006  0.2760855E+02  0.7546771E-02  0.1441589E+00
         21   -1    0    0  504  501  0.00000000000E+00  0.00000000000E+00  0.24058690523E+02  0.24058690523E+02  0.00000000000E+00 0.  1.
         21   -1    0    0  501  502 -0.00000000000E+00 -0.00000000000E+00 -0.14601646042E+03  0.14601646042E+03  0.00000000000E+00 0.  1.
         21    1    1    2  503  502  0.49165252150E+01 -0.27167253279E+02 -0.13622744333E+03  0.13899693589E+03  0.00000000000E+00 0.  1.
         21    1    1    2  504  503 -0.49165252150E+01  0.27167253279E+02  0.14269673433E+02  0.31078215051E+02  0.00000000000E+00 0.  1.
</event>
<event>
 4    1  0.3183954E+006  0.2540249E+02  0.7546771E-02  0.1464351E+00
         21   -1    0    0  504  501  0.00000000000E+00  0.00000000000E+00  0.12817932692E+03  0.12817932692E+03  0.00000000000E+00 0.  1.
         21   -1    0    0  503  502 -0.00000000000E+00 -0.00000000000E+00 -0.23095323357E+03  0.23095323357E+03  0.00000000000E+00 0. -1.
         21    1    1    2  503  501 -0.22197114028E+01 -0.25305319376E+02  0.12621147941E+03  0.12874247101E+03  0.00000000000E+00 0.  1.
         21    1    1    2  504  502  0.22197114028E+01  0.25305319376E+02 -0.22898538606E+03  0.23039008949E+03  0.00000000000E+00 0. -1.
</event>
<event>
 4    1  0.3183954E+006  0.2730824E+02  0.7546771E-02  0.1444536E+00
         21   -1    0    0  503  501  0.00000000000E+00  0.00000000000E+00  0.13265558210E+03  0.13265558210E+03  0.00000000000E+00 0.  1.
         21   -1    0    0  504  502 -0.00000000000E+00 -0.00000000000E+00 -0.23840311995E+02  0.23840311995E+02  0.00000000000E+00 0.  1.
         21    1    1    2  503  502  0.66979764102E+01  0.26474078925E+02 -0.13995426381E+02  0.30685692146E+02  0.00000000000E+00 0.  1.
         21    1    1    2  504  501 -0.66979764102E+01 -0.26474078925E+02  0.12281069649E+03  0.12581020195E+03  0.00000000000E+00 0.  1.
</event>
<event>
 4    1  0.3183954E+006  0.2445118E+02  0.7546771E-02  0.1475038E+00
         21   -1    0    0  502  501  0.00000000000E+00  0.00000000000E+00  0.63923661473E+01  0.63923661473E+01  0.00000000000E+00 0.  1.
         21   -1    0    0  504  502 -0.00000000000E+00 -0.00000000000E+00 -0.94016898995E+02  0.94016898995E+02  0.00000000000E+00 0.  1.
         21    1    1    2  503  501 -0.10044461661E+01 -0.24430543438E+02 -0.40189105983E+02  0.47042795458E+02  0.00000000000E+00 0.  1.
         21    1    1    2  504  503  0.10044461661E+01  0.24430543438E+02 -0.47435426864E+02  0.53366469684E+02  0.00000000000E+00 0.  1.
</event>
<event>
 4    1  0.3183954E+006  0.2348637E+02  0.7546771E-02  0.1486479E+00
         21   -1    0    0  504  501  0.00000000000E+00  0.00000000000E+00  0.35343309769E+02  0.35343309769E+02  0.00000000000E+00 0. -1.
         21   -1    0    0  501  502 -0.00000000000E+00 -0.00000000000E+00 -0.10014564506E+03  0.10014564506E+03  0.00000000000E+00 0. -1.
         21    1    1    2  503  502  0.18372884557E+02 -0.14630331872E+02 -0.94643381960E+02  0.97513995131E+02  0.00000000000E+00 0. -1.
         21    1    1    2  504  503 -0.18372884557E+02  0.14630331872E+02  0.29841046670E+02  0.37974959697E+02  0.00000000000E+00 0. -1.
</event>
<event>
 4    1  0.3183954E+006  0.2686743E+02  0.7546771E-02  0.1448944E+00
         21   -1    0    0  502  501  0.00000000000E+00  0.00000000000E+00  0.18367744963E+03  0.18367744963E+03  0.00000000000E+00 0.  1.
         21   -1    0    0  503  502 -0.00000000000E+00 -0.00000000000E+00 -0.92443101936E+02  0.92443101936E+02  0.00000000000E+00 0.  1.
         21    1    1    2  503  504  0.59637427195E-01 -0.26867368727E+02 -0.89476549905E+02  0.93423294963E+02  0.00000000000E+00 0.  1.
         21    1    1    2  504  501 -0.59637427195E-01  0.26867368727E+02  0.18071089760E+03  0.18269725660E+03  0.00000000000E+00 0.  1.
</event>
<event>
 4    1  0.3183954E+006  0.2404221E+02  0.7546771E-02  0.1479810E+00
         21   -1    0    0  503  501  0.00000000000E+00  0.00000000000E+00  0.43779141303E+02  0.43779141303E+02  0.00000000000E+00 0.  1.
         21   -1    0    0  504  502 -0.00000000000E+00 -0.00000000000E+00 -0.32575504702E+02  0.32575504702E+02  0.00000000000E+00 0.  1.
         21    1    1    2  503  502  0.11734680676E+02 -0.20983922867E+02  0.35042629735E+02  0.42497219300E+02  0.00000000000E+00 0.  1.
         21    1    1    2  504  501 -0.11734680676E+02  0.20983922867E+02 -0.23838993134E+02  0.33857426705E+02  0.00000000000E+00 0.  1.
</event>
<event>
 4    1  0.3183954E+006  0.3660440E+02  0.7546771E-02  0.1369621E+00
         21   -1    0    0  504  501  0.00000000000E+00  0.00000000000E+00  0.62928612349E+03  0.62928612349E+03  0.00000000000E+00 0. -1.
         21   -1    0    0  503  502 -0.00000000000E+00 -0.00000000000E+00 -0.73030523677E+01  0.73030523677E+01  0.00000000000E+00 0.  1.
         21    1    1    2  503  501 -0.17840266212E+02 -0.31962582801E+02  0.43084772445E+02  0.56534762885E+02  0.00000000000E+00 0.  1.
         21    1    1    2  504  502  0.17840266212E+02  0.31962582801E+02  0.57889829868E+03  0.58005441297E+03  0.00000000000E+00 0. -1.
</event>
<event>
 4    1  0.3183954E+006  0.2076777E+02  0.7546771E-02  0.1522606E+00
         21   -1    0    0  503  501  0.00000000000E+00  0.00000000000E+00  0.82577819935E+01  0.82577819935E+01  0.00000000000E+00 0. -1.
         21   -1    0    0  504  502 -0.00000000000E+00 -0.00000000000E+00 -0.60914221756E+02  0.60914221756E+02  0.00000000000E+00 0. -1.
         21    1    1    2  503  502  0.20158264396E+02 -0.49944579761E+01 -0.39387454543E+02  0.44527203026E+02  0.00000000000E+00 0. -1.
         21    1    1    2  504  501 -0.20158264396E+02  0.49944579761E+01 -0.13268985220E+02  0.24644800723E+02  0.00000000000E+00 0. -1.
</event>
<event>
 4    1  0.3183954E+006  0.2185148E+02  0.7546771E-02  0.1507447E+00
         21   -1    0    0  503  501  0.00000000000E+00  0.00000000000E+00  0.54328457667E+03  0.54328457667E+03  0.00000000000E+00 0.  1.
         21   -1    0    0  501  502 -0.00000000000E+00 -0.00000000000E+00 -0.12299886633E+02  0.12299886633E+02  0.00000000000E+00 0.  1.
         21    1    1    2  503  504 -0.16031526627E+02 -0.14848480179E+02  0.53317581300E+03  0.53362340164E+03  0.00000000000E+00 0.  1.
         21    1    1    2  504  502  0.16031526627E+02  0.14848480179E+02 -0.21911229609E+01  0.21961061665E+02  0.00000000000E+00 0.  1.
</event>
<event>
 4    1  0.3183954E+006  0.2040805E+02  0.7546771E-02  0.1527887E+00
         21   -1    0    0  503  501  0.00000000000E+00  0.00000000000E+00  0.17117138356E+03  0.17117138356E+03  0.00000000000E+00 0. -1.
         21   -1    0    0  501  502 -0.00000000000E+00 -0.00000000000E+00 -0.37306161359E+03  0.37306161359E+03  0.00000000000E+00 0. -1.
         21    1    1    2  503  504  0.14239712714E+02  0.14619134396E+02  0.17028253853E+03  0.17150111206E+03  0.00000000000E+00 0. -1.
         21    1    1    2  504  502 -0.14239712714E+02 -0.14619134396E+02 -0.37217276856E+03  0.37273188509E+03  0.00000000000E+00 0. -1.
</event>
<event>
 4    1  0.3183954E+006  0.2757481E+02  0.7546771E-02  0.1441918E+00
         21   -1    0    0  502  501  0.00000000000E+00  0.00000000000E+00  0.16836701278E+03  0.16836701278E+03  0.00000000000E+00 0. -1.
         21   -1    0    0  504  502 -0.00000000000E+00 -0.00000000000E+00 -0.85950050914E+01  0.85950050914E+01  0.00000000000E+00 0.  1.
         21    1    1    2  503  501 -0.15699342242E+02 -0.22669384480E+02  0.14083916648E+03  0.14351320899E+03  0.00000000000E+00 0. -1.
         21    1    1    2  504  503  0.15699342242E+02  0.22669384480E+02  0.18932841212E+02  0.33448808886E+02  0.00000000000E+00 0.  1.
</event>
<event>
 4    1  0.3183954E+006  0.2093041E+02  0.7546771E-02  0.1520261E+00
         21   -1    0    0  502  501  0.00000000000E+00  0.00000000000E+00  0.30452333773E+01  0.30452333773E+01  0.00000000000E+00 0.  1.
         21   -1    0    0  503  502 -0.00000000000E+00 -0.00000000000E+00 -0.34415479975E+03  0.34415479975E+03  0.00000000000E+00 0. -1.
         21    1    1    2  503  504 -0.39289853771E+01  0.20558337423E+02 -0.30299183459E+03  0.30371390155E+03  0.00000000000E+00 0. -1.
         21    1    1    2  504  501  0.39289853771E+01 -0.20558337423E+02 -0.38117731780E+02  0.43486131579E+02  0.00000000000E+00 0.  1.
</event>
<event>
 4    1  0.3183954E+006  0.2114149E+02  0.7546771E-02  0.1517254E+00
         21   -1    0    0  503  501  0.00000000000E+00  0.00000000000E+00  0.39778579504E+01  0.39778579504E+01  0.00000000000E+00 0. -1.
         21   -1    0    0  504  502 -0.00000000000E+00 -0.00000000000E+00 -0.16905012299E+03  0.16905012299E+03  0.00000000000E+00 0.  1.
         21    1    1    2  503  502 -0.20493861793E+02 -0.51927218384E+01 -0.13263432760E+03  0.13430870258E+03  0.00000000000E+00 0.  1.
         21    1    1    2  504  501  0.20493861793E+02  0.51927218384E+01 -0.32437937439E+02  0.38719278358E+02  0.00000000000E+00 0. -1.
</event>
<event>
 4    1  0.3183954E+006  0.2391967E+02  0.7546771E-02  0.1481262E+00
         21   -1    0    0  502  501  0.00000000000E+00  0.00000000000E+00  0.18294763258E+03  0.18294763258E+03  0.00000000000E+00 0.  1.
         21   -1    0    0  503  502 -0.00000000000E+00 -0.00000000000E+00 -0.43274056252E+01  0.43274056252E+01  0.00000000000E+00 0. -1.
         21    1    1    2  503  504  0.18928379176E+01  0.23844659653E+02  0.40000961225E+02  0.46607161770E+02  0.00000000000E+00 0. -1.
         21    1    1    2  504  501 -0.18928379176E+01 -0.23844659653E+02  0.13861926573E+03  0.14066787644E+03  0.00000000000E+00 0.  1.
</event>
<event>
 4    1  0.3183954E+006  0.3004011E+02  0.7546771E-02  0.1419248E+00
         21   -1    0    0  503  501  0.00000000000E+00  0.00000000000E+00  0.36670127520E+03  0.36670127520E+03  0.00000000000E+00 0.  1.
         21   -1    0    0  504  502 -0.00000000000E+00 -0.00000000000E+00 -0.70121948953E+02  0.70121948953E+02  0.00000000000E+00 0.  1.
         21    1    1    2  503  502 -0.70262663329E+01  0.29206845914E+02 -0.66255218870E+02  0.72747249394E+02  0.00000000000E+00 0.  1.
         21    1    1    2  504  501  0.70262663329E+01 -0.29206845914E+02  0.36283454512E+03  0.36407597476E+03  0.00000000000E+00 0.  1.
</event>
<event>
 4    1  0.3183954E+006  0.3099761E+02  0.7546771E-02  0.1411121E+00
         21   -1    0    0  504  501  0.00000000000E+00  0.00000000000E+00  0.17483818926E+03  0.17483818926E+03  0.00000000000E+00 0.  1.
         21   -1    0    0  501  502 -0.00000000000E+00 -0.00000000000E+00 -0.70886174292E+01  0.70886174292E+01  0.00000000000E+00 0.  1.
         21    1    1    2  503  502 -0.97719026637E+01  0.29417028151E+02  0.40753895771E+02  0.51202848040E+02  0.00000000000E+00 0.  1.
         21    1    1    2  504  503  0.97719026637E+01 -0.29417028151E+02  0.12699567606E+03  0.13072395865E+03  0.00000000000E+00 0.  1.
</event>
<event>
 4    1  0.3183954E+006  0.3067788E+02  0.7546771E-02  0.1413795E+00
         21   -1    0    0  503  501  0.00000000000E+00  0.00000000000E+00  0.85113750105E+01  0.85113750105E+01  0.00000000000E+00 0. -1.
         21   -1    0    0  504  502 -0.00000000000E+00 -0.00000000000E+00 -0.13482602533E+03  0.13482602533E+03  0.00000000000E+00 0. -1.
         21    1    1    2  503  502  0.93263659876E+01 -0.29225861622E+02 -0.32760963532E+02  0.44882210525E+02  0.00000000000E+00 0. -1.
         21    1    1    2  504  501 -0.93263659876E+01  0.29225861622E+02 -0.93553686791E+02  0.98455189819E+02  0.00000000000E+00 0. -1.
</event>
<event>
 4    1  0.3183954E+006  0.3395240E+02  0.7546771E-02  0.1388081E+00
         21   -1    0    0  503  501  0.00000000000E+00  0.00000000000E+00  0.10286948609E+04  0.10286948609E+04  0.00000000000E+00 0. -1.
         21   -1    0    0  504  502 -0.00000000000E+00 -0.00000000000E+00 -0.22744880443E+02  0.22744880443E+02  0.00000000000E+00 0.  1.
         21    1    1    2  503  502 -0.15502007278E+02  0.30206843906E+02  0.10155805312E+04  0.10161479129E+04  0.00000000000E+00 0. -1.
         21    1    1    2  504  501  0.15502007278E+02 -0.30206843906E+02 -0.96305506873E+01  0.35291828444E+02  0.00000000000E+00 0.  1.
</event>
<event>
 4    1  0.3183954E+006  0.5470941E+02  0.7546771E-02  0.1278951E+00
         21   -1    0    0  503  501  0.00000000000E+00  0.00000000000E+00  0.23791401782E+02  0.23791401782E+02  0.00000000000E+00 0.  1.
         21   -1    0    0  501  502 -0.00000000000E+00 -0.00000000000E+00 -0.33408098959E+03  0.33408098959E+03  0.00000000000E+00 0.  1.
         21    1    1    2  503  504 -0.41961591330E+02  0.35104766307E+02 -0.13861744353E+02  0.56438176095E+02  0.00000000000E+00 0.  1.
         21    1    1    2  504  502  0.41961591330E+02 -0.35104766307E+02 -0.29642784346E+03  0.30143421528E+03  0.00000000000E+00 0.  1.
</event>
<event>
 4    1  0.3183954E+006  0.2725285E+02  0.7546771E-02  0.1445085E+00
         21   -1    0    0  504  501  0.00000000000E+00  0.00000000000E+00  0.32872040056E+03  0.32872040056E+03  0.00000000000E+00 0.  1.
         21   -1    0    0  501  502 -0.00000000000E+00 -0.00000000000E+00 -0.24390862504E+02  0.24390862504E+02  0.00000000000E+00 0.  1.
         21    1    1    2  503  502 -0.75062983788E+01 -0.26198722323E+02 -0.16014651959E+02  0.31609913699E+02  0.00000000000E+00 0.  1.
         21    1    1    2  504  503  0.75062983788E+01  0.26198722323E+02  0.32034419001E+03  0.32150134936E+03  0.00000000000E+00 0.  1.
</event>
<event>
 4    1  0.3183954E+006  0.2494832E+02  0.7546771E-02  0.1469382E+00
         21   -1    0    0  504  501  0.00000000000E+00  0.00000000000E+00  0.44717257984E+02  0.44717257984E+02  0.00000000000E+00 0. -1.
         21   -1    0    0  503  502 -0.00000000000E+00 -0.00000000000E+00 -0.17535996574E+02  0.17535996574E+02  0.00000000000E+00 0. -1.
         21    1    1    2  503  501  0.20996070616E+02 -0.13475300160E+02 -0.54587218984E+00  0.24954291659E+02  0.00000000000E+00 0. -1.
         21    1    1    2  504  502 -0.20996070616E+02  0.13475300160E+02  0.27727133600E+02  0.37298962900E+02  0.00000000000E+00 0. -1.
</event>
<event>
 4    1  0.3183954E+006  0.3745189E+02  0.7546771E-02  0.1364101E+00
         21   -1    0    0  504  501  0.00000000000E+00  0.00000000000E+00  0.31774904044E+03  0.31774904044E+03  0.00000000000E+00 0. -1.
         21   -1    0    0  503  502 -0.00000000000E+00 -0.00000000000E+00 -0.10181000064E+02  0.10181000064E+02  0.00000000000E+00 0.  1.
         21    1    1    2  503  501 -0.29429342329E+02 -0.23163720912E+02  0.27718514759E+03  0.27970386161E+03  0.00000000000E+00 0. -1.
         21    1    1    2  504  502  0.29429342329E+02  0.23163720912E+02  0.30382892785E+02  0.48226178890E+02  0.00000000000E+00 0.  1.
</event>
<event>
 4    1  0.3183954E+006  0.2176784E+02  0.7546771E-02  0.1508578E+00
         21   -1    0    0  502  501  0.00000000000E+00  0.00000000000E+00  0.39385571647E+01  0.39385571647E+01  0.00000000000E+00 0.  1.
         21   -1    0    0  504  502 -0.00000000000E+00 -0.00000000000E+00 -0.12166879044E+03  0.12166879044E+03  0.00000000000E+00 0.  1.
         21    1    1    2  503  501  0.20484712891E+01 -0.21671243250E+02 -0.52222667794E+02  0.56577787603E+02  0.00000000000E+00 0.  1.
         21    1    1    2  504  503 -0.20484712891E+01  0.21671243250E+02 -0.65507565478E+02  0.69029559998E+02  0.00000000000E+00 0.  1.
</event>
<event>
 4    1  0.3183954E+006  0.2096395E+02  0.7546771E-02  0.1519780E+00
         21   -1    0    0  504  501  0.00000000000E+00  0.00000000000E+00  0.42921478296E+03  0.42921478296E+03  0.00000000000E+00 0.  1.
         21   -1    0    0  503  502 -0.00000000000E+00 -0.00000000000E+00 -0.28430577953E+01  0.28430577953E+01  0.00000000000E+00 0. -1.
         21    1    1    2  503  501 -0.10423192311E+01  0.20938019212E+02  0.38598848394E+03  0.38655736548E+03  0.00000000000E+00 0.  1.
         21    1    1    2  504  502  0.10423192311E+01 -0.20938019212E+02  0.40383241230E+02  0.45500475274E+02  0.00000000000E+00 0. -1.
</event>
<event>
 4    1  0.3183954E+006  0.2271921E+02  0.7546771E-02  0.1496054E+00
         21   -1    0    0  502  501  0.00000000000E+00  0.00000000000E+00  0.20829453463E+02  0.20829453463E+02  0.00000000000E+00 0.  1.
         21   -1    0    0  504  502 -0.00000000000E+00 -0.00000000000E+00 -0.55489995246E+02  0.55489995246E+02  0.00000000000E+00 0.  1.
         21    1    1    2  503  501  0.22698048391E+02 -0.98039336944E+00  0.11057729414E+02  0.25267290154E+02  0.00000000000E+00 0.  1.
         21    1    1    2  504  503 -0.22698048391E+02  0.98039336944E+00 -0.45718271197E+02  0.51052158555E+02  0.00000000000E+00 0.  1.
</event>
<event>
 4    1  0.3183954E+006  0.2176094E+02  0.7546771E-02  0.1508672E+00
         21   -1    0    0  504  501  0.00000000000E+00  0.00000000000E+00  0.64247645028E+02  0.64247645028E+02  0.00000000000E+00 0.  1.
         21   -1    0    0  501  502 -0.00000000000E+00 -0.00000000000E+00 -0.95470902543E+01  0.95470902543E+01  0.00000000000E+00 0.  1.
         21    1    1    2  503  502 -0.43323527527E+01 -0.21325322358E+02  0.97327053187E+01  0.23838292868E+02  0.00000000000E+00 0.  1.
         21    1    1    2  504  503  0.43323527527E+01  0.21325322358E+02  0.44967849455E+02  0.49956442414E+02  0.00000000000E+00 0.  1.
</event>
<event>
 4    1  0.3183954E+006  0.2023443E+02  0.7546771E-02  0.1530482E+00
         21   -1    0    0  503  501  0.00000000000E+00  0.00000000000E+00  0.15811248541E+03  0.15811248541E+03  0.00000000000E+00 0. -1.
         21   -1    0    0  501  502 -0.00000000000E+00 -0.00000000000E+00 -0.21562245728E+02  0.21562245728E+02  0.00000000000E+00 0. -1.
         21    1    1    2  503  504  0.13355186500E+02  0.15201029853E+02  0.15254552912E+03  0.15388167783E+03  0.00000000000E+00 0. -1.
         21    1    1    2  504  502 -0.13355186500E+02 -0.15201029853E+02 -0.15995289440E+02  0.25793053315E+02  0.00000000000E+00 0. -1.
</event>
<event>
 4    1  0.3183954E+006  0.2077509E+02  0.7546771E-02  0.1522500E+00
         21   -1    0    0  503  501  0.00000000000E+00  0.00000000000E+00  0.12385768978E+02  0.12385768978E+02  0.00000000000E+00 0. -1.
         21   -1    0    0  504  502 -0.00000000000E+00 -0.00000000000E+00 -0.35086153046E+02  0.35086153046E+02  0.00000000000E+00 0. -1.
         21    1    1    2  503  502  0.35439739177E+01  0.20470575360E+02 -0.13310722677E+02  0.24673458308E+02  0.00000000000E+00 0. -1.
         21    1    1    2  504  501 -0.35439739177E+01 -0.20470575360E+02 -0.93896613913E+01  0.22798463715E+02  0.00000000000E+00 0. -1.
</event>
<event>
 4    1  0.3183954E+006  0.2619278E+02  0.7546771E-02  0.1455890E+00
         21   -1    0    0  503  501  0.00000000000E+00  0.00000000000E+00  0.20492516489E+02  0.20492516489E+02  0.00000000000E+00 0. -1.
         21   -1    0    0  504  502 -0.00000000000E+00 -0.00000000000E+00 -0.16229204040E+03  0.16229204040E+03  0.00000000000E+00 0.  1.
         21    1    1    2  503  502 -0.95400777777E+01  0.24393618889E+02 -0.15232169428E+03  0.15455730417E+03  0.00000000000E+00 0.  1.
         21    1    1    2  504  501  0.95400777777E+01 -0.24393618889E+02  0.10522170367E+02  0.28227252713E+02  0.00000000000E+00 0. -1.
</event>
<event>
 4    1  0.3183954E+006  0.3265156E+02  0.7546771E-02  0.1397870E+00
         21   -1    0    0  503  501  0.00000000000E+00  0.00000000000E+00  0.16690927741E+03  0.16690927741E+03  0.00000000000E+00 0. -1.
         21   -1    0    0  501  502 -0.00000000000E+00 -0.00000000000E+00 -0.57740836666E+02  0.57740836666E+02  0.00000000000E+00 0. -1.
         21    1    1    2  503  504 -0.25073420688E+02 -0.20915251874E+02  0.16051439020E+03  0.16380169001E+03  0.00000000000E+00 0. -1.
         21    1    1    2  504  502  0.25073420688E+02  0.20915251874E+02 -0.51345949460E+02  0.60848424071E+02  0.00000000000E+00 0. -1.
</event>
<event>
 4    1  0.3183954E+006  0.2664334E+02  0.7546771E-02  0.1451224E+00
         21   -1    0    0  503  501  0.00000000000E+00  0.00000000000E+00  0.31551178348E+01  0.31551178348E+01  0.00000000000E+00 0. -1.
         21   -1    0    0  504  502 -0.00000000000E+00 -0.00000000000E+00 -0.73439541971E+03  0.73439541971E+03  0.00000000000E+00 0. -1.
         21    1    1    2  503  502  0.32971282900E+01 -0.26438546477E+02 -0.58485453701E+02  0.64268313261E+02  0.00000000000E+00 0. -1.
         21    1    1    2  504  501 -0.32971282900E+01  0.26438546477E+02 -0.67275484817E+03  0.67328222428E+03  0.00000000000E+00 0. -1.
</event>
<event>
 4    1  0.3183954E+006  0.2283456E+02  0.7546771E-02  0.1494586E+00
         21   -1    0    0  503  501  0.00000000000E+00  0.00000000000E+00  0.15686573092E+03  0.15686573092E+03  0.00000000000E+00 0. -1.
         21   -1    0    0  504  502 -0.00000000000E+00 -0.00000000000E+00 -0.57321608734E+01  0.57321608734E+01  0.00000000000E+00 0. -1.
         21    1    1    2  503  502  0.22794093652E+02  0.13587921454E+01  0.12826199759E+03  0.13027876668E+03  0.00000000000E+00 0. -1.
         21    1    1    2  504  501 -0.22794093652E+02 -0.13587921454E+01  0.22871572454E+02  0.32319125112E+02  0.00000000000E+00 0. -1.
</event>
<event>
 4    1  0.3183954E+006  0.4411222E+02  0.7546771E-02  0.1325939E+00
         21   -1    0    0  503  501  0.00000000000E+00  0.00000000000E+00  0.37302879750E+03  0.37302879750E+03  0.00000000000E+00 0. -1.
         21   -1    0    0  504  502 -0.00000000000E+00 -0.00000000000E+00 -0.18269126643E+02  0.18269126643E+02  0.00000000000E+00 0.  1.
         21    1    1    2  503  502 -0.36143461488E+02 -0.25289092377E+02  0.34275426479E+03  0.34558121193E+03  0.00000000000E+00 0. -1.
         21    1    1    2  504  501  0.36143461488E+02  0.25289092377E+02  0.12005406068E+02  0.45716712223E+02  0.00000000000E+00 0.  1.
</event>
<event>
 4    1  0.3183954E+006  0.2102042E+02  0.7546771E-02  0.1518973E+00
         21   -1    0    0  502  501  0.00000000000E+00  0.00000000000E+00  0.74604011371E+02  0.74604011371E+02  0.00000000000E+00 0. -1.
         21   -1    0    0  503  502 -0.00000000000E+00 -0.00000000000E+00 -0.14155113938E+03  0.14155113938E+03  0.00000000000E+00 0. -1.
         21    1    1    2  503  504  0.11209450996E+02 -0.17782187961E+02 -0.13926591611E+03  0.14084336474E+03  0.00000000000E+00 0. -1.
         21    1    1    2  504  501 -0.11209450996E+02  0.17782187961E+02  0.72318788102E+02  0.75311786015E+02  0.00000000000E+00 0. -1.
</event>
<event>
 4    1  0.3183954E+006  0.3006341E+02  0.7546771E-02  0.1419046E+00
         21   -1    0    0  503  501  0.00000000000E+00  0.00000000000E+00  0.47256721717E+02  0.47256721717E+02  0.00000000000E+00 0.  1.
         21   -1    0    0  501  502 -0.00000000000E+00 -0.00000000000E+00 -0.19359948045E+02  0.19359948045E+02  0.00000000000E+00 0.  1.
         21    1    1    2  503  504  0.21012836134E+02 -0.21500444427E+02  0.17613816463E+02  0.34843290937E+02  0.00000000000E+00 0.  1.
         21    1    1    2  504  502 -0.21012836134E+02  0.21500444427E+02  0.10282957208E+02  0.31773378824E+02  0.00000000000E+00 0.  1.
</event>
<event>
 4    1  0.3183954E+006  0.2261932E+02  0.7546771E-02  0.1497335E+00
         21   -1    0    0  504  501  0.00000000000E+00  0.00000000000E+00  0.51319937333E+00  0.51319937333E+00  0.00000000000E+00 0. -1.
         21   -1    0    0  503  502 -0.00000000000E+00 -0.00000000000E+00 -0.10031529221E+04  0.10031529221E+04  0.00000000000E+00 0. -1.
         21    1    1    2  503  501  0.25071817294E+01  0.22479936503E+02 -0.54078516584E+03  0.54125800604E+03  0.00000000000E+00 0. -1.
         21    1    1    2  504  502 -0.25071817294E+01 -0.22479936503E+02 -0.46185455688E+03  0.46240811543E+03  0.00000000000E+00 0. -1.
</event>
<event>
 4    1  0.3183954E+006  0.2021160E+02  0.7546771E-02  0.1530825E+00
         21   -1    0    0  504  501  0.00000000000E+00  0.00000000000E+00  0.97717160947E+02  0.97717160947E+02  0.00000000000E+00 0.  1.
         21   -1    0    0  503  502 -0.00000000000E+00 -0.00000000000E+00 -0.92889660283E+01  0.92889660283E+01  0.00000000000E+00 0. -1.
         21    1    1    2  503  501  0.20200583179E+02 -0.66722607526E+00  0.83891138577E+02  0.86291551632E+02  0.00000000000E+00 0.  1.
         21    1    1    2  504  502 -0.20200583179E+02  0.66722607526E+00  0.45370563421E+01  0.20714575343E+02  0.00000000000E+00 0. -1.
</event>
<event>
 4    1  0.3183954E+006  0.2822492E+02  0.7546771E-02  0.1435677E+00
         21   -1    0    0  503  501  0.00000000000E+00  0.00000000000E+00  0.50944627690E+01  0.50944627690E+01  0.00000000000E+00 0.  1.
         21   -1    0    0  504  502 -0.00000000000E+00 -0.00000000000E+00 -0.16312075787E+03  0.16312075787E+03  0.00000000000E+00 0.  1.
         21    1    1    2  503  502 -0.18815104731E+02 -0.21038955970E+02 -0.61909017552E+02  0.68039490655E+02  0.00000000000E+00 0.  1.
         21    1    1    2  504  501  0.18815104731E+02  0.21038955970E+02 -0.96117277544E+02  0.10017572998E+03  0.00000000000E+00 0.  1.
</event>
<event>
 4    1  0.3183954E+006  0.2514485E+02  0.7546771E-02  0.1467189E+00
         21   -1    0    0  504  501  0.00000000000E+00  0.00000000000E+00  0.22357551761E+01  0.22357551761E+01  0.00000000000E+00 0.  1.
         21   -1    0    0  503  502 -0.00000000000E+00 -0.00000000000E+00 -0.28437147759E+03  0.28437147759E+03  0.00000000000E+00 0.  1.
         21    1    1    2  503  501 -0.20230876478E+02  0.14932351944E+02 -0.15173299198E+03  0.15380235483E+03  0.00000000000E+00 0.  1.
         21    1    1    2  504  502  0.20230876478E+02 -0.14932351944E+02 -0.13040273044E+03  0.13280487793E+03  0.00000000000E+00 0.  1.
</event>
<event>
 4    1  0.3183954E+006  0.2824582E+02  0.7546771E-02  0.1435480E+00
         21   -1    0    0  504  501  0.00000000000E+00  0.00000000000E+00  0.23251871904E+02  0.23251871904E+02  0.00000000000E+00 0. -1.
         21   -1    0    0  501  502 -0.00000000000E+00 -0.00000000000E+00 -0.43067341248E+02  0.43067341248E+02  0.00000000000E+00 0. -1.
         21    1    1    2  503  502 -0.24881101612E+02  0.13370014266E+02 -0.24858487300E+02  0.37626731053E+02  0.00000000000E+00 0. -1.
         21    1    1    2  504  503  0.24881101612E+02 -0.13370014266E+02  0.50430179567E+01  0.28692482099E+02  0.00000000000E+00 0. -1.
</event>
<event>
 4    1  0.3183954E+006  0.3439258E+02  0.7546771E-02  0.1384885E+00
         21   -1    0    0  503  501  0.00000000000E+00  0.00000000000E+00  0.34315649732E+02  0.34315649732E+02  0.00000000000E+00 0. -1.
         21   -1    0    0  504  502 -0.00000000000E+00 -0.00000000000E+00 -0.38178159528E+02  0.38178159528E+02  0.00000000000E+00 0. -1.
         21    1    1    2  503  502 -0.33373406398E+02 -0.83105466157E+01 -0.13228210387E+02  0.36848812595E+02  0.00000000000E+00 0. -1.
         21    1    1    2  504  501  0.33373406398E+02  0.83105466157E+01  0.93657005917E+01  0.35644996665E+02  0.00000000000E+00 0. -1.
</event>
<event>
 4    1  0.3183954E+006  0.2242488E+02  0.7546771E-02  0.1499849E+00
         21   -1    0    0  504  501  0.00000000000E+00  0.00000000000E+00  0.88737625528E+02  0.88737625528E+02  0.00000000000E+00 0. -1.
         21   -1    0    0  503  502 -0.00000000000E+00 -0.00000000000E+00 -0.63515676386E+01  0.63515676386E+01  0.00000000000E+00 0. -1.
         21    1    1    2  503  501  0.21519734666E+02  0.63068455029E+01  0.25584143221E+02  0.34020929803E+02  0.00000000000E+00 0. -1.
         21    1    1    2  504  502 -0.21519734666E+02 -0.63068455029E+01  0.56801914668E+02  0.61068263364E+02  0.00000000000E+00 0. -1.
</event>
<event>
 4    1  0.3183954E+006  0.3708713E+02  0.7546771E-02  0.1366456E+00
         21   -1    0    0  504  501  0.00000000000E+00  0.00000000000E+00  0.14332780243E+03  0.14332780243E+03  0.00000000000E+00 0. -1.
         21   -1    0    0  503  502 -0.00000000000E+00 -0.00000000000E+00 -0.83106075172E+02  0.83106075172E+02  0.00000000000E+00 0. -1.
         21    1    1    2  503  501 -0.15230646280E+02 -0.33815417076E+02 -0.76368826129E+02  0.84897895277E+02  0.00000000000E+00 0. -1.
         21    1    1    2  504  502  0.15230646280E+02  0.33815417076E+02  0.13659055339E+03  0.14153598233E+03  0.00000000000E+00 0. -1.
</event>
<event>
 4    1  0.3183954E+006  0.2181355E+02  0.7546771E-02  0.1507959E+00
         21   -1    0    0  502  501  0.00000000000E+00  0.00000000000E+00  0.45823840683E+01  0.45823840683E+01  0.00000000000E+00 0. -1.
         21   -1    0    0  504  502 -0.00000000000E+00 -0.00000000000E+00 -0.26301215309E+03  0.26301215309E+03  0.00000000000E+00 0.  1.
         21    1    1    2  503  501 -0.18093549836E+02  0.12184190401E+02 -0.25128483476E+02  0.33275692677E+02  0.00000000000E+00 0. -1.
         21    1    1    2  504  503  0.18093549836E+02 -0.12184190401E+02 -0.23330128555E+03  0.23431884448E+03  0.00000000000E+00 0.  1.
</event>
<event>
 4    1  0.3183954E+006  0.3047200E+02  0.7546771E-02  0.1415538E+00
         21   -1    0    0  504  501  0.00000000000E+00  0.00000000000E+00  0.44563307989E+02  0.44563307989E+02  0.00000000000E+00 0. -1.
         21   -1    0    0  501  502 -0.00000000000E+00 -0.00000000000E+00 -0.32612540832E+02  0.32612540832E+02  0.00000000000E+00 0. -1.
         21    1    1    2  503  502 -0.23554133910E+01  0.30380825445E+02 -0.17212392627E+02  0.34997271135E+02  0.00000000000E+00 0. -1.
         21    1    1    2  504  503  0.23554133910E+01 -0.30380825445E+02  0.29163159784E+02  0.42178577685E+02  0.00000000000E+00 0. -1.
</event>
<event>
 4    1  0.3183954E+006  0.2478549E+02  0.7546771E-02  0.1471217E+00
         21   -1    0    0  503  501  0.00000000000E+00  0.00000000000E+00  0.16869933653E+03  0.16869933653E+03  0.00000000000E+00 0. -1.
         21   -1    0    0  504  502 -0.00000000000E+00 -0.00000000000E+00 -0.10111931264E+02  0.10111931264E+02  0.00000000000E+00 0. -1.
         21    1    1    2  503  502 -0.11732349029E+02 -0.21832836240E+02  0.15081148263E+03  0.15283462973E+03  0.00000000000E+00 0. -1.
         21    1    1    2  504  501  0.11732349029E+02  0.21832836240E+02  0.77759226309E+01  0.25976638058E+02  0.00000000000E+00 0. -1.
</event>
<event>
 4    1  0.3183954E+006  0.2087447E+02  0.7546771E-02  0.1521065E+00
         21   -1    0    0  503  501  0.00000000000E+00  0.00000000000E+00  0.12717481435E+04  0.12717481435E+04  0.00000000000E+00 0.  1.
         21   -1    0    0  504  502 -0.00000000000E+00 -0.00000000000E+00 -0.24203935780E+01  0.24203935780E+01  0.00000000000E+00 0.  1.
         21    1    1    2  503  502 -0.20142928158E+02  0.54777856176E+01  0.44392707857E+02  0.49055643925E+02  0.00000000000E+00 0.  1.
         21    1    1    2  504  501  0.20142928158E+02 -0.54777856176E+01  0.12249350421E+04  0.12251128932E+04  0.00000000000E+00 0.  1.
</event>
<event>
 4    1  0.3183954E+006  0.2396031E+02  0.7546771E-02  0.1480779E+00
         21   -1    0    0  502  501  0.00000000000E+00  0.00000000000E+00  0.78154536910E+01  0.78154536910E+01  0.00000000000E+00 0.  1.
         21   -1    0    0  503  502 -0.00000000000E+00 -0.00000000000E+00 -0.22301539055E+03  0.22301539055E+03  0.00000000000E+00 0. -1.
         21    1    1    2  503  504  0.21189777160E+02  0.11184355035E+02 -0.20211533791E+03  0.20353060279E+03  0.00000000000E+00 0. -1.
         21    1    1    2  504  501 -0.21189777160E+02 -0.11184355035E+02 -0.13084598950E+02  0.27300241452E+02  0.00000000000E+00 0.  1.
</event>
<event>
 4    1  0.3183954E+006  0.2282110E+02  0.7546771E-02  0.1494757E+00
         21   -1    0    0  504  501  0.00000000000E+00  0.00000000000E+00  0.77860019995E+02  0.77860019995E+02  0.00000000000E+00 0. -1.
         21   -1    0    0  503  502 -0.00000000000E+00 -0.00000000000E+00 -0.67233333551E+01  0.67233333551E+01  0.00000000000E+00 0. -1.
         21    1    1    2  503  501  0.18561453074E+02 -0.13276855419E+02  0.32544327658E+02  0.39748404908E+02  0.00000000000E+00 0. -1.
         21    1    1    2  504  502 -0.18561453074E+02  0.13276855419E+02  0.38592358982E+02  0.44834948442E+02  0.00000000000E+00 0. -1.
</event>
<event>
 4    1  0.3183954E+006  0.2647214E+02  0.7546771E-02  0.1452984E+00
         21   -1    0    0  503  501  0.00000000000E+00  0.00000000000E+00  0.22316241957E+03  0.22316241957E+03  0.00000000000E+00 0. -1.
         21   -1    0    0  504  502 -0.00000000000E+00 -0.00000000000E+00 -0.74509771111E+03  0.74509771111E+03  0.00000000000E+00 0.  1.
         21    1    1    2  503  502 -0.26343193732E+02  0.26096969725E+01 -0.74407645590E+03  0.74454720911E+03  0.00000000000E+00 0.  1.
         21    1    1    2  504  501  0.26343193732E+02 -0.26096969725E+01  0.22214116436E+03  0.22371292157E+03  0.00000000000E+00 0. -1.
</event>
<event>
 4    1  0.3183954E+006  0.4749834E+02  0.7546771E-02  0.1309399E+00
         21   -1    0    0  503  501  0.00000000000E+00  0.00000000000E+00  0.15702550083E+02  0.15702550083E+02  0.00000000000E+00 0. -1.
         21   -1    0    0  504  502 -0.00000000000E+00 -0.00000000000E+00 -0.14614080214E+03  0.14614080214E+03  0.00000000000E+00 0. -1.
         21    1    1    2  503  502  0.33644156005E+02 -0.33528539934E+02 -0.54711629810E+02  0.72453120428E+02  0.00000000000E+00 0. -1.
         21    1    1    2  504  501 -0.33644156005E+02  0.33528539934E+02 -0.75726622250E+02  0.89390231797E+02  0.00000000000E+00 0. -1.
</event>
<event>
 4    1  0.3183954E+006  0.2327985E+02  0.7546771E-02  0.1489014E+00
         21   -1    0    0  503  501  0.00000000000E+00  0.00000000000E+00  0.89904720920E+02  0.89904720920E+02  0.00000000000E+00 0.  1.
         21   -1    0    0  504  502 -0.00000000000E+00 -0.00000000000E+00 -0.73760852373E+01  0.73760852373E+01  0.00000000000E+00 0.  1.
         21    1    1    2  503  502  0.15475426415E+02  0.17391452041E+02  0.20470581078E+02  0.30999937363E+02  0.00000000000E+00 0.  1.
         21    1    1    2  504  501 -0.15475426415E+02 -0.17391452041E+02  0.62058054604E+02  0.66280868794E+02  0.00000000000E+00 0.  1.
</event>
<event>
 4    1  0.3183954E+006  0.2943329E+02  0.7546771E-02  0.1424586E+00
         21   -1    0    0  503  501  0.00000000000E+00  0.00000000000E+00  0.16731279497E+03  0.16731279497E+03  0.00000000000E+00 0. -1.
         21   -1    0    0  504  502 -0.00000000000E+00 -0.00000000000E+00 -0.28375399967E+02  0.28375399967E+02  0.00000000000E+00 0.  1.
         21    1    1    2  503  502  0.26875005462E+02 -0.12002182850E+02  0.15793641463E+03  0.16065562355E+03  0.00000000000E+00 0. -1.
         21    1    1    2  504  501 -0.26875005462E+02  0.12002182850E+02 -0.18999019622E+02  0.35032571392E+02  0.00000000000E+00 0.  1.
</event>
<event>
 4    1  0.3183954E+006  0.2244643E+02  0.7546771E-02  0.1499569E+00
         21   -1    0    0  502  501  0.00000000000E+00  0.00000000000E+00  0.79811958012E+02  0.79811958012E+02  0.00000000000E+00 0.  1.
         21   -1    0    0  503  502 -0.00000000000E+00 -0.00000000000E+00 -0.45695322304E+02  0.45695322304E+02  0.00000000000E+00 0. -1.
         21    1    1    2  503  504 -0.16121901207E+02  0.15618140611E+02 -0.41199533496E+02  0.46917412279E+02  0.00000000000E+00 0. -1.
         21    1    1    2  504  501  0.16121901207E+02 -0.15618140611E+02  0.75316169204E+02  0.78589868038E+02  0.00000000000E+00 0.  1.
</event>
<event>
 4    1  0.3183954E+006  0.2396553E+02  0.7546771E-02  0.1480717E+00
         21   -1    0    0  503  501  0.00000000000E+00  0.00000000000E+00  0.10525720973E+03  0.10525720973E+03  0.00000000000E+00 0. -1.
         21   -1    0    0  504  502 -0.00000000000E+00 -0.00000000000E+00 -0.18766251574E+02  0.18766251574E+02  0.00000000000E+00 0.  1.
         21    1    1    2  503  502  0.21667951917E+02  0.10239466615E+02  0.95469268030E+02  0.98431336245E+02  0.00000000000E+00 0. -1.
         21    1    1    2  504  501 -0.21667951917E+02 -0.10239466615E+02 -0.89783098740E+01  0.25592125059E+02  0.00000000000E+00 0.  1.
</event>
<event>
 4    1  0.3183954E+006  0.2221633E+02  0.7546771E-02  0.1502580E+00
         21   -1    0    0  503  501  0.00000000000E+00  0.00000000000E+00  0.45890678633E+02  0.45890678633E+02  0.00000000000E+00 0.  1.
         21   -1    0    0  504  502 -0.00000000000E+00 -0.00000000000E+00 -0.25361072308E+02  0.25361072308E+02  0.00000000000E+00 0. -1.
         21    1    1    2  503  502  0.20911465250E+02 -0.75017311732E+01 -0.16771348015E+02  0.27836010198E+02  0.00000000000E+00 0. -1.
         21    1    1    2  504  501 -0.20911465250E+02  0.75017311732E+01  0.37300954340E+02  0.43415740742E+02  0.00000000000E+00 0.  1.
</event>
<event>
 4    1  0.3183954E+006  0.2873121E+02  0.7546771E-02  0.1430952E+00
         21   -1    0    0  503  501  0.00000000000E+00  0.00000000000E+00  0.24376625444E+03  0.24376625444E+03  0.00000000000E+00 0.  1.
         21   -1    0    0  501  502 -0.00000000000E+00 -0.00000000000E+00 -0.44651312964E+01  0.44651312964E+01  0.00000000000E+00 0. -1.
         21    1    1    2  503  504  0.27891524965E+02 -0.68953007522E+01  0.18065656609E+03  0.18292697234E+03  0.00000000000E+00 0.  1.
         21    1    1    2  504  502 -0.27891524965E+02  0.68953007522E+01  0.58644557057E+02  0.65304413402E+02  0.00000000000E+00 0. -1.
</event>
<event>
 4    1  0.3183954E+006  0.2044966E+02  0.7546771E-02  0.1527269E+00
         21   -1    0    0  503  501  0.00000000000E+00  0.00000000000E+00  0.91795615685E+01  0.91795615685E+01  0.00000000000E+00 0. -1.
         21   -1    0    0  504  502 -0.00000000000E+00 -0.00000000000E+00 -0.71165353204E+02  0.71165353204E+02  0.00000000000E+00 0.  1.
         21    1    1    2  503  502  0.11921044437E+02 -0.16615568405E+02 -0.68944285749E+01  0.21580582922E+02  0.00000000000E+00 0. -1.
         21    1    1    2  504  501 -0.11921044437E+02  0.16615568405E+02 -0.55091363061E+02  0.58764331850E+02  0.00000000000E+00 0.  1.
</event>
<event>
 4    1  0.3183954E+006  0.2712048E+02  0.7546771E-02  0.1446402E+00
         21   -1    0    0  504  501  0.00000000000E+00  0.00000000000E+00  0.45186618690E+03  0.45186618690E+03  0.00000000000E+00 0.  1.
         21   -1    0    0  501  502 -0.00000000000E+00 -0.00000000000E+00 -0.17050690740E+02  0.17050690740E+02  0.00000000000E+00 0. -1.
         21    1    1    2  503  502  0.24246763180E+02  0.12149682562E+02 -0.55787807246E+01  0.27688320741E+02  0.00000000000E+00 0. -1.
         21    1    1    2  504  503 -0.24246763180E+02 -0.12149682562E+02  0.44039427689E+03  0.44122855690E+03  0.00000000000E+00 0.  1.
</event>
<event>
 4    1  0.3183954E+006  0.2089793E+02  0.7546771E-02  0.1520727E+00
         21   -1    0    0  504  501  0.00000000000E+00  0.00000000000E+00  0.39265417950E+01  0.39265417950E+01  0.00000000000E+00 0. -1.
         21   -1    0    0  503  502 -0.00000000000E+00 -0.00000000000E+00 -0.12116119259E+03  0.12116119259E+03  0.00000000000E+00 0. -1.
         21    1    1    2  503  501  0.13730208541E+02  0.15754520218E+02 -0.40705213919E+02  0.45756288902E+02  0.00000000000E+00 0. -1.
         21    1    1    2  504  502 -0.13730208541E+02 -0.15754520218E+02 -0.76529436874E+02  0.79331445482E+02  0.00000000000E+00 0. -1.
</event>
<event>
 4    1  0.3183954E+006  0.2118866E+02  0.7546771E-02  0.1516588E+00
         21   -1    0    0  504  501  0.00000000000E+00  0.00000000000E+00  0.18847588898E+02  0.18847588898E+02  0.00000000000E+00 0.  1.
         21   -1    0    0  503  502 -0.00000000000E+00 -0.00000000000E+00 -0.13407942031E+03  0.13407942031E+03  0.00000000000E+00 0.  1.
         21    1    1    2  503  501 -0.16342807621E+02 -0.13485991656E+02  0.11723466799E+02  0.24215676857E+02  0.00000000000E+00 0.  1.
         21    1    1    2  504  502  0.16342807621E+02  0.13485991656E+02 -0.12695529821E+03  0.12871133235E+03  0.00000000000E+00 0.  1.
</event>
<event>
 4    1  0.3183954E+006  0.3415947E+02  0.7546771E-02  0.1386571E+00
         21   -1    0    0  504  501  0.00000000000E+00  0.00000000000E+00  0.33017819278E+02  0.33017819278E+02  0.00000000000E+00 0.  1.
         21   -1    0    0  503  502 -0.00000000000E+00 -0.00000000000E+00 -0.89692281662E+02  0.89692281662E+02  0.00000000000E+00 0. -1.
         21    1    1    2  503  501  0.22351868448E+02  0.25831440798E+02  0.19424416111E+02  0.39296021403E+02  0.00000000000E+00 0.  1.
         21    1    1    2  504  502 -0.22351868448E+02 -0.25831440798E+02 -0.76098878495E+02  0.83414079537E+02  0.00000000000E+00 0. -1.
</event>
<event>
 4    1  0.3183954E+006  0.2450364E+02  0.7546771E-02  0.1474433E+00
         21   -1    0    0  502  501  0.00000000000E+00  0.00000000000E+00  0.68339311976E+01  0.68339311976E+01  0.00000000000E+00 0.  1.
         21   -1    0    0  504  502 -0.00000000000E+00 -0.00000000000E+00 -0.15236659948E+03  0.15236659948E+03  0.00000000000E+00 0.  1.
         21    1    1    2  503  501 -0.19012659362E+02  0.15457909421E+02 -0.20973198804E+02  0.32253732308E+02  0.00000000000E+00 0.  1.
         21    1    1    2  504  503  0.19012659362E+02 -0.15457909421E+02 -0.12455946948E+03  0.12694679837E+03  0.00000000000E+00 0.  1.
</event>
<event>
 4    1  0.3183954E+006  0.2084006E+02  0.7546771E-02  0.1521561E+00
         21   -1    0    0  503  501  0.00000000000E+00  0.00000000000E+00  0.61486694448E+02  0.61486694448E+02  0.00000000000E+00 0. -1.
         21   -1    0    0  504  502 -0.00000000000E+00 -0.00000000000E+00 -0.21023855012E+02  0.21023855012E+02  0.00000000000E+00 0. -1.
         21    1    1    2  503  502 -0.20797717077E+02  0.13278170913E+01  0.53849455168E+02  0.57741423222E+02  0.00000000000E+00 0. -1.
         21    1    1    2  504  501  0.20797717077E+02 -0.13278170913E+01 -0.13386615732E+02  0.24769126238E+02  0.00000000000E+00 0. -1.
</event>
<event>
 4    1  0.3183954E+006  0.2126913E+02  0.7546771E-02  0.1515457E+00
         21   -1    0    0  504  501  0.00000000000E+00  0.00000000000E+00  0.31124918219E+03  0.31124918219E+03  0.00000000000E+00 0.  1.
         21   -1    0    0  501  502 -0.00000000000E+00 -0.00000000000E+00 -0.94162158289E+01  0.94162158289E+01  0.00000000000E+00 0. -1.
         21    1    1    2  503  502 -0.20335105092E+02  0.62337230863E+01  0.34760188329E+01  0.21551299486E+02  0.00000000000E+00 0. -1.
         21    1    1    2  504  503  0.20335105092E+02 -0.62337230863E+01  0.29835694753E+03  0.29911409854E+03  0.00000000000E+00 0.  1.
</event>
<event>
 4    1  0.3183954E+006  0.2133725E+02  0.7546771E-02  0.1514504E+00
         21   -1    0    0  502  501  0.00000000000E+00  0.00000000000E+00  0.15630441146E+03  0.15630441146E+03  0.00000000000E+00 0.  1.
         21   -1    0    0  503  502 -0.00000000000E+00 -0.00000000000E+00 -0.12831152510E+02  0.12831152510E+02  0.00000000000E+00 0. -1.
         21    1    1    2  503  504  0.15960552988E+02 -0.14161176129E+02 -0.26153650028E+01  0.21496936878E+02  0.00000000000E+00 0. -1.
         21    1    1    2  504  501 -0.15960552988E+02  0.14161176129E+02  0.14608862395E+03  0.14763862709E+03  0.00000000000E+00 0.  1.
</event>
<event>
 4    1  0.3183954E+006  0.2128815E+02  0.7546771E-02  0.1515190E+00
         21   -1    0    0  503  501  0.00000000000E+00  0.00000000000E+00  0.25149667790E+02  0.25149667790E+02  0.00000000000E+00 0.  1.
         21   -1    0    0  504  502 -0.00000000000E+00 -0.00000000000E+00 -0.16156767816E+03  0.16156767816E+03  0.00000000000E+00 0.  1.
         21    1    1    2  503  502 -0.31770702468E+01 -0.21049744952E+02 -0.15620769464E+03  0.15765160767E+03  0.00000000000E+00 0.  1.
         21    1    1    2  504  501  0.31770702468E+01  0.21049744952E+02  0.19789684270E+02  0.29065738274E+02  0.00000000000E+00 0.  1.
</event>
<event>
 4    1  0.3183954E+006  0.2377488E+02  0.7546771E-02  0.1482991E+00
         21   -1    0    0  504  501  0.00000000000E+00  0.00000000000E+00  0.79039695457E+01  0.79039695457E+01  0.00000000000E+00 0.  1.
         21   -1    0    0  501  502 -0.00000000000E+00 -0.00000000000E+00 -0.10599767609E+03  0.10599767609E+03  0.00000000000E+00 0.  1.
         21    1    1    2  503  502  0.22201878925E+02 -0.85041960795E+01 -0.81530020662E+02  0.84925785530E+02  0.00000000000E+00 0.  1.
         21    1    1    2  504  503 -0.22201878925E+02  0.85041960795E+01 -0.16563685878E+02  0.28975860101E+02  0.00000000000E+00 0.  1.
</event>
<event>
 4    1  0.3183954E+006  0.3433546E+02  0.7546771E-02  0.1385296E+00
         21   -1    0    0  502  501  0.00000000000E+00  0.00000000000E+00  0.82080487800E+03  0.82080487800E+03  0.00000000000E+00 0.  1.
         21   -1    0    0  503  502 -0.00000000000E+00 -0.00000000000E+00 -0.23718082857E+02  0.23718082857E+02  0.00000000000E+00 0.  1.
         21    1    1    2  503  504  0.93034545153E+01 -0.33051018717E+02 -0.10732923867E+02  0.35973876061E+02  0.00000000000E+00 0.  1.
         21    1    1    2  504  501 -0.93034545153E+01  0.33051018717E+02  0.80781971901E+03  0.80854908480E+03  0.00000000000E+00 0.  1.
</event>
<event>
 4    1  0.3183954E+006  0.2203851E+02  0.7546771E-02  0.1504938E+00
         21   -1    0    0  503  501  0.00000000000E+00  0.00000000000E+00  0.23680151634E+01  0.23680151634E+01  0.00000000000E+00 0. -1.
         21   -1    0    0  501  502 -0.00000000000E+00 -0.00000000000E+00 -0.22610561971E+03  0.22610561971E+03  0.00000000000E+00 0. -1.
         21    1    1    2  503  504 -0.22012966136E+02 -0.10607478738E+01 -0.77055236555E+02  0.80144902175E+02  0.00000000000E+00 0. -1.
         21    1    1    2  504  502  0.22012966136E+02  0.10607478738E+01 -0.14668236799E+03  0.14832873270E+03  0.00000000000E+00 0. -1.
</event>
<event>
 4    1  0.3183954E+006  0.3110765E+02  0.7546771E-02  0.1410209E+00
         21   -1    0    0  503  501  0.00000000000E+00  0.00000000000E+00  0.31968269728E+03  0.31968269728E+03  0.00000000000E+00 0.  1.
         21   -1    0    0  504  502 -0.00000000000E+00 -0.00000000000E+00 -0.35401266143E+01  0.35401266143E+01  0.00000000000E+00 0.  1.
         21    1    1    2  503  502  0.28840049851E+02  0.11659232681E+02  0.21959833414E+03  0.22179069985E+03  0.00000000000E+00 0.  1.
         21    1    1    2  504  501 -0.28840049851E+02 -0.11659232681E+02  0.96544236524E+02  0.10143212404E+03  0.00000000000E+00 0.  1.
</event>
<event>
 4    1  0.3183954E+006  0.2219468E+02  0.7546771E-02  0.1502866E+00
         21   -1    0    0  502  501  0.00000000000E+00  0.00000000000E+00  0.25033409732E+02  0.25033409732E+02  0.00000000000E+00 0.  1.
         21   -1    0    0  503  502 -0.00000000000E+00 -0.00000000000E+00 -0.27988919031E+02  0.27988919031E+02  0.00000000000E+00 0.  1.
         21    1    1    2  503  504 -0.33333112624E+01  0.21942942557E+02 -0.15924305602E+02  0.27316427309E+02  0.00000000000E+00 0.  1.
         21    1    1    2  504  501  0.33333112624E+01 -0.21942942557E+02  0.12968796304E+02  0.25705901454E+02  0.00000000000E+00 0.  1.
</event>
<event>
 4    1  0.3183954E+006  0.2344969E+02  0.7546771E-02  0.1486927E+00
         21   -1    0    0  504  501  0.00000000000E+00  0.00000000000E+00  0.23119831909E+03  0.23119831909E+03  0.00000000000E+00 0.  1.
         21   -1    0    0  503  502 -0.00000000000E+00 -0.00000000000E+00 -0.47591652011E+01  0.47591652011E+01  0.00000000000E+00 0. -1.
         21    1    1    2  503  501  0.12436820994E+02  0.19879970601E+02  0.19666344339E+03  0.19805655180E+03  0.00000000000E+00 0.  1.
         21    1    1    2  504  502 -0.12436820994E+02 -0.19879970601E+02  0.29775710504E+02  0.37900932489E+02  0.00000000000E+00 0. -1.
</event>
<event>
 4    1  0.3183954E+006  0.2215851E+02  0.7546771E-02  0.1503344E+00
         21   -1    0    0  503  501  0.00000000000E+00  0.00000000000E+00  0.20513216386E+02  0.20513216386E+02  0.00000000000E+00 0. -1.
         21   -1    0    0  501  502 -0.00000000000E+00 -0.00000000000E+00 -0.72600573362E+02  0.72600573362E+02  0.00000000000E+00 0. -1.
         21    1    1    2  503  504 -0.14884697420E+02 -0.16414785036E+02  0.12073568085E+02  0.25234310598E+02  0.00000000000E+00 0. -1.
         21    1    1    2  504  502  0.14884697420E+02  0.16414785036E+02 -0.64160925060E+02  0.67879479150E+02  0.00000000000E+00 0. -1.
</event>
<event>
 4    1  0.3183954E+006  0.2089676E+02  0.7546771E-02  0.1520744E+00
         21   -1    0    0  503  501  0.00000000000E+00  0.00000000000E+00  0.47563949892E+03  0.47563949892E+03  0.00000000000E+00 0. -1.
         21   -1    0    0  504  502 -0.00000000000E+00 -0.00000000000E+00 -0.17214442827E+01  0.17214442827E+01  0.00000000000E+00 0. -1.
         21    1    1    2  503  502  0.16264913112E+02  0.13119730126E+02  0.73906743753E+02  0.76804176249E+02  0.00000000000E+00 0. -1.
         21    1    1    2  504  501 -0.16264913112E+02 -0.13119730126E+02  0.40001131089E+03  0.40055676696E+03  0.00000000000E+00 0. -1.
</event>
<event>
 4    1  0.3183954E+006  0.2191711E+02  0.7546771E-02  0.1506563E+00
         21   -1    0    0  504  501  0.00000000000E+00  0.00000000000E+00  0.46124176411E+03  0.46124176411E+03  0.00000000000E+00 0. -1.
         21   -1    0    0  503  502 -0.00000000000E+00 -0.00000000000E+00 -0.20034892353E+01  0.20034892353E+01  0.00000000000E+00 0. -1.
         21    1    1    2  503  501  0.15956669401E+02 -0.15024794207E+02  0.69115784032E+02  0.72507595062E+02  0.00000000000E+00 0. -1.
         21    1    1    2  504  502 -0.15956669401E+02  0.15024794207E+02  0.39012249084E+03  0.39073765828E+03  0.00000000000E+00 0. -1.
</event>
<event>
 4    1  0.3183954E+006  0.2421849E+02  0.7546771E-02  0.1477739E+00
         21   -1    0    0  502  501  0.00000000000E+00  0.00000000000E+00  0.20722587387E+01  0.20722587387E+01  0.00000000000E+00 0.  1.
         21   -1    0    0  504  502 -0.00000000000E+00 -0.00000000000E+00 -0.29941575267E+03  0.29941575267E+03  0.00000000000E+00 0.  1.
         21    1    1    2  503  501 -0.21431560707E+02  0.11279338001E+02 -0.11341979030E+03  0.11597665322E+03  0.00000000000E+00 0.  1.
         21    1    1    2  504  503  0.21431560707E+02 -0.11279338001E+02 -0.18392370363E+03  0.18551135818E+03  0.00000000000E+00 0.  1.
</event>
<event>
 4    1  0.3183954E+006  0.2128884E+02  0.7546771E-02  0.1515181E+00
         21   -1    0    0  502  501  0.00000000000E+00  0.00000000000E+00  0.76354026572E+02  0.76354026572E+02  0.00000000000E+00 0. -1.
         21   -1    0    0  504  502 -0.00000000000E+00 -0.00000000000E+00 -0.35705025358E+02  0.35705025358E+02  0.00000000000E+00 0.  1.
         21    1    1    2  503  501 -0.20350958162E+02 -0.62492653513E+01  0.71485232708E+02  0.74587889841E+02  0.00000000000E+00 0. -1.
         21    1    1    2  504  503  0.20350958162E+02  0.62492653513E+01 -0.30836231494E+02  0.37471162089E+02  0.00000000000E+00 0.  1.
</event>
<event>
 4    1  0.3183954E+006  0.3600487E+02  0.7546771E-02  0.1373633E+00
         21   -1    0    0  503  501  0.00000000000E+00  0.00000000000E+00  0.14701800709E+02  0.14701800709E+02  0.00000000000E+00 0.  1.
         21   -1    0    0  504  502 -0.00000000000E+00 -0.00000000000E+00 -0.14041200413E+03  0.14041200413E+03  0.00000000000E+00 0.  1.
         21    1    1    2  503  502  0.30270341745E+02  0.19495053211E+02 -0.15550653796E+02  0.39219555359E+02  0.00000000000E+00 0.  1.
         21    1    1    2  504  501 -0.30270341745E+02 -0.19495053211E+02 -0.11015954962E+03  0.11589424948E+03  0.00000000000E+00 0.  1.
</event>
<event>
 4    1  0.3183954E+006  0.2351400E+02  0.7546771E-02  0.1486143E+00
         21   -1    0    0  502  501  0.00000000000E+00  0.00000000000E+00  0.72378409672E+01  0.72378409672E+01  0.00000000000E+00 0.  1.
         21   -1    0    0  504  502 -0.00000000000E+00 -0.00000000000E+00 -0.36771374442E+03  0.36771374442E+03  0.00000000000E+00 0. -1.
         21    1    1    2  503  501  0.56700785862E+01  0.22820129494E+02 -0.13368346884E+02  0.27048489786E+02  0.00000000000E+00 0.  1.
         21    1    1    2  504  503 -0.56700785862E+01 -0.22820129494E+02 -0.34710755657E+03  0.34790309560E+03  0.00000000000E+00 0. -1.
</event>
<event>
 4    1  0.3183954E+006  0.3160822E+02  0.7546771E-02  0.1406117E+00
         21   -1    0    0  504  501  0.00000000000E+00  0.00000000000E+00  0.14412834809E+03  0.14412834809E+03  0.00000000000E+00 0. -1.
         21   -1    0    0  503  502 -0.00000000000E+00 -0.00000000000E+00 -0.44287217713E+02  0.44287217713E+02  0.00000000000E+00 0.  1.
         21    1    1    2  503  501 -0.39945971454E+01  0.31354787371E+02  0.13644204825E+03  0.14005538914E+03  0.00000000000E+00 0. -1.
         21    1    1    2  504  502  0.39945971454E+01 -0.31354787371E+02 -0.36600917872E+02  0.48360176660E+02  0.00000000000E+00 0.  1.
</event>
<event>
 4    1  0.3183954E+006  0.2143340E+02  0.7546771E-02  0.1513166E+00
         21   -1    0    0  503  501  0.00000000000E+00  0.00000000000E+00  0.69869100527E+02  0.69869100527E+02  0.00000000000E+00 0. -1.
         21   -1    0    0  504  502 -0.00000000000E+00 -0.00000000000E+00 -0.34298658663E+02  0.34298658663E+02  0.00000000000E+00 0. -1.
         21    1    1    2  503  502 -0.16812992160E+02  0.13293375959E+02 -0.29041084511E+02  0.36093976497E+02  0.00000000000E+00 0. -1.
         21    1    1    2  504  501  0.16812992160E+02 -0.13293375959E+02  0.64611526375E+02  0.68073782694E+02  0.00000000000E+00 0. -1.
</event>
<event>
 4    1  0.3183954E+006  0.3551640E+02  0.7546771E-02  0.1376969E+00
         21   -1    0    0  503  501  0.00000000000E+00  0.00000000000E+00  0.56458140905E+03  0.56458140905E+03  0.00000000000E+00 0. -1.
         21   -1    0    0  504  502 -0.00000000000E+00 -0.00000000000E+00 -0.77309398531E+01  0.77309398531E+01  0.00000000000E+00 0.  1.
         21    1    1    2  503  502  0.11094330281E+02 -0.33739151170E+02  0.51971433113E+03  0.52092648279E+03  0.00000000000E+00 0. -1.
         21    1    1    2  504  501 -0.11094330281E+02  0.33739151170E+02  0.37136138067E+02  0.51385866117E+02  0.00000000000E+00 0.  1.
</event>
<event>
 4    1  0.3183954E+006  0.2656853E+02  0.7546771E-02  0.1451991E+00
         21   -1    0    0  504  501  0.00000000000E+00  0.00000000000E+00  0.46880522352E+02  0.46880522352E+02  0.00000000000E+00 0. -1.
         21   -1    0    0  503  502 -0.00000000000E+00 -0.00000000000E+00 -0.22477692066E+02  0.22477692066E+02  0.00000000000E+00 0. -1.
         21    1    1    2  503  501 -0.36740199150E+01  0.26313270881E+02 -0.77241258426E+01  0.27668551947E+02  0.00000000000E+00 0. -1.
         21    1    1    2  504  502  0.36740199150E+01 -0.26313270881E+02  0.32126956129E+02  0.41689662471E+02  0.00000000000E+00 0. -1.
</event>
<event>
 4    1  0.3183954E+006  0.3283508E+02  0.7546771E-02  0.1396457E+00
         21   -1    0    0  503  501  0.00000000000E+00  0.00000000000E+00  0.17174383208E+02  0.17174383208E+02  0.00000000000E+00 0.  1.
         21   -1    0    0  501  502 -0.00000000000E+00 -0.00000000000E+00 -0.12856189656E+03  0.12856189656E+03  0.00000000000E+00 0. -1.
         21    1    1    2  503  504  0.30051590685E+02  0.13230435861E+02 -0.35686108629E+01  0.33028435011E+02  0.00000000000E+00 0.  1.
         21    1    1    2  504  502 -0.30051590685E+02 -0.13230435861E+02 -0.10781890249E+03  0.11270784476E+03  0.00000000000E+00 0. -1.
</event>
<event>
 4    1  0.3183954E+006  0.2301706E+02  0.7546771E-02  0.1492284E+00
         21   -1    0    0  503  501  0.00000000000E+00  0.00000000000E+00  0.48528677070E+02  0.48528677070E+02  0.00000000000E+00 0. -1.
         21   -1    0    0  504  502 -0.00000000000E+00 -0.00000000000E+00 -0.21449164025E+02  0.21449164025E+02  0.00000000000E+00 0.  1.
         21    1    1    2  503  502 -0.22990591561E+02  0.11034897093E+01  0.38057768968E+02  0.44476721649E+02  0.00000000000E+00 0. -1.
         21    1    1    2  504  501  0.22990591561E+02 -0.11034897093E+01 -0.10978255923E+02  0.25501119445E+02  0.00000000000E+00 0.  1.
</event>
<event>
 4    1  0.3183954E+006  0.2824145E+02  0.7546771E-02  0.1435521E+00
         21   -1    0    0  503  501  0.00000000000E+00  0.00000000000E+00  0.17328914878E+03  0.17328914878E+03  0.00000000000E+00 0. -1.
         21   -1    0    0  504  502 -0.00000000000E+00 -0.00000000000E+00 -0.47815337702E+02  0.47815337702E+02  0.00000000000E+00 0. -1.
         21    1    1    2  503  502  0.11948966027E+02 -0.25589093076E+02 -0.42359985782E+02  0.50911176268E+02  0.00000000000E+00 0. -1.
         21    1    1    2  504  501 -0.11948966027E+02  0.25589093076E+02  0.16783379686E+03  0.17019331022E+03  0.00000000000E+00 0. -1.
</event>
<event>
 4    1  0.3183954E+006  0.2270570E+02  0.7546771E-02  0.1496227E+00
         21   -1    0    0  503  501  0.00000000000E+00  0.00000000000E+00  0.40186628464E+03  0.40186628464E+03  0.00000000000E+00 0.  1.
         21   -1    0    0  504  502 -0.00000000000E+00 -0.00000000000E+00 -0.35845143363E+01  0.35845143363E+01  0.00000000000E+00 0.  1.
         21    1    1    2  503  502 -0.22355744363E+02 -0.39710980176E+01  0.36694320077E+02  0.43151153534E+02  0.00000000000E+00 0.  1.
         21    1    1    2  504  501  0.22355744363E+02  0.39710980176E+01  0.36158745022E+03  0.36229964544E+03  0.00000000000E+00 0.  1.
</event>
<event>
 4    1  0.3183954E+006  0.5285943E+02  0.7546771E-02  0.1286229E+00
         21   -1    0    0  504  501  0.00000000000E+00  0.00000000000E+00  0.10352331249E+02  0.10352331249E+02  0.00000000000E+00 0.  1.
         21   -1    0    0  503  502 -0.00000000000E+00 -0.00000000000E+00 -0.75045358598E+03  0.75045358598E+03  0.00000000000E+00 0.  1.
         21    1    1    2  503  501  0.46127571750E+02  0.25814081160E+02 -0.65645637331E+02  0.84282082095E+02  0.00000000000E+00 0.  1.
         21    1    1    2  504  502 -0.46127571750E+02 -0.25814081160E+02 -0.67445561740E+03  0.67652383513E+03  0.00000000000E+00 0.  1.
</event>
<event>
 4    1  0.3183954E+006  0.2002903E+02  0.7546771E-02  0.1533592E+00
         21   -1    0    0  503  501  0.00000000000E+00  0.00000000000E+00  0.17610084484E+02  0.17610084484E+02  0.00000000000E+00 0.  1.
         21   -1    0    0  504  502 -0.00000000000E+00 -0.00000000000E+00 -0.19083039448E+03  0.19083039448E+03  0.00000000000E+00 0. -1.
         21    1    1    2  503  502 -0.57473543655E+01 -0.19186712575E+02 -0.18441215716E+03  0.18549664614E+03  0.00000000000E+00 0. -1.
         21    1    1    2  504  501  0.57473543655E+01  0.19186712575E+02  0.11191847163E+02  0.22943832822E+02  0.00000000000E+00 0.  1.
</event>
<event>
 4    1  0.3183954E+006  0.3657105E+02  0.7546771E-02  0.1369842E+00
         21   -1    0    0  503  501  0.00000000000E+00  0.00000000000E+00  0.29578532746E+02  0.29578532746E+02  0.00000000000E+00 0. -1.
         21   -1    0    0  504  502 -0.00000000000E+00 -0.00000000000E+00 -0.11177556806E+03  0.11177556806E+03  0.00000000000E+00 0. -1.
         21    1    1    2  503  502  0.35131798434E+02 -0.10158649616E+02  0.13440609370E+02  0.38962692457E+02  0.00000000000E+00 0. -1.
         21    1    1    2  504  501 -0.35131798434E+02  0.10158649616E+02 -0.95637644688E+02  0.10239140835E+03  0.00000000000E+00 0. -1.
</event>
<event>
 4    1  0.3183954E+006  0.3118956E+02  0.7546771E-02  0.1409533E+00
         21   -1    0    0  504  501  0.00000000000E+00  0.00000000000E+00  0.14769588588E+03  0.14769588588E+03  0.00000000000E+00 0.  1.
         21   -1    0    0  503  502 -0.00000000000E+00 -0.00000000000E+00 -0.16077765205E+02  0.16077765205E+02  0.00000000000E+00 0.  1.
         21    1    1    2  503  501  0.27824882545E+01  0.31065197075E+02  0.12872560092E+03  0.13245025120E+03  0.00000000000E+00 0.  1.
         21    1    1    2  504  502 -0.27824882545E+01 -0.31065197075E+02  0.28925197600E+01  0.31323399892E+02  0.00000000000E+00 0.  1.
</event>
<event>
 4    1  0.3183954E+006  0.2404741E+02  0.7546771E-02  0.1479749E+00
         21   -1    0    0  504  501  0.00000000000E+00  0.00000000000E+00  0.77161915101E+01  0.77161915101E+01  0.00000000000E+00 0. -1.
         21   -1    0    0  501  502 -0.00000000000E+00 -0.00000000000E+00 -0.10012487435E+03  0.10012487435E+03  0.00000000000E+00 0.  1.
         21    1    1    2  503  502 -0.25493255586E+01  0.23911895819E+02 -0.73245390866E+02  0.77091926332E+02  0.00000000000E+00 0.  1.
         21    1    1    2  504  503  0.25493255586E+01 -0.23911895819E+02 -0.19163291974E+02  0.30749139528E+02  0.00000000000E+00 0. -1.
</event>
<event>
 4    1  0.3183954E+006  0.2296131E+02  0.7546771E-02  0.1492985E+00
         21   -1    0    0  504  501  0.00000000000E+00  0.00000000000E+00  0.95784883467E+01  0.95784883467E+01  0.00000000000E+00 0.  1.
         21   -1    0    0  503  502 -0.00000000000E+00 -0.00000000000E+00 -0.11900731946E+04  0.11900731946E+04  0.00000000000E+00 0.  1.
         21    1    1    2  503  501 -0.21279446744E+02 -0.86259305830E+01 -0.44570387110E+01  0.23389885127E+02  0.00000000000E+00 0.  1.
         21    1    1    2  504  502  0.21279446744E+02  0.86259305830E+01 -0.11760376676E+04  0.11762617979E+04  0.00000000000E+00 0.  1.
</event>
<event>
 4    1  0.3183954E+006  0.2173053E+02  0.7546771E-02  0.1509085E+00
         21   -1    0    0  503  501  0.00000000000E+00  0.00000000000E+00  0.32735345886E+03  0.32735345886E+03  0.00000000000E+00 0. -1.
         21   -1    0    0  504  502 -0.00000000000E+00 -0.00000000000E+00 -0.15967414628E+01  0.15967414628E+01  0.00000000000E+00 0. -1.
         21    1    1    2  503  502  0.10634876675E+02 -0.18950337283E+02  0.21399317193E+03  0.21509368545E+03  0.00000000000E+00 0. -1.
         21    1    1    2  504  501 -0.10634876675E+02  0.18950337283E+02  0.11176354546E+03  0.11385651487E+03  0.00000000000E+00 0. -1.
</event>
<event>
 4    1  0.3183954E+006  0.3774303E+02  0.7546771E-02  0.1362244E+00
         21   -1    0    0  503  501  0.00000000000E+00  0.00000000000E+00  0.83112438762E+03  0.83112438762E+03  0.00000000000E+00 0.  1.
         21   -1    0    0  504  502 -0.00000000000E+00 -0.00000000000E+00 -0.20527720621E+01  0.20527720621E+01  0.00000000000E+00 0. -1.
         21    1    1    2  503  502  0.59475361907E+01  0.37271480300E+02  0.24529733572E+03  0.24818404329E+03  0.00000000000E+00 0. -1.
         21    1    1    2  504  501 -0.59475361907E+01 -0.37271480300E+02  0.58377427983E+03  0.58499311639E+03  0.00000000000E+00 0.  1.
</event>
<event>
 4    1  0.3183954E+006  0.2482950E+02  0.7546771E-02  0.1470720E+00
         21   -1    0    0  502  501  0.00000000000E+00  0.00000000000E+00  0.12601660666E+02  0.12601660666E+02  0.00000000000E+00 0. -1.
         21   -1    0    0  503  502 -0.00000000000E+00 -0.00000000000E+00 -0.68057572103E+02  0.68057572103E+02  0.00000000000E+00 0. -1.
         21    1    1    2  503  504 -0.98531954764E+01  0.22790751862E+02 -0.49112585608E+02  0.55032262325E+02  0.00000000000E+00 0. -1.
         21    1    1    2  504  501  0.98531954764E+01 -0.22790751862E+02 -0.63433258288E+01  0.25626970443E+02  0.00000000000E+00 0. -1.
</event>
<event>
 4    1  0.3183954E+006  0.2682238E+02  0.7546771E-02  0.1449401E+00
         21   -1    0    0  503  501  0.00000000000E+00  0.00000000000E+00  0.31825042547E+02  0.31825042547E+02  0.00000000000E+00 0.  1.
         21   -1    0    0  504  502 -0.00000000000E+00 -0.00000000000E+00 -0.46847690903E+02  0.46847690903E+02  0.00000000000E+00 0.  1.
         21    1    1    2  503  502 -0.21779541603E+02  0.15655408552E+02 -0.35807690203E+02  0.44739590153E+02  0.00000000000E+00 0.  1.
         21    1    1    2  504  501  0.21779541603E+02 -0.15655408552E+02  0.20785041848E+02  0.33933143296E+02  0.00000000000E+00 0.  1.
</event>
<event>
 4    1  0.3183954E+006  0.3092644E+02  0.7546771E-02  0.1411713E+00
         21   -1    0    0  503  501  0.00000000000E+00  0.00000000000E+00  0.86076663697E+02  0.86076663697E+02  0.00000000000E+00 0. -1.
         21   -1    0    0  501  502 -0.00000000000E+00 -0.00000000000E+00 -0.38830144149E+03  0.38830144149E+03  0.00000000000E+00 0. -1.
         21    1    1    2  503  504 -0.12728336707E+02 -0.28185702771E+02  0.82658359248E+02  0.88254454559E+02  0.00000000000E+00 0. -1.
         21    1    1    2  504  502  0.12728336707E+02  0.28185702771E+02 -0.38488313704E+03  0.38612365063E+03  0.00000000000E+00 0. -1.
</event>
<event>
 4    1  0.3183954E+006  0.2251884E+02  0.7546771E-02  0.1498630E+00
         21   -1    0    0  502  501  0.00000000000E+00  0.00000000000E+00  0.15605356269E+02  0.15605356269E+02  0.00000000000E+00 0. -1.
         21   -1    0    0  504  502 -0.00000000000E+00 -0.00000000000E+00 -0.72695674303E+02  0.72695674303E+02  0.00000000000E+00 0. -1.
         21    1    1    2  503  501 -0.16358365915E+01  0.22459343107E+02  0.42868507171E+01  0.22923244605E+02  0.00000000000E+00 0. -1.
         21    1    1    2  504  503  0.16358365915E+01 -0.22459343107E+02 -0.61377168751E+02  0.65377785967E+02  0.00000000000E+00 0. -1.
</event>
<event>
 4    1  0.3183954E+006  0.2237964E+02  0.7546771E-02  0.1500439E+00
         21   -1    0    0  504  501  0.00000000000E+00  0.00000000000E+00  0.31932979830E+02  0.31932979830E+02  0.00000000000E+00 0. -1.
         21   -1    0    0  503  502 -0.00000000000E+00 -0.00000000000E+00 -0.25131929456E+02  0.25131929456E+02  0.00000000000E+00 0.  1.
         21    1    1    2  503  501 -0.20582862610E+02 -0.87860045746E+01 -0.14093366787E+02  0.26447515895E+02  0.00000000000E+00 0.  1.
         21    1    1    2  504  502  0.20582862610E+02  0.87860045746E+01  0.20894417160E+02  0.30617393391E+02  0.00000000000E+00 0. -1.
</event>
<event>
 4    1  0.3183954E+006  0.2160013E+02  0.7546771E-02  0.1510866E+00
         21   -1    0    0  504  501  0.00000000000E+00  0.00000000000E+00  0.94405729372E+02  0.94405729372E+02  0.00000000000E+00 0. -1.
         21   -1    0    0  503  502 -0.00000000000E+00 -0.00000000000E+00 -0.21602290223E+03  0.21602290223E+03  0.00000000000E+00 0.  1.
         21    1    1    2  503  501  0.37600197303E+01 -0.21270351167E+02  0.92619974490E+02  0.95105337714E+02  0.00000000000E+00 0. -1.
         21    1    1    2  504  502 -0.37600197303E+01  0.21270351167E+02 -0.21423714735E+03  0.21532329389E+03  0.00000000000E+00 0.  1.
</event>
<event>
 4    1  0.3183954E+006  0.2873702E+02  0.7546771E-02  0.1430899E+00
         21   -1    0    0  504  501  0.00000000000E+00  0.00000000000E+00  0.18659976402E+02  0.18659976402E+02  0.00000000000E+00 0. -1.
         21   -1    0    0  503  502 -0.00000000000E+00 -0.00000000000E+00 -0.12696271834E+04  0.12696271834E+04  0.00000000000E+00 0. -1.
         21    1    1    2  503  501  0.28588669553E+02  0.29161890937E+01 -0.12583009938E+04  0.12586290983E+04  0.00000000000E+00 0. -1.
         21    1    1    2  504  502 -0.28588669553E+02 -0.29161890937E+01  0.73337867380E+01  0.29658061527E+02  0.00000000000E+00 0. -1.
</event>
<event>
 4    1  0.3183954E+006  0.3284093E+02  0.7546771E-02  0.1396412E+00
         21   -1    0    0  504  501  0.00000000000E+00  0.00000000000E+00  0.51028918982E+02  0.51028918982E+02  0.00000000000E+00 0.  1.
         21   -1    0    0  503  502 -0.00000000000E+00 -0.00000000000E+00 -0.26878506168E+02  0.26878506168E+02  0.00000000000E+00 0.  1.
         21    1    1    2  503  501  0.23427874458E+02 -0.23014370784E+02  0.30081003059E+02  0.44535304077E+02  0.00000000000E+00 0.  1.
         21    1    1    2  504  502 -0.23427874458E+02  0.23014370784E+02 -0.59305902447E+01  0.33372121072E+02  0.00000000000E+00 0.  1.
</event>
<event>
 4    1  0.3183954E+006  0.2746725E+02  0.7546771E-02  0.1442970E+00
         21   -1    0    0  503  501  0.00000000000E+00  0.00000000000E+00  0.71195552759E+03  0.71195552759E+03  0.00000000000E+00 0. -1.
         21   -1    0    0  501  502 -0.00000000000E+00 -0.00000000000E+00 -0.11416074642E+01  0.11416074642E+01  0.00000000000E+00 0. -1.
         21    1    1    2  503  504 -0.25261184411E+02  0.10785293055E+02  0.45091867023E+03  0.45175446555E+03  0.00000000000E+00 0. -1.
         21    1    1    2  504  502  0.25261184411E+02 -0.10785293055E+02  0.25989524990E+03  0.26134266951E+03  0.00000000000E+00 0. -1.
</event>
<event>
 4    1  0.3183954E+006  0.2122582E+02  0.7546771E-02  0.1516065E+00
         21   -1    0    0  504  501  0.00000000000E+00  0.00000000000E+00  0.47975198874E+01  0.47975198874E+01  0.00000000000E+00 0. -1.
         21   -1    0    0  503  502 -0.00000000000E+00 -0.00000000000E+00 -0.23860089170E+03  0.23860089170E+03  0.00000000000E+00 0. -1.
         21    1    1    2  503  501  0.75054287905E+01 -0.19854574533E+02 -0.21167196365E+03  0.21273353235E+03  0.00000000000E+00 0. -1.
         21    1    1    2  504  502 -0.75054287905E+01  0.19854574533E+02 -0.22131408158E+02  0.30664879232E+02  0.00000000000E+00 0. -1.
</event>
<event>
 4    1  0.3183954E+006  0.2577484E+02  0.7546771E-02  0.1460319E+00
         21   -1    0    0  504  501  0.00000000000E+00  0.00000000000E+00  0.21806956829E+03  0.21806956829E+03  0.00000000000E+00 0. -1.
         21   -1    0    0  503  502 -0.00000000000E+00 -0.00000000000E+00 -0.33615327309E+01  0.33615327309E+01  0.00000000000E+00 0. -1.
         21    1    1    2  503  501 -0.61871028738E+01  0.25021229924E+02  0.14124929016E+03  0.14358169855E+03  0.00000000000E+00 0. -1.
         21    1    1    2  504  502  0.61871028738E+01 -0.25021229924E+02  0.73458745396E+02  0.77849402464E+02  0.00000000000E+00 0. -1.
</event>
<event>
 4    1  0.3183954E+006  0.2175840E+02  0.7546771E-02  0.1508707E+00
         21   -1    0    0  502  501  0.00000000000E+00  0.00000000000E+00  0.68138744102E+02  0.68138744102E+02  0.00000000000E+00 0.  1.
         21   -1    0    0  504  502 -0.00000000000E+00 -0.00000000000E+00 -0.74178796649E+01  0.74178796649E+01  0.00000000000E+00 0.  1.
         21    1    1    2  503  501  0.21263046159E+02  0.46163488518E+01  0.39868608785E+02  0.45419530768E+02  0.00000000000E+00 0.  1.
         21    1    1    2  504  503 -0.21263046159E+02 -0.46163488518E+01  0.20852255652E+02  0.30137092999E+02  0.00000000000E+00 0.  1.
</event>
<event>
 4    1  0.3183954E+006  0.2049276E+02  0.7546771E-02  0.1526632E+00
         21   -1    0    0  504  501  0.00000000000E+00  0.00000000000E+00  0.41268434750E+02  0.41268434750E+02  0.00000000000E+00 0.  1.
         21   -1    0    0  501  502 -0.00000000000E+00 -0.00000000000E+00 -0.11697818134E+03  0.11697818134E+03  0.00000000000E+00 0.  1.
         21    1    1    2  503  502 -0.95831328922E+01  0.18113989737E+02 -0.11345835493E+03  0.11529419484E+03  0.00000000000E+00 0.  1.
         21    1    1    2  504  503  0.95831328922E+01 -0.18113989737E+02  0.37748608337E+02  0.42952421254E+02  0.00000000000E+00 0.  1.
</event>
<event>
 4    1  0.3183954E+006  0.2787282E+02  0.7546771E-02  0.1439032E+00
         21   -1    0    0  504  501  0.00000000000E+00  0.00000000000E+00  0.38227203475E+01  0.38227203475E+01  0.00000000000E+00 0.  1.
         21   -1    0    0  503  502 -0.00000000000E+00 -0.00000000000E+00 -0.45462493264E+03  0.45462493264E+03  0.00000000000E+00 0.  1.
         21    1    1    2  503  501  0.88479243008E+01  0.26431196135E+02 -0.39585653675E+03  0.39683660565E+03  0.00000000000E+00 0.  1.
         21    1    1    2  504  502 -0.88479243008E+01 -0.26431196135E+02 -0.54945675540E+02  0.61611047338E+02  0.00000000000E+00 0.  1.
</event>
<event>
 4    1  0.3183954E+006  0.2033702E+02  0.7546771E-02  0.1528945E+00
         21   -1    0    0  502  501  0.00000000000E+00  0.00000000000E+00  0.31359294402E+02  0.31359294402E+02  0.00000000000E+00 0. -1.
         21   -1    0    0  504  502 -0.00000000000E+00 -0.00000000000E+00 -0.24745607106E+02  0.24745607106E+02  0.00000000000E+00 0.  1.
         21    1    1    2  503  501  0.16881679058E+02  0.11340340527E+02  0.22477585419E+02  0.30312311976E+02  0.00000000000E+00 0. -1.
         21    1    1    2  504  503 -0.16881679058E+02 -0.11340340527E+02 -0.15863898123E+02  0.25792589531E+02  0.00000000000E+00 0.  1.
</event>
<event>
 4    1  0.3183954E+006  0.2145160E+02  0.7546771E-02  0.1512914E+00
         21   -1    0    0  503  501  0.00000000000E+00  0.00000000000E+00  0.58866457022E+03  0.58866457022E+03  0.00000000000E+00 0. -1.
         21   -1    0    0  504  502 -0.00000000000E+00 -0.00000000000E+00 -0.13560123859E+01  0.13560123859E+01  0.00000000000E+00 0. -1.
         21    1    1    2  503  502 -0.19580682020E+02  0.87617288334E+01  0.48564126114E+03  0.48611480693E+03  0.00000000000E+00 0. -1.
         21    1    1    2  504  501  0.19580682020E+02 -0.87617288334E+01  0.10166729669E+03  0.10390577567E+03  0.00000000000E+00 0. -1.
</event>
<event>
 4    1  0.3183954E+006  0.2093206E+02  0.7546771E-02  0.1520237E+00
         21   -1    0    0  503  501  0.00000000000E+00  0.00000000000E+00  0.21262288608E+03  0.21262288608E+03  0.00000000000E+00 0. -1.
         21   -1    0    0  504  502 -0.00000000000E+00 -0.00000000000E+00 -0.25702518985E+01  0.25702518985E+01  0.00000000000E+00 0.  1.
         21    1    1    2  503  502 -0.20874096034E+02  0.15566366402E+01  0.57118459303E+02  0.60833127455E+02  0.00000000000E+00 0.  1.
         21    1    1    2  504  501  0.20874096034E+02 -0.15566366402E+01  0.15293417487E+03  0.15436001052E+03  0.00000000000E+00 0. -1.
</event>
<event>
 4    1  0.3183954E+006  0.3736931E+02  0.7546771E-02  0.1364632E+00
         21   -1    0    0  504  501  0.00000000000E+00  0.00000000000E+00  0.37127319701E+02  0.37127319701E+02  0.00000000000E+00 0. -1.
         21   -1    0    0  503  502 -0.00000000000E+00 -0.00000000000E+00 -0.22223889219E+03  0.22223889219E+03  0.00000000000E+00 0.  1.
         21    1    1    2  503  501  0.22245425085E+02  0.30026764711E+02 -0.21075642206E+03  0.21404376883E+03  0.00000000000E+00 0.  1.
         21    1    1    2  504  502 -0.22245425085E+02 -0.30026764711E+02  0.25644849565E+02  0.45322443065E+02  0.00000000000E+00 0. -1.
</event>
<event>
 4    1  0.3183954E+006  0.4511042E+02  0.7546771E-02  0.1320888E+00
         21   -1    0    0  504  501  0.00000000000E+00  0.00000000000E+00  0.41298046927E+01  0.41298046927E+01  0.00000000000E+00 0.  1.
         21   -1    0    0  503  502 -0.00000000000E+00 -0.00000000000E+00 -0.10155969991E+04  0.10155969991E+04  0.00000000000E+00 0.  1.
         21    1    1    2  503  501  0.45110001401E+02 -0.19397627138E+00 -0.87156551364E+03  0.87273214357E+03  0.00000000000E+00 0.  1.
         21    1    1    2  504  502 -0.45110001401E+02  0.19397627138E+00 -0.13990168081E+03  0.14699466026E+03  0.00000000000E+00 0.  1.
</event>
<event>
 4    1  0.3183954E+006  0.2200326E+02  0.7546771E-02  0.1505408E+00
         21   -1    0    0  504  501  0.00000000000E+00  0.00000000000E+00  0.19490161325E+02  0.19490161325E+02  0.00000000000E+00 0. -1.
         21   -1    0    0  503  502 -0.00000000000E+00 -0.00000000000E+00 -0.29001442586E+02  0.29001442586E+02  0.00000000000E+00 0.  1.
         21    1    1    2  503  501 -0.24604389427E+01 -0.21865259353E+02 -0.13939559518E+02  0.26047161955E+02  0.00000000000E+00 0.  1.
         21    1    1    2  504  502  0.24604389427E+01  0.21865259353E+02  0.44282782570E+01  0.22444441955E+02  0.00000000000E+00 0. -1.
</event>
<event>
 4    1  0.3183954E+006  0.3161159E+02  0.7546771E-02  0.1406090E+00
         21   -1    0    0  503  501  0.00000000000E+00  0.00000000000E+00  0.98658868557E+01  0.98658868557E+01  0.00000000000E+00 0.  1.
         21   -1    0    0  504  502 -0.00000000000E+00 -0.00000000000E+00 -0.10209804707E+03  0.10209804707E+03  0.00000000000E+00 0.  1.
         21    1    1    2  503  502  0.33722672350E+01 -0.31431202442E+02 -0.51103587142E+02  0.60090509168E+02  0.00000000000E+00 0.  1.
         21    1    1    2  504  501 -0.33722672350E+01  0.31431202442E+02 -0.41128573076E+02  0.51873424762E+02  0.00000000000E+00 0.  1.
</event>
<event>
 4    1  0.3183954E+006  0.2727886E+02  0.7546771E-02  0.1444827E+00
         21   -1    0    0  502  501  0.00000000000E+00  0.00000000000E+00  0.80098093934E+02  0.80098093934E+02  0.00000000000E+00 0. -1.
         21   -1    0    0  504  502 -0.00000000000E+00 -0.00000000000E+00 -0.26258945185E+02  0.26258945185E+02  0.00000000000E+00 0. -1.
         21    1    1    2  503  501 -0.27232304110E+02  0.15931268846E+01  0.69668087148E+02  0.74818305295E+02  0.00000000000E+00 0. -1.
         21    1    1    2  504  503  0.27232304110E+02 -0.15931268846E+01 -0.15828938398E+02  0.31538733824E+02  0.00000000000E+00 0. -1.
</event>
<event>
 4    1  0.3183954E+006  0.3390172E+02  0.7546771E-02  0.1388453E+00
         21   -1    0    0  504  501  0.00000000000E+00  0.00000000000E+00  0.17838651573E+02  0.17838651573E+02  0.00000000000E+00 0. -1.
         21   -1    0    0  503  502 -0.00000000000E+00 -0.00000000000E+00 -0.70581837703E+02  0.70581837703E+02  0.00000000000E+00 0. -1.
         21    1    1    2  503  501 -0.24875187799E+02  0.23033702655E+02 -0.13318474642E+02  0.36424005722E+02  0.00000000000E+00 0. -1.
         21    1    1    2  504  502  0.24875187799E+02 -0.23033702655E+02 -0.39424711488E+02  0.51996483554E+02  0.00000000000E+00 0. -1.
</event>
<event>
 4    1  0.3183954E+006  0.2276082E+02  0.7546771E-02  0.1495524E+00
         21   -1    0    0  503  501  0.00000000000E+00  0.00000000000E+00  0.26829383133E+01  0.26829383133E+01  0.00000000000E+00 0. -1.
         21   -1    0    0  501  502 -0.00000000000E+00 -0.00000000000E+00 -0.20961362260E+03  0.20961362260E+03  0.00000000000E+00 0. -1.
         21    1    1    2  503  504 -0.50859200656E+01  0.22185314883E+02 -0.73664717063E+02  0.77100877552E+02  0.00000000000E+00 0. -1.
         21    1    1    2  504  502  0.50859200656E+01 -0.22185314883E+02 -0.13326596722E+03  0.13519568336E+03  0.00000000000E+00 0. -1.
</event>
<event>
 4    1  0.3183954E+006  0.3493533E+02  0.7546771E-02  0.1381018E+00
         21   -1    0    0  504  501  0.00000000000E+00  0.00000000000E+00  0.62227714055E+03  0.62227714055E+03  0.00000000000E+00 0. -1.
         21   -1    0    0  501  502 -0.00000000000E+00 -0.00000000000E+00 -0.12223540130E+02  0.12223540130E+02  0.00000000000E+00 0.  1.
         21    1    1    2  503  502  0.28029765398E+02 -0.20852085199E+02  0.14340536392E+02  0.37764112453E+02  0.00000000000E+00 0.  1.
         21    1    1    2  504  503 -0.28029765398E+02  0.20852085199E+02  0.59571306403E+03  0.59673656823E+03  0.00000000000E+00 0. -1.
</event>
<event>
 4    1  0.3183954E+006  0.2477792E+02  0.7546771E-02  0.1471303E+00
         21   -1    0    0  503  501  0.00000000000E+00  0.00000000000E+00  0.60350487706E+02  0.60350487706E+02  0.00000000000E+00 0. -1.
         21   -1    0    0  504  502 -0.00000000000E+00 -0.00000000000E+00 -0.13740981897E+02  0.13740981897E+02  0.00000000000E+00 0. -1.
         21    1    1    2  503  502  0.13971169472E+02  0.20463419704E+02  0.44274022490E+01  0.25170359812E+02  0.00000000000E+00 0. -1.
         21    1    1    2  504  501 -0.13971169472E+02 -0.20463419704E+02  0.42182103560E+02  0.48921109791E+02  0.00000000000E+00 0. -1.
</event>
<event>
 4    1  0.3183954E+006  0.3033296E+02  0.7546771E-02  0.1416725E+00
         21   -1    0    0  504  501  0.00000000000E+00  0.00000000000E+00  0.39418208366E+03  0.39418208366E+03  0.00000000000E+00 0.  1.
         21   -1    0    0  503  502 -0.00000000000E+00 -0.00000000000E+00 -0.31780489613E+01  0.31780489613E+01  0.00000000000E+00 0.  1.
         21    1    1    2  503  501  0.66119428430E+01 -0.29603556494E+02  0.29788171793E+03  0.29942212047E+03  0.00000000000E+00 0.  1.
         21    1    1    2  504  502 -0.66119428430E+01  0.29603556494E+02  0.93122316768E+02  0.97938012159E+02  0.00000000000E+00 0.  1.
</event>
<event>
 4    1  0.3183954E+006  0.3331063E+02  0.7546771E-02  0.1392845E+00
         21   -1    0    0  504  501  0.00000000000E+00  0.00000000000E+00  0.12340717112E+02  0.12340717112E+02  0.00000000000E+00 0. -1.
         21   -1    0    0  503  502 -0.00000000000E+00 -0.00000000000E+00 -0.14450719458E+03  0.14450719458E+03  0.00000000000E+00 0.  1.
         21    1    1    2  503  501  0.12037521945E+02 -0.31059559987E+02 -0.11428632971E+03  0.11904185550E+03  0.00000000000E+00 0.  1.
         21    1    1    2  504  502 -0.12037521945E+02  0.31059559987E+02 -0.17880147756E+02  0.37806056194E+02  0.00000000000E+00 0. -1.
</event>
<event>
 4    1  0.3183954E+006  0.2647958E+02  0.7546771E-02  0.1452907E+00
         21   -1    0    0  504  501  0.00000000000E+00  0.00000000000E+00  0.24451938701E+03  0.24451938701E+03  0.00000000000E+00 0. -1.
         21   -1    0    0  503  502 -0.00000000000E+00 -0.00000000000E+00 -0.48131325092E+01  0.48131325092E+01  0.00000000000E+00 0.  1.
         21    1    1    2  503  501  0.25314553867E+02 -0.77679835131E+01  0.40591792334E+02  0.48465057621E+02  0.00000000000E+00 0.  1.
         21    1    1    2  504  502 -0.25314553867E+02  0.77679835131E+01  0.19911446216E+03  0.20086746189E+03  0.00000000000E+00 0. -1.
</event>
<event>
 4    1  0.3183954E+006  0.2834630E+02  0.7546771E-02  0.1434534E+00
         21   -1    0    0  502  501  0.00000000000E+00  0.00000000000E+00  0.13012303956E+02  0.13012303956E+02  0.00000000000E+00 0.  1.
         21   -1    0    0  503  502 -0.00000000000E+00 -0.00000000000E+00 -0.80016620394E+02  0.80016620394E+02  0.00000000000E+00 0.  1.
         21    1    1    2  503  504 -0.13513860438E+02 -0.24917632545E+02 -0.55726259217E+02  0.62521426742E+02  0.00000000000E+00 0.  1.
         21    1    1    2  504  501  0.13513860438E+02  0.24917632545E+02 -0.11278057221E+02  0.30507497607E+02  0.00000000000E+00 0.  1.
</event>
<event>
 4    1  0.3183954E+006  0.3567691E+02  0.7546771E-02  0.1375866E+00
         21   -1    0    0  503  501  0.00000000000E+00  0.00000000000E+00  0.11511531978E+02  0.11511531978E+02  0.00000000000E+00 0. -1.
         21   -1    0    0  504  502 -0.00000000000E+00 -0.00000000000E+00 -0.11475587987E+03  0.11475587987E+03  0.00000000000E+00 0. -1.
         21    1    1    2  503  502 -0.11380686607E+02  0.33813045369E+02 -0.39565896797E+02  0.53275719180E+02  0.00000000000E+00 0. -1.
         21    1    1    2  504  501  0.11380686607E+02 -0.33813045369E+02 -0.63678451098E+02  0.72991692671E+02  0.00000000000E+00 0. -1.
</event>
<event>
 4    1  0.3183954E+006  0.2907117E+02  0.7546771E-02  0.1427843E+00
         21   -1    0    0  502  501  0.00000000000E+00  0.00000000000E+00  0.46899365847E+03  0.46899365847E+03  0.00000000000E+00 0. -1.
         21   -1    0    0  503  502 -0.00000000000E+00 -0.00000000000E+00 -0.10547846149E+02  0.10547846149E+02  0.00000000000E+00 0.  1.
         21    1    1    2  503  504 -0.29009634611E+02  0.18904558409E+01  0.10892157663E+02  0.31044674618E+02  0.00000000000E+00 0.  1.
         21    1    1    2  504  501  0.29009634611E+02 -0.18904558409E+01  0.44755365466E+03  0.44849683000E+03  0.00000000000E+00 0. -1.
</event>
<event>
 4    1  0.3183954E+006  0.6514067E+02  0.7546771E-02  0.1243300E+00
         21   -1    0    0  502  501  0.00000000000E+00  0.00000000000E+00  0.17497416164E+02  0.17497416164E+02  0.00000000000E+00 0.  1.
         21   -1    0    0  504  502 -0.00000000000E+00 -0.00000000000E+00 -0.35691435298E+03  0.35691435298E+03  0.00000000000E+00 0.  1.
         21    1    1    2  503  501 -0.25986421991E+02  0.59732843273E+02 -0.63720183644E+02  0.91123918358E+02  0.00000000000E+00 0.  1.
         21    1    1    2  504  503  0.25986421991E+02 -0.59732843273E+02 -0.27569675317E+03  0.28328785079E+03  0.00000000000E+00 0.  1.
</event>
<event>
 4    1  0.3183954E+006  0.4026286E+02  0.7546771E-02  0.1346952E+00
         21   -1    0    0  503  501  0.00000000000E+00  0.00000000000E+00  0.87467294725E+02  0.87467294725E+02  0.00000000000E+00 0.  1.
         21   -1    0    0  504  502 -0.00000000000E+00 -0.00000000000E+00 -0.51792807848E+02  0.51792807848E+02  0.00000000000E+00 0.  1.
         21    1    1    2  503  502  0.43993469743E+01  0.40021791526E+02 -0.37960531119E+02  0.55336244665E+02  0.00000000000E+00 0.  1.
         21    1    1    2  504  501 -0.43993469743E+01 -0.40021791526E+02  0.73635017996E+02  0.83923857907E+02  0.00000000000E+00 0.  1.
</event>
<event>
 4    1  0.3183954E+006  0.4116315E+02  0.7546771E-02  0.1341801E+00
         21   -1    0    0  503  501  0.00000000000E+00  0.00000000000E+00  0.75251074314E+01  0.75251074314E+01  0.00000000000E+00 0. -1.
         21   -1    0    0  501  502 -0.00000000000E+00 -0.00000000000E+00 -0.13214979253E+04  0.13214979253E+04  0.00000000000E+00 0.  1.
         21    1    1    2  503  504  0.37686043923E+02  0.16557977911E+02 -0.51728969206E+02  0.66108174942E+02  0.00000000000E+00 0. -1.
         21    1    1    2  504  502 -0.37686043923E+02 -0.16557977911E+02 -0.12622438486E+04  0.12629148578E+04  0.00000000000E+00 0.  1.
</event>
