<event>
 4    1  0.1679763E+006  0.2498088E+02  0.7546771E-02  0.1469017E+00
         21   -1    0    0  503  501  0.00000000000E+00  0.00000000000E+00  0.46450013174E+02  0.46450013174E+02  0.00000000000E+00 0.  1.
         21   -1    0    0  504  502 -0.00000000000E+00 -0.00000000000E+00 -0.33617658226E+02  0.33617658226E+02  0.00000000000E+00 0.  1.
         21    1    1    2  503  502 -0.23838462537E+02  0.74680594522E+01  0.37435718746E+02  0.45005302423E+02  0.00000000000E+00 0.  1.
         21    1    1    2  504  501  0.23838462537E+02 -0.74680594522E+01 -0.24603363798E+02  0.35062368977E+02  0.00000000000E+00 0.  1.
</event>
<event>
 4    1  0.1679763E+006  0.2449570E+02  0.7546771E-02  0.1474525E+00
         21   -1    0    0  503  501  0.00000000000E+00  0.00000000000E+00  0.33769352302E+02  0.33769352302E+02  0.00000000000E+00 0. -1.
         21   -1    0    0  504  502 -0.00000000000E+00 -0.00000000000E+00 -0.27798148567E+03  0.27798148567E+03  0.00000000000E+00 0.  1.
         21    1    1    2  503  502 -0.14156040142E+02  0.19991145843E+02 -0.27291739572E+03  0.27401449646E+03  0.00000000000E+00 0.  1.
         21    1    1    2  504  501  0.14156040142E+02 -0.19991145843E+02  0.28705262346E+02  0.37736341516E+02  0.00000000000E+00 0. -1.
</event>
<event>
 4    1  0.1679763E+006  0.2569252E+02  0.7546771E-02  0.1461203E+00
         21   -1    0    0  504  501  0.00000000000E+00  0.00000000000E+00  0.93844797325E+02  0.93844797325E+02  0.00000000000E+00 0.  1.
         21   -1    0    0  501  502 -0.00000000000E+00 -0.00000000000E+00 -0.13014090165E+03  0.13014090165E+03  0.00000000000E+00 0.  1.
         21    1    1    2  503  502  0.25642088070E+02  0.16090657721E+01 -0.12707229810E+03  0.12964364511E+03  0.00000000000E+00 0.  1.
         21    1    1    2  504  503 -0.25642088070E+02 -0.16090657721E+01  0.90776193769E+02  0.94342053870E+02  0.00000000000E+00 0.  1.
</event>
<event>
 4    1  0.1679763E+006  0.2158758E+02  0.7546771E-02  0.1511039E+00
         21   -1    0    0  503  501  0.00000000000E+00  0.00000000000E+00  0.96941739185E+01  0.96941739185E+01  0.00000000000E+00 0. -1.
         21   -1    0    0  501  502 -0.00000000000E+00 -0.00000000000E+00 -0.78321086992E+02  0.78321086992E+02  0.00000000000E+00 0.  1.
         21    1    1    2  503  504 -0.19719794491E+02 -0.87836868169E+01 -0.69644864813E+01  0.22683199087E+02  0.00000000000E+00 0. -1.
         21    1    1    2  504  502  0.19719794491E+02  0.87836868169E+01 -0.61662426592E+02  0.65332061823E+02  0.00000000000E+00 0.  1.
</event>
<event>
 4    1  0.1679763E+006  0.2012271E+02  0.7546771E-02  0.1532168E+00
         21   -1    0    0  502  501  0.00000000000E+00  0.00000000000E+00  0.18240605810E+03  0.18240605810E+03  0.00000000000E+00 0.  1.
         21   -1    0    0  504  502 -0.00000000000E+00 -0.00000000000E+00 -0.40288250132E+01  0.40288250132E+01  0.00000000000E+00 0.  1.
         21    1    1    2  503  501  0.11707769785E+02  0.16366167465E+02  0.15165094810E+03  0.15298017313E+03  0.00000000000E+00 0.  1.
         21    1    1    2  504  503 -0.11707769785E+02 -0.16366167465E+02  0.26726284979E+02  0.33454709977E+02  0.00000000000E+00 0.  1.
</event>
<event>
 4    1  0.1679763E+006  0.2344099E+02  0.7546771E-02  0.1487034E+00
         21   -1    0    0  503  501  0.00000000000E+00  0.00000000000E+00  0.16714083610E+02  0.16714083610E+02  0.00000000000E+00 0. -1.
         21   -1    0    0  504  502 -0.00000000000E+00 -0.00000000000E+00 -0.95608334471E+02  0.95608334471E+02  0.00000000000E+00 0. -1.
         21    1    1    2  503  502  0.20139776924E+02  0.11994556860E+02  0.60450624894E+01  0.24207907579E+02  0.00000000000E+00 0. -1.
         21    1    1    2  504  501 -0.20139776924E+02 -0.11994556860E+02 -0.84939313350E+02  0.88114510503E+02  0.00000000000E+00 0. -1.
</event>
<event>
 4    1  0.1679763E+006  0.2519990E+02  0.7546771E-02  0.1466579E+00
         21   -1    0    0  503  501  0.00000000000E+00  0.00000000000E+00  0.19787192619E+02  0.19787192619E+02  0.00000000000E+00 0.  1.
         21   -1    0    0  504  502 -0.00000000000E+00 -0.00000000000E+00 -0.33857532586E+02  0.33857532586E+02  0.00000000000E+00 0. -1.
         21    1    1    2  503  502 -0.13347396097E+02  0.21374796476E+02 -0.91228619556E+00  0.25216406823E+02  0.00000000000E+00 0. -1.
         21    1    1    2  504  501  0.13347396097E+02 -0.21374796476E+02 -0.13158053771E+02  0.28428318381E+02  0.00000000000E+00 0.  1.
</event>
<event>
 4    1  0.1679763E+006  0.2223803E+02  0.7546771E-02  0.1502295E+00
         21   -1    0    0  503  501  0.00000000000E+00  0.00000000000E+00  0.89306833407E+01  0.89306833407E+01  0.00000000000E+00 0. -1.
         21   -1    0    0  504  502 -0.00000000000E+00 -0.00000000000E+00 -0.62743009717E+03  0.62743009717E+03  0.00000000000E+00 0. -1.
         21    1    1    2  503  502  0.16260576244E+02 -0.15169820037E+02 -0.54341867276E+01  0.22892360410E+02  0.00000000000E+00 0. -1.
         21    1    1    2  504  501 -0.16260576244E+02  0.15169820037E+02 -0.61306522710E+03  0.61346842010E+03  0.00000000000E+00 0. -1.
</event>
<event>
 4    1  0.1679763E+006  0.2609945E+02  0.7546771E-02  0.1456870E+00
         21   -1    0    0  503  501  0.00000000000E+00  0.00000000000E+00  0.20326615864E+03  0.20326615864E+03  0.00000000000E+00 0.  1.
         21   -1    0    0  504  502 -0.00000000000E+00 -0.00000000000E+00 -0.36593458850E+01  0.36593458850E+01  0.00000000000E+00 0.  1.
         21    1    1    2  503  502 -0.94210679168E+01 -0.24339778099E+02  0.69778949878E+02  0.74500222582E+02  0.00000000000E+00 0.  1.
         21    1    1    2  504  501  0.94210679168E+01  0.24339778099E+02  0.12982786288E+03  0.13242528194E+03  0.00000000000E+00 0.  1.
</event>
<event>
 4    1  0.1679763E+006  0.2510822E+02  0.7546771E-02  0.1467596E+00
         21   -1    0    0  503  501  0.00000000000E+00  0.00000000000E+00  0.63624943456E+01  0.63624943456E+01  0.00000000000E+00 0. -1.
         21   -1    0    0  501  502 -0.00000000000E+00 -0.00000000000E+00 -0.18192745796E+03  0.18192745796E+03  0.00000000000E+00 0.  1.
         21    1    1    2  503  504 -0.25107747085E+02  0.15399915235E+00 -0.24252811423E+02  0.34908760238E+02  0.00000000000E+00 0. -1.
         21    1    1    2  504  502  0.25107747085E+02 -0.15399915235E+00 -0.15131215219E+03  0.15338119207E+03  0.00000000000E+00 0.  1.
</event>
<event>
 4    1  0.1679763E+006  0.2074547E+02  0.7546771E-02  0.1522930E+00
         21   -1    0    0  502  501  0.00000000000E+00  0.00000000000E+00  0.10826379714E+03  0.10826379714E+03  0.00000000000E+00 0. -1.
         21   -1    0    0  504  502 -0.00000000000E+00 -0.00000000000E+00 -0.14117840819E+02  0.14117840819E+02  0.00000000000E+00 0. -1.
         21    1    1    2  503  501 -0.14125232812E+02  0.15193822784E+02  0.98938268889E+02  0.10108983877E+03  0.00000000000E+00 0. -1.
         21    1    1    2  504  503  0.14125232812E+02 -0.15193822784E+02 -0.47923125676E+01  0.21291799185E+02  0.00000000000E+00 0. -1.
</event>
<event>
 4    1  0.1679763E+006  0.2487823E+02  0.7546771E-02  0.1470170E+00
         21   -1    0    0  503  501  0.00000000000E+00  0.00000000000E+00  0.33207995958E+02  0.33207995958E+02  0.00000000000E+00 0.  1.
         21   -1    0    0  504  502 -0.00000000000E+00 -0.00000000000E+00 -0.53650388929E+02  0.53650388929E+02  0.00000000000E+00 0. -1.
         21    1    1    2  503  502 -0.25279802296E+01  0.24749461889E+02  0.24862629697E+02  0.35172104050E+02  0.00000000000E+00 0.  1.
         21    1    1    2  504  501  0.25279802296E+01 -0.24749461889E+02 -0.45305022668E+02  0.51686280837E+02  0.00000000000E+00 0. -1.
</event>
<event>
 4    1  0.1679763E+006  0.2337351E+02  0.7546771E-02  0.1487861E+00
         21   -1    0    0  504  501  0.00000000000E+00  0.00000000000E+00  0.11345352777E+02  0.11345352777E+02  0.00000000000E+00 0. -1.
         21   -1    0    0  503  502 -0.00000000000E+00 -0.00000000000E+00 -0.50372111807E+02  0.50372111807E+02  0.00000000000E+00 0.  1.
         21    1    1    2  503  501 -0.22852503798E+02 -0.49075370145E+01 -0.13037438007E+02  0.26763700028E+02  0.00000000000E+00 0. -1.
         21    1    1    2  504  502  0.22852503798E+02  0.49075370145E+01 -0.25989321023E+02  0.34953764556E+02  0.00000000000E+00 0.  1.
</event>
<event>
 4    1  0.1679763E+006  0.2478001E+02  0.7546771E-02  0.1471280E+00
         21   -1    0    0  504  501  0.00000000000E+00  0.00000000000E+00  0.49947059936E+02  0.49947059936E+02  0.00000000000E+00 0. -1.
         21   -1    0    0  501  502 -0.00000000000E+00 -0.00000000000E+00 -0.12789892739E+03  0.12789892739E+03  0.00000000000E+00 0. -1.
         21    1    1    2  503  502 -0.21228696987E+02  0.12782463067E+02 -0.12351721096E+03  0.12597837252E+03  0.00000000000E+00 0. -1.
         21    1    1    2  504  503  0.21228696987E+02 -0.12782463067E+02  0.45565343505E+02  0.51867614814E+02  0.00000000000E+00 0. -1.
</event>
<event>
 4    1  0.1679763E+006  0.3493994E+02  0.7546771E-02  0.1380986E+00
         21   -1    0    0  504  501  0.00000000000E+00  0.00000000000E+00  0.30870484670E+03  0.30870484670E+03  0.00000000000E+00 0. -1.
         21   -1    0    0  503  502 -0.00000000000E+00 -0.00000000000E+00 -0.59804303947E+01  0.59804303947E+01  0.00000000000E+00 0.  1.
         21    1    1    2  503  501 -0.33751480943E+02 -0.90353251671E+01  0.24293856335E+03  0.24543827152E+03  0.00000000000E+00 0. -1.
         21    1    1    2  504  502  0.33751480943E+02  0.90353251671E+01  0.59785852956E+02  0.69247005570E+02  0.00000000000E+00 0.  1.
</event>
<event>
 4    1  0.1679763E+006  0.2063311E+02  0.7546771E-02  0.1524568E+00
         21   -1    0    0  504  501  0.00000000000E+00  0.00000000000E+00  0.47164325205E+02  0.47164325205E+02  0.00000000000E+00 0.  1.
         21   -1    0    0  503  502 -0.00000000000E+00 -0.00000000000E+00 -0.42862805713E+02  0.42862805713E+02  0.00000000000E+00 0.  1.
         21    1    1    2  503  501 -0.20620378437E+02 -0.72475358571E+00 -0.37843260632E+02  0.43102640869E+02  0.00000000000E+00 0.  1.
         21    1    1    2  504  502  0.20620378437E+02  0.72475358571E+00  0.42144780124E+02  0.46924490049E+02  0.00000000000E+00 0.  1.
</event>
<event>
 4    1  0.1679763E+006  0.2475189E+02  0.7546771E-02  0.1471598E+00
         21   -1    0    0  502  501  0.00000000000E+00  0.00000000000E+00  0.24647439073E+01  0.24647439073E+01  0.00000000000E+00 0. -1.
         21   -1    0    0  504  502 -0.00000000000E+00 -0.00000000000E+00 -0.25572900428E+03  0.25572900428E+03  0.00000000000E+00 0. -1.
         21    1    1    2  503  501 -0.65615995011E+01 -0.23866320456E+02 -0.10502881663E+03  0.10790601542E+03  0.00000000000E+00 0. -1.
         21    1    1    2  504  503  0.65615995011E+01  0.23866320456E+02 -0.14823544374E+03  0.15028773277E+03  0.00000000000E+00 0. -1.
</event>
<event>
 4    1  0.1679763E+006  0.2008017E+02  0.7546771E-02  0.1532814E+00
         21   -1    0    0  504  501  0.00000000000E+00  0.00000000000E+00  0.11484273459E+02  0.11484273459E+02  0.00000000000E+00 0.  1.
         21   -1    0    0  503  502 -0.00000000000E+00 -0.00000000000E+00 -0.56527761998E+02  0.56527761998E+02  0.00000000000E+00 0.  1.
         21    1    1    2  503  501  0.12237329653E+01 -0.20042845403E+02 -0.43453787893E+02  0.47869038600E+02  0.00000000000E+00 0.  1.
         21    1    1    2  504  502 -0.12237329653E+01  0.20042845403E+02 -0.15897006448E+01  0.20142996857E+02  0.00000000000E+00 0.  1.
</event>
<event>
 4    1  0.1679763E+006  0.3164169E+02  0.7546771E-02  0.1405847E+00
         21   -1    0    0  502  501  0.00000000000E+00  0.00000000000E+00  0.26939527742E+03  0.26939527742E+03  0.00000000000E+00 0.  1.
         21   -1    0    0  504  502 -0.00000000000E+00 -0.00000000000E+00 -0.98958643266E+01  0.98958643266E+01  0.00000000000E+00 0. -1.
         21    1    1    2  503  501  0.31218138184E+02  0.51599002622E+01  0.24010003049E+03  0.24217601319E+03  0.00000000000E+00 0.  1.
         21    1    1    2  504  503 -0.31218138184E+02 -0.51599002622E+01  0.19399382600E+02  0.37115128555E+02  0.00000000000E+00 0. -1.
</event>
<event>
 4    1  0.1679763E+006  0.2113776E+02  0.7546771E-02  0.1517307E+00
         21   -1    0    0  504  501  0.00000000000E+00  0.00000000000E+00  0.26203007661E+02  0.26203007661E+02  0.00000000000E+00 0. -1.
         21   -1    0    0  501  502 -0.00000000000E+00 -0.00000000000E+00 -0.66370344977E+02  0.66370344977E+02  0.00000000000E+00 0. -1.
         21    1    1    2  503  502  0.21081567494E+02 -0.15402456195E+01 -0.59983833699E+02  0.63599254318E+02  0.00000000000E+00 0. -1.
         21    1    1    2  504  503 -0.21081567494E+02  0.15402456195E+01  0.19816496383E+02  0.28974098320E+02  0.00000000000E+00 0. -1.
</event>
<event>
 4    1  0.1679763E+006  0.3221025E+02  0.7546771E-02  0.1401314E+00
         21   -1    0    0  504  501  0.00000000000E+00  0.00000000000E+00  0.15838322264E+03  0.15838322264E+03  0.00000000000E+00 0.  1.
         21   -1    0    0  501  502 -0.00000000000E+00 -0.00000000000E+00 -0.94171008261E+01  0.94171008261E+01  0.00000000000E+00 0.  1.
         21    1    1    2  503  502  0.32204125467E+02 -0.62804051745E+00  0.28193547244E+02  0.42806264006E+02  0.00000000000E+00 0.  1.
         21    1    1    2  504  503 -0.32204125467E+02  0.62804051745E+00  0.12077257457E+03  0.12499405946E+03  0.00000000000E+00 0.  1.
</event>
<event>
 4    1  0.1679763E+006  0.2149117E+02  0.7546771E-02  0.1512366E+00
         21   -1    0    0  503  501  0.00000000000E+00  0.00000000000E+00  0.35745683411E+03  0.35745683411E+03  0.00000000000E+00 0. -1.
         21   -1    0    0  504  502 -0.00000000000E+00 -0.00000000000E+00 -0.24079479026E+03  0.24079479026E+03  0.00000000000E+00 0. -1.
         21    1    1    2  503  502  0.20921845045E+02 -0.49139436497E+01  0.35665320223E+03  0.35730012189E+03  0.00000000000E+00 0. -1.
         21    1    1    2  504  501 -0.20921845045E+02  0.49139436497E+01 -0.23999115839E+03  0.24095150248E+03  0.00000000000E+00 0. -1.
</event>
<event>
 4    1  0.1679763E+006  0.2015041E+02  0.7546771E-02  0.1531749E+00
         21   -1    0    0  502  501  0.00000000000E+00  0.00000000000E+00  0.26206732928E+03  0.26206732928E+03  0.00000000000E+00 0. -1.
         21   -1    0    0  504  502 -0.00000000000E+00 -0.00000000000E+00 -0.37630639362E+01  0.37630639362E+01  0.00000000000E+00 0.  1.
         21    1    1    2  503  501  0.39890787405E+01 -0.19751610090E+02  0.23109639313E+03  0.23197323502E+03  0.00000000000E+00 0. -1.
         21    1    1    2  504  503 -0.39890787405E+01  0.19751610090E+02  0.27207872211E+02  0.33857158188E+02  0.00000000000E+00 0.  1.
</event>
<event>
 4    1  0.1679763E+006  0.2107427E+02  0.7546771E-02  0.1518207E+00
         21   -1    0    0  503  501  0.00000000000E+00  0.00000000000E+00  0.95720364632E+01  0.95720364632E+01  0.00000000000E+00 0. -1.
         21   -1    0    0  501  502 -0.00000000000E+00 -0.00000000000E+00 -0.53584382539E+03  0.53584382539E+03  0.00000000000E+00 0. -1.
         21    1    1    2  503  504 -0.22309820644E+01 -0.20955846813E+02 -0.25019959403E+01  0.21222270857E+02  0.00000000000E+00 0. -1.
         21    1    1    2  504  502  0.22309820644E+01  0.20955846813E+02 -0.52376979299E+03  0.52419359100E+03  0.00000000000E+00 0. -1.
</event>
<event>
 4    1  0.1679763E+006  0.2267867E+02  0.7546771E-02  0.1496573E+00
         21   -1    0    0  503  501  0.00000000000E+00  0.00000000000E+00  0.38985955822E+01  0.38985955822E+01  0.00000000000E+00 0.  1.
         21   -1    0    0  504  502 -0.00000000000E+00 -0.00000000000E+00 -0.14407079645E+03  0.14407079645E+03  0.00000000000E+00 0.  1.
         21    1    1    2  503  502 -0.31650361390E+01 -0.22456729800E+02 -0.48604473635E+02  0.53635035419E+02  0.00000000000E+00 0.  1.
         21    1    1    2  504  501  0.31650361390E+01  0.22456729800E+02 -0.91567727237E+02  0.94334356617E+02  0.00000000000E+00 0.  1.
</event>
<event>
 4    1  0.1679763E+006  0.6272901E+02  0.7546771E-02  0.1250832E+00
         21   -1    0    0  502  501  0.00000000000E+00  0.00000000000E+00  0.46798954997E+02  0.46798954997E+02  0.00000000000E+00 0. -1.
         21   -1    0    0  503  502 -0.00000000000E+00 -0.00000000000E+00 -0.13150157729E+03  0.13150157729E+03  0.00000000000E+00 0.  1.
         21    1    1    2  503  504 -0.17832695545E+02 -0.60140863497E+02 -0.95886344878E+02  0.11458237049E+03  0.00000000000E+00 0.  1.
         21    1    1    2  504  501  0.17832695545E+02  0.60140863497E+02  0.11183722582E+02  0.63718161802E+02  0.00000000000E+00 0. -1.
</event>
<event>
 4    1  0.1679763E+006  0.2074473E+02  0.7546771E-02  0.1522941E+00
         21   -1    0    0  503  501  0.00000000000E+00  0.00000000000E+00  0.18569146791E+01  0.18569146791E+01  0.00000000000E+00 0.  1.
         21   -1    0    0  504  502 -0.00000000000E+00 -0.00000000000E+00 -0.25724270348E+03  0.25724270348E+03  0.00000000000E+00 0.  1.
         21    1    1    2  503  502  0.11662273807E+02  0.17156194590E+02 -0.86912035017E+02  0.89353486076E+02  0.00000000000E+00 0.  1.
         21    1    1    2  504  501 -0.11662273807E+02 -0.17156194590E+02 -0.16847375378E+03  0.16974613208E+03  0.00000000000E+00 0.  1.
</event>
<event>
 4    1  0.1679763E+006  0.2036252E+02  0.7546771E-02  0.1528564E+00
         21   -1    0    0  503  501  0.00000000000E+00  0.00000000000E+00  0.60282754851E+01  0.60282754851E+01  0.00000000000E+00 0.  1.
         21   -1    0    0  504  502 -0.00000000000E+00 -0.00000000000E+00 -0.95779597124E+02  0.95779597124E+02  0.00000000000E+00 0. -1.
         21    1    1    2  503  502 -0.31983074259E+01  0.20109774931E+02 -0.17849547561E+02  0.27078378206E+02  0.00000000000E+00 0.  1.
         21    1    1    2  504  501  0.31983074259E+01 -0.20109774931E+02 -0.71901774078E+02  0.74729494403E+02  0.00000000000E+00 0. -1.
</event>
<event>
 4    1  0.1679763E+006  0.2176556E+02  0.7546771E-02  0.1508609E+00
         21   -1    0    0  504  501  0.00000000000E+00  0.00000000000E+00  0.66908047253E+02  0.66908047253E+02  0.00000000000E+00 0.  1.
         21   -1    0    0  501  502 -0.00000000000E+00 -0.00000000000E+00 -0.13006938558E+02  0.13006938558E+02  0.00000000000E+00 0.  1.
         21    1    1    2  503  502  0.17762860891E+02 -0.12578566658E+02 -0.21197001253E-01  0.21765569497E+02  0.00000000000E+00 0.  1.
         21    1    1    2  504  503 -0.17762860891E+02  0.12578566658E+02  0.53922305696E+02  0.58149416315E+02  0.00000000000E+00 0.  1.
</event>
<event>
 4    1  0.1679763E+006  0.3434815E+02  0.7546771E-02  0.1385205E+00
         21   -1    0    0  504  501  0.00000000000E+00  0.00000000000E+00  0.55916469765E+02  0.55916469765E+02  0.00000000000E+00 0. -1.
         21   -1    0    0  503  502 -0.00000000000E+00 -0.00000000000E+00 -0.33712137088E+02  0.33712137088E+02  0.00000000000E+00 0.  1.
         21    1    1    2  503  501 -0.26886988758E+02  0.21374880046E+02 -0.16309203259E+02  0.38023489745E+02  0.00000000000E+00 0.  1.
         21    1    1    2  504  502  0.26886988758E+02 -0.21374880046E+02  0.38513535936E+02  0.51605117108E+02  0.00000000000E+00 0. -1.
</event>
<event>
 4    1  0.1679763E+006  0.3785925E+02  0.7546771E-02  0.1361509E+00
         21   -1    0    0  504  501  0.00000000000E+00  0.00000000000E+00  0.20587115208E+02  0.20587115208E+02  0.00000000000E+00 0. -1.
         21   -1    0    0  503  502 -0.00000000000E+00 -0.00000000000E+00 -0.22260230488E+03  0.22260230488E+03  0.00000000000E+00 0.  1.
         21    1    1    2  503  501 -0.25829052520E+02  0.27680006574E+02 -0.20180913323E+03  0.20532961056E+03  0.00000000000E+00 0.  1.
         21    1    1    2  504  502  0.25829052520E+02 -0.27680006574E+02 -0.20605644002E+00  0.37859809525E+02  0.00000000000E+00 0. -1.
</event>
<event>
 4    1  0.1679763E+006  0.2026218E+02  0.7546771E-02  0.1530065E+00
         21   -1    0    0  502  501  0.00000000000E+00  0.00000000000E+00  0.19465354420E+03  0.19465354420E+03  0.00000000000E+00 0. -1.
         21   -1    0    0  504  502 -0.00000000000E+00 -0.00000000000E+00 -0.68677071705E+01  0.68677071705E+01  0.00000000000E+00 0.  1.
         21    1    1    2  503  501  0.18784878383E+02  0.75950148478E+01  0.17776589547E+03  0.17891693463E+03  0.00000000000E+00 0. -1.
         21    1    1    2  504  503 -0.18784878383E+02 -0.75950148478E+01  0.10019941564E+02  0.22604316741E+02  0.00000000000E+00 0.  1.
</event>
<event>
 4    1  0.1679763E+006  0.2624962E+02  0.7546771E-02  0.1455295E+00
         21   -1    0    0  504  501  0.00000000000E+00  0.00000000000E+00  0.11144360082E+03  0.11144360082E+03  0.00000000000E+00 0.  1.
         21   -1    0    0  503  502 -0.00000000000E+00 -0.00000000000E+00 -0.22949212701E+02  0.22949212701E+02  0.00000000000E+00 0.  1.
         21    1    1    2  503  501 -0.13196213901E+02 -0.22691458162E+02 -0.13188411389E+02  0.29376462173E+02  0.00000000000E+00 0.  1.
         21    1    1    2  504  502  0.13196213901E+02  0.22691458162E+02  0.10168279951E+03  0.10501635135E+03  0.00000000000E+00 0.  1.
</event>
<event>
 4    1  0.1679763E+006  0.2013586E+02  0.7546771E-02  0.1531969E+00
         21   -1    0    0  504  501  0.00000000000E+00  0.00000000000E+00  0.74760625252E+02  0.74760625252E+02  0.00000000000E+00 0.  1.
         21   -1    0    0  501  502 -0.00000000000E+00 -0.00000000000E+00 -0.22043515074E+02  0.22043515074E+02  0.00000000000E+00 0. -1.
         21    1    1    2  503  502 -0.17616702276E+02  0.97521679752E+01 -0.15669683510E+02  0.25514544099E+02  0.00000000000E+00 0. -1.
         21    1    1    2  504  503  0.17616702276E+02 -0.97521679752E+01  0.68386793687E+02  0.71289596226E+02  0.00000000000E+00 0.  1.
</event>
<event>
 4    1  0.1679763E+006  0.2252402E+02  0.7546771E-02  0.1498563E+00
         21   -1    0    0  503  501  0.00000000000E+00  0.00000000000E+00  0.59792299994E+03  0.59792299994E+03  0.00000000000E+00 0. -1.
         21   -1    0    0  504  502 -0.00000000000E+00 -0.00000000000E+00 -0.10917651675E+02  0.10917651675E+02  0.00000000000E+00 0.  1.
         21    1    1    2  503  502  0.90292624113E+01  0.20635013530E+02  0.58585442430E+03  0.58628724857E+03  0.00000000000E+00 0. -1.
         21    1    1    2  504  501 -0.90292624113E+01 -0.20635013530E+02  0.11509239679E+01  0.22553403049E+02  0.00000000000E+00 0.  1.
</event>
<event>
 4    1  0.1679763E+006  0.3031799E+02  0.7546771E-02  0.1416853E+00
         21   -1    0    0  504  501  0.00000000000E+00  0.00000000000E+00  0.43250512386E+01  0.43250512386E+01  0.00000000000E+00 0.  1.
         21   -1    0    0  503  502 -0.00000000000E+00 -0.00000000000E+00 -0.21463348875E+03  0.21463348875E+03  0.00000000000E+00 0.  1.
         21    1    1    2  503  501 -0.12423407656E+02  0.27655727123E+02 -0.94302520740E+02  0.99056275513E+02  0.00000000000E+00 0.  1.
         21    1    1    2  504  502  0.12423407656E+02 -0.27655727123E+02 -0.11600591677E+03  0.11990226447E+03  0.00000000000E+00 0.  1.
</event>
<event>
 4    1  0.1679763E+006  0.3472619E+02  0.7546771E-02  0.1382498E+00
         21   -1    0    0  504  501  0.00000000000E+00  0.00000000000E+00  0.29434985174E+02  0.29434985174E+02  0.00000000000E+00 0. -1.
         21   -1    0    0  503  502 -0.00000000000E+00 -0.00000000000E+00 -0.67407507317E+02  0.67407507317E+02  0.00000000000E+00 0.  1.
         21    1    1    2  503  501 -0.12541820857E+02  0.32382258610E+02 -0.49311497228E+02  0.60311953226E+02  0.00000000000E+00 0.  1.
         21    1    1    2  504  502  0.12541820857E+02 -0.32382258610E+02  0.11338975085E+02  0.36530539266E+02  0.00000000000E+00 0. -1.
</event>
<event>
 4    1  0.1679763E+006  0.3256280E+02  0.7546771E-02  0.1398558E+00
         21   -1    0    0  503  501  0.00000000000E+00  0.00000000000E+00  0.14658802875E+04  0.14658802875E+04  0.00000000000E+00 0.  1.
         21   -1    0    0  504  502 -0.00000000000E+00 -0.00000000000E+00 -0.11244936575E+01  0.11244936575E+01  0.00000000000E+00 0.  1.
         21    1    1    2  503  502  0.77775135690E+01  0.31620349066E+02  0.29427506197E+03  0.29607118787E+03  0.00000000000E+00 0.  1.
         21    1    1    2  504  501 -0.77775135690E+01 -0.31620349066E+02  0.11704807319E+04  0.11709335933E+04  0.00000000000E+00 0.  1.
</event>
<event>
 4    1  0.1679763E+006  0.2113688E+02  0.7546771E-02  0.1517319E+00
         21   -1    0    0  504  501  0.00000000000E+00  0.00000000000E+00  0.41993405761E+00  0.41993405761E+00  0.00000000000E+00 0. -1.
         21   -1    0    0  501  502 -0.00000000000E+00 -0.00000000000E+00 -0.11857960726E+04  0.11857960726E+04  0.00000000000E+00 0.  1.
         21    1    1    2  503  502  0.18871740661E+02  0.95197316977E+01 -0.78284994547E+03  0.78313524056E+03  0.00000000000E+00 0.  1.
         21    1    1    2  504  503 -0.18871740661E+02 -0.95197316977E+01 -0.40252619311E+03  0.40308076614E+03  0.00000000000E+00 0. -1.
</event>
<event>
 4    1  0.1679763E+006  0.2957755E+02  0.7546771E-02  0.1423303E+00
         21   -1    0    0  503  501  0.00000000000E+00  0.00000000000E+00  0.16108668049E+03  0.16108668049E+03  0.00000000000E+00 0. -1.
         21   -1    0    0  504  502 -0.00000000000E+00 -0.00000000000E+00 -0.45525445447E+02  0.45525445447E+02  0.00000000000E+00 0.  1.
         21    1    1    2  503  502  0.29571372121E+02 -0.60461095766E+00  0.15472928144E+03  0.15753089265E+03  0.00000000000E+00 0. -1.
         21    1    1    2  504  501 -0.29571372121E+02  0.60461095766E+00 -0.39168046392E+02  0.49081233294E+02  0.00000000000E+00 0.  1.
</event>
<event>
 4    1  0.1679763E+006  0.2279824E+02  0.7546771E-02  0.1495047E+00
         21   -1    0    0  502  501  0.00000000000E+00  0.00000000000E+00  0.21798873735E+02  0.21798873735E+02  0.00000000000E+00 0. -1.
         21   -1    0    0  504  502 -0.00000000000E+00 -0.00000000000E+00 -0.38661610003E+03  0.38661610003E+03  0.00000000000E+00 0.  1.
         21    1    1    2  503  501  0.51753021162E+01  0.22203067738E+02  0.15401719016E+02  0.27513140817E+02  0.00000000000E+00 0. -1.
         21    1    1    2  504  503 -0.51753021162E+01 -0.22203067738E+02 -0.38021894531E+03  0.38090183295E+03  0.00000000000E+00 0.  1.
</event>
<event>
 4    1  0.1679763E+006  0.2121143E+02  0.7546771E-02  0.1516267E+00
         21   -1    0    0  503  501  0.00000000000E+00  0.00000000000E+00  0.57492269543E+01  0.57492269543E+01  0.00000000000E+00 0. -1.
         21   -1    0    0  504  502 -0.00000000000E+00 -0.00000000000E+00 -0.15589660638E+03  0.15589660638E+03  0.00000000000E+00 0.  1.
         21    1    1    2  503  502  0.21145201086E+02  0.16749028753E+01 -0.18037019236E+02  0.27843471255E+02  0.00000000000E+00 0. -1.
         21    1    1    2  504  501 -0.21145201086E+02 -0.16749028753E+01 -0.13211036019E+03  0.13380236208E+03  0.00000000000E+00 0.  1.
</event>
<event>
 4    1  0.1679763E+006  0.2836373E+02  0.7546771E-02  0.1434370E+00
         21   -1    0    0  504  501  0.00000000000E+00  0.00000000000E+00  0.32233004571E+02  0.32233004571E+02  0.00000000000E+00 0. -1.
         21   -1    0    0  503  502 -0.00000000000E+00 -0.00000000000E+00 -0.30777029963E+03  0.30777029963E+03  0.00000000000E+00 0. -1.
         21    1    1    2  503  501  0.16915089707E+02  0.22767981877E+02 -0.30073135141E+03  0.30206596462E+03  0.00000000000E+00 0. -1.
         21    1    1    2  504  502 -0.16915089707E+02 -0.22767981877E+02  0.25194056358E+02  0.37937339579E+02  0.00000000000E+00 0. -1.
</event>
<event>
 4    1  0.1679763E+006  0.3965820E+02  0.7546771E-02  0.1350500E+00
         21   -1    0    0  502  501  0.00000000000E+00  0.00000000000E+00  0.46963263133E+03  0.46963263133E+03  0.00000000000E+00 0. -1.
         21   -1    0    0  504  502 -0.00000000000E+00 -0.00000000000E+00 -0.22933983721E+02  0.22933983721E+02  0.00000000000E+00 0. -1.
         21    1    1    2  503  501 -0.80652791999E+01 -0.38829425167E+02  0.45094157162E+03  0.45268208933E+03  0.00000000000E+00 0. -1.
         21    1    1    2  504  503  0.80652791999E+01  0.38829425167E+02 -0.42429240135E+01  0.39884525715E+02  0.00000000000E+00 0. -1.
</event>
<event>
 4    1  0.1679763E+006  0.2970143E+02  0.7546771E-02  0.1422209E+00
         21   -1    0    0  503  501  0.00000000000E+00  0.00000000000E+00  0.66918679546E+01  0.66918679546E+01  0.00000000000E+00 0.  1.
         21   -1    0    0  504  502 -0.00000000000E+00 -0.00000000000E+00 -0.19883266796E+03  0.19883266796E+03  0.00000000000E+00 0. -1.
         21    1    1    2  503  502 -0.28421995928E+02  0.86235233056E+01 -0.15572481792E+03  0.15853199653E+03  0.00000000000E+00 0. -1.
         21    1    1    2  504  501  0.28421995928E+02 -0.86235233056E+01 -0.36415982081E+02  0.46992539383E+02  0.00000000000E+00 0.  1.
</event>
<event>
 4    1  0.1679763E+006  0.2268375E+02  0.7546771E-02  0.1496508E+00
         21   -1    0    0  503  501  0.00000000000E+00  0.00000000000E+00  0.39516051494E+02  0.39516051494E+02  0.00000000000E+00 0.  1.
         21   -1    0    0  504  502 -0.00000000000E+00 -0.00000000000E+00 -0.44048944130E+02  0.44048944130E+02  0.00000000000E+00 0.  1.
         21    1    1    2  503  502  0.17936026138E+02 -0.13887093028E+02 -0.37333613993E+02  0.43684678323E+02  0.00000000000E+00 0.  1.
         21    1    1    2  504  501 -0.17936026138E+02  0.13887093028E+02  0.32800721358E+02  0.39880317301E+02  0.00000000000E+00 0.  1.
</event>
<event>
 4    1  0.1679763E+006  0.2033848E+02  0.7546771E-02  0.1528923E+00
         21   -1    0    0  503  501  0.00000000000E+00  0.00000000000E+00  0.10171512435E+02  0.10171512435E+02  0.00000000000E+00 0.  1.
         21   -1    0    0  504  502 -0.00000000000E+00 -0.00000000000E+00 -0.10485772427E+04  0.10485772427E+04  0.00000000000E+00 0. -1.
         21    1    1    2  503  502  0.29846034083E+01  0.20118295561E+02 -0.19558893598E+00  0.20339418104E+02  0.00000000000E+00 0.  1.
         21    1    1    2  504  501 -0.29846034083E+01 -0.20118295561E+02 -0.10382101413E+04  0.10384093370E+04  0.00000000000E+00 0. -1.
</event>
<event>
 4    1  0.1679763E+006  0.2329963E+02  0.7546771E-02  0.1488770E+00
         21   -1    0    0  503  501  0.00000000000E+00  0.00000000000E+00  0.13880438405E+02  0.13880438405E+02  0.00000000000E+00 0. -1.
         21   -1    0    0  504  502 -0.00000000000E+00 -0.00000000000E+00 -0.47666633425E+02  0.47666633425E+02  0.00000000000E+00 0. -1.
         21    1    1    2  503  502 -0.42402387875E+00  0.23295767852E+02 -0.29930942339E+02  0.37930645992E+02  0.00000000000E+00 0. -1.
         21    1    1    2  504  501  0.42402387875E+00 -0.23295767852E+02 -0.38552526805E+01  0.23616425837E+02  0.00000000000E+00 0. -1.
</event>
<event>
 4    1  0.1679763E+006  0.3397212E+02  0.7546771E-02  0.1387937E+00
         21   -1    0    0  502  501  0.00000000000E+00  0.00000000000E+00  0.20475666028E+02  0.20475666028E+02  0.00000000000E+00 0. -1.
         21   -1    0    0  503  502 -0.00000000000E+00 -0.00000000000E+00 -0.57173659194E+02  0.57173659194E+02  0.00000000000E+00 0.  1.
         21    1    1    2  503  504 -0.24547453045E+02  0.23484620023E+02 -0.22967191665E+02  0.41007276447E+02  0.00000000000E+00 0.  1.
         21    1    1    2  504  501  0.24547453045E+02 -0.23484620023E+02 -0.13730801500E+02  0.36642048775E+02  0.00000000000E+00 0. -1.
</event>
<event>
 4    1  0.1679763E+006  0.2115622E+02  0.7546771E-02  0.1517046E+00
         21   -1    0    0  503  501  0.00000000000E+00  0.00000000000E+00  0.13818631262E+03  0.13818631262E+03  0.00000000000E+00 0.  1.
         21   -1    0    0  504  502 -0.00000000000E+00 -0.00000000000E+00 -0.51419269916E+03  0.51419269916E+03  0.00000000000E+00 0. -1.
         21    1    1    2  503  502 -0.19821126097E+02  0.73965307790E+01 -0.51316370997E+03  0.51359962902E+03  0.00000000000E+00 0. -1.
         21    1    1    2  504  501  0.19821126097E+02 -0.73965307790E+01  0.13715732342E+03  0.13877938275E+03  0.00000000000E+00 0.  1.
</event>
<event>
 4    1  0.1679763E+006  0.2327516E+02  0.7546771E-02  0.1489072E+00
         21   -1    0    0  503  501  0.00000000000E+00  0.00000000000E+00  0.30580976707E+03  0.30580976707E+03  0.00000000000E+00 0. -1.
         21   -1    0    0  501  502 -0.00000000000E+00 -0.00000000000E+00 -0.39349987481E+01  0.39349987481E+01  0.00000000000E+00 0.  1.
         21    1    1    2  503  504  0.83126291741E+00 -0.23260308103E+02  0.26577468671E+03  0.26679189835E+03  0.00000000000E+00 0. -1.
         21    1    1    2  504  502 -0.83126291741E+00  0.23260308103E+02  0.36100081612E+02  0.42952867465E+02  0.00000000000E+00 0.  1.
</event>
<event>
 4    1  0.1679763E+006  0.2033717E+02  0.7546771E-02  0.1528942E+00
         21   -1    0    0  503  501  0.00000000000E+00  0.00000000000E+00  0.48096276759E+03  0.48096276759E+03  0.00000000000E+00 0.  1.
         21   -1    0    0  504  502 -0.00000000000E+00 -0.00000000000E+00 -0.36025723949E+03  0.36025723949E+03  0.00000000000E+00 0.  1.
         21    1    1    2  503  502  0.38023425736E+01  0.19978559324E+02  0.48046046429E+03  0.48089069277E+03  0.00000000000E+00 0.  1.
         21    1    1    2  504  501 -0.38023425736E+01 -0.19978559324E+02 -0.35975493619E+03  0.36032931432E+03  0.00000000000E+00 0.  1.
</event>
<event>
 4    1  0.1679763E+006  0.2563036E+02  0.7546771E-02  0.1461874E+00
         21   -1    0    0  504  501  0.00000000000E+00  0.00000000000E+00  0.26330458582E+02  0.26330458582E+02  0.00000000000E+00 0. -1.
         21   -1    0    0  501  502 -0.00000000000E+00 -0.00000000000E+00 -0.68033698031E+02  0.68033698031E+02  0.00000000000E+00 0.  1.
         21    1    1    2  503  502 -0.25457238671E+02  0.29739374452E+01 -0.58398787879E+02  0.63775651548E+02  0.00000000000E+00 0.  1.
         21    1    1    2  504  503  0.25457238671E+02 -0.29739374452E+01  0.16695548430E+02  0.30588505064E+02  0.00000000000E+00 0. -1.
</event>
<event>
 4    1  0.1679763E+006  0.2214456E+02  0.7546771E-02  0.1503529E+00
         21   -1    0    0  504  501  0.00000000000E+00  0.00000000000E+00  0.17580046490E+03  0.17580046490E+03  0.00000000000E+00 0. -1.
         21   -1    0    0  503  502 -0.00000000000E+00 -0.00000000000E+00 -0.28159067059E+02  0.28159067059E+02  0.00000000000E+00 0. -1.
         21    1    1    2  503  501 -0.21199573349E+02  0.63999743145E+01 -0.22976341873E+02  0.31910717123E+02  0.00000000000E+00 0. -1.
         21    1    1    2  504  502  0.21199573349E+02 -0.63999743145E+01  0.17061773971E+03  0.17204881483E+03  0.00000000000E+00 0. -1.
</event>
<event>
 4    1  0.1679763E+006  0.2095300E+02  0.7546771E-02  0.1519937E+00
         21   -1    0    0  504  501  0.00000000000E+00  0.00000000000E+00  0.38709941053E+02  0.38709941053E+02  0.00000000000E+00 0.  1.
         21   -1    0    0  503  502 -0.00000000000E+00 -0.00000000000E+00 -0.11646470958E+02  0.11646470958E+02  0.00000000000E+00 0.  1.
         21    1    1    2  503  501 -0.85486131608E+01 -0.19129800484E+02  0.94572707617E+01  0.22988432391E+02  0.00000000000E+00 0.  1.
         21    1    1    2  504  502  0.85486131608E+01  0.19129800484E+02  0.17606199333E+02  0.27367979620E+02  0.00000000000E+00 0.  1.
</event>
<event>
 4    1  0.1679763E+006  0.2296329E+02  0.7546771E-02  0.1492960E+00
         21   -1    0    0  504  501  0.00000000000E+00  0.00000000000E+00  0.24797638199E+02  0.24797638199E+02  0.00000000000E+00 0.  1.
         21   -1    0    0  503  502 -0.00000000000E+00 -0.00000000000E+00 -0.43166081713E+02  0.43166081713E+02  0.00000000000E+00 0. -1.
         21    1    1    2  503  501 -0.21266977879E+02  0.86619031728E+01  0.15021172312E+02  0.27439907658E+02  0.00000000000E+00 0.  1.
         21    1    1    2  504  502  0.21266977879E+02 -0.86619031728E+01 -0.33389615825E+02  0.40523812254E+02  0.00000000000E+00 0. -1.
</event>
<event>
 4    1  0.1679763E+006  0.2602368E+02  0.7546771E-02  0.1457670E+00
         21   -1    0    0  502  501  0.00000000000E+00  0.00000000000E+00  0.32874738846E+02  0.32874738846E+02  0.00000000000E+00 0.  1.
         21   -1    0    0  504  502 -0.00000000000E+00 -0.00000000000E+00 -0.65937176545E+02  0.65937176545E+02  0.00000000000E+00 0. -1.
         21    1    1    2  503  501 -0.25110044052E+02 -0.68350246182E+01  0.24436294010E+02  0.35698239995E+02  0.00000000000E+00 0.  1.
         21    1    1    2  504  503  0.25110044052E+02  0.68350246182E+01 -0.57498731709E+02  0.63113675396E+02  0.00000000000E+00 0. -1.
</event>
<event>
 4    1  0.1679763E+006  0.4850046E+02  0.7546771E-02  0.1304808E+00
         21   -1    0    0  503  501  0.00000000000E+00  0.00000000000E+00  0.94394625531E+01  0.94394625531E+01  0.00000000000E+00 0.  1.
         21   -1    0    0  504  502 -0.00000000000E+00 -0.00000000000E+00 -0.30892620685E+03  0.30892620685E+03  0.00000000000E+00 0. -1.
         21    1    1    2  503  502 -0.15207763760E+02  0.46054520695E+02 -0.79749714841E+02  0.93339766296E+02  0.00000000000E+00 0.  1.
         21    1    1    2  504  501  0.15207763760E+02 -0.46054520695E+02 -0.21973702945E+03  0.22502590311E+03  0.00000000000E+00 0. -1.
</event>
<event>
 4    1  0.1679763E+006  0.2073597E+02  0.7546771E-02  0.1523068E+00
         21   -1    0    0  504  501  0.00000000000E+00  0.00000000000E+00  0.97114534268E+02  0.97114534268E+02  0.00000000000E+00 0.  1.
         21   -1    0    0  503  502 -0.00000000000E+00 -0.00000000000E+00 -0.51693652250E+01  0.51693652250E+01  0.00000000000E+00 0. -1.
         21    1    1    2  503  501 -0.22826822482E+01 -0.20609942255E+02  0.65345894423E+02  0.68557029370E+02  0.00000000000E+00 0.  1.
         21    1    1    2  504  502  0.22826822482E+01  0.20609942255E+02  0.26599274620E+02  0.33726870124E+02  0.00000000000E+00 0. -1.
</event>
<event>
 4    1  0.1679763E+006  0.2626790E+02  0.7546771E-02  0.1455104E+00
         21   -1    0    0  502  501  0.00000000000E+00  0.00000000000E+00  0.42546161154E+01  0.42546161154E+01  0.00000000000E+00 0. -1.
         21   -1    0    0  503  502 -0.00000000000E+00 -0.00000000000E+00 -0.24210345925E+03  0.24210345925E+03  0.00000000000E+00 0. -1.
         21    1    1    2  503  504 -0.21517720402E+02  0.15066195843E+02 -0.18969952776E+03  0.19150956473E+03  0.00000000000E+00 0. -1.
         21    1    1    2  504  501  0.21517720402E+02 -0.15066195843E+02 -0.48149315372E+02  0.54848510638E+02  0.00000000000E+00 0. -1.
</event>
<event>
 4    1  0.1679763E+006  0.2101991E+02  0.7546771E-02  0.1518981E+00
         21   -1    0    0  502  501  0.00000000000E+00  0.00000000000E+00  0.18697373071E+02  0.18697373071E+02  0.00000000000E+00 0.  1.
         21   -1    0    0  504  502 -0.00000000000E+00 -0.00000000000E+00 -0.31417656756E+03  0.31417656756E+03  0.00000000000E+00 0.  1.
         21    1    1    2  503  501 -0.18609371412E+02  0.97738441604E+01  0.12315706189E+02  0.24362129484E+02  0.00000000000E+00 0.  1.
         21    1    1    2  504  503  0.18609371412E+02 -0.97738441604E+01 -0.30779490068E+03  0.30851181115E+03  0.00000000000E+00 0.  1.
</event>
<event>
 4    1  0.1679763E+006  0.2530814E+02  0.7546771E-02  0.1465386E+00
         21   -1    0    0  503  501  0.00000000000E+00  0.00000000000E+00  0.51227791175E+02  0.51227791175E+02  0.00000000000E+00 0. -1.
         21   -1    0    0  501  502 -0.00000000000E+00 -0.00000000000E+00 -0.28056600661E+02  0.28056600661E+02  0.00000000000E+00 0.  1.
         21    1    1    2  503  504  0.25069956933E+02  0.34639632721E+01  0.41101456298E+02  0.48268328042E+02  0.00000000000E+00 0. -1.
         21    1    1    2  504  502 -0.25069956933E+02 -0.34639632721E+01 -0.17930265784E+02  0.31016063794E+02  0.00000000000E+00 0.  1.
</event>
<event>
 4    1  0.1679763E+006  0.2593005E+02  0.7546771E-02  0.1458662E+00
         21   -1    0    0  503  501  0.00000000000E+00  0.00000000000E+00  0.67761240373E+01  0.67761240373E+01  0.00000000000E+00 0.  1.
         21   -1    0    0  504  502 -0.00000000000E+00 -0.00000000000E+00 -0.10031876626E+03  0.10031876626E+03  0.00000000000E+00 0.  1.
         21    1    1    2  503  502 -0.23525690594E+02  0.10904565279E+02 -0.52360035863E+02  0.58428939896E+02  0.00000000000E+00 0.  1.
         21    1    1    2  504  501  0.23525690594E+02 -0.10904565279E+02 -0.41182606358E+02  0.48665950400E+02  0.00000000000E+00 0.  1.
</event>
<event>
 4    1  0.1679763E+006  0.3882559E+02  0.7546771E-02  0.1355509E+00
         21   -1    0    0  503  501  0.00000000000E+00  0.00000000000E+00  0.56222339387E+03  0.56222339387E+03  0.00000000000E+00 0.  1.
         21   -1    0    0  501  502 -0.00000000000E+00 -0.00000000000E+00 -0.28251841803E+01  0.28251841803E+01  0.00000000000E+00 0.  1.
         21    1    1    2  503  504  0.34580777340E+02 -0.17652081376E+02  0.34348272687E+03  0.34567008809E+03  0.00000000000E+00 0.  1.
         21    1    1    2  504  502 -0.34580777340E+02  0.17652081376E+02  0.21591548282E+03  0.21937848996E+03  0.00000000000E+00 0.  1.
</event>
<event>
 4    1  0.1679763E+006  0.2441981E+02  0.7546771E-02  0.1475400E+00
         21   -1    0    0  503  501  0.00000000000E+00  0.00000000000E+00  0.16186205245E+02  0.16186205245E+02  0.00000000000E+00 0. -1.
         21   -1    0    0  504  502 -0.00000000000E+00 -0.00000000000E+00 -0.71471142576E+03  0.71471142576E+03  0.00000000000E+00 0. -1.
         21    1    1    2  503  502  0.11063650822E+02  0.21769762310E+02  0.66425813478E+01  0.25307129578E+02  0.00000000000E+00 0. -1.
         21    1    1    2  504  501 -0.11063650822E+02 -0.21769762310E+02 -0.70516780186E+03  0.70559050143E+03  0.00000000000E+00 0. -1.
</event>
<event>
 4    1  0.1679763E+006  0.3184515E+02  0.7546771E-02  0.1404212E+00
         21   -1    0    0  503  501  0.00000000000E+00  0.00000000000E+00  0.30614128574E+02  0.30614128574E+02  0.00000000000E+00 0.  1.
         21   -1    0    0  504  502 -0.00000000000E+00 -0.00000000000E+00 -0.34172856045E+02  0.34172856045E+02  0.00000000000E+00 0.  1.
         21    1    1    2  503  502 -0.31667645870E+02 -0.33576204160E+01  0.38912466074E+01  0.32082007574E+02  0.00000000000E+00 0.  1.
         21    1    1    2  504  501  0.31667645870E+02  0.33576204160E+01 -0.74499740789E+01  0.32704977046E+02  0.00000000000E+00 0.  1.
</event>
<event>
 4    1  0.1679763E+006  0.2770142E+02  0.7546771E-02  0.1440687E+00
         21   -1    0    0  504  501  0.00000000000E+00  0.00000000000E+00  0.35113953291E+02  0.35113953291E+02  0.00000000000E+00 0. -1.
         21   -1    0    0  503  502 -0.00000000000E+00 -0.00000000000E+00 -0.22399186305E+02  0.22399186305E+02  0.00000000000E+00 0. -1.
         21    1    1    2  503  501  0.22322871709E+02  0.16402990508E+02  0.18696673513E+01  0.27764444078E+02  0.00000000000E+00 0. -1.
         21    1    1    2  504  502 -0.22322871709E+02 -0.16402990508E+02  0.10845099635E+02  0.29748695518E+02  0.00000000000E+00 0. -1.
</event>
<event>
 4    1  0.1679763E+006  0.2977902E+02  0.7546771E-02  0.1421527E+00
         21   -1    0    0  504  501  0.00000000000E+00  0.00000000000E+00  0.14087530444E+04  0.14087530444E+04  0.00000000000E+00 0.  1.
         21   -1    0    0  503  502 -0.00000000000E+00 -0.00000000000E+00 -0.66930056064E+00  0.66930056064E+00  0.00000000000E+00 0.  1.
         21    1    1    2  503  501  0.16770526970E+02  0.24607715022E+02  0.87592052216E+03  0.87642658070E+03  0.00000000000E+00 0.  1.
         21    1    1    2  504  502 -0.16770526970E+02 -0.24607715022E+02  0.53216322167E+03  0.53299576426E+03  0.00000000000E+00 0.  1.
</event>
<event>
 4    1  0.1679763E+006  0.2003957E+02  0.7546771E-02  0.1533432E+00
         21   -1    0    0  503  501  0.00000000000E+00  0.00000000000E+00  0.19749570537E+02  0.19749570537E+02  0.00000000000E+00 0.  1.
         21   -1    0    0  504  502 -0.00000000000E+00 -0.00000000000E+00 -0.57490466187E+02  0.57490466187E+02  0.00000000000E+00 0. -1.
         21    1    1    2  503  502  0.16396200025E+02  0.11521672484E+02 -0.49918387419E+02  0.53790609911E+02  0.00000000000E+00 0. -1.
         21    1    1    2  504  501 -0.16396200025E+02 -0.11521672484E+02  0.12177491769E+02  0.23449426813E+02  0.00000000000E+00 0.  1.
</event>
<event>
 4    1  0.1679763E+006  0.2399854E+02  0.7546771E-02  0.1480326E+00
         21   -1    0    0  504  501  0.00000000000E+00  0.00000000000E+00  0.13810841357E+01  0.13810841357E+01  0.00000000000E+00 0. -1.
         21   -1    0    0  503  502 -0.00000000000E+00 -0.00000000000E+00 -0.52190001291E+03  0.52190001291E+03  0.00000000000E+00 0. -1.
         21    1    1    2  503  501 -0.23775168025E+02 -0.32667332298E+01 -0.14296647016E+03  0.14496669187E+03  0.00000000000E+00 0. -1.
         21    1    1    2  504  502  0.23775168025E+02  0.32667332298E+01 -0.37755245862E+03  0.37831440518E+03  0.00000000000E+00 0. -1.
</event>
<event>
 4    1  0.1679763E+006  0.2845257E+02  0.7546771E-02  0.1433538E+00
         21   -1    0    0  502  501  0.00000000000E+00  0.00000000000E+00  0.10006261439E+03  0.10006261439E+03  0.00000000000E+00 0.  1.
         21   -1    0    0  504  502 -0.00000000000E+00 -0.00000000000E+00 -0.16931661393E+02  0.16931661393E+02  0.00000000000E+00 0. -1.
         21    1    1    2  503  501 -0.10065393999E+01  0.28434762586E+02  0.83836366189E+02  0.88532960758E+02  0.00000000000E+00 0.  1.
         21    1    1    2  504  503  0.10065393999E+01 -0.28434762586E+02 -0.70541319573E+00  0.28461315020E+02  0.00000000000E+00 0. -1.
</event>
<event>
 4    1  0.1679763E+006  0.2109832E+02  0.7546771E-02  0.1517866E+00
         21   -1    0    0  503  501  0.00000000000E+00  0.00000000000E+00  0.11622425376E+04  0.11622425376E+04  0.00000000000E+00 0. -1.
         21   -1    0    0  504  502 -0.00000000000E+00 -0.00000000000E+00 -0.71773515128E+01  0.71773515128E+01  0.00000000000E+00 0. -1.
         21    1    1    2  503  502 -0.81304706521E+01  0.19468809174E+02  0.86372578943E+01  0.22797835590E+02  0.00000000000E+00 0. -1.
         21    1    1    2  504  501  0.81304706521E+01 -0.19468809174E+02  0.11464279282E+04  0.11466220536E+04  0.00000000000E+00 0. -1.
</event>
<event>
 4    1  0.1679763E+006  0.2017509E+02  0.7546771E-02  0.1531376E+00
         21   -1    0    0  503  501  0.00000000000E+00  0.00000000000E+00  0.13674762974E+03  0.13674762974E+03  0.00000000000E+00 0. -1.
         21   -1    0    0  504  502 -0.00000000000E+00 -0.00000000000E+00 -0.55744206343E+01  0.55744206343E+01  0.00000000000E+00 0. -1.
         21    1    1    2  503  502  0.11697770458E+02  0.16437657734E+02  0.17007204523E+02  0.26387107291E+02  0.00000000000E+00 0. -1.
         21    1    1    2  504  501 -0.11697770458E+02 -0.16437657734E+02  0.11416600458E+03  0.11593494308E+03  0.00000000000E+00 0. -1.
</event>
<event>
 4    1  0.1679763E+006  0.2194853E+02  0.7546771E-02  0.1506141E+00
         21   -1    0    0  502  501  0.00000000000E+00  0.00000000000E+00  0.19302831611E+03  0.19302831611E+03  0.00000000000E+00 0. -1.
         21   -1    0    0  504  502 -0.00000000000E+00 -0.00000000000E+00 -0.13282937307E+02  0.13282937307E+02  0.00000000000E+00 0.  1.
         21    1    1    2  503  501  0.20488770798E+02 -0.78707125353E+01  0.18283379534E+03  0.18414650299E+03  0.00000000000E+00 0. -1.
         21    1    1    2  504  503 -0.20488770798E+02  0.78707125353E+01 -0.30884165410E+01  0.22164750424E+02  0.00000000000E+00 0.  1.
</event>
<event>
 4    1  0.1679763E+006  0.2507160E+02  0.7546771E-02  0.1468004E+00
         21   -1    0    0  504  501  0.00000000000E+00  0.00000000000E+00  0.12158803347E+03  0.12158803347E+03  0.00000000000E+00 0.  1.
         21   -1    0    0  503  502 -0.00000000000E+00 -0.00000000000E+00 -0.81908405388E+02  0.81908405388E+02  0.00000000000E+00 0.  1.
         21    1    1    2  503  501 -0.14958606117E+01  0.25026933938E+02 -0.78645064126E+02  0.82544722015E+02  0.00000000000E+00 0.  1.
         21    1    1    2  504  502  0.14958606117E+01 -0.25026933938E+02  0.11832469220E+03  0.12095171684E+03  0.00000000000E+00 0.  1.
</event>
<event>
 4    1  0.1679763E+006  0.2555116E+02  0.7546771E-02  0.1462731E+00
         21   -1    0    0  502  501  0.00000000000E+00  0.00000000000E+00  0.75774595514E+03  0.75774595514E+03  0.00000000000E+00 0. -1.
         21   -1    0    0  504  502 -0.00000000000E+00 -0.00000000000E+00 -0.13687995509E+01  0.13687995509E+01  0.00000000000E+00 0.  1.
         21    1    1    2  503  501  0.25548875085E+02  0.34136087560E+00  0.60923749045E+03  0.60977305722E+03  0.00000000000E+00 0. -1.
         21    1    1    2  504  503 -0.25548875085E+02 -0.34136087560E+00  0.14713966514E+03  0.14934169747E+03  0.00000000000E+00 0.  1.
</event>
<event>
 4    1  0.1679763E+006  0.2519835E+02  0.7546771E-02  0.1466597E+00
         21   -1    0    0  503  501  0.00000000000E+00  0.00000000000E+00  0.11466204550E+03  0.11466204550E+03  0.00000000000E+00 0. -1.
         21   -1    0    0  504  502 -0.00000000000E+00 -0.00000000000E+00 -0.24831947724E+03  0.24831947724E+03  0.00000000000E+00 0. -1.
         21    1    1    2  503  502  0.16750922436E+02  0.18824543580E+02  0.11262697242E+03  0.11541140221E+03  0.00000000000E+00 0. -1.
         21    1    1    2  504  501 -0.16750922436E+02 -0.18824543580E+02 -0.24628440416E+03  0.24757012052E+03  0.00000000000E+00 0. -1.
</event>
<event>
 4    1  0.1679763E+006  0.2014832E+02  0.7546771E-02  0.1531780E+00
         21   -1    0    0  504  501  0.00000000000E+00  0.00000000000E+00  0.92957900217E+03  0.92957900217E+03  0.00000000000E+00 0.  1.
         21   -1    0    0  503  502 -0.00000000000E+00 -0.00000000000E+00 -0.88147322309E+02  0.88147322309E+02  0.00000000000E+00 0.  1.
         21    1    1    2  503  501  0.20122334923E+02  0.10229596559E+01 -0.86885226901E+02  0.89190792478E+02  0.00000000000E+00 0.  1.
         21    1    1    2  504  502 -0.20122334923E+02 -0.10229596559E+01  0.92831690676E+03  0.92853553200E+03  0.00000000000E+00 0.  1.
</event>
<event>
 4    1  0.1679763E+006  0.2092175E+02  0.7546771E-02  0.1520385E+00
         21   -1    0    0  504  501  0.00000000000E+00  0.00000000000E+00  0.23532286437E+03  0.23532286437E+03  0.00000000000E+00 0. -1.
         21   -1    0    0  501  502 -0.00000000000E+00 -0.00000000000E+00 -0.70283493101E+02  0.70283493101E+02  0.00000000000E+00 0.  1.
         21    1    1    2  503  502 -0.44730353149E+01  0.20437995235E+02 -0.68247935454E+02  0.71382773748E+02  0.00000000000E+00 0.  1.
         21    1    1    2  504  503  0.44730353149E+01 -0.20437995235E+02  0.23328730672E+03  0.23422358372E+03  0.00000000000E+00 0. -1.
</event>
<event>
 4    1  0.1679763E+006  0.3884360E+02  0.7546771E-02  0.1355399E+00
         21   -1    0    0  503  501  0.00000000000E+00  0.00000000000E+00  0.50859846745E+02  0.50859846745E+02  0.00000000000E+00 0.  1.
         21   -1    0    0  504  502 -0.00000000000E+00 -0.00000000000E+00 -0.47735960551E+02  0.47735960551E+02  0.00000000000E+00 0.  1.
         21    1    1    2  503  502  0.73521134445E+01  0.38141473416E+02  0.31892481580E+02  0.50258889241E+02  0.00000000000E+00 0.  1.
         21    1    1    2  504  501 -0.73521134445E+01 -0.38141473416E+02 -0.28768595386E+02  0.48336918054E+02  0.00000000000E+00 0.  1.
</event>
<event>
 4    1  0.1679763E+006  0.2118204E+02  0.7546771E-02  0.1516682E+00
         21   -1    0    0  503  501  0.00000000000E+00  0.00000000000E+00  0.67489045964E+02  0.67489045964E+02  0.00000000000E+00 0.  1.
         21   -1    0    0  504  502 -0.00000000000E+00 -0.00000000000E+00 -0.68629216209E+02  0.68629216209E+02  0.00000000000E+00 0.  1.
         21    1    1    2  503  502 -0.97013952764E+01 -0.18829808676E+02 -0.65248791637E+02  0.68600900688E+02  0.00000000000E+00 0.  1.
         21    1    1    2  504  501  0.97013952764E+01  0.18829808676E+02  0.64108621393E+02  0.67517361485E+02  0.00000000000E+00 0.  1.
</event>
<event>
 4    1  0.1679763E+006  0.3165274E+02  0.7546771E-02  0.1405758E+00
         21   -1    0    0  503  501  0.00000000000E+00  0.00000000000E+00  0.80364148571E+01  0.80364148571E+01  0.00000000000E+00 0.  1.
         21   -1    0    0  504  502 -0.00000000000E+00 -0.00000000000E+00 -0.13035852246E+03  0.13035852246E+03  0.00000000000E+00 0.  1.
         21    1    1    2  503  502 -0.53792251187E+01 -0.31192302332E+02 -0.46705342032E+02  0.56420605828E+02  0.00000000000E+00 0.  1.
         21    1    1    2  504  501  0.53792251187E+01  0.31192302332E+02 -0.75616765570E+02  0.81974331488E+02  0.00000000000E+00 0.  1.
</event>
<event>
 4    1  0.1679763E+006  0.2176596E+02  0.7546771E-02  0.1508604E+00
         21   -1    0    0  504  501  0.00000000000E+00  0.00000000000E+00  0.31443425265E+00  0.31443425265E+00  0.00000000000E+00 0. -1.
         21   -1    0    0  503  502 -0.00000000000E+00 -0.00000000000E+00 -0.15974694648E+04  0.15974694648E+04  0.00000000000E+00 0. -1.
         21    1    1    2  503  501  0.19137685179E+02 -0.10368506093E+02 -0.60814083796E+03  0.60853022580E+03  0.00000000000E+00 0. -1.
         21    1    1    2  504  502 -0.19137685179E+02  0.10368506093E+02 -0.98901419255E+03  0.98925367322E+03  0.00000000000E+00 0. -1.
</event>
<event>
 4    1  0.1679763E+006  0.2646814E+02  0.7546771E-02  0.1453025E+00
         21   -1    0    0  502  501  0.00000000000E+00  0.00000000000E+00  0.26216173595E+03  0.26216173595E+03  0.00000000000E+00 0.  1.
         21   -1    0    0  504  502 -0.00000000000E+00 -0.00000000000E+00 -0.45116254887E+02  0.45116254887E+02  0.00000000000E+00 0.  1.
         21    1    1    2  503  501  0.26304321159E+01  0.26337111400E+02  0.25754223927E+03  0.25889875939E+03  0.00000000000E+00 0.  1.
         21    1    1    2  504  503 -0.26304321159E+01 -0.26337111400E+02 -0.40496758203E+02  0.48379231443E+02  0.00000000000E+00 0.  1.
</event>
<event>
 4    1  0.1679763E+006  0.2274271E+02  0.7546771E-02  0.1495754E+00
         21   -1    0    0  502  501  0.00000000000E+00  0.00000000000E+00  0.32854333993E+03  0.32854333993E+03  0.00000000000E+00 0. -1.
         21   -1    0    0  503  502 -0.00000000000E+00 -0.00000000000E+00 -0.19994671605E+01  0.19994671605E+01  0.00000000000E+00 0. -1.
         21    1    1    2  503  504  0.18694776108E+02  0.12951300965E+02  0.87061832865E+02  0.89983296185E+02  0.00000000000E+00 0. -1.
         21    1    1    2  504  501 -0.18694776108E+02 -0.12951300965E+02  0.23948203991E+03  0.24055951091E+03  0.00000000000E+00 0. -1.
</event>
<event>
 4    1  0.1679763E+006  0.2352086E+02  0.7546771E-02  0.1486059E+00
         21   -1    0    0  504  501  0.00000000000E+00  0.00000000000E+00  0.52782985984E+01  0.52782985984E+01  0.00000000000E+00 0.  1.
         21   -1    0    0  503  502 -0.00000000000E+00 -0.00000000000E+00 -0.28207441074E+03  0.28207441074E+03  0.00000000000E+00 0.  1.
         21    1    1    2  503  501 -0.40451627167E+01 -0.23170404598E+02 -0.25229480483E+03  0.25338883072E+03  0.00000000000E+00 0.  1.
         21    1    1    2  504  502  0.40451627167E+01  0.23170404598E+02 -0.24501307309E+02  0.33963878613E+02  0.00000000000E+00 0.  1.
</event>
<event>
 4    1  0.1679763E+006  0.2036355E+02  0.7546771E-02  0.1528549E+00
         21   -1    0    0  503  501  0.00000000000E+00  0.00000000000E+00  0.31028806972E+03  0.31028806972E+03  0.00000000000E+00 0. -1.
         21   -1    0    0  501  502 -0.00000000000E+00 -0.00000000000E+00 -0.16653152127E+01  0.16653152127E+01  0.00000000000E+00 0. -1.
         21    1    1    2  503  504 -0.14632513911E+02 -0.14162045974E+02  0.84993899270E+02  0.87399295893E+02  0.00000000000E+00 0. -1.
         21    1    1    2  504  502  0.14632513911E+02  0.14162045974E+02  0.22362885523E+03  0.22455408904E+03  0.00000000000E+00 0. -1.
</event>
<event>
 4    1  0.1679763E+006  0.2686168E+02  0.7546771E-02  0.1449003E+00
         21   -1    0    0  504  501  0.00000000000E+00  0.00000000000E+00  0.78632641974E+02  0.78632641974E+02  0.00000000000E+00 0.  1.
         21   -1    0    0  503  502 -0.00000000000E+00 -0.00000000000E+00 -0.33913506659E+02  0.33913506659E+02  0.00000000000E+00 0.  1.
         21    1    1    2  503  501 -0.17374108208E+02 -0.20486345233E+02  0.70420298832E+02  0.75369546002E+02  0.00000000000E+00 0.  1.
         21    1    1    2  504  502  0.17374108208E+02  0.20486345233E+02 -0.25701163517E+02  0.37176602631E+02  0.00000000000E+00 0.  1.
</event>
<event>
 4    1  0.1679763E+006  0.2193524E+02  0.7546771E-02  0.1506319E+00
         21   -1    0    0  503  501  0.00000000000E+00  0.00000000000E+00  0.57554120558E+03  0.57554120558E+03  0.00000000000E+00 0. -1.
         21   -1    0    0  504  502 -0.00000000000E+00 -0.00000000000E+00 -0.74111261363E+01  0.74111261363E+01  0.00000000000E+00 0.  1.
         21    1    1    2  503  502  0.21146938887E+02  0.58276665862E+01  0.95204691632E+01  0.23912215607E+02  0.00000000000E+00 0.  1.
         21    1    1    2  504  501 -0.21146938887E+02 -0.58276665862E+01  0.55860961028E+03  0.55904011611E+03  0.00000000000E+00 0. -1.
</event>
<event>
 4    1  0.1679763E+006  0.2790722E+02  0.7546771E-02  0.1438702E+00
         21   -1    0    0  503  501  0.00000000000E+00  0.00000000000E+00  0.11136953010E+02  0.11136953010E+02  0.00000000000E+00 0.  1.
         21   -1    0    0  504  502 -0.00000000000E+00 -0.00000000000E+00 -0.87972604105E+03  0.87972604105E+03  0.00000000000E+00 0.  1.
         21    1    1    2  503  502  0.21853445486E+02  0.17356262466E+02 -0.86165554145E+03  0.86210735123E+03  0.00000000000E+00 0.  1.
         21    1    1    2  504  501 -0.21853445486E+02 -0.17356262466E+02 -0.69335465888E+01  0.28755642832E+02  0.00000000000E+00 0.  1.
</event>
<event>
 4    1  0.1679763E+006  0.2190578E+02  0.7546771E-02  0.1506715E+00
         21   -1    0    0  502  501  0.00000000000E+00  0.00000000000E+00  0.33200083731E+02  0.33200083731E+02  0.00000000000E+00 0. -1.
         21   -1    0    0  503  502 -0.00000000000E+00 -0.00000000000E+00 -0.69375389913E+02  0.69375389913E+02  0.00000000000E+00 0. -1.
         21    1    1    2  503  504  0.21615325682E+02  0.35553975002E+01 -0.63721057438E+02  0.67381275714E+02  0.00000000000E+00 0. -1.
         21    1    1    2  504  501 -0.21615325682E+02 -0.35553975002E+01  0.27545751256E+02  0.35194197931E+02  0.00000000000E+00 0. -1.
</event>
<event>
 4    1  0.1679763E+006  0.2862821E+02  0.7546771E-02  0.1431904E+00
         21   -1    0    0  503  501  0.00000000000E+00  0.00000000000E+00  0.19621669821E+03  0.19621669821E+03  0.00000000000E+00 0. -1.
         21   -1    0    0  504  502 -0.00000000000E+00 -0.00000000000E+00 -0.43175043705E+01  0.43175043705E+01  0.00000000000E+00 0. -1.
         21    1    1    2  503  502 -0.21245706898E+02  0.19188397486E+02  0.11404482419E+03  0.11758314754E+03  0.00000000000E+00 0. -1.
         21    1    1    2  504  501  0.21245706898E+02 -0.19188397486E+02  0.77854369647E+02  0.82951055044E+02  0.00000000000E+00 0. -1.
</event>
<event>
 4    1  0.1679763E+006  0.2264777E+02  0.7546771E-02  0.1496969E+00
         21   -1    0    0  503  501  0.00000000000E+00  0.00000000000E+00  0.69899343317E+03  0.69899343317E+03  0.00000000000E+00 0.  1.
         21   -1    0    0  501  502 -0.00000000000E+00 -0.00000000000E+00 -0.85056272093E+02  0.85056272093E+02  0.00000000000E+00 0. -1.
         21    1    1    2  503  504 -0.18655734791E+02  0.12840756248E+02  0.69729872559E+03  0.69766642041E+03  0.00000000000E+00 0.  1.
         21    1    1    2  504  502  0.18655734791E+02 -0.12840756248E+02 -0.83361564518E+02  0.86383284845E+02  0.00000000000E+00 0. -1.
</event>
<event>
 4    1  0.1679763E+006  0.2250646E+02  0.7546771E-02  0.1498790E+00
         21   -1    0    0  502  501  0.00000000000E+00  0.00000000000E+00  0.35296328512E+03  0.35296328512E+03  0.00000000000E+00 0. -1.
         21   -1    0    0  504  502 -0.00000000000E+00 -0.00000000000E+00 -0.14691248538E+01  0.14691248538E+01  0.00000000000E+00 0. -1.
         21    1    1    2  503  501  0.86502293364E+01  0.20777729928E+02  0.20271326108E+03  0.20395883591E+03  0.00000000000E+00 0. -1.
         21    1    1    2  504  503 -0.86502293364E+01 -0.20777729928E+02  0.14878089919E+03  0.15047357406E+03  0.00000000000E+00 0. -1.
</event>
<event>
 4    1  0.1679763E+006  0.2811382E+02  0.7546771E-02  0.1436729E+00
         21   -1    0    0  504  501  0.00000000000E+00  0.00000000000E+00  0.19335026884E+03  0.19335026884E+03  0.00000000000E+00 0.  1.
         21   -1    0    0  503  502 -0.00000000000E+00 -0.00000000000E+00 -0.31436678259E+02  0.31436678259E+02  0.00000000000E+00 0.  1.
         21    1    1    2  503  501  0.23832688092E+02  0.14912734646E+02  0.18578837719E+03  0.18790345333E+03  0.00000000000E+00 0.  1.
         21    1    1    2  504  502 -0.23832688092E+02 -0.14912734646E+02 -0.23874786612E+02  0.36883493762E+02  0.00000000000E+00 0.  1.
</event>
<event>
 4    1  0.1679763E+006  0.5017677E+02  0.7546771E-02  0.1297408E+00
         21   -1    0    0  504  501  0.00000000000E+00  0.00000000000E+00  0.28362086369E+01  0.28362086369E+01  0.00000000000E+00 0. -1.
         21   -1    0    0  503  502 -0.00000000000E+00 -0.00000000000E+00 -0.20393040373E+04  0.20393040373E+04  0.00000000000E+00 0. -1.
         21    1    1    2  503  501  0.71822488008E+01  0.49660078520E+02 -0.25093286821E+03  0.25590039555E+03  0.00000000000E+00 0. -1.
         21    1    1    2  504  502 -0.71822488008E+01 -0.49660078520E+02 -0.17855349604E+04  0.17862398503E+04  0.00000000000E+00 0. -1.
</event>
<event>
 4    1  0.1679763E+006  0.2131531E+02  0.7546771E-02  0.1514810E+00
         21   -1    0    0  504  501  0.00000000000E+00  0.00000000000E+00  0.65449340656E+01  0.65449340656E+01  0.00000000000E+00 0.  1.
         21   -1    0    0  503  502 -0.00000000000E+00 -0.00000000000E+00 -0.13681592503E+03  0.13681592503E+03  0.00000000000E+00 0.  1.
         21    1    1    2  503  501 -0.16492185223E+02 -0.13503708534E+02 -0.11544528975E+03  0.11739658106E+03  0.00000000000E+00 0.  1.
         21    1    1    2  504  502  0.16492185223E+02  0.13503708534E+02 -0.14825701209E+02  0.25964278037E+02  0.00000000000E+00 0.  1.
</event>
<event>
 4    1  0.1679763E+006  0.2331628E+02  0.7546771E-02  0.1488564E+00
         21   -1    0    0  504  501  0.00000000000E+00  0.00000000000E+00  0.60280883037E+03  0.60280883037E+03  0.00000000000E+00 0.  1.
         21   -1    0    0  501  502 -0.00000000000E+00 -0.00000000000E+00 -0.15679846312E+01  0.15679846312E+01  0.00000000000E+00 0.  1.
         21    1    1    2  503  502  0.18156389031E+02  0.14628551709E+02  0.10365737996E+03  0.10624735953E+03  0.00000000000E+00 0.  1.
         21    1    1    2  504  503 -0.18156389031E+02 -0.14628551709E+02  0.49758346578E+03  0.49812945547E+03  0.00000000000E+00 0.  1.
</event>
<event>
 4    1  0.1679763E+006  0.2705683E+02  0.7546771E-02  0.1447038E+00
         21   -1    0    0  504  501  0.00000000000E+00  0.00000000000E+00  0.12130372852E+02  0.12130372852E+02  0.00000000000E+00 0.  1.
         21   -1    0    0  501  502 -0.00000000000E+00 -0.00000000000E+00 -0.12090389447E+04  0.12090389447E+04  0.00000000000E+00 0.  1.
         21    1    1    2  503  502  0.20775803930E+02 -0.17333154432E+02 -0.11936049154E+04  0.11939115404E+04  0.00000000000E+00 0.  1.
         21    1    1    2  504  503 -0.20775803930E+02  0.17333154432E+02 -0.33036565114E+01  0.27257777200E+02  0.00000000000E+00 0.  1.
</event>
<event>
 4    1  0.1679763E+006  0.2078714E+02  0.7546771E-02  0.1522326E+00
         21   -1    0    0  504  501  0.00000000000E+00  0.00000000000E+00  0.33710273443E+02  0.33710273443E+02  0.00000000000E+00 0.  1.
         21   -1    0    0  503  502 -0.00000000000E+00 -0.00000000000E+00 -0.16261347943E+03  0.16261347943E+03  0.00000000000E+00 0. -1.
         21    1    1    2  503  501  0.42492092960E+01  0.20348207538E+02 -0.15866520997E+03  0.16002110543E+03  0.00000000000E+00 0. -1.
         21    1    1    2  504  502 -0.42492092960E+01 -0.20348207538E+02  0.29762003985E+02  0.36302647436E+02  0.00000000000E+00 0.  1.
</event>
<event>
 4    1  0.1679763E+006  0.2623783E+02  0.7546771E-02  0.1455418E+00
         21   -1    0    0  504  501  0.00000000000E+00  0.00000000000E+00  0.19055938720E+03  0.19055938720E+03  0.00000000000E+00 0.  1.
         21   -1    0    0  503  502 -0.00000000000E+00 -0.00000000000E+00 -0.52984364006E+01  0.52984364006E+01  0.00000000000E+00 0.  1.
         21    1    1    2  503  501  0.68706204752E+01 -0.25322290120E+02  0.37392376613E+02  0.45679466190E+02  0.00000000000E+00 0.  1.
         21    1    1    2  504  502 -0.68706204752E+01  0.25322290120E+02  0.14786857418E+03  0.15017835741E+03  0.00000000000E+00 0.  1.
</event>
<event>
 4    1  0.1679763E+006  0.2968167E+02  0.7546771E-02  0.1422383E+00
         21   -1    0    0  502  501  0.00000000000E+00  0.00000000000E+00  0.25633321416E+01  0.25633321416E+01  0.00000000000E+00 0.  1.
         21   -1    0    0  504  502 -0.00000000000E+00 -0.00000000000E+00 -0.50773015301E+03  0.50773015301E+03  0.00000000000E+00 0.  1.
         21    1    1    2  503  501  0.66018282550E+01 -0.28938164886E+02 -0.10755819455E+03  0.11157852274E+03  0.00000000000E+00 0.  1.
         21    1    1    2  504  503 -0.66018282550E+01  0.28938164886E+02 -0.39760862632E+03  0.39871496241E+03  0.00000000000E+00 0.  1.
</event>
<event>
 4    1  0.1679763E+006  0.2395594E+02  0.7546771E-02  0.1480831E+00
         21   -1    0    0  504  501  0.00000000000E+00  0.00000000000E+00  0.32878260433E+02  0.32878260433E+02  0.00000000000E+00 0. -1.
         21   -1    0    0  501  502 -0.00000000000E+00 -0.00000000000E+00 -0.13387573096E+03  0.13387573096E+03  0.00000000000E+00 0. -1.
         21    1    1    2  503  502  0.15681431559E+02 -0.18110215835E+02 -0.12825056815E+03  0.13046875275E+03  0.00000000000E+00 0. -1.
         21    1    1    2  504  503 -0.15681431559E+02  0.18110215835E+02  0.27253097623E+02  0.36285238643E+02  0.00000000000E+00 0. -1.
</event>
<event>
 4    1  0.1679763E+006  0.4199105E+02  0.7546771E-02  0.1337197E+00
         21   -1    0    0  504  501  0.00000000000E+00  0.00000000000E+00  0.74509062043E+03  0.74509062043E+03  0.00000000000E+00 0. -1.
         21   -1    0    0  503  502 -0.00000000000E+00 -0.00000000000E+00 -0.97726795271E+02  0.97726795271E+02  0.00000000000E+00 0.  1.
         21    1    1    2  503  501  0.26551512785E+02  0.32530988262E+02 -0.92593248634E+02  0.10166984667E+03  0.00000000000E+00 0.  1.
         21    1    1    2  504  502 -0.26551512785E+02 -0.32530988262E+02  0.73995707379E+03  0.74114756903E+03  0.00000000000E+00 0. -1.
</event>
<event>
 4    1  0.1679763E+006  0.2220657E+02  0.7546771E-02  0.1502709E+00
         21   -1    0    0  502  501  0.00000000000E+00  0.00000000000E+00  0.11356707658E+03  0.11356707658E+03  0.00000000000E+00 0.  1.
         21   -1    0    0  504  502 -0.00000000000E+00 -0.00000000000E+00 -0.53345222854E+03  0.53345222854E+03  0.00000000000E+00 0. -1.
         21    1    1    2  503  501 -0.33625924366E+01  0.21950510413E+02  0.11224773006E+03  0.11442327053E+03  0.00000000000E+00 0.  1.
         21    1    1    2  504  503  0.33625924366E+01 -0.21950510413E+02 -0.53213288202E+03  0.53259603459E+03  0.00000000000E+00 0. -1.
</event>
<event>
 4    1  0.1679763E+006  0.2946200E+02  0.7546771E-02  0.1424330E+00
         21   -1    0    0  502  501  0.00000000000E+00  0.00000000000E+00  0.52183671414E+02  0.52183671414E+02  0.00000000000E+00 0. -1.
         21   -1    0    0  503  502 -0.00000000000E+00 -0.00000000000E+00 -0.17107183901E+02  0.17107183901E+02  0.00000000000E+00 0. -1.
         21    1    1    2  503  504  0.29094101775E+02  0.46414092458E+01  0.11774660771E+02  0.31727780795E+02  0.00000000000E+00 0. -1.
         21    1    1    2  504  501 -0.29094101775E+02 -0.46414092458E+01  0.23301826743E+02  0.37563074521E+02  0.00000000000E+00 0. -1.
</event>
<event>
 4    1  0.1679763E+006  0.3189966E+02  0.7546771E-02  0.1403776E+00
         21   -1    0    0  502  501  0.00000000000E+00  0.00000000000E+00  0.68257803715E+01  0.68257803715E+01  0.00000000000E+00 0. -1.
         21   -1    0    0  503  502 -0.00000000000E+00 -0.00000000000E+00 -0.44268488398E+03  0.44268488398E+03  0.00000000000E+00 0. -1.
         21    1    1    2  503  504  0.15654104746E+02  0.27794558278E+02 -0.40096877886E+03  0.40223568972E+03  0.00000000000E+00 0. -1.
         21    1    1    2  504  501 -0.15654104746E+02 -0.27794558278E+02 -0.34890324750E+02  0.47274974631E+02  0.00000000000E+00 0. -1.
</event>
<event>
 4    1  0.1679763E+006  0.2798093E+02  0.7546771E-02  0.1437996E+00
         21   -1    0    0  504  501  0.00000000000E+00  0.00000000000E+00  0.35649260385E+02  0.35649260385E+02  0.00000000000E+00 0.  1.
         21   -1    0    0  503  502 -0.00000000000E+00 -0.00000000000E+00 -0.83823481908E+02  0.83823481908E+02  0.00000000000E+00 0. -1.
         21    1    1    2  503  501  0.14350691351E+01 -0.27944101991E+02  0.27230429598E+02  0.39043931099E+02  0.00000000000E+00 0.  1.
         21    1    1    2  504  502 -0.14350691351E+01  0.27944101991E+02 -0.75404651121E+02  0.80428811195E+02  0.00000000000E+00 0. -1.
</event>
<event>
 4    1  0.1679763E+006  0.2310592E+02  0.7546771E-02  0.1491172E+00
         21   -1    0    0  504  501  0.00000000000E+00  0.00000000000E+00  0.12161322464E+03  0.12161322464E+03  0.00000000000E+00 0.  1.
         21   -1    0    0  503  502 -0.00000000000E+00 -0.00000000000E+00 -0.46749513925E+01  0.46749513925E+01  0.00000000000E+00 0.  1.
         21    1    1    2  503  501  0.22829203351E+02  0.35652197415E+01  0.42880015424E+02  0.48709126868E+02  0.00000000000E+00 0.  1.
         21    1    1    2  504  502 -0.22829203351E+02 -0.35652197415E+01  0.74058257820E+02  0.77579049161E+02  0.00000000000E+00 0.  1.
</event>
<event>
 4    1  0.1679763E+006  0.2669052E+02  0.7546771E-02  0.1450742E+00
         21   -1    0    0  504  501  0.00000000000E+00  0.00000000000E+00  0.11164369996E+02  0.11164369996E+02  0.00000000000E+00 0.  1.
         21   -1    0    0  503  502 -0.00000000000E+00 -0.00000000000E+00 -0.52106966785E+03  0.52106966785E+03  0.00000000000E+00 0.  1.
         21    1    1    2  503  501 -0.72304272481E+01 -0.25692508464E+02 -0.50424377146E+03  0.50494966593E+03  0.00000000000E+00 0.  1.
         21    1    1    2  504  502  0.72304272481E+01  0.25692508464E+02 -0.56615263891E+01  0.27284371908E+02  0.00000000000E+00 0.  1.
</event>
<event>
 4    1  0.1679763E+006  0.3221953E+02  0.7546771E-02  0.1401241E+00
         21   -1    0    0  502  501  0.00000000000E+00  0.00000000000E+00  0.26848504986E+02  0.26848504986E+02  0.00000000000E+00 0. -1.
         21   -1    0    0  503  502 -0.00000000000E+00 -0.00000000000E+00 -0.26798692987E+03  0.26798692987E+03  0.00000000000E+00 0. -1.
         21    1    1    2  503  504  0.31288052139E+02 -0.76912998546E+01 -0.25693820734E+03  0.25895045992E+03  0.00000000000E+00 0. -1.
         21    1    1    2  504  501 -0.31288052139E+02  0.76912998546E+01  0.15799782461E+02  0.35884974933E+02  0.00000000000E+00 0. -1.
</event>
<event>
 4    1  0.1679763E+006  0.2137258E+02  0.7546771E-02  0.1514011E+00
         21   -1    0    0  503  501  0.00000000000E+00  0.00000000000E+00  0.38266121262E+03  0.38266121262E+03  0.00000000000E+00 0.  1.
         21   -1    0    0  504  502 -0.00000000000E+00 -0.00000000000E+00 -0.27380495376E+03  0.27380495376E+03  0.00000000000E+00 0.  1.
         21    1    1    2  503  502  0.21085739641E+02 -0.34898145269E+01 -0.27308867070E+03  0.27392372896E+03  0.00000000000E+00 0.  1.
         21    1    1    2  504  501 -0.21085739641E+02  0.34898145269E+01  0.38194492955E+03  0.38254243742E+03  0.00000000000E+00 0.  1.
</event>
<event>
 4    1  0.1679763E+006  0.4071471E+02  0.7546771E-02  0.1344348E+00
         21   -1    0    0  504  501  0.00000000000E+00  0.00000000000E+00  0.82880413927E+02  0.82880413927E+02  0.00000000000E+00 0.  1.
         21   -1    0    0  503  502 -0.00000000000E+00 -0.00000000000E+00 -0.58046452785E+02  0.58046452785E+02  0.00000000000E+00 0. -1.
         21    1    1    2  503  501  0.58523955365E+01 -0.40291901036E+02 -0.44629330557E+02  0.60410801754E+02  0.00000000000E+00 0. -1.
         21    1    1    2  504  502 -0.58523955365E+01  0.40291901036E+02  0.69463291699E+02  0.80516064958E+02  0.00000000000E+00 0.  1.
</event>
<event>
 4    1  0.1679763E+006  0.2149366E+02  0.7546771E-02  0.1512332E+00
         21   -1    0    0  503  501  0.00000000000E+00  0.00000000000E+00  0.54644737092E+03  0.54644737092E+03  0.00000000000E+00 0.  1.
         21   -1    0    0  501  502 -0.00000000000E+00 -0.00000000000E+00 -0.87662843997E+00  0.87662843997E+00  0.00000000000E+00 0.  1.
         21    1    1    2  503  504 -0.21067457158E+02  0.42590611294E+01  0.22115026381E+03  0.22219229630E+03  0.00000000000E+00 0.  1.
         21    1    1    2  504  502  0.21067457158E+02 -0.42590611294E+01  0.32442047867E+03  0.32513170306E+03  0.00000000000E+00 0.  1.
</event>
<event>
 4    1  0.1679763E+006  0.2881254E+02  0.7546771E-02  0.1430204E+00
         21   -1    0    0  503  501  0.00000000000E+00  0.00000000000E+00  0.80238408067E+01  0.80238408067E+01  0.00000000000E+00 0.  1.
         21   -1    0    0  501  502 -0.00000000000E+00 -0.00000000000E+00 -0.24017747981E+03  0.24017747981E+03  0.00000000000E+00 0.  1.
         21    1    1    2  503  504  0.14319717696E+01 -0.28776937784E+02 -0.22446440483E+02  0.36524038410E+02  0.00000000000E+00 0.  1.
         21    1    1    2  504  502 -0.14319717696E+01  0.28776937784E+02 -0.20970719852E+03  0.21167728221E+03  0.00000000000E+00 0.  1.
</event>
<event>
 4    1  0.1679763E+006  0.2745966E+02  0.7546771E-02  0.1443045E+00
         21   -1    0    0  502  501  0.00000000000E+00  0.00000000000E+00  0.67937460654E+03  0.67937460654E+03  0.00000000000E+00 0. -1.
         21   -1    0    0  504  502 -0.00000000000E+00 -0.00000000000E+00 -0.64805418920E+02  0.64805418920E+02  0.00000000000E+00 0. -1.
         21    1    1    2  503  501 -0.14193452915E+02 -0.23506991647E+02  0.67617453897E+03  0.67673188185E+03  0.00000000000E+00 0. -1.
         21    1    1    2  504  503  0.14193452915E+02  0.23506991647E+02 -0.61605351348E+02  0.67448143612E+02  0.00000000000E+00 0. -1.
</event>
<event>
 4    1  0.1679763E+006  0.2074732E+02  0.7546771E-02  0.1522903E+00
         21   -1    0    0  504  501  0.00000000000E+00  0.00000000000E+00  0.97386534184E+01  0.97386534184E+01  0.00000000000E+00 0. -1.
         21   -1    0    0  503  502 -0.00000000000E+00 -0.00000000000E+00 -0.13114256443E+03  0.13114256443E+03  0.00000000000E+00 0.  1.
         21    1    1    2  503  501 -0.15874899230E+02 -0.13358095575E+02 -0.33475469127E+01  0.21015642110E+02  0.00000000000E+00 0. -1.
         21    1    1    2  504  502  0.15874899230E+02  0.13358095575E+02 -0.11805636410E+03  0.11986557574E+03  0.00000000000E+00 0.  1.
</event>
<event>
 4    1  0.1679763E+006  0.2520136E+02  0.7546771E-02  0.1466563E+00
         21   -1    0    0  504  501  0.00000000000E+00  0.00000000000E+00  0.16394030481E+03  0.16394030481E+03  0.00000000000E+00 0. -1.
         21   -1    0    0  503  502 -0.00000000000E+00 -0.00000000000E+00 -0.43833520043E+01  0.43833520043E+01  0.00000000000E+00 0. -1.
         21    1    1    2  503  501 -0.18863868584E+02 -0.16711161173E+02  0.51089743766E+02  0.56967274498E+02  0.00000000000E+00 0. -1.
         21    1    1    2  504  502  0.18863868584E+02  0.16711161173E+02  0.10846720904E+03  0.11135638232E+03  0.00000000000E+00 0. -1.
</event>
<event>
 4    1  0.1679763E+006  0.3563884E+02  0.7546771E-02  0.1376127E+00
         21   -1    0    0  504  501  0.00000000000E+00  0.00000000000E+00  0.10353480429E+03  0.10353480429E+03  0.00000000000E+00 0. -1.
         21   -1    0    0  503  502 -0.00000000000E+00 -0.00000000000E+00 -0.17379760148E+02  0.17379760148E+02  0.00000000000E+00 0.  1.
         21    1    1    2  503  501 -0.29144413312E+02  0.20511700429E+02  0.75866484747E+02  0.83820344724E+02  0.00000000000E+00 0. -1.
         21    1    1    2  504  502  0.29144413312E+02 -0.20511700429E+02  0.10288559396E+02  0.37094219715E+02  0.00000000000E+00 0.  1.
</event>
<event>
 4    1  0.1679763E+006  0.4116165E+02  0.7546771E-02  0.1341810E+00
         21   -1    0    0  503  501  0.00000000000E+00  0.00000000000E+00  0.94595043454E+01  0.94595043454E+01  0.00000000000E+00 0. -1.
         21   -1    0    0  504  502 -0.00000000000E+00 -0.00000000000E+00 -0.19189247670E+03  0.19189247670E+03  0.00000000000E+00 0. -1.
         21    1    1    2  503  502  0.26825672814E+02  0.31219625127E+02 -0.11720147858E+03  0.12421943606E+03  0.00000000000E+00 0. -1.
         21    1    1    2  504  501 -0.26825672814E+02 -0.31219625127E+02 -0.65231493776E+02  0.77132544981E+02  0.00000000000E+00 0. -1.
</event>
<event>
 4    1  0.1679763E+006  0.2457934E+02  0.7546771E-02  0.1473565E+00
         21   -1    0    0  502  501  0.00000000000E+00  0.00000000000E+00  0.52673028703E+01  0.52673028703E+01  0.00000000000E+00 0. -1.
         21   -1    0    0  503  502 -0.00000000000E+00 -0.00000000000E+00 -0.27359636868E+03  0.27359636868E+03  0.00000000000E+00 0. -1.
         21    1    1    2  503  504 -0.47270976615E+01 -0.24120502325E+02 -0.24042404136E+03  0.24167718914E+03  0.00000000000E+00 0. -1.
         21    1    1    2  504  501  0.47270976615E+01  0.24120502325E+02 -0.27905024445E+02  0.37186482409E+02  0.00000000000E+00 0. -1.
</event>
<event>
 4    1  0.1679763E+006  0.2663049E+02  0.7546771E-02  0.1451356E+00
         21   -1    0    0  503  501  0.00000000000E+00  0.00000000000E+00  0.40832863286E+02  0.40832863286E+02  0.00000000000E+00 0. -1.
         21   -1    0    0  504  502 -0.00000000000E+00 -0.00000000000E+00 -0.17737065360E+02  0.17737065360E+02  0.00000000000E+00 0. -1.
         21    1    1    2  503  502  0.19181810899E+02  0.18472712775E+02  0.15772511761E+02  0.30950849970E+02  0.00000000000E+00 0. -1.
         21    1    1    2  504  501 -0.19181810899E+02 -0.18472712775E+02  0.73232861647E+01  0.27619078676E+02  0.00000000000E+00 0. -1.
</event>
<event>
 4    1  0.1679763E+006  0.2387981E+02  0.7546771E-02  0.1481736E+00
         21   -1    0    0  502  501  0.00000000000E+00  0.00000000000E+00  0.12315332655E+02  0.12315332655E+02  0.00000000000E+00 0. -1.
         21   -1    0    0  504  502 -0.00000000000E+00 -0.00000000000E+00 -0.59466907432E+02  0.59466907432E+02  0.00000000000E+00 0. -1.
         21    1    1    2  503  501  0.12408357497E+02  0.20402892324E+02 -0.66896485847E+01  0.24799127991E+02  0.00000000000E+00 0. -1.
         21    1    1    2  504  503 -0.12408357497E+02 -0.20402892324E+02 -0.40461926193E+02  0.46983112096E+02  0.00000000000E+00 0. -1.
</event>
<event>
 4    1  0.1679763E+006  0.2803247E+02  0.7546771E-02  0.1437504E+00
         21   -1    0    0  502  501  0.00000000000E+00  0.00000000000E+00  0.28279423034E+03  0.28279423034E+03  0.00000000000E+00 0.  1.
         21   -1    0    0  504  502 -0.00000000000E+00 -0.00000000000E+00 -0.10598995445E+03  0.10598995445E+03  0.00000000000E+00 0.  1.
         21    1    1    2  503  501  0.26455210813E+02  0.92704623253E+01  0.28022908995E+03  0.28162770195E+03  0.00000000000E+00 0.  1.
         21    1    1    2  504  503 -0.26455210813E+02 -0.92704623253E+01 -0.10342481406E+03  0.10715648284E+03  0.00000000000E+00 0.  1.
</event>
<event>
 4    1  0.1679763E+006  0.2156411E+02  0.7546771E-02  0.1511361E+00
         21   -1    0    0  503  501  0.00000000000E+00  0.00000000000E+00  0.45217915630E+02  0.45217915630E+02  0.00000000000E+00 0. -1.
         21   -1    0    0  501  502 -0.00000000000E+00 -0.00000000000E+00 -0.15279255545E+02  0.15279255545E+02  0.00000000000E+00 0. -1.
         21    1    1    2  503  504 -0.13221986258E+02  0.17034957370E+02  0.32265214723E+02  0.38807921541E+02  0.00000000000E+00 0. -1.
         21    1    1    2  504  502  0.13221986258E+02 -0.17034957370E+02 -0.23265546383E+01  0.21689249634E+02  0.00000000000E+00 0. -1.
</event>
<event>
 4    1  0.1679763E+006  0.2095541E+02  0.7546771E-02  0.1519902E+00
         21   -1    0    0  504  501  0.00000000000E+00  0.00000000000E+00  0.17899883410E+03  0.17899883410E+03  0.00000000000E+00 0.  1.
         21   -1    0    0  503  502 -0.00000000000E+00 -0.00000000000E+00 -0.13635183244E+02  0.13635183244E+02  0.00000000000E+00 0.  1.
         21    1    1    2  503  501  0.84421378231E+01  0.19179665490E+02  0.16990480220E+03  0.17119220505E+03  0.00000000000E+00 0.  1.
         21    1    1    2  504  502 -0.84421378231E+01 -0.19179665490E+02 -0.45411513356E+01  0.21441812302E+02  0.00000000000E+00 0.  1.
</event>
<event>
 4    1  0.1679763E+006  0.2004603E+02  0.7546771E-02  0.1533333E+00
         21   -1    0    0  503  501  0.00000000000E+00  0.00000000000E+00  0.54724439344E+02  0.54724439344E+02  0.00000000000E+00 0.  1.
         21   -1    0    0  504  502 -0.00000000000E+00 -0.00000000000E+00 -0.35621340503E+02  0.35621340503E+02  0.00000000000E+00 0. -1.
         21    1    1    2  503  502 -0.20043037811E+02  0.34630015355E+00  0.49800027492E+02  0.53683200600E+02  0.00000000000E+00 0.  1.
         21    1    1    2  504  501  0.20043037811E+02 -0.34630015355E+00 -0.30696928651E+02  0.36662579247E+02  0.00000000000E+00 0. -1.
</event>
<event>
 4    1  0.1679763E+006  0.3560502E+02  0.7546771E-02  0.1376359E+00
         21   -1    0    0  503  501  0.00000000000E+00  0.00000000000E+00  0.84845869647E+02  0.84845869647E+02  0.00000000000E+00 0. -1.
         21   -1    0    0  501  502 -0.00000000000E+00 -0.00000000000E+00 -0.40979642154E+02  0.40979642154E+02  0.00000000000E+00 0.  1.
         21    1    1    2  503  504 -0.19058393890E+02  0.30074826729E+02  0.72081886810E+02  0.80395994842E+02  0.00000000000E+00 0. -1.
         21    1    1    2  504  502  0.19058393890E+02 -0.30074826729E+02 -0.28215659317E+02  0.45429516959E+02  0.00000000000E+00 0.  1.
</event>
<event>
 4    1  0.1679763E+006  0.2022821E+02  0.7546771E-02  0.1530575E+00
         21   -1    0    0  502  501  0.00000000000E+00  0.00000000000E+00  0.18139732912E+02  0.18139732912E+02  0.00000000000E+00 0.  1.
         21   -1    0    0  504  502 -0.00000000000E+00 -0.00000000000E+00 -0.28900394599E+02  0.28900394599E+02  0.00000000000E+00 0.  1.
         21    1    1    2  503  501 -0.75496076118E+01  0.18766560667E+02  0.56386875294E+01  0.20999408835E+02  0.00000000000E+00 0.  1.
         21    1    1    2  504  503  0.75496076118E+01 -0.18766560667E+02 -0.16399349217E+02  0.26040718675E+02  0.00000000000E+00 0.  1.
</event>
<event>
 4    1  0.1679763E+006  0.5015503E+02  0.7546771E-02  0.1297502E+00
         21   -1    0    0  503  501  0.00000000000E+00  0.00000000000E+00  0.81598795584E+02  0.81598795584E+02  0.00000000000E+00 0. -1.
         21   -1    0    0  504  502 -0.00000000000E+00 -0.00000000000E+00 -0.95316946027E+02  0.95316946027E+02  0.00000000000E+00 0.  1.
         21    1    1    2  503  502  0.41371695677E+02  0.28353302180E+02 -0.79619309957E+02  0.94099742113E+02  0.00000000000E+00 0.  1.
         21    1    1    2  504  501 -0.41371695677E+02 -0.28353302180E+02  0.65901159514E+02  0.82815999498E+02  0.00000000000E+00 0. -1.
</event>
<event>
 4    1  0.1679763E+006  0.2274205E+02  0.7546771E-02  0.1495763E+00
         21   -1    0    0  503  501  0.00000000000E+00  0.00000000000E+00  0.55978616944E+01  0.55978616944E+01  0.00000000000E+00 0.  1.
         21   -1    0    0  504  502 -0.00000000000E+00 -0.00000000000E+00 -0.12001077756E+03  0.12001077756E+03  0.00000000000E+00 0.  1.
         21    1    1    2  503  502 -0.48452235390E+01 -0.22219920348E+02 -0.87334910179E+02  0.90247368867E+02  0.00000000000E+00 0.  1.
         21    1    1    2  504  501  0.48452235390E+01  0.22219920348E+02 -0.27078005685E+02  0.35361270386E+02  0.00000000000E+00 0.  1.
</event>
<event>
 4    1  0.1679763E+006  0.3097208E+02  0.7546771E-02  0.1411333E+00
         21   -1    0    0  504  501  0.00000000000E+00  0.00000000000E+00  0.17091169598E+02  0.17091169598E+02  0.00000000000E+00 0. -1.
         21   -1    0    0  503  502 -0.00000000000E+00 -0.00000000000E+00 -0.71031272349E+02  0.71031272349E+02  0.00000000000E+00 0. -1.
         21    1    1    2  503  501  0.30884440360E+02 -0.23282637484E+01 -0.67867245732E+01  0.31706925093E+02  0.00000000000E+00 0. -1.
         21    1    1    2  504  502 -0.30884440360E+02  0.23282637484E+01 -0.47153378178E+02  0.56415516855E+02  0.00000000000E+00 0. -1.
</event>
<event>
 4    1  0.1679763E+006  0.2234321E+02  0.7546771E-02  0.1500914E+00
         21   -1    0    0  503  501  0.00000000000E+00  0.00000000000E+00  0.74618047969E+01  0.74618047969E+01  0.00000000000E+00 0.  1.
         21   -1    0    0  504  502 -0.00000000000E+00 -0.00000000000E+00 -0.37087834095E+03  0.37087834095E+03  0.00000000000E+00 0.  1.
         21    1    1    2  503  502  0.81690507828E+01  0.20796288179E+02 -0.35296817112E+03  0.35367463694E+03  0.00000000000E+00 0.  1.
         21    1    1    2  504  501 -0.81690507828E+01 -0.20796288179E+02 -0.10448365033E+02  0.24665508805E+02  0.00000000000E+00 0.  1.
</event>
<event>
 4    1  0.1679763E+006  0.2256091E+02  0.7546771E-02  0.1498087E+00
         21   -1    0    0  502  501  0.00000000000E+00  0.00000000000E+00  0.18256359056E+02  0.18256359056E+02  0.00000000000E+00 0. -1.
         21   -1    0    0  503  502 -0.00000000000E+00 -0.00000000000E+00 -0.15423957587E+03  0.15423957587E+03  0.00000000000E+00 0. -1.
         21    1    1    2  503  504 -0.47063413653E+01 -0.22064562438E+02 -0.14605624693E+03  0.14778843605E+03  0.00000000000E+00 0. -1.
         21    1    1    2  504  501  0.47063413653E+01  0.22064562438E+02  0.10073030117E+02  0.24707498869E+02  0.00000000000E+00 0. -1.
</event>
<event>
 4    1  0.1679763E+006  0.2153894E+02  0.7546771E-02  0.1511707E+00
         21   -1    0    0  503  501  0.00000000000E+00  0.00000000000E+00  0.25500789700E+02  0.25500789700E+02  0.00000000000E+00 0.  1.
         21   -1    0    0  504  502 -0.00000000000E+00 -0.00000000000E+00 -0.29500186415E+03  0.29500186415E+03  0.00000000000E+00 0.  1.
         21    1    1    2  503  502  0.86839420008E+01  0.19710788230E+02  0.20480855378E+02  0.29721901997E+02  0.00000000000E+00 0.  1.
         21    1    1    2  504  501 -0.86839420008E+01 -0.19710788230E+02 -0.28998192983E+03  0.29078075185E+03  0.00000000000E+00 0.  1.
</event>
<event>
 4    1  0.1679763E+006  0.2434802E+02  0.7546771E-02  0.1476231E+00
         21   -1    0    0  504  501  0.00000000000E+00  0.00000000000E+00  0.94631965609E+02  0.94631965609E+02  0.00000000000E+00 0. -1.
         21   -1    0    0  503  502 -0.00000000000E+00 -0.00000000000E+00 -0.62712726888E+01  0.62712726888E+01  0.00000000000E+00 0. -1.
         21    1    1    2  503  501 -0.24216116922E+02  0.25309968064E+01  0.45832730178E+02  0.51898607102E+02  0.00000000000E+00 0. -1.
         21    1    1    2  504  502  0.24216116922E+02 -0.25309968064E+01  0.42527962743E+02  0.49004631196E+02  0.00000000000E+00 0. -1.
</event>
<event>
 4    1  0.1679763E+006  0.2541336E+02  0.7546771E-02  0.1464232E+00
         21   -1    0    0  502  501  0.00000000000E+00  0.00000000000E+00  0.10291627609E+02  0.10291627609E+02  0.00000000000E+00 0.  1.
         21   -1    0    0  503  502 -0.00000000000E+00 -0.00000000000E+00 -0.86364871329E+02  0.86364871329E+02  0.00000000000E+00 0.  1.
         21    1    1    2  503  504 -0.21357655311E+02 -0.13772769981E+02 -0.63305760714E+02  0.68216258860E+02  0.00000000000E+00 0.  1.
         21    1    1    2  504  501  0.21357655311E+02  0.13772769981E+02 -0.12767483006E+02  0.28440240077E+02  0.00000000000E+00 0.  1.
</event>
<event>
 4    1  0.1679763E+006  0.2113940E+02  0.7546771E-02  0.1517284E+00
         21   -1    0    0  504  501  0.00000000000E+00  0.00000000000E+00  0.27675108317E+02  0.27675108317E+02  0.00000000000E+00 0.  1.
         21   -1    0    0  503  502 -0.00000000000E+00 -0.00000000000E+00 -0.91367995673E+02  0.91367995673E+02  0.00000000000E+00 0. -1.
         21    1    1    2  503  501 -0.90391921658E+00  0.21120061935E+02 -0.85852977848E+02  0.88417237525E+02  0.00000000000E+00 0. -1.
         21    1    1    2  504  502  0.90391921658E+00 -0.21120061935E+02  0.22160090492E+02  0.30625866465E+02  0.00000000000E+00 0.  1.
</event>
<event>
 4    1  0.1679763E+006  0.3588068E+02  0.7546771E-02  0.1374475E+00
         21   -1    0    0  503  501  0.00000000000E+00  0.00000000000E+00  0.63783139813E+02  0.63783139813E+02  0.00000000000E+00 0.  1.
         21   -1    0    0  504  502 -0.00000000000E+00 -0.00000000000E+00 -0.20203338187E+02  0.20203338187E+02  0.00000000000E+00 0.  1.
         21    1    1    2  503  502 -0.71366025606E+01  0.35163789169E+02  0.20503547603E+02  0.41325762294E+02  0.00000000000E+00 0.  1.
         21    1    1    2  504  501  0.71366025606E+01 -0.35163789169E+02  0.23076254023E+02  0.42660715706E+02  0.00000000000E+00 0.  1.
</event>
<event>
 4    1  0.1679763E+006  0.2291967E+02  0.7546771E-02  0.1493509E+00
         21   -1    0    0  503  501  0.00000000000E+00  0.00000000000E+00  0.30290771652E+03  0.30290771652E+03  0.00000000000E+00 0.  1.
         21   -1    0    0  501  502 -0.00000000000E+00 -0.00000000000E+00 -0.28213286201E+01  0.28213286201E+01  0.00000000000E+00 0. -1.
         21    1    1    2  503  504 -0.68088605340E+01 -0.21884943282E+02  0.24493190638E+03  0.24600193106E+03  0.00000000000E+00 0.  1.
         21    1    1    2  504  502  0.68088605340E+01  0.21884943282E+02  0.55154481528E+02  0.59727114084E+02  0.00000000000E+00 0. -1.
</event>
<event>
 4    1  0.1679763E+006  0.2335390E+02  0.7546771E-02  0.1488101E+00
         21   -1    0    0  502  501  0.00000000000E+00  0.00000000000E+00  0.83982975719E+01  0.83982975719E+01  0.00000000000E+00 0.  1.
         21   -1    0    0  504  502 -0.00000000000E+00 -0.00000000000E+00 -0.11948290439E+03  0.11948290439E+03  0.00000000000E+00 0.  1.
         21    1    1    2  503  501  0.22284169447E+02 -0.69871536960E+01 -0.12342286847E+02  0.26414703658E+02  0.00000000000E+00 0.  1.
         21    1    1    2  504  503 -0.22284169447E+02  0.69871536960E+01 -0.98742319973E+02  0.10146649831E+03  0.00000000000E+00 0.  1.
</event>
<event>
 4    1  0.1679763E+006  0.3113557E+02  0.7546771E-02  0.1409978E+00
         21   -1    0    0  503  501  0.00000000000E+00  0.00000000000E+00  0.33170825287E+03  0.33170825287E+03  0.00000000000E+00 0.  1.
         21   -1    0    0  504  502 -0.00000000000E+00 -0.00000000000E+00 -0.36473088697E+01  0.36473088697E+01  0.00000000000E+00 0.  1.
         21    1    1    2  503  502 -0.91269485974E+01 -0.29767813207E+02  0.89283242056E+02  0.94556444550E+02  0.00000000000E+00 0.  1.
         21    1    1    2  504  501  0.91269485974E+01  0.29767813207E+02  0.23877770195E+03  0.24079911719E+03  0.00000000000E+00 0.  1.
</event>
<event>
 4    1  0.1679763E+006  0.3200963E+02  0.7546771E-02  0.1402901E+00
         21   -1    0    0  504  501  0.00000000000E+00  0.00000000000E+00  0.12639059242E+03  0.12639059242E+03  0.00000000000E+00 0.  1.
         21   -1    0    0  503  502 -0.00000000000E+00 -0.00000000000E+00 -0.10328686293E+02  0.10328686293E+02  0.00000000000E+00 0.  1.
         21    1    1    2  503  501 -0.10698989588E+02 -0.30168655128E+02  0.89737112768E+02  0.95275209463E+02  0.00000000000E+00 0.  1.
         21    1    1    2  504  502  0.10698989588E+02  0.30168655128E+02  0.26324793355E+02  0.41444069245E+02  0.00000000000E+00 0.  1.
</event>
<event>
 4    1  0.1679763E+006  0.3062596E+02  0.7546771E-02  0.1414233E+00
         21   -1    0    0  504  501  0.00000000000E+00  0.00000000000E+00  0.19975161299E+02  0.19975161299E+02  0.00000000000E+00 0.  1.
         21   -1    0    0  503  502 -0.00000000000E+00 -0.00000000000E+00 -0.55547524979E+02  0.55547524979E+02  0.00000000000E+00 0.  1.
         21    1    1    2  503  501 -0.27960123295E+02 -0.12497246802E+02 -0.29351965230E+01  0.30766297323E+02  0.00000000000E+00 0.  1.
         21    1    1    2  504  502  0.27960123295E+02  0.12497246802E+02 -0.32637167156E+02  0.44756388955E+02  0.00000000000E+00 0.  1.
</event>
<event>
 4    1  0.1679763E+006  0.2089785E+02  0.7546771E-02  0.1520728E+00
         21   -1    0    0  503  501  0.00000000000E+00  0.00000000000E+00  0.38751729824E+02  0.38751729824E+02  0.00000000000E+00 0.  1.
         21   -1    0    0  501  502 -0.00000000000E+00 -0.00000000000E+00 -0.12470126517E+03  0.12470126517E+03  0.00000000000E+00 0. -1.
         21    1    1    2  503  504 -0.20622145217E+02  0.33834091766E+01  0.34971337908E+02  0.40739597521E+02  0.00000000000E+00 0.  1.
         21    1    1    2  504  502  0.20622145217E+02 -0.33834091766E+01 -0.12092087326E+03  0.12271339748E+03  0.00000000000E+00 0. -1.
</event>
<event>
 4    1  0.1679763E+006  0.2292840E+02  0.7546771E-02  0.1493399E+00
         21   -1    0    0  503  501  0.00000000000E+00  0.00000000000E+00  0.52608972147E+03  0.52608972147E+03  0.00000000000E+00 0. -1.
         21   -1    0    0  504  502 -0.00000000000E+00 -0.00000000000E+00 -0.11817086921E+01  0.11817086921E+01  0.00000000000E+00 0. -1.
         21    1    1    2  503  502 -0.12449224441E+02  0.19254304241E+02  0.36603844253E+03  0.36675584907E+03  0.00000000000E+00 0. -1.
         21    1    1    2  504  501  0.12449224441E+02 -0.19254304241E+02  0.15886957025E+03  0.16051558109E+03  0.00000000000E+00 0. -1.
</event>
<event>
 4    1  0.1679763E+006  0.2089607E+02  0.7546771E-02  0.1520754E+00
         21   -1    0    0  502  501  0.00000000000E+00  0.00000000000E+00  0.13150403561E+03  0.13150403561E+03  0.00000000000E+00 0.  1.
         21   -1    0    0  504  502 -0.00000000000E+00 -0.00000000000E+00 -0.33262251625E+01  0.33262251625E+01  0.00000000000E+00 0.  1.
         21    1    1    2  503  501 -0.20815030936E+02 -0.18385557928E+01  0.66910483822E+02  0.70097493861E+02  0.00000000000E+00 0.  1.
         21    1    1    2  504  503  0.20815030936E+02  0.18385557928E+01  0.61267326630E+02  0.64732766916E+02  0.00000000000E+00 0.  1.
</event>
<event>
 4    1  0.1679763E+006  0.4121480E+02  0.7546771E-02  0.1341511E+00
         21   -1    0    0  503  501  0.00000000000E+00  0.00000000000E+00  0.13931471486E+03  0.13931471486E+03  0.00000000000E+00 0. -1.
         21   -1    0    0  504  502 -0.00000000000E+00 -0.00000000000E+00 -0.68781403316E+02  0.68781403316E+02  0.00000000000E+00 0. -1.
         21    1    1    2  503  502  0.40501794883E+02  0.76330856089E+01 -0.59109508670E+02  0.72059651677E+02  0.00000000000E+00 0. -1.
         21    1    1    2  504  501 -0.40501794883E+02 -0.76330856089E+01  0.12964282022E+03  0.13603646650E+03  0.00000000000E+00 0. -1.
</event>
<event>
 4    1  0.1679763E+006  0.2610954E+02  0.7546771E-02  0.1456764E+00
         21   -1    0    0  504  501  0.00000000000E+00  0.00000000000E+00  0.16571164699E+02  0.16571164699E+02  0.00000000000E+00 0. -1.
         21   -1    0    0  501  502 -0.00000000000E+00 -0.00000000000E+00 -0.41661728212E+02  0.41661728212E+02  0.00000000000E+00 0. -1.
         21    1    1    2  503  502 -0.15189548659E+02 -0.21236428736E+02 -0.15809127348E+02  0.30522725983E+02  0.00000000000E+00 0. -1.
         21    1    1    2  504  503  0.15189548659E+02  0.21236428736E+02 -0.92814361642E+01  0.27710166928E+02  0.00000000000E+00 0. -1.
</event>
<event>
 4    1  0.1679763E+006  0.2436953E+02  0.7546771E-02  0.1475982E+00
         21   -1    0    0  503  501  0.00000000000E+00  0.00000000000E+00  0.24173300377E+03  0.24173300377E+03  0.00000000000E+00 0.  1.
         21   -1    0    0  504  502 -0.00000000000E+00 -0.00000000000E+00 -0.65292090214E+01  0.65292090214E+01  0.00000000000E+00 0.  1.
         21    1    1    2  503  502 -0.64455678575E+01  0.23501669357E+02  0.19567264040E+02  0.31253025927E+02  0.00000000000E+00 0.  1.
         21    1    1    2  504  501  0.64455678575E+01 -0.23501669357E+02  0.21563653071E+03  0.21700918686E+03  0.00000000000E+00 0.  1.
</event>
<event>
 4    1  0.1679763E+006  0.3064214E+02  0.7546771E-02  0.1414097E+00
         21   -1    0    0  503  501  0.00000000000E+00  0.00000000000E+00  0.20382081717E+01  0.20382081717E+01  0.00000000000E+00 0.  1.
         21   -1    0    0  504  502 -0.00000000000E+00 -0.00000000000E+00 -0.11145676811E+04  0.11145676811E+04  0.00000000000E+00 0. -1.
         21    1    1    2  503  502  0.30490755014E+02 -0.30421651681E+01 -0.98389818484E+03  0.98437522269E+03  0.00000000000E+00 0. -1.
         21    1    1    2  504  501 -0.30490755014E+02  0.30421651681E+01 -0.12863128812E+03  0.13223066662E+03  0.00000000000E+00 0.  1.
</event>
<event>
 4    1  0.1679763E+006  0.2248105E+02  0.7546771E-02  0.1499119E+00
         21   -1    0    0  503  501  0.00000000000E+00  0.00000000000E+00  0.60157565360E+03  0.60157565360E+03  0.00000000000E+00 0.  1.
         21   -1    0    0  504  502 -0.00000000000E+00 -0.00000000000E+00 -0.10189647808E+01  0.10189647808E+01  0.00000000000E+00 0.  1.
         21    1    1    2  503  502 -0.68389868642E+01  0.21415553553E+02  0.42650465593E+03  0.42709673285E+03  0.00000000000E+00 0.  1.
         21    1    1    2  504  501  0.68389868642E+01 -0.21415553553E+02  0.17405203288E+03  0.17549788553E+03  0.00000000000E+00 0.  1.
</event>
<event>
 4    1  0.1679763E+006  0.2303266E+02  0.7546771E-02  0.1492088E+00
         21   -1    0    0  504  501  0.00000000000E+00  0.00000000000E+00  0.95348403426E+02  0.95348403426E+02  0.00000000000E+00 0. -1.
         21   -1    0    0  501  502 -0.00000000000E+00 -0.00000000000E+00 -0.12649268706E+03  0.12649268706E+03  0.00000000000E+00 0. -1.
         21    1    1    2  503  502  0.20671329094E+02  0.10158715841E+02 -0.12402580886E+03  0.12614636189E+03  0.00000000000E+00 0. -1.
         21    1    1    2  504  503 -0.20671329094E+02 -0.10158715841E+02  0.92881525224E+02  0.95694728601E+02  0.00000000000E+00 0. -1.
</event>
<event>
 4    1  0.1679763E+006  0.2810723E+02  0.7546771E-02  0.1436792E+00
         21   -1    0    0  502  501  0.00000000000E+00  0.00000000000E+00  0.89180638486E+03  0.89180638486E+03  0.00000000000E+00 0. -1.
         21   -1    0    0  504  502 -0.00000000000E+00 -0.00000000000E+00 -0.10140133427E+01  0.10140133427E+01  0.00000000000E+00 0. -1.
         21    1    1    2  503  501 -0.16501903635E+02  0.22753103123E+02  0.60409566167E+03  0.60474919179E+03  0.00000000000E+00 0. -1.
         21    1    1    2  504  503  0.16501903635E+02 -0.22753103123E+02  0.28669670985E+03  0.28807120641E+03  0.00000000000E+00 0. -1.
</event>
<event>
 4    1  0.1679763E+006  0.2302604E+02  0.7546771E-02  0.1492171E+00
         21   -1    0    0  503  501  0.00000000000E+00  0.00000000000E+00  0.24117536031E+02  0.24117536031E+02  0.00000000000E+00 0. -1.
         21   -1    0    0  504  502 -0.00000000000E+00 -0.00000000000E+00 -0.44818004081E+02  0.44818004081E+02  0.00000000000E+00 0. -1.
         21    1    1    2  503  502  0.21546116136E+02 -0.81217799123E+01 -0.34952695072E+02  0.41855576956E+02  0.00000000000E+00 0. -1.
         21    1    1    2  504  501 -0.21546116136E+02  0.81217799123E+01  0.14252227022E+02  0.27079963157E+02  0.00000000000E+00 0. -1.
</event>
<event>
 4    1  0.1679763E+006  0.2017591E+02  0.7546771E-02  0.1531363E+00
         21   -1    0    0  503  501  0.00000000000E+00  0.00000000000E+00  0.60582258515E+01  0.60582258515E+01  0.00000000000E+00 0. -1.
         21   -1    0    0  501  502 -0.00000000000E+00 -0.00000000000E+00 -0.67437431646E+02  0.67437431646E+02  0.00000000000E+00 0. -1.
         21    1    1    2  503  504  0.17050019917E+02  0.10787220918E+02 -0.32904264928E+02  0.38597382874E+02  0.00000000000E+00 0. -1.
         21    1    1    2  504  502 -0.17050019917E+02 -0.10787220918E+02 -0.28474940866E+02  0.34898274623E+02  0.00000000000E+00 0. -1.
</event>
<event>
 4    1  0.1679763E+006  0.2349587E+02  0.7546771E-02  0.1486364E+00
         21   -1    0    0  504  501  0.00000000000E+00  0.00000000000E+00  0.20459059604E+02  0.20459059604E+02  0.00000000000E+00 0. -1.
         21   -1    0    0  503  502 -0.00000000000E+00 -0.00000000000E+00 -0.45206466674E+02  0.45206466674E+02  0.00000000000E+00 0. -1.
         21    1    1    2  503  501 -0.87894577272E+01 -0.21789932771E+02  0.84720427582E+01  0.24976613978E+02  0.00000000000E+00 0. -1.
         21    1    1    2  504  502  0.87894577272E+01  0.21789932771E+02 -0.33219449828E+02  0.40688912300E+02  0.00000000000E+00 0. -1.
</event>
<event>
 4    1  0.1679763E+006  0.2257709E+02  0.7546771E-02  0.1497878E+00
         21   -1    0    0  502  501  0.00000000000E+00  0.00000000000E+00  0.29761382454E+02  0.29761382454E+02  0.00000000000E+00 0. -1.
         21   -1    0    0  504  502 -0.00000000000E+00 -0.00000000000E+00 -0.14998706907E+03  0.14998706907E+03  0.00000000000E+00 0. -1.
         21    1    1    2  503  501 -0.11130606915E+02  0.19642668730E+02  0.24474502779E+02  0.33297539420E+02  0.00000000000E+00 0. -1.
         21    1    1    2  504  503  0.11130606915E+02 -0.19642668730E+02 -0.14470018939E+03  0.14645091210E+03  0.00000000000E+00 0. -1.
</event>
<event>
 4    1  0.1679763E+006  0.2266098E+02  0.7546771E-02  0.1496800E+00
         21   -1    0    0  502  501  0.00000000000E+00  0.00000000000E+00  0.17053920710E+03  0.17053920710E+03  0.00000000000E+00 0. -1.
         21   -1    0    0  503  502 -0.00000000000E+00 -0.00000000000E+00 -0.30469538155E+01  0.30469538155E+01  0.00000000000E+00 0. -1.
         21    1    1    2  503  504 -0.38039501479E+01 -0.22339430249E+02  0.93153742614E+02  0.95870433104E+02  0.00000000000E+00 0. -1.
         21    1    1    2  504  501  0.38039501479E+01  0.22339430249E+02  0.74338510670E+02  0.77715727811E+02  0.00000000000E+00 0. -1.
</event>
<event>
 4    1  0.1679763E+006  0.2556350E+02  0.7546771E-02  0.1462597E+00
         21   -1    0    0  504  501  0.00000000000E+00  0.00000000000E+00  0.75562340498E+02  0.75562340498E+02  0.00000000000E+00 0.  1.
         21   -1    0    0  503  502 -0.00000000000E+00 -0.00000000000E+00 -0.21245738331E+03  0.21245738331E+03  0.00000000000E+00 0.  1.
         21    1    1    2  503  501  0.25551649287E+02  0.77833000887E+00  0.72600822675E+02  0.76969942393E+02  0.00000000000E+00 0.  1.
         21    1    1    2  504  502 -0.25551649287E+02 -0.77833000887E+00 -0.20949586548E+03  0.21104978141E+03  0.00000000000E+00 0.  1.
</event>
<event>
 4    1  0.1679763E+006  0.3097852E+02  0.7546771E-02  0.1411279E+00
         21   -1    0    0  503  501  0.00000000000E+00  0.00000000000E+00  0.83663123501E+02  0.83663123501E+02  0.00000000000E+00 0.  1.
         21   -1    0    0  504  502 -0.00000000000E+00 -0.00000000000E+00 -0.52819601089E+02  0.52819601089E+02  0.00000000000E+00 0. -1.
         21    1    1    2  503  502  0.30738444076E+02 -0.38492334065E+01 -0.44956763221E+02  0.54596511805E+02  0.00000000000E+00 0. -1.
         21    1    1    2  504  501 -0.30738444076E+02  0.38492334065E+01  0.75800285633E+02  0.81886212784E+02  0.00000000000E+00 0.  1.
</event>
<event>
 4    1  0.1679763E+006  0.3776420E+02  0.7546771E-02  0.1362110E+00
         21   -1    0    0  504  501  0.00000000000E+00  0.00000000000E+00  0.12486459309E+03  0.12486459309E+03  0.00000000000E+00 0. -1.
         21   -1    0    0  503  502 -0.00000000000E+00 -0.00000000000E+00 -0.39583743679E+03  0.39583743679E+03  0.00000000000E+00 0.  1.
         21    1    1    2  503  501 -0.32335739987E+02 -0.19507304926E+02 -0.39205387373E+03  0.39386847416E+03  0.00000000000E+00 0.  1.
         21    1    1    2  504  502  0.32335739987E+02  0.19507304926E+02  0.12108103003E+03  0.12683355573E+03  0.00000000000E+00 0. -1.
</event>
<event>
 4    1  0.1679763E+006  0.2548748E+02  0.7546771E-02  0.1463423E+00
         21   -1    0    0  503  501  0.00000000000E+00  0.00000000000E+00  0.16781618229E+02  0.16781618229E+02  0.00000000000E+00 0. -1.
         21   -1    0    0  504  502 -0.00000000000E+00 -0.00000000000E+00 -0.38737144253E+02  0.38737144253E+02  0.00000000000E+00 0. -1.
         21    1    1    2  503  502 -0.14279569450E+02 -0.21111737401E+02 -0.10239009236E+02  0.27467232658E+02  0.00000000000E+00 0. -1.
         21    1    1    2  504  501  0.14279569450E+02  0.21111737401E+02 -0.11716516789E+02  0.28051529824E+02  0.00000000000E+00 0. -1.
</event>
<event>
 4    1  0.1679763E+006  0.3896920E+02  0.7546771E-02  0.1354634E+00
         21   -1    0    0  502  501  0.00000000000E+00  0.00000000000E+00  0.17464770053E+03  0.17464770053E+03  0.00000000000E+00 0. -1.
         21   -1    0    0  503  502 -0.00000000000E+00 -0.00000000000E+00 -0.91935113560E+01  0.91935113560E+01  0.00000000000E+00 0. -1.
         21    1    1    2  503  504 -0.36475548488E+02 -0.13716165225E+02  0.61326924658E+02  0.72660790761E+02  0.00000000000E+00 0. -1.
         21    1    1    2  504  501  0.36475548488E+02  0.13716165225E+02  0.10412726452E+03  0.11118042113E+03  0.00000000000E+00 0. -1.
</event>
<event>
 4    1  0.1679763E+006  0.2351297E+02  0.7546771E-02  0.1486155E+00
         21   -1    0    0  504  501  0.00000000000E+00  0.00000000000E+00  0.12371837584E+03  0.12371837584E+03  0.00000000000E+00 0. -1.
         21   -1    0    0  503  502 -0.00000000000E+00 -0.00000000000E+00 -0.32263782659E+02  0.32263782659E+02  0.00000000000E+00 0.  1.
         21    1    1    2  503  501 -0.18134565010E+02 -0.14966535902E+02 -0.26661493052E+02  0.35548485998E+02  0.00000000000E+00 0.  1.
         21    1    1    2  504  502  0.18134565010E+02  0.14966535902E+02  0.11811608623E+03  0.12043367250E+03  0.00000000000E+00 0. -1.
</event>
<event>
 4    1  0.1679763E+006  0.2062576E+02  0.7546771E-02  0.1524676E+00
         21   -1    0    0  503  501  0.00000000000E+00  0.00000000000E+00  0.32725857990E+02  0.32725857990E+02  0.00000000000E+00 0. -1.
         21   -1    0    0  504  502 -0.00000000000E+00 -0.00000000000E+00 -0.28971991426E+02  0.28971991426E+02  0.00000000000E+00 0.  1.
         21    1    1    2  503  502  0.17123709971E+01 -0.20554554993E+02 -0.21028383020E+02  0.29455302372E+02  0.00000000000E+00 0.  1.
         21    1    1    2  504  501 -0.17123709971E+01  0.20554554993E+02  0.24782249585E+02  0.32242547044E+02  0.00000000000E+00 0. -1.
</event>
<event>
 4    1  0.1679763E+006  0.5812017E+02  0.7546771E-02  0.1266357E+00
         21   -1    0    0  502  501  0.00000000000E+00  0.00000000000E+00  0.24985547792E+02  0.24985547792E+02  0.00000000000E+00 0.  1.
         21   -1    0    0  504  502 -0.00000000000E+00 -0.00000000000E+00 -0.69478000953E+03  0.69478000953E+03  0.00000000000E+00 0.  1.
         21    1    1    2  503  501 -0.47333226071E+02  0.33727139958E+02 -0.11921470520E+02  0.59330226019E+02  0.00000000000E+00 0.  1.
         21    1    1    2  504  503  0.47333226071E+02 -0.33727139958E+02 -0.65787299122E+03  0.66043533130E+03  0.00000000000E+00 0.  1.
</event>
<event>
 4    1  0.1679763E+006  0.3053993E+02  0.7546771E-02  0.1414961E+00
         21   -1    0    0  504  501  0.00000000000E+00  0.00000000000E+00  0.12583951810E+03  0.12583951810E+03  0.00000000000E+00 0. -1.
         21   -1    0    0  501  502 -0.00000000000E+00 -0.00000000000E+00 -0.88479655350E+02  0.88479655350E+02  0.00000000000E+00 0. -1.
         21    1    1    2  503  502  0.20606382611E+02  0.22540279040E+02 -0.83893262134E+02  0.89279149946E+02  0.00000000000E+00 0. -1.
         21    1    1    2  504  503 -0.20606382611E+02 -0.22540279040E+02  0.12125312489E+03  0.12504002351E+03  0.00000000000E+00 0. -1.
</event>
<event>
 4    1  0.1679763E+006  0.2424040E+02  0.7546771E-02  0.1477483E+00
         21   -1    0    0  502  501  0.00000000000E+00  0.00000000000E+00  0.40772226366E+03  0.40772226366E+03  0.00000000000E+00 0.  1.
         21   -1    0    0  504  502 -0.00000000000E+00 -0.00000000000E+00 -0.34351943456E+02  0.34351943456E+02  0.00000000000E+00 0. -1.
         21    1    1    2  503  501 -0.18498845846E+02 -0.15664923938E+02  0.40303599161E+03  0.40376429717E+03  0.00000000000E+00 0.  1.
         21    1    1    2  504  503  0.18498845846E+02  0.15664923938E+02 -0.29665671407E+02  0.38309909941E+02  0.00000000000E+00 0. -1.
</event>
<event>
 4    1  0.1679763E+006  0.2021355E+02  0.7546771E-02  0.1530796E+00
         21   -1    0    0  503  501  0.00000000000E+00  0.00000000000E+00  0.18251321613E+02  0.18251321613E+02  0.00000000000E+00 0. -1.
         21   -1    0    0  504  502 -0.00000000000E+00 -0.00000000000E+00 -0.38125856508E+02  0.38125856508E+02  0.00000000000E+00 0. -1.
         21    1    1    2  503  502 -0.17374638410E+02 -0.10330027806E+02 -0.28048739595E+02  0.34573390450E+02  0.00000000000E+00 0. -1.
         21    1    1    2  504  501  0.17374638410E+02  0.10330027806E+02  0.81742046994E+01  0.21803787671E+02  0.00000000000E+00 0. -1.
</event>
<event>
 4    1  0.1679763E+006  0.2266982E+02  0.7546771E-02  0.1496686E+00
         21   -1    0    0  503  501  0.00000000000E+00  0.00000000000E+00  0.73350537024E+01  0.73350537024E+01  0.00000000000E+00 0.  1.
         21   -1    0    0  504  502 -0.00000000000E+00 -0.00000000000E+00 -0.23033426095E+03  0.23033426095E+03  0.00000000000E+00 0. -1.
         21    1    1    2  503  502  0.15769065735E+02 -0.16286726737E+02 -0.12372881740E+02  0.25826519404E+02  0.00000000000E+00 0.  1.
         21    1    1    2  504  501 -0.15769065735E+02  0.16286726737E+02 -0.21062632550E+03  0.21184279525E+03  0.00000000000E+00 0. -1.
</event>
<event>
 4    1  0.1679763E+006  0.2556187E+02  0.7546771E-02  0.1462615E+00
         21   -1    0    0  504  501  0.00000000000E+00  0.00000000000E+00  0.21359744284E+02  0.21359744284E+02  0.00000000000E+00 0.  1.
         21   -1    0    0  503  502 -0.00000000000E+00 -0.00000000000E+00 -0.47052955052E+02  0.47052955052E+02  0.00000000000E+00 0.  1.
         21    1    1    2  503  501 -0.12907949392E+02 -0.22063408158E+02 -0.33079507687E+02  0.41805059094E+02  0.00000000000E+00 0.  1.
         21    1    1    2  504  502  0.12907949392E+02  0.22063408158E+02  0.73862969189E+01  0.26607640242E+02  0.00000000000E+00 0.  1.
</event>
<event>
 4    1  0.1679763E+006  0.2872017E+02  0.7546771E-02  0.1431054E+00
         21   -1    0    0  502  501  0.00000000000E+00  0.00000000000E+00  0.64558044543E+02  0.64558044543E+02  0.00000000000E+00 0.  1.
         21   -1    0    0  503  502 -0.00000000000E+00 -0.00000000000E+00 -0.45005825791E+02  0.45005825791E+02  0.00000000000E+00 0.  1.
         21    1    1    2  503  504  0.67922541782E+01 -0.27905435462E+02 -0.36582062010E+02  0.46509088424E+02  0.00000000000E+00 0.  1.
         21    1    1    2  504  501 -0.67922541782E+01  0.27905435462E+02  0.56134280762E+02  0.63054781910E+02  0.00000000000E+00 0.  1.
</event>
<event>
 4    1  0.1679763E+006  0.2059947E+02  0.7546771E-02  0.1525061E+00
         21   -1    0    0  504  501  0.00000000000E+00  0.00000000000E+00  0.27211390972E+02  0.27211390972E+02  0.00000000000E+00 0. -1.
         21   -1    0    0  503  502 -0.00000000000E+00 -0.00000000000E+00 -0.20830304305E+02  0.20830304305E+02  0.00000000000E+00 0. -1.
         21    1    1    2  503  501  0.18440445990E+02  0.91808639881E+01 -0.88527993845E+01  0.22421203554E+02  0.00000000000E+00 0. -1.
         21    1    1    2  504  502 -0.18440445990E+02 -0.91808639881E+01  0.15233886051E+02  0.25620491722E+02  0.00000000000E+00 0. -1.
</event>
<event>
 4    1  0.1679763E+006  0.3489862E+02  0.7546771E-02  0.1381277E+00
         21   -1    0    0  504  501  0.00000000000E+00  0.00000000000E+00  0.11811794804E+02  0.11811794804E+02  0.00000000000E+00 0.  1.
         21   -1    0    0  503  502 -0.00000000000E+00 -0.00000000000E+00 -0.74032318795E+03  0.74032318795E+03  0.00000000000E+00 0. -1.
         21    1    1    2  503  501 -0.27257982444E+02 -0.21792564524E+02 -0.71315292097E+03  0.71400630401E+03  0.00000000000E+00 0. -1.
         21    1    1    2  504  502  0.27257982444E+02  0.21792564524E+02 -0.15358472179E+02  0.38128678749E+02  0.00000000000E+00 0.  1.
</event>
<event>
 4    1  0.1679763E+006  0.3188529E+02  0.7546771E-02  0.1403891E+00
         21   -1    0    0  504  501  0.00000000000E+00  0.00000000000E+00  0.38827221522E+01  0.38827221522E+01  0.00000000000E+00 0. -1.
         21   -1    0    0  501  502 -0.00000000000E+00 -0.00000000000E+00 -0.47985552901E+03  0.47985552901E+03  0.00000000000E+00 0. -1.
         21    1    1    2  503  502 -0.29256817603E+02  0.12677169806E+02 -0.40101498727E+03  0.40228061354E+03  0.00000000000E+00 0. -1.
         21    1    1    2  504  503  0.29256817603E+02 -0.12677169806E+02 -0.74957819587E+02  0.81457637627E+02  0.00000000000E+00 0. -1.
</event>
<event>
 4    1  0.1679763E+006  0.2257639E+02  0.7546771E-02  0.1497887E+00
         21   -1    0    0  502  501  0.00000000000E+00  0.00000000000E+00  0.19364339667E+03  0.19364339667E+03  0.00000000000E+00 0. -1.
         21   -1    0    0  503  502 -0.00000000000E+00 -0.00000000000E+00 -0.61420464003E+02  0.61420464003E+02  0.00000000000E+00 0.  1.
         21    1    1    2  503  504 -0.17322807818E+02 -0.14478045183E+02 -0.58657904411E+02  0.62852551363E+02  0.00000000000E+00 0.  1.
         21    1    1    2  504  501  0.17322807818E+02  0.14478045183E+02  0.19088083708E+03  0.19221130931E+03  0.00000000000E+00 0. -1.
</event>
<event>
 4    1  0.1679763E+006  0.3266772E+02  0.7546771E-02  0.1397746E+00
         21   -1    0    0  503  501  0.00000000000E+00  0.00000000000E+00  0.15735848093E+03  0.15735848093E+03  0.00000000000E+00 0. -1.
         21   -1    0    0  501  502 -0.00000000000E+00 -0.00000000000E+00 -0.17418016621E+02  0.17418016621E+02  0.00000000000E+00 0. -1.
         21    1    1    2  503  504  0.73224892574E+01 -0.31836469903E+02  0.13825856418E+03  0.14206551388E+03  0.00000000000E+00 0. -1.
         21    1    1    2  504  502 -0.73224892574E+01  0.31836469903E+02  0.16819001316E+01  0.32710983673E+02  0.00000000000E+00 0. -1.
</event>
<event>
 4    1  0.1679763E+006  0.2155783E+02  0.7546771E-02  0.1511447E+00
         21   -1    0    0  504  501  0.00000000000E+00  0.00000000000E+00  0.11227079715E+03  0.11227079715E+03  0.00000000000E+00 0.  1.
         21   -1    0    0  503  502 -0.00000000000E+00 -0.00000000000E+00 -0.48995716897E+01  0.48995716897E+01  0.00000000000E+00 0. -1.
         21    1    1    2  503  501 -0.63719532899E+01 -0.20594616886E+02  0.30610248231E+02  0.37439649173E+02  0.00000000000E+00 0. -1.
         21    1    1    2  504  502  0.63719532899E+01  0.20594616886E+02  0.76760977232E+02  0.79730719669E+02  0.00000000000E+00 0.  1.
</event>
<event>
 4    1  0.1679763E+006  0.2076725E+02  0.7546771E-02  0.1522614E+00
         21   -1    0    0  504  501  0.00000000000E+00  0.00000000000E+00  0.37202912951E+00  0.37202912951E+00  0.00000000000E+00 0. -1.
         21   -1    0    0  503  502 -0.00000000000E+00 -0.00000000000E+00 -0.11825830682E+04  0.11825830682E+04  0.00000000000E+00 0. -1.
         21    1    1    2  503  501  0.10664065234E+02 -0.17820114038E+02 -0.50804231225E+03  0.50846658670E+03  0.00000000000E+00 0. -1.
         21    1    1    2  504  502 -0.10664065234E+02  0.17820114038E+02 -0.67416872687E+03  0.67448851068E+03  0.00000000000E+00 0. -1.
</event>
<event>
 4    1  0.1679763E+006  0.2429743E+02  0.7546771E-02  0.1476819E+00
         21   -1    0    0  504  501  0.00000000000E+00  0.00000000000E+00  0.15953133628E+02  0.15953133628E+02  0.00000000000E+00 0.  1.
         21   -1    0    0  503  502 -0.00000000000E+00 -0.00000000000E+00 -0.52356355860E+02  0.52356355860E+02  0.00000000000E+00 0. -1.
         21    1    1    2  503  501  0.14865605236E+02  0.19219230813E+02  0.29203561217E+00  0.24299183873E+02  0.00000000000E+00 0.  1.
         21    1    1    2  504  502 -0.14865605236E+02 -0.19219230813E+02 -0.36695257844E+02  0.44010305615E+02  0.00000000000E+00 0. -1.
</event>
<event>
 4    1  0.1679763E+006  0.8106185E+02  0.7546771E-02  0.1201404E+00
         21   -1    0    0  504  501  0.00000000000E+00  0.00000000000E+00  0.70726297368E+02  0.70726297368E+02  0.00000000000E+00 0. -1.
         21   -1    0    0  503  502 -0.00000000000E+00 -0.00000000000E+00 -0.15246211846E+03  0.15246211846E+03  0.00000000000E+00 0.  1.
         21    1    1    2  503  501 -0.61049905559E+02 -0.53328528865E+02 -0.11061360416E+03  0.13713640066E+03  0.00000000000E+00 0.  1.
         21    1    1    2  504  502  0.61049905559E+02  0.53328528865E+02  0.28877783071E+02  0.86052015169E+02  0.00000000000E+00 0. -1.
</event>
<event>
 4    1  0.1679763E+006  0.3747951E+02  0.7546771E-02  0.1363924E+00
         21   -1    0    0  504  501  0.00000000000E+00  0.00000000000E+00  0.11850005145E+02  0.11850005145E+02  0.00000000000E+00 0. -1.
         21   -1    0    0  501  502 -0.00000000000E+00 -0.00000000000E+00 -0.64157148626E+03  0.64157148626E+03  0.00000000000E+00 0.  1.
         21    1    1    2  503  502  0.31788225891E+02  0.19855041787E+02 -0.60984871043E+03  0.61099931555E+03  0.00000000000E+00 0.  1.
         21    1    1    2  504  503 -0.31788225891E+02 -0.19855041787E+02 -0.19872770686E+02  0.42422175856E+02  0.00000000000E+00 0. -1.
</event>
<event>
 4    1  0.1679763E+006  0.2491393E+02  0.7546771E-02  0.1469769E+00
         21   -1    0    0  503  501  0.00000000000E+00  0.00000000000E+00  0.15020702659E+03  0.15020702659E+03  0.00000000000E+00 0.  1.
         21   -1    0    0  504  502 -0.00000000000E+00 -0.00000000000E+00 -0.45785704040E+01  0.45785704040E+01  0.00000000000E+00 0.  1.
         21    1    1    2  503  502 -0.23448595256E+02  0.84182735314E+01  0.96975704039E+02  0.10012487764E+03  0.00000000000E+00 0.  1.
         21    1    1    2  504  501  0.23448595256E+02 -0.84182735314E+01  0.48652752147E+02  0.54660719353E+02  0.00000000000E+00 0.  1.
</event>
<event>
 4    1  0.1679763E+006  0.2408850E+02  0.7546771E-02  0.1479264E+00
         21   -1    0    0  503  501  0.00000000000E+00  0.00000000000E+00  0.10803039563E+03  0.10803039563E+03  0.00000000000E+00 0. -1.
         21   -1    0    0  501  502 -0.00000000000E+00 -0.00000000000E+00 -0.13527748649E+02  0.13527748649E+02  0.00000000000E+00 0. -1.
         21    1    1    2  503  504  0.29882211711E+01 -0.23902437667E+02  0.94446079687E+02  0.97469574537E+02  0.00000000000E+00 0. -1.
         21    1    1    2  504  502 -0.29882211711E+01  0.23902437667E+02  0.56567290467E-01  0.24088569738E+02  0.00000000000E+00 0. -1.
</event>
<event>
 4    1  0.1679763E+006  0.2240439E+02  0.7546771E-02  0.1500116E+00
         21   -1    0    0  504  501  0.00000000000E+00  0.00000000000E+00  0.20223786786E+02  0.20223786786E+02  0.00000000000E+00 0.  1.
         21   -1    0    0  503  502 -0.00000000000E+00 -0.00000000000E+00 -0.69541725453E+02  0.69541725453E+02  0.00000000000E+00 0. -1.
         21    1    1    2  503  501  0.22205763613E+02  0.29767300986E+01  0.11333817054E+02  0.25108012042E+02  0.00000000000E+00 0.  1.
         21    1    1    2  504  502 -0.22205763613E+02 -0.29767300986E+01 -0.60651755721E+02  0.64657500197E+02  0.00000000000E+00 0. -1.
</event>
<event>
 4    1  0.1679763E+006  0.2317658E+02  0.7546771E-02  0.1490293E+00
         21   -1    0    0  504  501  0.00000000000E+00  0.00000000000E+00  0.10749568838E+04  0.10749568838E+04  0.00000000000E+00 0. -1.
         21   -1    0    0  503  502 -0.00000000000E+00 -0.00000000000E+00 -0.18158026467E+01  0.18158026467E+01  0.00000000000E+00 0.  1.
         21    1    1    2  503  501  0.20774015530E+02  0.10275909951E+02  0.78212465657E+02  0.81574161539E+02  0.00000000000E+00 0.  1.
         21    1    1    2  504  502 -0.20774015530E+02 -0.10275909951E+02  0.99492861552E+03  0.99519852493E+03  0.00000000000E+00 0. -1.
</event>
<event>
 4    1  0.1679763E+006  0.2081999E+02  0.7546771E-02  0.1521851E+00
         21   -1    0    0  503  501  0.00000000000E+00  0.00000000000E+00  0.77673150108E+03  0.77673150108E+03  0.00000000000E+00 0. -1.
         21   -1    0    0  504  502 -0.00000000000E+00 -0.00000000000E+00 -0.63678340950E+00  0.63678340950E+00  0.00000000000E+00 0.  1.
         21    1    1    2  503  502  0.16705887317E+02 -0.12425192155E+02  0.25139412682E+03  0.25225478999E+03  0.00000000000E+00 0.  1.
         21    1    1    2  504  501 -0.16705887317E+02  0.12425192155E+02  0.52470059084E+03  0.52511349450E+03  0.00000000000E+00 0. -1.
</event>
<event>
 4    1  0.1679763E+006  0.2389072E+02  0.7546771E-02  0.1481606E+00
         21   -1    0    0  503  501  0.00000000000E+00  0.00000000000E+00  0.14082882811E+03  0.14082882811E+03  0.00000000000E+00 0. -1.
         21   -1    0    0  501  502 -0.00000000000E+00 -0.00000000000E+00 -0.46910004977E+01  0.46910004977E+01  0.00000000000E+00 0. -1.
         21    1    1    2  503  504 -0.65244281803E+01  0.22982567777E+02  0.94903847847E+02  0.97864737882E+02  0.00000000000E+00 0. -1.
         21    1    1    2  504  502  0.65244281803E+01 -0.22982567777E+02  0.41233979766E+02  0.47655090725E+02  0.00000000000E+00 0. -1.
</event>
<event>
 4    1  0.1679763E+006  0.2339864E+02  0.7546771E-02  0.1487552E+00
         21   -1    0    0  503  501  0.00000000000E+00  0.00000000000E+00  0.11777800296E+03  0.11777800296E+03  0.00000000000E+00 0.  1.
         21   -1    0    0  501  502 -0.00000000000E+00 -0.00000000000E+00 -0.14948972106E+03  0.14948972106E+03  0.00000000000E+00 0. -1.
         21    1    1    2  503  504 -0.23051913230E+02 -0.40132027476E+01  0.11568384888E+03  0.11802647750E+03  0.00000000000E+00 0.  1.
         21    1    1    2  504  502  0.23051913230E+02  0.40132027476E+01 -0.14739556698E+03  0.14924124653E+03  0.00000000000E+00 0. -1.
</event>
<event>
 4    1  0.1679763E+006  0.2144657E+02  0.7546771E-02  0.1512984E+00
         21   -1    0    0  504  501  0.00000000000E+00  0.00000000000E+00  0.30744136514E+02  0.30744136514E+02  0.00000000000E+00 0. -1.
         21   -1    0    0  501  502 -0.00000000000E+00 -0.00000000000E+00 -0.13885444339E+03  0.13885444339E+03  0.00000000000E+00 0.  1.
         21    1    1    2  503  502 -0.33980285536E+01  0.21175667413E+02 -0.13415596502E+03  0.13585940688E+03  0.00000000000E+00 0.  1.
         21    1    1    2  504  503  0.33980285536E+01 -0.21175667413E+02  0.26045658140E+02  0.33739173024E+02  0.00000000000E+00 0. -1.
</event>
<event>
 4    1  0.1679763E+006  0.2346434E+02  0.7546771E-02  0.1486748E+00
         21   -1    0    0  502  501  0.00000000000E+00  0.00000000000E+00  0.51682931184E+03  0.51682931184E+03  0.00000000000E+00 0.  1.
         21   -1    0    0  504  502 -0.00000000000E+00 -0.00000000000E+00 -0.22555102686E+01  0.22555102686E+01  0.00000000000E+00 0. -1.
         21    1    1    2  503  501  0.89377812349E+01  0.21695425896E+02  0.44582484836E+03  0.44644190087E+03  0.00000000000E+00 0.  1.
         21    1    1    2  504  503 -0.89377812349E+01 -0.21695425896E+02  0.68748953211E+02  0.72642921237E+02  0.00000000000E+00 0. -1.
</event>
<event>
 4    1  0.1679763E+006  0.2243317E+02  0.7546771E-02  0.1499741E+00
         21   -1    0    0  503  501  0.00000000000E+00  0.00000000000E+00  0.54995664484E+01  0.54995664484E+01  0.00000000000E+00 0.  1.
         21   -1    0    0  501  502 -0.00000000000E+00 -0.00000000000E+00 -0.19211923735E+03  0.19211923735E+03  0.00000000000E+00 0.  1.
         21    1    1    2  503  504  0.17166001279E+02 -0.14442148707E+02 -0.21804431880E+02  0.31283869786E+02  0.00000000000E+00 0.  1.
         21    1    1    2  504  502 -0.17166001279E+02  0.14442148707E+02 -0.16481523902E+03  0.16633493401E+03  0.00000000000E+00 0.  1.
</event>
<event>
 4    1  0.1679763E+006  0.2020019E+02  0.7546771E-02  0.1530997E+00
         21   -1    0    0  502  501  0.00000000000E+00  0.00000000000E+00  0.15435372397E+04  0.15435372397E+04  0.00000000000E+00 0.  1.
         21   -1    0    0  503  502 -0.00000000000E+00 -0.00000000000E+00 -0.33598572953E+00  0.33598572953E+00  0.00000000000E+00 0.  1.
         21    1    1    2  503  504 -0.20147002784E+02  0.14649592935E+01  0.41518310329E+03  0.41567421990E+03  0.00000000000E+00 0.  1.
         21    1    1    2  504  501  0.20147002784E+02 -0.14649592935E+01  0.11280181507E+04  0.11281990055E+04  0.00000000000E+00 0.  1.
</event>
<event>
 4    1  0.1679763E+006  0.2066082E+02  0.7546771E-02  0.1524163E+00
         21   -1    0    0  504  501  0.00000000000E+00  0.00000000000E+00  0.69206091683E+03  0.69206091683E+03  0.00000000000E+00 0. -1.
         21   -1    0    0  503  502 -0.00000000000E+00 -0.00000000000E+00 -0.11872337982E+01  0.11872337982E+01  0.00000000000E+00 0.  1.
         21    1    1    2  503  501 -0.87825000326E+01 -0.18701257906E+02  0.58570146126E+03  0.58606575661E+03  0.00000000000E+00 0. -1.
         21    1    1    2  504  502  0.87825000326E+01  0.18701257906E+02  0.10517222178E+03  0.10718239402E+03  0.00000000000E+00 0.  1.
</event>
<event>
 4    1  0.1679763E+006  0.2876376E+02  0.7546771E-02  0.1430652E+00
         21   -1    0    0  503  501  0.00000000000E+00  0.00000000000E+00  0.20586145784E+03  0.20586145784E+03  0.00000000000E+00 0.  1.
         21   -1    0    0  501  502 -0.00000000000E+00 -0.00000000000E+00 -0.45671591261E+01  0.45671591261E+01  0.00000000000E+00 0.  1.
         21    1    1    2  503  504  0.26943492457E+02  0.10069871408E+02  0.13709828213E+03  0.14008316479E+03  0.00000000000E+00 0.  1.
         21    1    1    2  504  502 -0.26943492457E+02 -0.10069871408E+02  0.64196016585E+02  0.70345452172E+02  0.00000000000E+00 0.  1.
</event>
<event>
 4    1  0.1679763E+006  0.2736282E+02  0.7546771E-02  0.1443997E+00
         21   -1    0    0  503  501  0.00000000000E+00  0.00000000000E+00  0.26133507749E+03  0.26133507749E+03  0.00000000000E+00 0. -1.
         21   -1    0    0  504  502 -0.00000000000E+00 -0.00000000000E+00 -0.14565116488E+03  0.14565116488E+03  0.00000000000E+00 0.  1.
         21    1    1    2  503  502  0.19906163470E+02 -0.18774146485E+02  0.25932375655E+03  0.26076336904E+03  0.00000000000E+00 0. -1.
         21    1    1    2  504  501 -0.19906163470E+02  0.18774146485E+02 -0.14363984393E+03  0.14622287333E+03  0.00000000000E+00 0.  1.
</event>
<event>
 4    1  0.1679763E+006  0.2984693E+02  0.7546771E-02  0.1420931E+00
         21   -1    0    0  503  501  0.00000000000E+00  0.00000000000E+00  0.20060373024E+03  0.20060373024E+03  0.00000000000E+00 0. -1.
         21   -1    0    0  504  502 -0.00000000000E+00 -0.00000000000E+00 -0.21950197759E+02  0.21950197759E+02  0.00000000000E+00 0.  1.
         21    1    1    2  503  502 -0.25141670490E+02 -0.16085255424E+02 -0.10058447936E+02  0.31496212661E+02  0.00000000000E+00 0.  1.
         21    1    1    2  504  501  0.25141670490E+02  0.16085255424E+02  0.18871198041E+03  0.19105771533E+03  0.00000000000E+00 0. -1.
</event>
<event>
 4    1  0.1679763E+006  0.2849959E+02  0.7546771E-02  0.1433099E+00
         21   -1    0    0  503  501  0.00000000000E+00  0.00000000000E+00  0.18306488102E+02  0.18306488102E+02  0.00000000000E+00 0.  1.
         21   -1    0    0  504  502 -0.00000000000E+00 -0.00000000000E+00 -0.33755161074E+03  0.33755161074E+03  0.00000000000E+00 0. -1.
         21    1    1    2  503  502 -0.28454670272E+02 -0.15995521956E+01  0.62010718175E+01  0.29166421090E+02  0.00000000000E+00 0.  1.
         21    1    1    2  504  501  0.28454670272E+02  0.15995521956E+01 -0.32544619445E+03  0.32669167775E+03  0.00000000000E+00 0. -1.
</event>
<event>
 4    1  0.1679763E+006  0.2379076E+02  0.7546771E-02  0.1482800E+00
         21   -1    0    0  504  501  0.00000000000E+00  0.00000000000E+00  0.15527340256E+03  0.15527340256E+03  0.00000000000E+00 0. -1.
         21   -1    0    0  501  502 -0.00000000000E+00 -0.00000000000E+00 -0.17070263654E+02  0.17070263654E+02  0.00000000000E+00 0.  1.
         21    1    1    2  503  502  0.10481633433E+02  0.21357330804E+02 -0.73178339315E+01  0.24890779657E+02  0.00000000000E+00 0.  1.
         21    1    1    2  504  503 -0.10481633433E+02 -0.21357330804E+02  0.14552097284E+03  0.14745288656E+03  0.00000000000E+00 0. -1.
</event>
<event>
 4    1  0.1679763E+006  0.2828028E+02  0.7546771E-02  0.1435155E+00
         21   -1    0    0  504  501  0.00000000000E+00  0.00000000000E+00  0.35346942954E+01  0.35346942954E+01  0.00000000000E+00 0. -1.
         21   -1    0    0  501  502 -0.00000000000E+00 -0.00000000000E+00 -0.35864566546E+03  0.35864566546E+03  0.00000000000E+00 0.  1.
         21    1    1    2  503  502  0.27203905119E+02 -0.77279689278E+01 -0.28757661008E+03  0.28896380504E+03  0.00000000000E+00 0.  1.
         21    1    1    2  504  503 -0.27203905119E+02  0.77279689278E+01 -0.67534361088E+02  0.73216554719E+02  0.00000000000E+00 0. -1.
</event>
<event>
 4    1  0.1679763E+006  0.2210944E+02  0.7546771E-02  0.1503994E+00
         21   -1    0    0  502  501  0.00000000000E+00  0.00000000000E+00  0.59855575800E+02  0.59855575800E+02  0.00000000000E+00 0. -1.
         21   -1    0    0  503  502 -0.00000000000E+00 -0.00000000000E+00 -0.84006563349E+01  0.84006563349E+01  0.00000000000E+00 0. -1.
         21    1    1    2  503  504  0.14359909497E+02  0.16811319910E+02  0.20033080508E+02  0.29835411720E+02  0.00000000000E+00 0. -1.
         21    1    1    2  504  501 -0.14359909497E+02 -0.16811319910E+02  0.31421838957E+02  0.38420820414E+02  0.00000000000E+00 0. -1.
</event>
<event>
 4    1  0.1679763E+006  0.2128552E+02  0.7546771E-02  0.1515227E+00
         21   -1    0    0  504  501  0.00000000000E+00  0.00000000000E+00  0.27170842829E+02  0.27170842829E+02  0.00000000000E+00 0. -1.
         21   -1    0    0  501  502 -0.00000000000E+00 -0.00000000000E+00 -0.31543710072E+02  0.31543710072E+02  0.00000000000E+00 0. -1.
         21    1    1    2  503  502 -0.13556531669E+02 -0.16410180131E+02 -0.22342053192E+02  0.30858400861E+02  0.00000000000E+00 0. -1.
         21    1    1    2  504  503  0.13556531669E+02  0.16410180131E+02  0.17969185949E+02  0.27856152040E+02  0.00000000000E+00 0. -1.
</event>
<event>
 4    1  0.1679763E+006  0.2768891E+02  0.7546771E-02  0.1440808E+00
         21   -1    0    0  504  501  0.00000000000E+00  0.00000000000E+00  0.16504444977E+02  0.16504444977E+02  0.00000000000E+00 0. -1.
         21   -1    0    0  503  502 -0.00000000000E+00 -0.00000000000E+00 -0.23667762358E+03  0.23667762358E+03  0.00000000000E+00 0.  1.
         21    1    1    2  503  501 -0.84204978363E+01 -0.26377469967E+02  0.34035371336E+01  0.27897307588E+02  0.00000000000E+00 0. -1.
         21    1    1    2  504  502  0.84204978363E+01  0.26377469967E+02 -0.22357671573E+03  0.22528476097E+03  0.00000000000E+00 0.  1.
</event>
<event>
 4    1  0.1679763E+006  0.2532744E+02  0.7546771E-02  0.1465173E+00
         21   -1    0    0  504  501  0.00000000000E+00  0.00000000000E+00  0.51753727381E+02  0.51753727381E+02  0.00000000000E+00 0. -1.
         21   -1    0    0  503  502 -0.00000000000E+00 -0.00000000000E+00 -0.89145442241E+03  0.89145442241E+03  0.00000000000E+00 0.  1.
         21    1    1    2  503  501 -0.26911756729E+01 -0.25184056773E+02  0.48463644318E+02  0.54682757453E+02  0.00000000000E+00 0. -1.
         21    1    1    2  504  502  0.26911756729E+01  0.25184056773E+02 -0.88816433935E+03  0.88852539234E+03  0.00000000000E+00 0.  1.
</event>
<event>
 4    1  0.1679763E+006  0.3066648E+02  0.7546771E-02  0.1413891E+00
         21   -1    0    0  502  501  0.00000000000E+00  0.00000000000E+00  0.56566553813E+03  0.56566553813E+03  0.00000000000E+00 0. -1.
         21   -1    0    0  504  502 -0.00000000000E+00 -0.00000000000E+00 -0.32306342277E+02  0.32306342277E+02  0.00000000000E+00 0. -1.
         21    1    1    2  503  501  0.18520609941E+02 -0.24442175748E+02  0.55787083742E+03  0.55871307859E+03  0.00000000000E+00 0. -1.
         21    1    1    2  504  503 -0.18520609941E+02  0.24442175748E+02 -0.24511641564E+02  0.39258801816E+02  0.00000000000E+00 0. -1.
</event>
<event>
 4    1  0.1679763E+006  0.3327463E+02  0.7546771E-02  0.1393116E+00
         21   -1    0    0  503  501  0.00000000000E+00  0.00000000000E+00  0.19872977682E+02  0.19872977682E+02  0.00000000000E+00 0.  1.
         21   -1    0    0  504  502 -0.00000000000E+00 -0.00000000000E+00 -0.60827940967E+02  0.60827940967E+02  0.00000000000E+00 0. -1.
         21    1    1    2  503  502 -0.20589584422E+02 -0.26139436250E+02 -0.87776671056E+01  0.34412912605E+02  0.00000000000E+00 0.  1.
         21    1    1    2  504  501  0.20589584422E+02  0.26139436250E+02 -0.32177296179E+02  0.46288006044E+02  0.00000000000E+00 0. -1.
</event>
<event>
 4    1  0.1679763E+006  0.3181472E+02  0.7546771E-02  0.1404456E+00
         21   -1    0    0  503  501  0.00000000000E+00  0.00000000000E+00  0.27745728968E+02  0.27745728968E+02  0.00000000000E+00 0. -1.
         21   -1    0    0  504  502 -0.00000000000E+00 -0.00000000000E+00 -0.77554023105E+02  0.77554023105E+02  0.00000000000E+00 0. -1.
         21    1    1    2  503  502 -0.29173417668E+02 -0.12692045162E+02 -0.63219823761E+02  0.70773741071E+02  0.00000000000E+00 0. -1.
         21    1    1    2  504  501  0.29173417668E+02  0.12692045162E+02  0.13411529624E+02  0.34526011002E+02  0.00000000000E+00 0. -1.
</event>
<event>
 4    1  0.1679763E+006  0.2026946E+02  0.7546771E-02  0.1529956E+00
         21   -1    0    0  503  501  0.00000000000E+00  0.00000000000E+00  0.20220094219E+02  0.20220094219E+02  0.00000000000E+00 0. -1.
         21   -1    0    0  504  502 -0.00000000000E+00 -0.00000000000E+00 -0.53122306761E+02  0.53122306761E+02  0.00000000000E+00 0. -1.
         21    1    1    2  503  502  0.20240902495E+02 -0.10755617380E+01 -0.45267912526E+02  0.49598738606E+02  0.00000000000E+00 0. -1.
         21    1    1    2  504  501 -0.20240902495E+02  0.10755617380E+01  0.12365699984E+02  0.23743662374E+02  0.00000000000E+00 0. -1.
</event>
<event>
 4    1  0.1679763E+006  0.2499268E+02  0.7546771E-02  0.1468885E+00
         21   -1    0    0  503  501  0.00000000000E+00  0.00000000000E+00  0.40721024445E+01  0.40721024445E+01  0.00000000000E+00 0.  1.
         21   -1    0    0  504  502 -0.00000000000E+00 -0.00000000000E+00 -0.15722489211E+03  0.15722489211E+03  0.00000000000E+00 0. -1.
         21    1    1    2  503  502  0.14415915337E+02  0.20416058130E+02 -0.63986736280E+02  0.68694515533E+02  0.00000000000E+00 0.  1.
         21    1    1    2  504  501 -0.14415915337E+02 -0.20416058130E+02 -0.89166053388E+02  0.92602479024E+02  0.00000000000E+00 0. -1.
</event>
<event>
 4    1  0.1679763E+006  0.2170147E+02  0.7546771E-02  0.1509481E+00
         21   -1    0    0  503  501  0.00000000000E+00  0.00000000000E+00  0.54612010853E+03  0.54612010853E+03  0.00000000000E+00 0.  1.
         21   -1    0    0  501  502 -0.00000000000E+00 -0.00000000000E+00 -0.32211464333E+02  0.32211464333E+02  0.00000000000E+00 0.  1.
         21    1    1    2  503  504 -0.10830183609E+02 -0.18805877522E+02  0.54222308500E+03  0.54265719180E+03  0.00000000000E+00 0.  1.
         21    1    1    2  504  502  0.10830183609E+02  0.18805877522E+02 -0.28314440801E+02  0.35674381064E+02  0.00000000000E+00 0.  1.
</event>
<event>
 4    1  0.1679763E+006  0.2013262E+02  0.7546771E-02  0.1532018E+00
         21   -1    0    0  504  501  0.00000000000E+00  0.00000000000E+00  0.27795542958E+03  0.27795542958E+03  0.00000000000E+00 0. -1.
         21   -1    0    0  503  502 -0.00000000000E+00 -0.00000000000E+00 -0.28257612174E+02  0.28257612174E+02  0.00000000000E+00 0. -1.
         21    1    1    2  503  501  0.20093159159E+02  0.12598960779E+01 -0.24254772275E+02  0.31521680813E+02  0.00000000000E+00 0. -1.
         21    1    1    2  504  502 -0.20093159159E+02 -0.12598960779E+01  0.27395258968E+03  0.27469136095E+03  0.00000000000E+00 0. -1.
</event>
<event>
 4    1  0.1679763E+006  0.2360158E+02  0.7546771E-02  0.1485079E+00
         21   -1    0    0  503  501  0.00000000000E+00  0.00000000000E+00  0.50912183662E+03  0.50912183662E+03  0.00000000000E+00 0. -1.
         21   -1    0    0  504  502 -0.00000000000E+00 -0.00000000000E+00 -0.15627592854E+01  0.15627592854E+01  0.00000000000E+00 0. -1.
         21    1    1    2  503  502  0.20127931624E+02  0.12324813441E+02  0.11394924303E+03  0.11636779900E+03  0.00000000000E+00 0. -1.
         21    1    1    2  504  501 -0.20127931624E+02 -0.12324813441E+02  0.39360983430E+03  0.39431679690E+03  0.00000000000E+00 0. -1.
</event>
<event>
 4    1  0.1679763E+006  0.2344214E+02  0.7546771E-02  0.1487020E+00
         21   -1    0    0  503  501  0.00000000000E+00  0.00000000000E+00  0.20731174379E+03  0.20731174379E+03  0.00000000000E+00 0. -1.
         21   -1    0    0  504  502 -0.00000000000E+00 -0.00000000000E+00 -0.73586975149E+01  0.73586975149E+01  0.00000000000E+00 0. -1.
         21    1    1    2  503  502  0.15068196264E+02 -0.17957819390E+02  0.18582984273E+03  0.18730260079E+03  0.00000000000E+00 0. -1.
         21    1    1    2  504  501 -0.15068196264E+02  0.17957819390E+02  0.14123203551E+02  0.27367840515E+02  0.00000000000E+00 0. -1.
</event>
<event>
 4    1  0.1679763E+006  0.2099243E+02  0.7546771E-02  0.1519373E+00
         21   -1    0    0  502  501  0.00000000000E+00  0.00000000000E+00  0.76936372274E+02  0.76936372274E+02  0.00000000000E+00 0. -1.
         21   -1    0    0  503  502 -0.00000000000E+00 -0.00000000000E+00 -0.12225789754E+02  0.12225789754E+02  0.00000000000E+00 0.  1.
         21    1    1    2  503  504 -0.74602072103E+01  0.19622115468E+02 -0.14588348167E+00  0.20992936646E+02  0.00000000000E+00 0.  1.
         21    1    1    2  504  501  0.74602072103E+01 -0.19622115468E+02  0.64856466001E+02  0.68169225382E+02  0.00000000000E+00 0. -1.
</event>
<event>
 4    1  0.1679763E+006  0.2314978E+02  0.7546771E-02  0.1490626E+00
         21   -1    0    0  504  501  0.00000000000E+00  0.00000000000E+00  0.91293857361E+01  0.91293857361E+01  0.00000000000E+00 0. -1.
         21   -1    0    0  503  502 -0.00000000000E+00 -0.00000000000E+00 -0.75821348760E+03  0.75821348760E+03  0.00000000000E+00 0.  1.
         21    1    1    2  503  501  0.14859701222E+02  0.17751097734E+02 -0.74306214668E+03  0.74342266983E+03  0.00000000000E+00 0.  1.
         21    1    1    2  504  502 -0.14859701222E+02 -0.17751097734E+02 -0.60219551764E+01  0.23920203497E+02  0.00000000000E+00 0. -1.
</event>
<event>
 4    1  0.1679763E+006  0.2110486E+02  0.7546771E-02  0.1517773E+00
         21   -1    0    0  504  501  0.00000000000E+00  0.00000000000E+00  0.15077164541E+01  0.15077164541E+01  0.00000000000E+00 0.  1.
         21   -1    0    0  501  502 -0.00000000000E+00 -0.00000000000E+00 -0.56105598716E+03  0.56105598716E+03  0.00000000000E+00 0.  1.
         21    1    1    2  503  502 -0.47304595534E+01 -0.20567888078E+02 -0.47331781418E+03  0.47378810506E+03  0.00000000000E+00 0.  1.
         21    1    1    2  504  503  0.47304595534E+01  0.20567888078E+02 -0.86230456522E+02  0.88775598560E+02  0.00000000000E+00 0.  1.
</event>
<event>
 4    1  0.1679763E+006  0.5631072E+02  0.7546771E-02  0.1272910E+00
         21   -1    0    0  504  501  0.00000000000E+00  0.00000000000E+00  0.98982910087E+02  0.98982910087E+02  0.00000000000E+00 0.  1.
         21   -1    0    0  503  502 -0.00000000000E+00 -0.00000000000E+00 -0.14593972947E+03  0.14593972947E+03  0.00000000000E+00 0.  1.
         21    1    1    2  503  501  0.45932277848E+02  0.32574890945E+02  0.84710670380E+02  0.10171919851E+03  0.00000000000E+00 0.  1.
         21    1    1    2  504  502 -0.45932277848E+02 -0.32574890945E+02 -0.13166748976E+03  0.14320344105E+03  0.00000000000E+00 0.  1.
</event>
<event>
 4    1  0.1679763E+006  0.4131363E+02  0.7546771E-02  0.1340955E+00
         21   -1    0    0  503  501  0.00000000000E+00  0.00000000000E+00  0.11726726435E+02  0.11726726435E+02  0.00000000000E+00 0.  1.
         21   -1    0    0  501  502 -0.00000000000E+00 -0.00000000000E+00 -0.14840406861E+03  0.14840406861E+03  0.00000000000E+00 0.  1.
         21    1    1    2  503  504 -0.16367980417E+02  0.37932902558E+02 -0.57233799440E+02  0.70586993687E+02  0.00000000000E+00 0.  1.
         21    1    1    2  504  502  0.16367980417E+02 -0.37932902558E+02 -0.79443542738E+02  0.89543801361E+02  0.00000000000E+00 0.  1.
</event>
<event>
 4    1  0.1679763E+006  0.3303536E+02  0.7546771E-02  0.1394927E+00
         21   -1    0    0  502  501  0.00000000000E+00  0.00000000000E+00  0.46437252575E+03  0.46437252575E+03  0.00000000000E+00 0.  1.
         21   -1    0    0  504  502 -0.00000000000E+00 -0.00000000000E+00 -0.13902713249E+02  0.13902713249E+02  0.00000000000E+00 0. -1.
         21    1    1    2  503  501  0.23521050534E+02  0.23196872645E+02  0.44322548098E+03  0.44445490402E+03  0.00000000000E+00 0.  1.
         21    1    1    2  504  503 -0.23521050534E+02 -0.23196872645E+02  0.72443315192E+01  0.33820334976E+02  0.00000000000E+00 0. -1.
</event>
<event>
 4    1  0.1679763E+006  0.2741913E+02  0.7546771E-02  0.1443443E+00
         21   -1    0    0  504  501  0.00000000000E+00  0.00000000000E+00  0.46188659759E+02  0.46188659759E+02  0.00000000000E+00 0. -1.
         21   -1    0    0  501  502 -0.00000000000E+00 -0.00000000000E+00 -0.11059565201E+03  0.11059565201E+03  0.00000000000E+00 0. -1.
         21    1    1    2  503  502 -0.20401874950E+02 -0.18318629877E+02 -0.10459749709E+03  0.10813161008E+03  0.00000000000E+00 0. -1.
         21    1    1    2  504  503  0.20401874950E+02  0.18318629877E+02  0.40190504839E+02  0.48652701685E+02  0.00000000000E+00 0. -1.
</event>
<event>
 4    1  0.1679763E+006  0.2902428E+02  0.7546771E-02  0.1428269E+00
         21   -1    0    0  504  501  0.00000000000E+00  0.00000000000E+00  0.71425543050E+01  0.71425543050E+01  0.00000000000E+00 0. -1.
         21   -1    0    0  503  502 -0.00000000000E+00 -0.00000000000E+00 -0.14173984396E+03  0.14173984396E+03  0.00000000000E+00 0. -1.
         21    1    1    2  503  501 -0.28494835382E+02 -0.55184643213E+01 -0.97801022747E+02  0.10201690616E+03  0.00000000000E+00 0. -1.
         21    1    1    2  504  502  0.28494835382E+02  0.55184643213E+01 -0.36796266906E+02  0.46865492104E+02  0.00000000000E+00 0. -1.
</event>
<event>
 4    1  0.1679763E+006  0.4017581E+02  0.7546771E-02  0.1347459E+00
         21   -1    0    0  504  501  0.00000000000E+00  0.00000000000E+00  0.43166779792E+02  0.43166779792E+02  0.00000000000E+00 0.  1.
         21   -1    0    0  503  502 -0.00000000000E+00 -0.00000000000E+00 -0.10643316475E+03  0.10643316475E+03  0.00000000000E+00 0.  1.
         21    1    1    2  503  501 -0.29499464683E+02  0.27274112950E+02 -0.91877602292E+02  0.10027756208E+03  0.00000000000E+00 0.  1.
         21    1    1    2  504  502  0.29499464683E+02 -0.27274112950E+02  0.28611217338E+02  0.49322382458E+02  0.00000000000E+00 0.  1.
</event>
<event>
 4    1  0.1679763E+006  0.2162999E+02  0.7546771E-02  0.1510457E+00
         21   -1    0    0  503  501  0.00000000000E+00  0.00000000000E+00  0.26944595075E+02  0.26944595075E+02  0.00000000000E+00 0.  1.
         21   -1    0    0  504  502 -0.00000000000E+00 -0.00000000000E+00 -0.20119348616E+02  0.20119348616E+02  0.00000000000E+00 0.  1.
         21    1    1    2  503  502  0.14417242190E+02  0.16124497186E+02 -0.52963691923E+01  0.22268987594E+02  0.00000000000E+00 0.  1.
         21    1    1    2  504  501 -0.14417242190E+02 -0.16124497186E+02  0.12121615652E+02  0.24794956097E+02  0.00000000000E+00 0.  1.
</event>
<event>
 4    1  0.1679763E+006  0.2440349E+02  0.7546771E-02  0.1475588E+00
         21   -1    0    0  502  501  0.00000000000E+00  0.00000000000E+00  0.13208588663E+02  0.13208588663E+02  0.00000000000E+00 0.  1.
         21   -1    0    0  504  502 -0.00000000000E+00 -0.00000000000E+00 -0.17748370694E+03  0.17748370694E+03  0.00000000000E+00 0.  1.
         21    1    1    2  503  501  0.23431115261E+02 -0.68200599224E+01  0.21235491192E+00  0.24404415058E+02  0.00000000000E+00 0.  1.
         21    1    1    2  504  503 -0.23431115261E+02  0.68200599224E+01 -0.16448747319E+03  0.16628788054E+03  0.00000000000E+00 0.  1.
</event>
<event>
 4    1  0.1679763E+006  0.5307527E+02  0.7546771E-02  0.1285363E+00
         21   -1    0    0  504  501  0.00000000000E+00  0.00000000000E+00  0.19141599994E+03  0.19141599994E+03  0.00000000000E+00 0.  1.
         21   -1    0    0  503  502 -0.00000000000E+00 -0.00000000000E+00 -0.86819427139E+02  0.86819427139E+02  0.00000000000E+00 0.  1.
         21    1    1    2  503  501 -0.23875419211E+01 -0.53021546149E+02 -0.74481567179E+02  0.91457577935E+02  0.00000000000E+00 0.  1.
         21    1    1    2  504  502  0.23875419211E+01  0.53021546149E+02  0.17907813998E+03  0.18677784915E+03  0.00000000000E+00 0.  1.
</event>
<event>
 4    1  0.1679763E+006  0.2473351E+02  0.7546771E-02  0.1471807E+00
         21   -1    0    0  502  501  0.00000000000E+00  0.00000000000E+00  0.31952252629E+01  0.31952252629E+01  0.00000000000E+00 0.  1.
         21   -1    0    0  503  502 -0.00000000000E+00 -0.00000000000E+00 -0.78581968940E+03  0.78581968940E+03  0.00000000000E+00 0.  1.
         21    1    1    2  503  504 -0.16458529409E+02  0.18462485111E+02 -0.73441144949E+03  0.73482781908E+03  0.00000000000E+00 0.  1.
         21    1    1    2  504  501  0.16458529409E+02 -0.18462485111E+02 -0.48213014650E+02  0.54187095590E+02  0.00000000000E+00 0.  1.
</event>
<event>
 4    1  0.1679763E+006  0.2102572E+02  0.7546771E-02  0.1518898E+00
         21   -1    0    0  504  501  0.00000000000E+00  0.00000000000E+00  0.97831006002E+01  0.97831006002E+01  0.00000000000E+00 0. -1.
         21   -1    0    0  503  502 -0.00000000000E+00 -0.00000000000E+00 -0.48535651993E+02  0.48535651993E+02  0.00000000000E+00 0. -1.
         21    1    1    2  503  501 -0.13366420496E+02  0.16230204591E+02 -0.11718462522E+02  0.24070793544E+02  0.00000000000E+00 0. -1.
         21    1    1    2  504  502  0.13366420496E+02 -0.16230204591E+02 -0.27034088871E+02  0.34247959049E+02  0.00000000000E+00 0. -1.
</event>
<event>
 4    1  0.1679763E+006  0.4834178E+02  0.7546771E-02  0.1305527E+00
         21   -1    0    0  503  501  0.00000000000E+00  0.00000000000E+00  0.53952649147E+02  0.53952649147E+02  0.00000000000E+00 0.  1.
         21   -1    0    0  504  502 -0.00000000000E+00 -0.00000000000E+00 -0.80714250662E+02  0.80714250662E+02  0.00000000000E+00 0. -1.
         21    1    1    2  503  502  0.11457861745E+02 -0.46964297172E+02  0.32453495147E+02  0.58225056049E+02  0.00000000000E+00 0.  1.
         21    1    1    2  504  501 -0.11457861745E+02  0.46964297172E+02 -0.59215096662E+02  0.76441843759E+02  0.00000000000E+00 0. -1.
</event>
<event>
 4    1  0.1679763E+006  0.2253204E+02  0.7546771E-02  0.1498459E+00
         21   -1    0    0  502  501  0.00000000000E+00  0.00000000000E+00  0.53375832674E+03  0.53375832674E+03  0.00000000000E+00 0. -1.
         21   -1    0    0  503  502 -0.00000000000E+00 -0.00000000000E+00 -0.10033912334E+03  0.10033912334E+03  0.00000000000E+00 0.  1.
         21    1    1    2  503  504 -0.15127328298E+02  0.16698999412E+02 -0.98832811729E+02  0.10136871962E+03  0.00000000000E+00 0.  1.
         21    1    1    2  504  501  0.15127328298E+02 -0.16698999412E+02  0.53225201513E+03  0.53272873046E+03  0.00000000000E+00 0. -1.
</event>
<event>
 4    1  0.1679763E+006  0.3344839E+02  0.7546771E-02  0.1391812E+00
         21   -1    0    0  503  501  0.00000000000E+00  0.00000000000E+00  0.37174009099E+03  0.37174009099E+03  0.00000000000E+00 0. -1.
         21   -1    0    0  501  502 -0.00000000000E+00 -0.00000000000E+00 -0.43060721638E+01  0.43060721638E+01  0.00000000000E+00 0. -1.
         21    1    1    2  503  504 -0.32920239567E+00  0.33446765864E+02  0.28688610304E+03  0.28882941443E+03  0.00000000000E+00 0. -1.
         21    1    1    2  504  502  0.32920239567E+00 -0.33446765864E+02  0.80547915791E+02  0.87216748731E+02  0.00000000000E+00 0. -1.
</event>
<event>
 4    1  0.1679763E+006  0.2168275E+02  0.7546771E-02  0.1509736E+00
         21   -1    0    0  503  501  0.00000000000E+00  0.00000000000E+00  0.65217730722E+03  0.65217730722E+03  0.00000000000E+00 0.  1.
         21   -1    0    0  504  502 -0.00000000000E+00 -0.00000000000E+00 -0.84760906802E+00  0.84760906802E+00  0.00000000000E+00 0.  1.
         21    1    1    2  503  502  0.19437964942E+02 -0.96076556508E+01  0.45191741365E+03  0.45243727773E+03  0.00000000000E+00 0.  1.
         21    1    1    2  504  501 -0.19437964942E+02  0.96076556508E+01  0.19941228451E+03  0.20058763855E+03  0.00000000000E+00 0.  1.
</event>
<event>
 4    1  0.1679763E+006  0.2378216E+02  0.7546771E-02  0.1482903E+00
         21   -1    0    0  504  501  0.00000000000E+00  0.00000000000E+00  0.36380610139E+02  0.36380610139E+02  0.00000000000E+00 0. -1.
         21   -1    0    0  503  502 -0.00000000000E+00 -0.00000000000E+00 -0.89257287313E+03  0.89257287313E+03  0.00000000000E+00 0. -1.
         21    1    1    2  503  501 -0.23779654614E+02  0.34486351232E+00 -0.88851006514E+03  0.88882828868E+03  0.00000000000E+00 0. -1.
         21    1    1    2  504  502  0.23779654614E+02 -0.34486351232E+00  0.32317802153E+02  0.40125194584E+02  0.00000000000E+00 0. -1.
</event>
<event>
 4    1  0.1679763E+006  0.2097125E+02  0.7546771E-02  0.1519676E+00
         21   -1    0    0  503  501  0.00000000000E+00  0.00000000000E+00  0.16489136339E+03  0.16489136339E+03  0.00000000000E+00 0. -1.
         21   -1    0    0  504  502 -0.00000000000E+00 -0.00000000000E+00 -0.30092700195E+02  0.30092700195E+02  0.00000000000E+00 0. -1.
         21    1    1    2  503  502 -0.18355009960E+02  0.10143313723E+02  0.16047069219E+03  0.16183521327E+03  0.00000000000E+00 0. -1.
         21    1    1    2  504  501  0.18355009960E+02 -0.10143313723E+02 -0.25672028996E+02  0.33148850308E+02  0.00000000000E+00 0. -1.
</event>
<event>
 4    1  0.1679763E+006  0.2355466E+02  0.7546771E-02  0.1485648E+00
         21   -1    0    0  502  501  0.00000000000E+00  0.00000000000E+00  0.50459561038E+03  0.50459561038E+03  0.00000000000E+00 0.  1.
         21   -1    0    0  504  502 -0.00000000000E+00 -0.00000000000E+00 -0.36590335303E+01  0.36590335303E+01  0.00000000000E+00 0. -1.
         21    1    1    2  503  501  0.12425554469E+02  0.20010692375E+02  0.46301056359E+03  0.46360932283E+03  0.00000000000E+00 0.  1.
         21    1    1    2  504  503 -0.12425554469E+02 -0.20010692375E+02  0.37926013262E+02  0.44645321089E+02  0.00000000000E+00 0. -1.
</event>
<event>
 4    1  0.1679763E+006  0.3684524E+02  0.7546771E-02  0.1368035E+00
         21   -1    0    0  504  501  0.00000000000E+00  0.00000000000E+00  0.12146097173E+04  0.12146097173E+04  0.00000000000E+00 0. -1.
         21   -1    0    0  503  502 -0.00000000000E+00 -0.00000000000E+00 -0.12212158789E+01  0.12212158789E+01  0.00000000000E+00 0. -1.
         21    1    1    2  503  501  0.30927016529E+02 -0.20027260187E+02  0.78368339221E+03  0.78454906203E+03  0.00000000000E+00 0. -1.
         21    1    1    2  504  502 -0.30927016529E+02  0.20027260187E+02  0.42970510923E+03  0.43128187117E+03  0.00000000000E+00 0. -1.
</event>
<event>
 4    1  0.1679763E+006  0.2229516E+02  0.7546771E-02  0.1501544E+00
         21   -1    0    0  504  501  0.00000000000E+00  0.00000000000E+00  0.36961676000E+02  0.36961676000E+02  0.00000000000E+00 0.  1.
         21   -1    0    0  503  502 -0.00000000000E+00 -0.00000000000E+00 -0.54653299577E+02  0.54653299577E+02  0.00000000000E+00 0.  1.
         21    1    1    2  503  501  0.89848872245E+01 -0.20404554686E+02  0.30928521089E+02  0.38126729038E+02  0.00000000000E+00 0.  1.
         21    1    1    2  504  502 -0.89848872245E+01  0.20404554686E+02 -0.48620144666E+02  0.53488246538E+02  0.00000000000E+00 0.  1.
</event>
<event>
 4    1  0.1679763E+006  0.3136670E+02  0.7546771E-02  0.1408080E+00
         21   -1    0    0  504  501  0.00000000000E+00  0.00000000000E+00  0.43148399402E+01  0.43148399402E+01  0.00000000000E+00 0.  1.
         21   -1    0    0  503  502 -0.00000000000E+00 -0.00000000000E+00 -0.23123659007E+03  0.23123659007E+03  0.00000000000E+00 0.  1.
         21    1    1    2  503  501  0.22428658563E+02 -0.21927722695E+02 -0.99570108914E+02  0.10439385201E+03  0.00000000000E+00 0.  1.
         21    1    1    2  504  502 -0.22428658563E+02  0.21927722695E+02 -0.12735164122E+03  0.13115757800E+03  0.00000000000E+00 0.  1.
</event>
<event>
 4    1  0.1679763E+006  0.3551132E+02  0.7546771E-02  0.1377004E+00
         21   -1    0    0  504  501  0.00000000000E+00  0.00000000000E+00  0.29920873586E+03  0.29920873586E+03  0.00000000000E+00 0. -1.
         21   -1    0    0  501  502 -0.00000000000E+00 -0.00000000000E+00 -0.91086460093E+02  0.91086460093E+02  0.00000000000E+00 0. -1.
         21    1    1    2  503  502 -0.33738559275E+01 -0.35350686298E+02 -0.86518187278E+02  0.93522460701E+02  0.00000000000E+00 0. -1.
         21    1    1    2  504  503  0.33738559275E+01  0.35350686298E+02  0.29464046305E+03  0.29677273526E+03  0.00000000000E+00 0. -1.
</event>
<event>
 4    1  0.1679763E+006  0.2568652E+02  0.7546771E-02  0.1461268E+00
         21   -1    0    0  502  501  0.00000000000E+00  0.00000000000E+00  0.35498123526E+03  0.35498123526E+03  0.00000000000E+00 0.  1.
         21   -1    0    0  504  502 -0.00000000000E+00 -0.00000000000E+00 -0.25050392000E+02  0.25050392000E+02  0.00000000000E+00 0.  1.
         21    1    1    2  503  501  0.96059270611E+01 -0.23822746864E+02  0.34779601627E+03  0.34874326665E+03  0.00000000000E+00 0.  1.
         21    1    1    2  504  503 -0.96059270611E+01  0.23822746864E+02 -0.17865173010E+02  0.31288360607E+02  0.00000000000E+00 0.  1.
</event>
<event>
 4    1  0.1679763E+006  0.2759281E+02  0.7546771E-02  0.1441742E+00
         21   -1    0    0  503  501  0.00000000000E+00  0.00000000000E+00  0.64108583182E+02  0.64108583182E+02  0.00000000000E+00 0.  1.
         21   -1    0    0  504  502 -0.00000000000E+00 -0.00000000000E+00 -0.18658901665E+03  0.18658901665E+03  0.00000000000E+00 0.  1.
         21    1    1    2  503  502  0.16723136239E+02 -0.21947656404E+02  0.60053859682E+02  0.66089552654E+02  0.00000000000E+00 0.  1.
         21    1    1    2  504  501 -0.16723136239E+02  0.21947656404E+02 -0.18253429315E+03  0.18460804718E+03  0.00000000000E+00 0.  1.
</event>
<event>
 4    1  0.1679763E+006  0.2328627E+02  0.7546771E-02  0.1488934E+00
         21   -1    0    0  503  501  0.00000000000E+00  0.00000000000E+00  0.11647179399E+02  0.11647179399E+02  0.00000000000E+00 0. -1.
         21   -1    0    0  504  502 -0.00000000000E+00 -0.00000000000E+00 -0.58373583827E+02  0.58373583827E+02  0.00000000000E+00 0. -1.
         21    1    1    2  503  502  0.65168331244E+01 -0.22355783983E+02 -0.76108094546E+01  0.24498461422E+02  0.00000000000E+00 0. -1.
         21    1    1    2  504  501 -0.65168331244E+01  0.22355783983E+02 -0.39115594973E+02  0.45522301805E+02  0.00000000000E+00 0. -1.
</event>
<event>
 4    1  0.1679763E+006  0.5268215E+02  0.7546771E-02  0.1286944E+00
         21   -1    0    0  504  501  0.00000000000E+00  0.00000000000E+00  0.11234853510E+04  0.11234853510E+04  0.00000000000E+00 0.  1.
         21   -1    0    0  503  502 -0.00000000000E+00 -0.00000000000E+00 -0.33738153605E+01  0.33738153605E+01  0.00000000000E+00 0.  1.
         21    1    1    2  503  501  0.41369433651E+02 -0.32618688001E+02  0.26849217949E+03  0.27361187711E+03  0.00000000000E+00 0.  1.
         21    1    1    2  504  502 -0.41369433651E+02  0.32618688001E+02  0.85161935611E+03  0.85324728921E+03  0.00000000000E+00 0.  1.
</event>
<event>
 4    1  0.1679763E+006  0.2040035E+02  0.7546771E-02  0.1528001E+00
         21   -1    0    0  503  501  0.00000000000E+00  0.00000000000E+00  0.29109007781E+03  0.29109007781E+03  0.00000000000E+00 0. -1.
         21   -1    0    0  504  502 -0.00000000000E+00 -0.00000000000E+00 -0.79468864422E+01  0.79468864422E+01  0.00000000000E+00 0. -1.
         21    1    1    2  503  502  0.16061957649E+02  0.12577279789E+02  0.61692746045E+01  0.21312775501E+02  0.00000000000E+00 0. -1.
         21    1    1    2  504  501 -0.16061957649E+02 -0.12577279789E+02  0.27697391677E+03  0.27772418875E+03  0.00000000000E+00 0. -1.
</event>
<event>
 4    1  0.1679763E+006  0.3076699E+02  0.7546771E-02  0.1413046E+00
         21   -1    0    0  503  501  0.00000000000E+00  0.00000000000E+00  0.27987251418E+02  0.27987251418E+02  0.00000000000E+00 0. -1.
         21   -1    0    0  504  502 -0.00000000000E+00 -0.00000000000E+00 -0.58064616581E+02  0.58064616581E+02  0.00000000000E+00 0.  1.
         21    1    1    2  503  502 -0.57798577613E+01  0.30219215416E+02 -0.42839459740E+02  0.52743028420E+02  0.00000000000E+00 0.  1.
         21    1    1    2  504  501  0.57798577613E+01 -0.30219215416E+02  0.12762094576E+02  0.33308839579E+02  0.00000000000E+00 0. -1.
</event>
<event>
 4    1  0.1679763E+006  0.2953320E+02  0.7546771E-02  0.1423697E+00
         21   -1    0    0  504  501  0.00000000000E+00  0.00000000000E+00  0.72125786970E+01  0.72125786970E+01  0.00000000000E+00 0. -1.
         21   -1    0    0  501  502 -0.00000000000E+00 -0.00000000000E+00 -0.96188996608E+03  0.96188996608E+03  0.00000000000E+00 0.  1.
         21    1    1    2  503  502  0.29249470021E+02 -0.40838985276E+01 -0.93040834022E+03  0.93087694636E+03  0.00000000000E+00 0.  1.
         21    1    1    2  504  503 -0.29249470021E+02  0.40838985276E+01 -0.24269047161E+02  0.38225598410E+02  0.00000000000E+00 0. -1.
</event>
<event>
 4    1  0.1679763E+006  0.2685615E+02  0.7546771E-02  0.1449058E+00
         21   -1    0    0  503  501  0.00000000000E+00  0.00000000000E+00  0.11703429616E+02  0.11703429616E+02  0.00000000000E+00 0. -1.
         21   -1    0    0  504  502 -0.00000000000E+00 -0.00000000000E+00 -0.10635614365E+03  0.10635614365E+03  0.00000000000E+00 0. -1.
         21    1    1    2  503  502  0.37038916592E+01  0.26599513125E+02 -0.90453927732E+01  0.28338525761E+02  0.00000000000E+00 0. -1.
         21    1    1    2  504  501 -0.37038916592E+01 -0.26599513125E+02 -0.85607321256E+02  0.89721047500E+02  0.00000000000E+00 0. -1.
</event>
<event>
 4    1  0.1679763E+006  0.2734369E+02  0.7546771E-02  0.1444186E+00
         21   -1    0    0  502  501  0.00000000000E+00  0.00000000000E+00  0.59904113319E+01  0.59904113319E+01  0.00000000000E+00 0.  1.
         21   -1    0    0  504  502 -0.00000000000E+00 -0.00000000000E+00 -0.35076627597E+03  0.35076627597E+03  0.00000000000E+00 0.  1.
         21    1    1    2  503  501 -0.19635378157E+02 -0.19029698506E+02 -0.29220865559E+02  0.40019201449E+02  0.00000000000E+00 0.  1.
         21    1    1    2  504  503  0.19635378157E+02  0.19029698506E+02 -0.31555499908E+03  0.31673748586E+03  0.00000000000E+00 0.  1.
</event>
<event>
 4    1  0.1679763E+006  0.2374293E+02  0.7546771E-02  0.1483374E+00
         21   -1    0    0  502  501  0.00000000000E+00  0.00000000000E+00  0.21523776995E+02  0.21523776995E+02  0.00000000000E+00 0.  1.
         21   -1    0    0  504  502 -0.00000000000E+00 -0.00000000000E+00 -0.56787762134E+03  0.56787762134E+03  0.00000000000E+00 0.  1.
         21    1    1    2  503  501 -0.85087750384E+01  0.22165907127E+02  0.14647665500E+02  0.27897684420E+02  0.00000000000E+00 0.  1.
         21    1    1    2  504  503  0.85087750384E+01 -0.22165907127E+02 -0.56100150985E+03  0.56150371392E+03  0.00000000000E+00 0.  1.
</event>
<event>
 4    1  0.1679763E+006  0.4953904E+02  0.7546771E-02  0.1300183E+00
         21   -1    0    0  503  501  0.00000000000E+00  0.00000000000E+00  0.60438827760E+03  0.60438827760E+03  0.00000000000E+00 0. -1.
         21   -1    0    0  501  502 -0.00000000000E+00 -0.00000000000E+00 -0.52372987175E+01  0.52372987175E+01  0.00000000000E+00 0. -1.
         21    1    1    2  503  504  0.35645280516E+02 -0.34402471442E+02  0.44406335601E+03  0.44681806165E+03  0.00000000000E+00 0. -1.
         21    1    1    2  504  502 -0.35645280516E+02  0.34402471442E+02  0.15508762287E+03  0.16280751466E+03  0.00000000000E+00 0. -1.
</event>
<event>
 4    1  0.1679763E+006  0.2078770E+02  0.7546771E-02  0.1522318E+00
         21   -1    0    0  504  501  0.00000000000E+00  0.00000000000E+00  0.45064918185E+01  0.45064918185E+01  0.00000000000E+00 0.  1.
         21   -1    0    0  501  502 -0.00000000000E+00 -0.00000000000E+00 -0.15033903006E+03  0.15033903006E+03  0.00000000000E+00 0.  1.
         21    1    1    2  503  502 -0.16949625523E+02 -0.12034893426E+02 -0.11950994804E+03  0.12130439459E+03  0.00000000000E+00 0.  1.
         21    1    1    2  504  503  0.16949625523E+02  0.12034893426E+02 -0.26322590200E+02  0.33541127291E+02  0.00000000000E+00 0.  1.
</event>
<event>
 4    1  0.1679763E+006  0.2485824E+02  0.7546771E-02  0.1470396E+00
         21   -1    0    0  504  501  0.00000000000E+00  0.00000000000E+00  0.46668028168E+02  0.46668028168E+02  0.00000000000E+00 0.  1.
         21   -1    0    0  503  502 -0.00000000000E+00 -0.00000000000E+00 -0.14918481057E+02  0.14918481057E+02  0.00000000000E+00 0.  1.
         21    1    1    2  503  501 -0.23747596628E+02 -0.73473610923E+01  0.26200489199E+02  0.36116446322E+02  0.00000000000E+00 0.  1.
         21    1    1    2  504  502  0.23747596628E+02  0.73473610923E+01  0.55490579113E+01  0.25470062904E+02  0.00000000000E+00 0.  1.
</event>
<event>
 4    1  0.1679763E+006  0.3209358E+02  0.7546771E-02  0.1402235E+00
         21   -1    0    0  504  501  0.00000000000E+00  0.00000000000E+00  0.28481461352E+03  0.28481461352E+03  0.00000000000E+00 0. -1.
         21   -1    0    0  501  502 -0.00000000000E+00 -0.00000000000E+00 -0.50446569766E+01  0.50446569766E+01  0.00000000000E+00 0. -1.
         21    1    1    2  503  502 -0.92235723061E+01 -0.30739613630E+02  0.62768452125E+02  0.70497352534E+02  0.00000000000E+00 0. -1.
         21    1    1    2  504  503  0.92235723061E+01  0.30739613630E+02  0.21700150442E+03  0.21936191796E+03  0.00000000000E+00 0. -1.
</event>
<event>
 4    1  0.1679763E+006  0.2345161E+02  0.7546771E-02  0.1486904E+00
         21   -1    0    0  502  501  0.00000000000E+00  0.00000000000E+00  0.86944124172E+01  0.86944124172E+01  0.00000000000E+00 0. -1.
         21   -1    0    0  504  502 -0.00000000000E+00 -0.00000000000E+00 -0.74434754187E+02  0.74434754187E+02  0.00000000000E+00 0. -1.
         21    1    1    2  503  501  0.59993725957E+01 -0.22671247427E+02 -0.16762864609E+02  0.28826577343E+02  0.00000000000E+00 0. -1.
         21    1    1    2  504  503 -0.59993725957E+01  0.22671247427E+02 -0.48977477161E+02  0.54302589261E+02  0.00000000000E+00 0. -1.
</event>
<event>
 4    1  0.1679763E+006  0.2923757E+02  0.7546771E-02  0.1426340E+00
         21   -1    0    0  504  501  0.00000000000E+00  0.00000000000E+00  0.58213517090E+02  0.58213517090E+02  0.00000000000E+00 0. -1.
         21   -1    0    0  503  502 -0.00000000000E+00 -0.00000000000E+00 -0.21263752931E+03  0.21263752931E+03  0.00000000000E+00 0.  1.
         21    1    1    2  503  501 -0.23336316271E+02 -0.17613964066E+02  0.53453711650E+02  0.60927290078E+02  0.00000000000E+00 0. -1.
         21    1    1    2  504  502  0.23336316271E+02  0.17613964066E+02 -0.20787772387E+03  0.20992375633E+03  0.00000000000E+00 0.  1.
</event>
<event>
 4    1  0.1679763E+006  0.2479310E+02  0.7546771E-02  0.1471131E+00
         21   -1    0    0  503  501  0.00000000000E+00  0.00000000000E+00  0.23734653294E+02  0.23734653294E+02  0.00000000000E+00 0.  1.
         21   -1    0    0  504  502 -0.00000000000E+00 -0.00000000000E+00 -0.39011516761E+02  0.39011516761E+02  0.00000000000E+00 0. -1.
         21    1    1    2  503  502 -0.47243413608E+01 -0.24338823209E+02 -0.25827400252E+02  0.35801568685E+02  0.00000000000E+00 0. -1.
         21    1    1    2  504  501  0.47243413608E+01  0.24338823209E+02  0.10550536786E+02  0.26944601370E+02  0.00000000000E+00 0.  1.
</event>
<event>
 4    1  0.1679763E+006  0.3893418E+02  0.7546771E-02  0.1354847E+00
         21   -1    0    0  502  501  0.00000000000E+00  0.00000000000E+00  0.15396955667E+03  0.15396955667E+03  0.00000000000E+00 0. -1.
         21   -1    0    0  504  502 -0.00000000000E+00 -0.00000000000E+00 -0.26626455369E+02  0.26626455369E+02  0.00000000000E+00 0. -1.
         21    1    1    2  503  501  0.13961396819E+02 -0.36344869829E+02  0.13535731865E+03  0.14084556747E+03  0.00000000000E+00 0. -1.
         21    1    1    2  504  503 -0.13961396819E+02  0.36344869829E+02 -0.80142173447E+01  0.39750444572E+02  0.00000000000E+00 0. -1.
</event>
<event>
 4    1  0.1679763E+006  0.2261566E+02  0.7546771E-02  0.1497382E+00
         21   -1    0    0  502  501  0.00000000000E+00  0.00000000000E+00  0.42167782854E+01  0.42167782854E+01  0.00000000000E+00 0.  1.
         21   -1    0    0  504  502 -0.00000000000E+00 -0.00000000000E+00 -0.12540096539E+03  0.12540096539E+03  0.00000000000E+00 0.  1.
         21    1    1    2  503  501 -0.21872802084E+01 -0.22509639184E+02 -0.48862909697E+02  0.53842845346E+02  0.00000000000E+00 0.  1.
         21    1    1    2  504  503  0.21872802084E+01  0.22509639184E+02 -0.72321277404E+02  0.75774898326E+02  0.00000000000E+00 0.  1.
</event>
<event>
 4    1  0.1679763E+006  0.3880574E+02  0.7546771E-02  0.1355630E+00
         21   -1    0    0  503  501  0.00000000000E+00  0.00000000000E+00  0.65605303427E+01  0.65605303427E+01  0.00000000000E+00 0. -1.
         21   -1    0    0  501  502 -0.00000000000E+00 -0.00000000000E+00 -0.38727598859E+03  0.38727598859E+03  0.00000000000E+00 0.  1.
         21    1    1    2  503  504  0.10147732190E+02  0.37455427853E+02 -0.64683855976E+02  0.75431338104E+02  0.00000000000E+00 0. -1.
         21    1    1    2  504  502 -0.10147732190E+02 -0.37455427853E+02 -0.31603160227E+03  0.31840518083E+03  0.00000000000E+00 0.  1.
</event>
<event>
 4    1  0.1679763E+006  0.4117232E+02  0.7546771E-02  0.1341750E+00
         21   -1    0    0  503  501  0.00000000000E+00  0.00000000000E+00  0.18953297343E+03  0.18953297343E+03  0.00000000000E+00 0. -1.
         21   -1    0    0  504  502 -0.00000000000E+00 -0.00000000000E+00 -0.89769295839E+01  0.89769295839E+01  0.00000000000E+00 0. -1.
         21    1    1    2  503  502 -0.41171192133E+02  0.30491190711E+00  0.84255532657E+02  0.93777155087E+02  0.00000000000E+00 0. -1.
         21    1    1    2  504  501  0.41171192133E+02 -0.30491190711E+00  0.96300511188E+02  0.10473274793E+03  0.00000000000E+00 0. -1.
</event>
<event>
 4    1  0.1679763E+006  0.3403527E+02  0.7546771E-02  0.1387475E+00
         21   -1    0    0  503  501  0.00000000000E+00  0.00000000000E+00  0.31202485949E+02  0.31202485949E+02  0.00000000000E+00 0.  1.
         21   -1    0    0  501  502 -0.00000000000E+00 -0.00000000000E+00 -0.82960954531E+02  0.82960954531E+02  0.00000000000E+00 0. -1.
         21    1    1    2  503  504 -0.29984513967E+02  0.16103686676E+02  0.16549705721E+02  0.37845641253E+02  0.00000000000E+00 0.  1.
         21    1    1    2  504  502  0.29984513967E+02 -0.16103686676E+02 -0.68308174302E+02  0.76317799228E+02  0.00000000000E+00 0. -1.
</event>
<event>
 4    1  0.1679763E+006  0.2193600E+02  0.7546771E-02  0.1506309E+00
         21   -1    0    0  504  501  0.00000000000E+00  0.00000000000E+00  0.21628430128E+03  0.21628430128E+03  0.00000000000E+00 0.  1.
         21   -1    0    0  501  502 -0.00000000000E+00 -0.00000000000E+00 -0.22253240903E+01  0.22253240903E+01  0.00000000000E+00 0.  1.
         21    1    1    2  503  502 -0.89926224291E+01 -0.20008016684E+02  0.10534305926E+03  0.10760273288E+03  0.00000000000E+00 0.  1.
         21    1    1    2  504  503  0.89926224291E+01  0.20008016684E+02  0.10871591793E+03  0.11090689249E+03  0.00000000000E+00 0.  1.
</event>
<event>
 4    1  0.1679763E+006  0.4087044E+02  0.7546771E-02  0.1343459E+00
         21   -1    0    0  503  501  0.00000000000E+00  0.00000000000E+00  0.60726494607E+02  0.60726494607E+02  0.00000000000E+00 0.  1.
         21   -1    0    0  501  502 -0.00000000000E+00 -0.00000000000E+00 -0.28482791583E+03  0.28482791583E+03  0.00000000000E+00 0. -1.
         21    1    1    2  503  504 -0.40621312289E+02 -0.45057542152E+01  0.52171866738E+02  0.66274403144E+02  0.00000000000E+00 0.  1.
         21    1    1    2  504  502  0.40621312289E+02  0.45057542152E+01 -0.27627328796E+03  0.27928000729E+03  0.00000000000E+00 0. -1.
</event>
<event>
 4    1  0.1679763E+006  0.2360994E+02  0.7546771E-02  0.1484978E+00
         21   -1    0    0  504  501  0.00000000000E+00  0.00000000000E+00  0.11543787040E+03  0.11543787040E+03  0.00000000000E+00 0.  1.
         21   -1    0    0  503  502 -0.00000000000E+00 -0.00000000000E+00 -0.48313500117E+01  0.48313500117E+01  0.00000000000E+00 0.  1.
         21    1    1    2  503  501  0.23217838054E+02  0.42849943309E+01  0.56678226669E+02  0.61399108777E+02  0.00000000000E+00 0.  1.
         21    1    1    2  504  502 -0.23217838054E+02 -0.42849943309E+01  0.53928293715E+02  0.58870111630E+02  0.00000000000E+00 0.  1.
</event>
<event>
 4    1  0.1679763E+006  0.2276877E+02  0.7546771E-02  0.1495422E+00
         21   -1    0    0  503  501  0.00000000000E+00  0.00000000000E+00  0.51981385102E+03  0.51981385102E+03  0.00000000000E+00 0.  1.
         21   -1    0    0  504  502 -0.00000000000E+00 -0.00000000000E+00 -0.11498713597E+01  0.11498713597E+01  0.00000000000E+00 0. -1.
         21    1    1    2  503  502 -0.13999284581E+01 -0.22725696829E+02  0.35421116591E+03  0.35494220255E+03  0.00000000000E+00 0.  1.
         21    1    1    2  504  501  0.13999284581E+01  0.22725696829E+02  0.16445281376E+03  0.16602151984E+03  0.00000000000E+00 0. -1.
</event>
<event>
 4    1  0.1679763E+006  0.5642986E+02  0.7546771E-02  0.1272470E+00
         21   -1    0    0  504  501  0.00000000000E+00  0.00000000000E+00  0.14360825718E+02  0.14360825718E+02  0.00000000000E+00 0.  1.
         21   -1    0    0  503  502 -0.00000000000E+00 -0.00000000000E+00 -0.22288959238E+03  0.22288959238E+03  0.00000000000E+00 0.  1.
         21    1    1    2  503  501  0.50798332375E+02  0.24573531023E+02 -0.11279412793E+03  0.12612233860E+03  0.00000000000E+00 0.  1.
         21    1    1    2  504  502 -0.50798332375E+02 -0.24573531023E+02 -0.95734638736E+02  0.11112807950E+03  0.00000000000E+00 0.  1.
</event>
<event>
 4    1  0.1679763E+006  0.2382052E+02  0.7546771E-02  0.1482444E+00
         21   -1    0    0  503  501  0.00000000000E+00  0.00000000000E+00  0.62571938844E+02  0.62571938844E+02  0.00000000000E+00 0. -1.
         21   -1    0    0  504  502 -0.00000000000E+00 -0.00000000000E+00 -0.25670382405E+02  0.25670382405E+02  0.00000000000E+00 0.  1.
         21    1    1    2  503  502 -0.23663141741E+02  0.27336906922E+01  0.53933165348E+02  0.58959339093E+02  0.00000000000E+00 0. -1.
         21    1    1    2  504  501  0.23663141741E+02 -0.27336906922E+01 -0.17031608909E+02  0.29282982155E+02  0.00000000000E+00 0.  1.
</event>
<event>
 4    1  0.1679763E+006  0.2565216E+02  0.7546771E-02  0.1461638E+00
         21   -1    0    0  504  501  0.00000000000E+00  0.00000000000E+00  0.19440111878E+01  0.19440111878E+01  0.00000000000E+00 0. -1.
         21   -1    0    0  503  502 -0.00000000000E+00 -0.00000000000E+00 -0.89892653474E+03  0.89892653474E+03  0.00000000000E+00 0. -1.
         21    1    1    2  503  501  0.24889146458E+02  0.62099517744E+01 -0.92833278287E+02  0.96312256074E+02  0.00000000000E+00 0. -1.
         21    1    1    2  504  502 -0.24889146458E+02 -0.62099517744E+01 -0.80414924526E+03  0.80455828985E+03  0.00000000000E+00 0. -1.
</event>
<event>
 4    1  0.1679763E+006  0.4218256E+02  0.7546771E-02  0.1336150E+00
         21   -1    0    0  503  501  0.00000000000E+00  0.00000000000E+00  0.13675538774E+03  0.13675538774E+03  0.00000000000E+00 0.  1.
         21   -1    0    0  504  502 -0.00000000000E+00 -0.00000000000E+00 -0.13078870135E+03  0.13078870135E+03  0.00000000000E+00 0. -1.
         21    1    1    2  503  502  0.32229325144E+02  0.27214681186E+02  0.12992705589E+03  0.13660310437E+03  0.00000000000E+00 0.  1.
         21    1    1    2  504  501 -0.32229325144E+02 -0.27214681186E+02 -0.12396036951E+03  0.13094098472E+03  0.00000000000E+00 0. -1.
</event>
<event>
 4    1  0.1679763E+006  0.2320752E+02  0.7546771E-02  0.1489909E+00
         21   -1    0    0  504  501  0.00000000000E+00  0.00000000000E+00  0.93274664504E+01  0.93274664504E+01  0.00000000000E+00 0. -1.
         21   -1    0    0  503  502 -0.00000000000E+00 -0.00000000000E+00 -0.35988235363E+03  0.35988235363E+03  0.00000000000E+00 0. -1.
         21    1    1    2  503  501  0.20367307564E+02  0.11124825859E+02 -0.34442555520E+03  0.34520653534E+03  0.00000000000E+00 0. -1.
         21    1    1    2  504  502 -0.20367307564E+02 -0.11124825859E+02 -0.61293319809E+01  0.24003284740E+02  0.00000000000E+00 0. -1.
</event>
<event>
 4    1  0.1679763E+006  0.3030350E+02  0.7546771E-02  0.1416977E+00
         21   -1    0    0  503  501  0.00000000000E+00  0.00000000000E+00  0.22928303627E+03  0.22928303627E+03  0.00000000000E+00 0. -1.
         21   -1    0    0  504  502 -0.00000000000E+00 -0.00000000000E+00 -0.12829838505E+02  0.12829838505E+02  0.00000000000E+00 0. -1.
         21    1    1    2  503  502  0.29359826011E+02  0.75035076161E+01  0.20862531532E+03  0.21081466790E+03  0.00000000000E+00 0. -1.
         21    1    1    2  504  501 -0.29359826011E+02 -0.75035076161E+01  0.78278824448E+01  0.31298206874E+02  0.00000000000E+00 0. -1.
</event>
<event>
 4    1  0.1679763E+006  0.2334616E+02  0.7546771E-02  0.1488197E+00
         21   -1    0    0  504  501  0.00000000000E+00  0.00000000000E+00  0.99969818375E+02  0.99969818375E+02  0.00000000000E+00 0. -1.
         21   -1    0    0  503  502 -0.00000000000E+00 -0.00000000000E+00 -0.11737385711E+02  0.11737385711E+02  0.00000000000E+00 0. -1.
         21    1    1    2  503  501 -0.15278121906E+02 -0.17652821820E+02  0.84988491343E+02  0.88136750496E+02  0.00000000000E+00 0. -1.
         21    1    1    2  504  502  0.15278121906E+02  0.17652821820E+02  0.32439413214E+01  0.23570453590E+02  0.00000000000E+00 0. -1.
</event>
<event>
 4    1  0.1679763E+006  0.3847381E+02  0.7546771E-02  0.1357669E+00
         21   -1    0    0  504  501  0.00000000000E+00  0.00000000000E+00  0.31674215721E+01  0.31674215721E+01  0.00000000000E+00 0. -1.
         21   -1    0    0  503  502 -0.00000000000E+00 -0.00000000000E+00 -0.50618516728E+03  0.50618516728E+03  0.00000000000E+00 0. -1.
         21    1    1    2  503  501 -0.25434073907E+02 -0.28867664848E+02 -0.32206793450E+03  0.32435780956E+03  0.00000000000E+00 0. -1.
         21    1    1    2  504  502  0.25434073907E+02  0.28867664848E+02 -0.18094981121E+03  0.18499477929E+03  0.00000000000E+00 0. -1.
</event>
<event>
 4    1  0.1679763E+006  0.3460990E+02  0.7546771E-02  0.1383327E+00
         21   -1    0    0  502  501  0.00000000000E+00  0.00000000000E+00  0.36793034510E+01  0.36793034510E+01  0.00000000000E+00 0. -1.
         21   -1    0    0  503  502 -0.00000000000E+00 -0.00000000000E+00 -0.56491946935E+03  0.56491946935E+03  0.00000000000E+00 0. -1.
         21    1    1    2  503  504  0.21681273989E+02 -0.26977172992E+02 -0.46567691740E+03  0.46696127987E+03  0.00000000000E+00 0. -1.
         21    1    1    2  504  501 -0.21681273989E+02  0.26977172992E+02 -0.95563248505E+02  0.10163749293E+03  0.00000000000E+00 0. -1.
</event>
<event>
 4    1  0.1679763E+006  0.2308577E+02  0.7546771E-02  0.1491424E+00
         21   -1    0    0  503  501  0.00000000000E+00  0.00000000000E+00  0.19982347548E+02  0.19982347548E+02  0.00000000000E+00 0.  1.
         21   -1    0    0  504  502 -0.00000000000E+00 -0.00000000000E+00 -0.40394209493E+02  0.40394209493E+02  0.00000000000E+00 0.  1.
         21    1    1    2  503  502 -0.21254218646E+02  0.90117139416E+01 -0.27801518864E+02  0.36136923631E+02  0.00000000000E+00 0.  1.
         21    1    1    2  504  501  0.21254218646E+02 -0.90117139416E+01  0.73896569186E+01  0.24239633409E+02  0.00000000000E+00 0.  1.
</event>
<event>
 4    1  0.1679763E+006  0.2761721E+02  0.7546771E-02  0.1441505E+00
         21   -1    0    0  504  501  0.00000000000E+00  0.00000000000E+00  0.27281840930E+01  0.27281840930E+01  0.00000000000E+00 0.  1.
         21   -1    0    0  503  502 -0.00000000000E+00 -0.00000000000E+00 -0.10210401985E+04  0.10210401985E+04  0.00000000000E+00 0. -1.
         21    1    1    2  503  501  0.24934209889E+02 -0.11874157109E+02 -0.94536840590E+03  0.94577171310E+03  0.00000000000E+00 0. -1.
         21    1    1    2  504  502 -0.24934209889E+02  0.11874157109E+02 -0.72943608521E+02  0.77996669505E+02  0.00000000000E+00 0.  1.
</event>
<event>
 4    1  0.1679763E+006  0.2087182E+02  0.7546771E-02  0.1521103E+00
         21   -1    0    0  503  501  0.00000000000E+00  0.00000000000E+00  0.11931838694E+01  0.11931838694E+01  0.00000000000E+00 0. -1.
         21   -1    0    0  501  502 -0.00000000000E+00 -0.00000000000E+00 -0.15829518809E+04  0.15829518809E+04  0.00000000000E+00 0.  1.
         21    1    1    2  503  504 -0.19065665642E+02  0.84931284115E+01 -0.96130042043E+02  0.98369801361E+02  0.00000000000E+00 0. -1.
         21    1    1    2  504  502  0.19065665642E+02 -0.84931284115E+01 -0.14856286550E+04  0.14857752634E+04  0.00000000000E+00 0.  1.
</event>
<event>
 4    1  0.1679763E+006  0.2110970E+02  0.7546771E-02  0.1517704E+00
         21   -1    0    0  504  501  0.00000000000E+00  0.00000000000E+00  0.94665311568E+01  0.94665311568E+01  0.00000000000E+00 0. -1.
         21   -1    0    0  501  502 -0.00000000000E+00 -0.00000000000E+00 -0.30096114174E+03  0.30096114174E+03  0.00000000000E+00 0. -1.
         21    1    1    2  503  502 -0.12080308190E+02 -0.17311425237E+02 -0.28830685488E+03  0.28907864303E+03  0.00000000000E+00 0. -1.
         21    1    1    2  504  503  0.12080308190E+02  0.17311425237E+02 -0.31877557086E+01  0.21349029865E+02  0.00000000000E+00 0. -1.
</event>
<event>
 4    1  0.1679763E+006  0.2128312E+02  0.7546771E-02  0.1515261E+00
         21   -1    0    0  504  501  0.00000000000E+00  0.00000000000E+00  0.25421727662E+01  0.25421727662E+01  0.00000000000E+00 0.  1.
         21   -1    0    0  501  502 -0.00000000000E+00 -0.00000000000E+00 -0.20461209545E+03  0.20461209545E+03  0.00000000000E+00 0.  1.
         21    1    1    2  503  502  0.37171597410E+01 -0.20955997246E+02 -0.13826060448E+03  0.13988911984E+03  0.00000000000E+00 0.  1.
         21    1    1    2  504  503 -0.37171597410E+01  0.20955997246E+02 -0.63809318206E+02  0.67265148383E+02  0.00000000000E+00 0.  1.
</event>
<event>
 4    1  0.1679763E+006  0.2164041E+02  0.7546771E-02  0.1510315E+00
         21   -1    0    0  503  501  0.00000000000E+00  0.00000000000E+00  0.56725070897E+01  0.56725070897E+01  0.00000000000E+00 0. -1.
         21   -1    0    0  504  502 -0.00000000000E+00 -0.00000000000E+00 -0.13379087204E+03  0.13379087204E+03  0.00000000000E+00 0.  1.
         21    1    1    2  503  502  0.37238135858E+01 -0.21317616387E+02 -0.20907895691E+02  0.30090657325E+02  0.00000000000E+00 0. -1.
         21    1    1    2  504  501 -0.37238135858E+01  0.21317616387E+02 -0.10721046926E+03  0.10937272180E+03  0.00000000000E+00 0.  1.
</event>
<event>
 4    1  0.1679763E+006  0.4943001E+02  0.7546771E-02  0.1300663E+00
         21   -1    0    0  504  501  0.00000000000E+00  0.00000000000E+00  0.41349585523E+02  0.41349585523E+02  0.00000000000E+00 0. -1.
         21   -1    0    0  503  502 -0.00000000000E+00 -0.00000000000E+00 -0.61196036649E+02  0.61196036649E+02  0.00000000000E+00 0. -1.
         21    1    1    2  503  501  0.11718359980E+02  0.48020895315E+02 -0.19436060394E+02  0.53113903934E+02  0.00000000000E+00 0. -1.
         21    1    1    2  504  502 -0.11718359980E+02 -0.48020895315E+02 -0.41039073260E+00  0.49431718238E+02  0.00000000000E+00 0. -1.
</event>
<event>
 4    1  0.1679763E+006  0.3065915E+02  0.7546771E-02  0.1413953E+00
         21   -1    0    0  503  501  0.00000000000E+00  0.00000000000E+00  0.66201700809E+02  0.66201700809E+02  0.00000000000E+00 0. -1.
         21   -1    0    0  504  502 -0.00000000000E+00 -0.00000000000E+00 -0.14851043527E+02  0.14851043527E+02  0.00000000000E+00 0. -1.
         21    1    1    2  503  502  0.35466506652E+01  0.30453317401E+02  0.34168528862E+02  0.45907206801E+02  0.00000000000E+00 0. -1.
         21    1    1    2  504  501 -0.35466506652E+01 -0.30453317401E+02  0.17182128420E+02  0.35145537536E+02  0.00000000000E+00 0. -1.
</event>
<event>
 4    1  0.1679763E+006  0.2269708E+02  0.7546771E-02  0.1496337E+00
         21   -1    0    0  503  501  0.00000000000E+00  0.00000000000E+00  0.80317285033E+03  0.80317285033E+03  0.00000000000E+00 0.  1.
         21   -1    0    0  504  502 -0.00000000000E+00 -0.00000000000E+00 -0.14170253435E+02  0.14170253435E+02  0.00000000000E+00 0.  1.
         21    1    1    2  503  502  0.17165500332E+02 -0.14849338162E+02 -0.48140933040E+01  0.23201998617E+02  0.00000000000E+00 0.  1.
         21    1    1    2  504  501 -0.17165500332E+02  0.14849338162E+02  0.79381669020E+03  0.79414110515E+03  0.00000000000E+00 0.  1.
</event>
<event>
 4    1  0.1679763E+006  0.2665668E+02  0.7546771E-02  0.1451088E+00
         21   -1    0    0  504  501  0.00000000000E+00  0.00000000000E+00  0.74285430129E+02  0.74285430129E+02  0.00000000000E+00 0. -1.
         21   -1    0    0  503  502 -0.00000000000E+00 -0.00000000000E+00 -0.63467069721E+02  0.63467069721E+02  0.00000000000E+00 0. -1.
         21    1    1    2  503  501 -0.77560363718E+01 -0.25503378816E+02 -0.58064826543E+02  0.63891333628E+02  0.00000000000E+00 0. -1.
         21    1    1    2  504  502  0.77560363718E+01  0.25503378816E+02  0.68883186951E+02  0.73861166222E+02  0.00000000000E+00 0. -1.
</event>
<event>
 4    1  0.1679763E+006  0.2152575E+02  0.7546771E-02  0.1511889E+00
         21   -1    0    0  504  501  0.00000000000E+00  0.00000000000E+00  0.19664856635E+03  0.19664856635E+03  0.00000000000E+00 0. -1.
         21   -1    0    0  501  502 -0.00000000000E+00 -0.00000000000E+00 -0.99678323968E+01  0.99678323968E+01  0.00000000000E+00 0.  1.
         21    1    1    2  503  502 -0.24715611769E+01 -0.21383388138E+02  0.30645929992E+01  0.21742806469E+02  0.00000000000E+00 0.  1.
         21    1    1    2  504  503  0.24715611769E+01  0.21383388138E+02  0.18361614096E+03  0.18487359228E+03  0.00000000000E+00 0. -1.
</event>
<event>
 4    1  0.1679763E+006  0.2463459E+02  0.7546771E-02  0.1472933E+00
         21   -1    0    0  504  501  0.00000000000E+00  0.00000000000E+00  0.10757239639E+03  0.10757239639E+03  0.00000000000E+00 0. -1.
         21   -1    0    0  503  502 -0.00000000000E+00 -0.00000000000E+00 -0.78931947313E+02  0.78931947313E+02  0.00000000000E+00 0. -1.
         21    1    1    2  503  501 -0.54567928886E+01  0.24022627219E+02 -0.75537705704E+02  0.79453182379E+02  0.00000000000E+00 0. -1.
         21    1    1    2  504  502  0.54567928886E+01 -0.24022627219E+02  0.10417815479E+03  0.10705116133E+03  0.00000000000E+00 0. -1.
</event>
<event>
 4    1  0.1679763E+006  0.2051953E+02  0.7546771E-02  0.1526237E+00
         21   -1    0    0  503  501  0.00000000000E+00  0.00000000000E+00  0.16841450436E+02  0.16841450436E+02  0.00000000000E+00 0.  1.
         21   -1    0    0  504  502 -0.00000000000E+00 -0.00000000000E+00 -0.13292707606E+03  0.13292707606E+03  0.00000000000E+00 0.  1.
         21    1    1    2  503  502  0.40084115042E+01  0.20124207340E+02 -0.12551849286E+03  0.12718468120E+03  0.00000000000E+00 0.  1.
         21    1    1    2  504  501 -0.40084115042E+01 -0.20124207340E+02  0.94328672350E+01  0.22583845291E+02  0.00000000000E+00 0.  1.
</event>
<event>
 4    1  0.1679763E+006  0.2281563E+02  0.7546771E-02  0.1494826E+00
         21   -1    0    0  503  501  0.00000000000E+00  0.00000000000E+00  0.26165412966E+02  0.26165412966E+02  0.00000000000E+00 0. -1.
         21   -1    0    0  504  502 -0.00000000000E+00 -0.00000000000E+00 -0.21510791582E+02  0.21510791582E+02  0.00000000000E+00 0.  1.
         21    1    1    2  503  502  0.22728763635E+02  0.19890798314E+01 -0.42066419999E+01  0.23200193359E+02  0.00000000000E+00 0.  1.
         21    1    1    2  504  501 -0.22728763635E+02 -0.19890798314E+01  0.88612633842E+01  0.24476011189E+02  0.00000000000E+00 0. -1.
</event>
<event>
 4    1  0.1679763E+006  0.5284243E+02  0.7546771E-02  0.1286298E+00
         21   -1    0    0  503  501  0.00000000000E+00  0.00000000000E+00  0.85058828412E+01  0.85058828412E+01  0.00000000000E+00 0.  1.
         21   -1    0    0  504  502 -0.00000000000E+00 -0.00000000000E+00 -0.33329419761E+03  0.33329419761E+03  0.00000000000E+00 0.  1.
         21    1    1    2  503  502 -0.36707292421E+02 -0.38011800352E+02 -0.18335325952E+03  0.19081598481E+03  0.00000000000E+00 0.  1.
         21    1    1    2  504  501  0.36707292421E+02  0.38011800352E+02 -0.14143505525E+03  0.15098409564E+03  0.00000000000E+00 0.  1.
</event>
<event>
 4    1  0.1679763E+006  0.2319160E+02  0.7546771E-02  0.1490106E+00
         21   -1    0    0  504  501  0.00000000000E+00  0.00000000000E+00  0.91157052170E+02  0.91157052170E+02  0.00000000000E+00 0.  1.
         21   -1    0    0  503  502 -0.00000000000E+00 -0.00000000000E+00 -0.59910039402E+01  0.59910039402E+01  0.00000000000E+00 0.  1.
         21    1    1    2  503  501  0.21781130558E+02  0.79644480427E+01  0.36604842452E+02  0.43333180958E+02  0.00000000000E+00 0.  1.
         21    1    1    2  504  502 -0.21781130558E+02 -0.79644480427E+01  0.48561205778E+02  0.53814875152E+02  0.00000000000E+00 0.  1.
</event>
<event>
 4    1  0.1679763E+006  0.2713159E+02  0.7546771E-02  0.1446291E+00
         21   -1    0    0  503  501  0.00000000000E+00  0.00000000000E+00  0.20698853505E+03  0.20698853505E+03  0.00000000000E+00 0.  1.
         21   -1    0    0  504  502 -0.00000000000E+00 -0.00000000000E+00 -0.32574077273E+03  0.32574077273E+03  0.00000000000E+00 0. -1.
         21    1    1    2  503  502 -0.19385755199E+02  0.18981988549E+02  0.20553049631E+03  0.20731355071E+03  0.00000000000E+00 0.  1.
         21    1    1    2  504  501  0.19385755199E+02 -0.18981988549E+02 -0.32428273399E+03  0.32541575708E+03  0.00000000000E+00 0. -1.
</event>
<event>
 4    1  0.1679763E+006  0.4480876E+02  0.7546771E-02  0.1322398E+00
         21   -1    0    0  502  501  0.00000000000E+00  0.00000000000E+00  0.44637700902E+03  0.44637700902E+03  0.00000000000E+00 0. -1.
         21   -1    0    0  504  502 -0.00000000000E+00 -0.00000000000E+00 -0.19848712926E+02  0.19848712926E+02  0.00000000000E+00 0.  1.
         21    1    1    2  503  501  0.40576279684E+02  0.19010272447E+02  0.41826877543E+03  0.42066208937E+03  0.00000000000E+00 0. -1.
         21    1    1    2  504  503 -0.40576279684E+02 -0.19010272447E+02  0.82595206567E+01  0.45563632570E+02  0.00000000000E+00 0.  1.
</event>
<event>
 4    1  0.1679763E+006  0.2665016E+02  0.7546771E-02  0.1451154E+00
         21   -1    0    0  502  501  0.00000000000E+00  0.00000000000E+00  0.10476237579E+01  0.10476237579E+01  0.00000000000E+00 0.  1.
         21   -1    0    0  504  502 -0.00000000000E+00 -0.00000000000E+00 -0.86014045996E+03  0.86014045996E+03  0.00000000000E+00 0. -1.
         21    1    1    2  503  501  0.37694638695E+00  0.26647489642E+02 -0.23136968397E+03  0.23289946641E+03  0.00000000000E+00 0.  1.
         21    1    1    2  504  503 -0.37694638695E+00 -0.26647489642E+02 -0.62772315224E+03  0.62828861731E+03  0.00000000000E+00 0. -1.
</event>
<event>
 4    1  0.1679763E+006  0.3147174E+02  0.7546771E-02  0.1407224E+00
         21   -1    0    0  502  501  0.00000000000E+00  0.00000000000E+00  0.19529279362E+02  0.19529279362E+02  0.00000000000E+00 0.  1.
         21   -1    0    0  504  502 -0.00000000000E+00 -0.00000000000E+00 -0.10336147294E+04  0.10336147294E+04  0.00000000000E+00 0.  1.
         21    1    1    2  503  501 -0.29077095879E+02 -0.12041310750E+02  0.64479240692E+01  0.32125478894E+02  0.00000000000E+00 0.  1.
         21    1    1    2  504  503  0.29077095879E+02  0.12041310750E+02 -0.10205333741E+04  0.10210185299E+04  0.00000000000E+00 0.  1.
</event>
<event>
 4    1  0.1679763E+006  0.2175984E+02  0.7546771E-02  0.1508687E+00
         21   -1    0    0  504  501  0.00000000000E+00  0.00000000000E+00  0.11046250596E+02  0.11046250596E+02  0.00000000000E+00 0. -1.
         21   -1    0    0  503  502 -0.00000000000E+00 -0.00000000000E+00 -0.45503348402E+02  0.45503348402E+02  0.00000000000E+00 0.  1.
         21    1    1    2  503  501  0.13291757606E+02 -0.17228461812E+02 -0.24037727120E+02  0.32423803629E+02  0.00000000000E+00 0. -1.
         21    1    1    2  504  502 -0.13291757606E+02  0.17228461812E+02 -0.10419370686E+02  0.24125795369E+02  0.00000000000E+00 0.  1.
</event>
<event>
 4    1  0.1679763E+006  0.2147355E+02  0.7546771E-02  0.1512610E+00
         21   -1    0    0  503  501  0.00000000000E+00  0.00000000000E+00  0.20665847634E+02  0.20665847634E+02  0.00000000000E+00 0.  1.
         21   -1    0    0  504  502 -0.00000000000E+00 -0.00000000000E+00 -0.17447372876E+03  0.17447372876E+03  0.00000000000E+00 0.  1.
         21    1    1    2  503  502 -0.20463490327E+02 -0.65083814094E+01 -0.16802145806E+03  0.16938808646E+03  0.00000000000E+00 0.  1.
         21    1    1    2  504  501  0.20463490327E+02  0.65083814094E+01  0.14213576931E+02  0.25751489940E+02  0.00000000000E+00 0.  1.
</event>
<event>
 4    1  0.1679763E+006  0.2104008E+02  0.7546771E-02  0.1518693E+00
         21   -1    0    0  504  501  0.00000000000E+00  0.00000000000E+00  0.95816842128E+02  0.95816842128E+02  0.00000000000E+00 0.  1.
         21   -1    0    0  501  502 -0.00000000000E+00 -0.00000000000E+00 -0.91478582206E+01  0.91478582206E+01  0.00000000000E+00 0.  1.
         21    1    1    2  503  502  0.25526981069E-01  0.21040067815E+02  0.64117182439E+01  0.21995345783E+02  0.00000000000E+00 0.  1.
         21    1    1    2  504  503 -0.25526981069E-01 -0.21040067815E+02  0.80257265663E+02  0.82969354566E+02  0.00000000000E+00 0.  1.
</event>
<event>
 4    1  0.1679763E+006  0.2395729E+02  0.7546771E-02  0.1480815E+00
         21   -1    0    0  504  501  0.00000000000E+00  0.00000000000E+00  0.14189095986E+03  0.14189095986E+03  0.00000000000E+00 0. -1.
         21   -1    0    0  501  502 -0.00000000000E+00 -0.00000000000E+00 -0.11877446336E+03  0.11877446336E+03  0.00000000000E+00 0. -1.
         21    1    1    2  503  502 -0.97058109497E+00 -0.23937623385E+02 -0.11653591316E+03  0.11897298389E+03  0.00000000000E+00 0. -1.
         21    1    1    2  504  503  0.97058109497E+00  0.23937623385E+02  0.13965240966E+03  0.14169243933E+03  0.00000000000E+00 0. -1.
</event>
<event>
 4    1  0.1679763E+006  0.2296311E+02  0.7546771E-02  0.1492962E+00
         21   -1    0    0  504  501  0.00000000000E+00  0.00000000000E+00  0.16626270226E+01  0.16626270226E+01  0.00000000000E+00 0.  1.
         21   -1    0    0  503  502 -0.00000000000E+00 -0.00000000000E+00 -0.34474730599E+03  0.34474730599E+03  0.00000000000E+00 0.  1.
         21    1    1    2  503  501  0.10243606863E+02 -0.20551713388E+02 -0.22054646258E+03  0.22173868981E+03  0.00000000000E+00 0.  1.
         21    1    1    2  504  502 -0.10243606863E+02  0.20551713388E+02 -0.12253821639E+03  0.12467124320E+03  0.00000000000E+00 0.  1.
</event>
<event>
 4    1  0.1679763E+006  0.2533126E+02  0.7546771E-02  0.1465131E+00
         21   -1    0    0  504  501  0.00000000000E+00  0.00000000000E+00  0.19635395543E+02  0.19635395543E+02  0.00000000000E+00 0.  1.
         21   -1    0    0  503  502 -0.00000000000E+00 -0.00000000000E+00 -0.48403522089E+02  0.48403522089E+02  0.00000000000E+00 0.  1.
         21    1    1    2  503  501  0.70373987170E+01 -0.24334089627E+02  0.50056842747E+01  0.25821111009E+02  0.00000000000E+00 0.  1.
         21    1    1    2  504  502 -0.70373987170E+01  0.24334089627E+02 -0.33773810821E+02  0.42217806623E+02  0.00000000000E+00 0.  1.
</event>
<event>
 4    1  0.1679763E+006  0.2489603E+02  0.7546771E-02  0.1469970E+00
         21   -1    0    0  504  501  0.00000000000E+00  0.00000000000E+00  0.11246052165E+02  0.11246052165E+02  0.00000000000E+00 0. -1.
         21   -1    0    0  503  502 -0.00000000000E+00 -0.00000000000E+00 -0.98529508862E+02  0.98529508862E+02  0.00000000000E+00 0. -1.
         21    1    1    2  503  501  0.19574511166E+02  0.15383464682E+02 -0.80076499524E+02  0.83857368484E+02  0.00000000000E+00 0. -1.
         21    1    1    2  504  502 -0.19574511166E+02 -0.15383464682E+02 -0.72069571730E+01  0.25918192543E+02  0.00000000000E+00 0. -1.
</event>
<event>
 4    1  0.1679763E+006  0.2770152E+02  0.7546771E-02  0.1440686E+00
         21   -1    0    0  504  501  0.00000000000E+00  0.00000000000E+00  0.23109125099E+03  0.23109125099E+03  0.00000000000E+00 0. -1.
         21   -1    0    0  501  502 -0.00000000000E+00 -0.00000000000E+00 -0.40433904458E+02  0.40433904458E+02  0.00000000000E+00 0.  1.
         21    1    1    2  503  502  0.13527597859E+02  0.24173917084E+02 -0.34739706139E+02  0.44432210767E+02  0.00000000000E+00 0.  1.
         21    1    1    2  504  503 -0.13527597859E+02 -0.24173917084E+02  0.22539705267E+03  0.22709294468E+03  0.00000000000E+00 0. -1.
</event>
<event>
 4    1  0.1679763E+006  0.2439307E+02  0.7546771E-02  0.1475709E+00
         21   -1    0    0  504  501  0.00000000000E+00  0.00000000000E+00  0.78712940893E+02  0.78712940893E+02  0.00000000000E+00 0.  1.
         21   -1    0    0  503  502 -0.00000000000E+00 -0.00000000000E+00 -0.84654304931E+01  0.84654304931E+01  0.00000000000E+00 0.  1.
         21    1    1    2  503  501 -0.14477964329E+02 -0.19631876032E+02  0.20863494705E+02  0.32098402125E+02  0.00000000000E+00 0.  1.
         21    1    1    2  504  502  0.14477964329E+02  0.19631876032E+02  0.49384015695E+02  0.55079969261E+02  0.00000000000E+00 0.  1.
</event>
<event>
 4    1  0.1679763E+006  0.2643766E+02  0.7546771E-02  0.1453340E+00
         21   -1    0    0  502  501  0.00000000000E+00  0.00000000000E+00  0.92694803215E+01  0.92694803215E+01  0.00000000000E+00 0. -1.
         21   -1    0    0  504  502 -0.00000000000E+00 -0.00000000000E+00 -0.11706668358E+03  0.11706668358E+03  0.00000000000E+00 0. -1.
         21    1    1    2  503  501  0.18556172358E+02  0.18831308578E+02 -0.16214503431E+02  0.31013865235E+02  0.00000000000E+00 0. -1.
         21    1    1    2  504  503 -0.18556172358E+02 -0.18831308578E+02 -0.91582699827E+02  0.95322298666E+02  0.00000000000E+00 0. -1.
</event>
<event>
 4    1  0.1679763E+006  0.2737401E+02  0.7546771E-02  0.1443887E+00
         21   -1    0    0  504  501  0.00000000000E+00  0.00000000000E+00  0.41429186655E+02  0.41429186655E+02  0.00000000000E+00 0. -1.
         21   -1    0    0  503  502 -0.00000000000E+00 -0.00000000000E+00 -0.36508602125E+03  0.36508602125E+03  0.00000000000E+00 0. -1.
         21    1    1    2  503  501  0.43059929569E+01  0.27033221356E+02  0.36330316991E+02  0.45488774054E+02  0.00000000000E+00 0. -1.
         21    1    1    2  504  502 -0.43059929569E+01 -0.27033221356E+02 -0.35998715158E+03  0.36102643385E+03  0.00000000000E+00 0. -1.
</event>
<event>
 4    1  0.1679763E+006  0.2253045E+02  0.7546771E-02  0.1498480E+00
         21   -1    0    0  502  501  0.00000000000E+00  0.00000000000E+00  0.68523237838E+02  0.68523237838E+02  0.00000000000E+00 0. -1.
         21   -1    0    0  503  502 -0.00000000000E+00 -0.00000000000E+00 -0.81190255557E+01  0.81190255557E+01  0.00000000000E+00 0. -1.
         21    1    1    2  503  504  0.73449330201E+01  0.21299603425E+02  0.18861806894E+02  0.29383480162E+02  0.00000000000E+00 0. -1.
         21    1    1    2  504  501 -0.73449330201E+01 -0.21299603425E+02  0.41542405388E+02  0.47258783231E+02  0.00000000000E+00 0. -1.
</event>
<event>
 4    1  0.1679763E+006  0.2410137E+02  0.7546771E-02  0.1479113E+00
         21   -1    0    0  503  501  0.00000000000E+00  0.00000000000E+00  0.34089262236E+02  0.34089262236E+02  0.00000000000E+00 0.  1.
         21   -1    0    0  501  502 -0.00000000000E+00 -0.00000000000E+00 -0.68788215945E+02  0.68788215945E+02  0.00000000000E+00 0. -1.
         21    1    1    2  503  504  0.21643432866E+02 -0.10603668350E+02  0.27265595845E+02  0.36390777479E+02  0.00000000000E+00 0.  1.
         21    1    1    2  504  502 -0.21643432866E+02  0.10603668350E+02 -0.61964549555E+02  0.66486700702E+02  0.00000000000E+00 0. -1.
</event>
<event>
 4    1  0.1679763E+006  0.5656596E+02  0.7546771E-02  0.1271969E+00
         21   -1    0    0  504  501  0.00000000000E+00  0.00000000000E+00  0.24162209450E+02  0.24162209450E+02  0.00000000000E+00 0.  1.
         21   -1    0    0  503  502 -0.00000000000E+00 -0.00000000000E+00 -0.19460291605E+03  0.19460291605E+03  0.00000000000E+00 0. -1.
         21    1    1    2  503  501  0.21257414364E+02  0.52419750340E+02 -0.23392017500E+02  0.61211880986E+02  0.00000000000E+00 0.  1.
         21    1    1    2  504  502 -0.21257414364E+02 -0.52419750340E+02 -0.14704868910E+03  0.15755324452E+03  0.00000000000E+00 0. -1.
</event>
<event>
 4    1  0.1679763E+006  0.2255081E+02  0.7546771E-02  0.1498217E+00
         21   -1    0    0  503  501  0.00000000000E+00  0.00000000000E+00  0.48880379911E+02  0.48880379911E+02  0.00000000000E+00 0.  1.
         21   -1    0    0  504  502 -0.00000000000E+00 -0.00000000000E+00 -0.10490068710E+02  0.10490068710E+02  0.00000000000E+00 0.  1.
         21    1    1    2  503  502  0.16233959634E+02 -0.15652398807E+02  0.21888022539E+02  0.31426494626E+02  0.00000000000E+00 0.  1.
         21    1    1    2  504  501 -0.16233959634E+02  0.15652398807E+02  0.16502288661E+02  0.27943953995E+02  0.00000000000E+00 0.  1.
</event>
<event>
 4    1  0.1679763E+006  0.3354596E+02  0.7546771E-02  0.1391084E+00
         21   -1    0    0  504  501  0.00000000000E+00  0.00000000000E+00  0.66842504186E+02  0.66842504186E+02  0.00000000000E+00 0. -1.
         21   -1    0    0  501  502 -0.00000000000E+00 -0.00000000000E+00 -0.75159173792E+02  0.75159173792E+02  0.00000000000E+00 0.  1.
         21    1    1    2  503  502  0.27268311853E+02 -0.19538951328E+02 -0.66703633231E+02  0.74663954734E+02  0.00000000000E+00 0.  1.
         21    1    1    2  504  503 -0.27268311853E+02  0.19538951328E+02  0.58386963626E+02  0.67337723244E+02  0.00000000000E+00 0. -1.
</event>
<event>
 4    1  0.1679763E+006  0.2034172E+02  0.7546771E-02  0.1528874E+00
         21   -1    0    0  504  501  0.00000000000E+00  0.00000000000E+00  0.13627510185E+03  0.13627510185E+03  0.00000000000E+00 0.  1.
         21   -1    0    0  503  502 -0.00000000000E+00 -0.00000000000E+00 -0.15034826556E+02  0.15034826556E+02  0.00000000000E+00 0.  1.
         21    1    1    2  503  501  0.18554983811E+02  0.83365619720E+01 -0.69648706716E+01  0.21501049119E+02  0.00000000000E+00 0.  1.
         21    1    1    2  504  502 -0.18554983811E+02 -0.83365619720E+01  0.12820514596E+03  0.12980887929E+03  0.00000000000E+00 0.  1.
</event>
<event>
 4    1  0.1679763E+006  0.2896855E+02  0.7546771E-02  0.1428776E+00
         21   -1    0    0  504  501  0.00000000000E+00  0.00000000000E+00  0.34495128426E+03  0.34495128426E+03  0.00000000000E+00 0. -1.
         21   -1    0    0  503  502 -0.00000000000E+00 -0.00000000000E+00 -0.87870537818E+01  0.87870537818E+01  0.00000000000E+00 0. -1.
         21    1    1    2  503  501 -0.19737868098E+02 -0.21203617943E+02  0.17676235148E+02  0.33935617571E+02  0.00000000000E+00 0. -1.
         21    1    1    2  504  502  0.19737868098E+02  0.21203617943E+02  0.31848799533E+03  0.31980272047E+03  0.00000000000E+00 0. -1.
</event>
<event>
 4    1  0.1679763E+006  0.2159607E+02  0.7546771E-02  0.1510922E+00
         21   -1    0    0  504  501  0.00000000000E+00  0.00000000000E+00  0.82044997399E+01  0.82044997399E+01  0.00000000000E+00 0.  1.
         21   -1    0    0  503  502 -0.00000000000E+00 -0.00000000000E+00 -0.59474715885E+02  0.59474715885E+02  0.00000000000E+00 0.  1.
         21    1    1    2  503  501 -0.21588252493E+02  0.58108755381E+00 -0.18520385383E+02  0.28449867894E+02  0.00000000000E+00 0.  1.
         21    1    1    2  504  502  0.21588252493E+02 -0.58108755381E+00 -0.32749830762E+02  0.39229347731E+02  0.00000000000E+00 0.  1.
</event>
<event>
 4    1  0.1679763E+006  0.2141009E+02  0.7546771E-02  0.1513490E+00
         21   -1    0    0  502  501  0.00000000000E+00  0.00000000000E+00  0.23173861871E+02  0.23173861871E+02  0.00000000000E+00 0.  1.
         21   -1    0    0  504  502 -0.00000000000E+00 -0.00000000000E+00 -0.74609155668E+02  0.74609155668E+02  0.00000000000E+00 0. -1.
         21    1    1    2  503  501  0.67890446161E+01  0.20305190577E+02  0.16194600678E+02  0.26845055081E+02  0.00000000000E+00 0.  1.
         21    1    1    2  504  503 -0.67890446161E+01 -0.20305190577E+02 -0.67629894475E+02  0.70937962459E+02  0.00000000000E+00 0. -1.
</event>
<event>
 4    1  0.1679763E+006  0.2416012E+02  0.7546771E-02  0.1478423E+00
         21   -1    0    0  502  501  0.00000000000E+00  0.00000000000E+00  0.75507941892E+03  0.75507941892E+03  0.00000000000E+00 0. -1.
         21   -1    0    0  503  502 -0.00000000000E+00 -0.00000000000E+00 -0.10597747077E+01  0.10597747077E+01  0.00000000000E+00 0.  1.
         21    1    1    2  503  504 -0.24049225444E+02  0.23121557823E+01  0.18035690970E+03  0.18196792626E+03  0.00000000000E+00 0.  1.
         21    1    1    2  504  501  0.24049225444E+02 -0.23121557823E+01  0.57366273451E+03  0.57417126737E+03  0.00000000000E+00 0. -1.
</event>
<event>
 4    1  0.1679763E+006  0.2616879E+02  0.7546771E-02  0.1456141E+00
         21   -1    0    0  503  501  0.00000000000E+00  0.00000000000E+00  0.11298835844E+02  0.11298835844E+02  0.00000000000E+00 0. -1.
         21   -1    0    0  504  502 -0.00000000000E+00 -0.00000000000E+00 -0.36968357449E+03  0.36968357449E+03  0.00000000000E+00 0.  1.
         21    1    1    2  503  502  0.96695823784E+01 -0.24316758651E+02 -0.50149553622E+01  0.26644987370E+02  0.00000000000E+00 0. -1.
         21    1    1    2  504  501 -0.96695823784E+01  0.24316758651E+02 -0.35336978329E+03  0.35433742297E+03  0.00000000000E+00 0.  1.
</event>
<event>
 4    1  0.1679763E+006  0.3360443E+02  0.7546771E-02  0.1390649E+00
         21   -1    0    0  503  501  0.00000000000E+00  0.00000000000E+00  0.65686007454E+02  0.65686007454E+02  0.00000000000E+00 0.  1.
         21   -1    0    0  504  502 -0.00000000000E+00 -0.00000000000E+00 -0.47720676531E+02  0.47720676531E+02  0.00000000000E+00 0. -1.
         21    1    1    2  503  502 -0.23131611139E+02 -0.24375930475E+02 -0.36370867852E+02  0.49518657582E+02  0.00000000000E+00 0. -1.
         21    1    1    2  504  501  0.23131611139E+02  0.24375930475E+02  0.54336198774E+02  0.63888026403E+02  0.00000000000E+00 0.  1.
</event>
<event>
 4    1  0.1679763E+006  0.2812245E+02  0.7546771E-02  0.1436647E+00
         21   -1    0    0  504  501  0.00000000000E+00  0.00000000000E+00  0.76909538395E+02  0.76909538395E+02  0.00000000000E+00 0. -1.
         21   -1    0    0  503  502 -0.00000000000E+00 -0.00000000000E+00 -0.19842077717E+02  0.19842077717E+02  0.00000000000E+00 0.  1.
         21    1    1    2  503  501  0.27161517748E+02 -0.72886127100E+01 -0.50430744389E+01  0.28571043408E+02  0.00000000000E+00 0.  1.
         21    1    1    2  504  502 -0.27161517748E+02  0.72886127100E+01  0.62110535117E+02  0.68180572704E+02  0.00000000000E+00 0. -1.
</event>
<event>
 4    1  0.1679763E+006  0.2284171E+02  0.7546771E-02  0.1494495E+00
         21   -1    0    0  503  501  0.00000000000E+00  0.00000000000E+00  0.17644736250E+01  0.17644736250E+01  0.00000000000E+00 0. -1.
         21   -1    0    0  501  502 -0.00000000000E+00 -0.00000000000E+00 -0.11537725483E+04  0.11537725483E+04  0.00000000000E+00 0. -1.
         21    1    1    2  503  504 -0.71539392141E+01 -0.21692506216E+02 -0.77742486819E+02  0.81028624134E+02  0.00000000000E+00 0. -1.
         21    1    1    2  504  502  0.71539392141E+01  0.21692506216E+02 -0.10742655878E+04  0.10745083978E+04  0.00000000000E+00 0. -1.
</event>
<event>
 4    1  0.1679763E+006  0.2234542E+02  0.7546771E-02  0.1500885E+00
         21   -1    0    0  504  501  0.00000000000E+00  0.00000000000E+00  0.51968047688E+00  0.51968047688E+00  0.00000000000E+00 0.  1.
         21   -1    0    0  501  502 -0.00000000000E+00 -0.00000000000E+00 -0.16347939354E+04  0.16347939354E+04  0.00000000000E+00 0.  1.
         21    1    1    2  503  502  0.28945511990E+01 -0.22157148498E+02 -0.13421406016E+04  0.13423266041E+04  0.00000000000E+00 0.  1.
         21    1    1    2  504  503 -0.28945511990E+01  0.22157148498E+02 -0.29213365328E+03  0.29298701172E+03  0.00000000000E+00 0.  1.
</event>
<event>
 4    1  0.1679763E+006  0.2745141E+02  0.7546771E-02  0.1443126E+00
         21   -1    0    0  502  501  0.00000000000E+00  0.00000000000E+00  0.42492675818E+01  0.42492675818E+01  0.00000000000E+00 0. -1.
         21   -1    0    0  504  502 -0.00000000000E+00 -0.00000000000E+00 -0.21269866167E+03  0.21269866167E+03  0.00000000000E+00 0. -1.
         21    1    1    2  503  501 -0.44222812921E+01  0.27092864847E+02 -0.59999510271E+02  0.65981218011E+02  0.00000000000E+00 0. -1.
         21    1    1    2  504  503  0.44222812921E+01 -0.27092864847E+02 -0.14844988382E+03  0.15096671124E+03  0.00000000000E+00 0. -1.
</event>
<event>
 4    1  0.1679763E+006  0.2344195E+02  0.7546771E-02  0.1487022E+00
         21   -1    0    0  503  501  0.00000000000E+00  0.00000000000E+00  0.37021100140E+01  0.37021100140E+01  0.00000000000E+00 0. -1.
         21   -1    0    0  501  502 -0.00000000000E+00 -0.00000000000E+00 -0.16103362105E+03  0.16103362105E+03  0.00000000000E+00 0. -1.
         21    1    1    2  503  504  0.23278240932E+02  0.27656021134E+01 -0.55627474577E+02  0.60365064266E+02  0.00000000000E+00 0. -1.
         21    1    1    2  504  502 -0.23278240932E+02 -0.27656021134E+01 -0.10170403646E+03  0.10437066680E+03  0.00000000000E+00 0. -1.
</event>
<event>
 4    1  0.1679763E+006  0.5840108E+02  0.7546771E-02  0.1265364E+00
         21   -1    0    0  503  501  0.00000000000E+00  0.00000000000E+00  0.34100555098E+03  0.34100555098E+03  0.00000000000E+00 0. -1.
         21   -1    0    0  504  502 -0.00000000000E+00 -0.00000000000E+00 -0.10534509872E+02  0.10534509872E+02  0.00000000000E+00 0. -1.
         21    1    1    2  503  502  0.57883962841E+02 -0.77545251045E+01  0.12571129984E+03  0.13861463386E+03  0.00000000000E+00 0. -1.
         21    1    1    2  504  501 -0.57883962841E+02  0.77545251045E+01  0.20475974127E+03  0.21292542699E+03  0.00000000000E+00 0. -1.
</event>
<event>
 4    1  0.1679763E+006  0.2792454E+02  0.7546771E-02  0.1438536E+00
         21   -1    0    0  504  501  0.00000000000E+00  0.00000000000E+00  0.83569849526E+03  0.83569849526E+03  0.00000000000E+00 0.  1.
         21   -1    0    0  501  502 -0.00000000000E+00 -0.00000000000E+00 -0.27831617433E+01  0.27831617433E+01  0.00000000000E+00 0.  1.
         21    1    1    2  503  502 -0.22801746633E+02  0.16120189810E+02  0.74644429900E+02  0.79696744502E+02  0.00000000000E+00 0.  1.
         21    1    1    2  504  503  0.22801746633E+02 -0.16120189810E+02  0.75827090361E+03  0.75878491250E+03  0.00000000000E+00 0.  1.
</event>
<event>
 4    1  0.1679763E+006  0.7257021E+02  0.7546771E-02  0.1222233E+00
         21   -1    0    0  503  501  0.00000000000E+00  0.00000000000E+00  0.67606560956E+02  0.67606560956E+02  0.00000000000E+00 0. -1.
         21   -1    0    0  504  502 -0.00000000000E+00 -0.00000000000E+00 -0.27491007176E+03  0.27491007176E+03  0.00000000000E+00 0. -1.
         21    1    1    2  503  502  0.71362188940E+02  0.13186082577E+02  0.41326361832E+02  0.83512292307E+02  0.00000000000E+00 0. -1.
         21    1    1    2  504  501 -0.71362188940E+02 -0.13186082577E+02 -0.24862987264E+03  0.25900434041E+03  0.00000000000E+00 0. -1.
</event>
<event>
 4    1  0.1679763E+006  0.4658798E+02  0.7546771E-02  0.1313685E+00
         21   -1    0    0  504  501  0.00000000000E+00  0.00000000000E+00  0.35805912303E+03  0.35805912303E+03  0.00000000000E+00 0. -1.
         21   -1    0    0  503  502 -0.00000000000E+00 -0.00000000000E+00 -0.60619179986E+01  0.60619179986E+01  0.00000000000E+00 0. -1.
         21    1    1    2  503  501 -0.17347282113E+02  0.43237845864E+02  0.17485573823E+03  0.18095570923E+03  0.00000000000E+00 0. -1.
         21    1    1    2  504  502  0.17347282113E+02 -0.43237845864E+02  0.17714146680E+03  0.18316533179E+03  0.00000000000E+00 0. -1.
</event>
<event>
 4    1  0.1679763E+006  0.2612542E+02  0.7546771E-02  0.1456597E+00
         21   -1    0    0  503  501  0.00000000000E+00  0.00000000000E+00  0.72881916715E+01  0.72881916715E+01  0.00000000000E+00 0. -1.
         21   -1    0    0  504  502 -0.00000000000E+00 -0.00000000000E+00 -0.58497422457E+03  0.58497422457E+03  0.00000000000E+00 0. -1.
         21    1    1    2  503  502  0.16839335480E+02  0.19974348071E+02 -0.17449177831E+02  0.31416740876E+02  0.00000000000E+00 0. -1.
         21    1    1    2  504  501 -0.16839335480E+02 -0.19974348071E+02 -0.56023685507E+03  0.56084567536E+03  0.00000000000E+00 0. -1.
</event>
<event>
 4    1  0.1679763E+006  0.2305507E+02  0.7546771E-02  0.1491808E+00
         21   -1    0    0  503  501  0.00000000000E+00  0.00000000000E+00  0.13894864675E+01  0.13894864675E+01  0.00000000000E+00 0.  1.
         21   -1    0    0  501  502 -0.00000000000E+00 -0.00000000000E+00 -0.11077963871E+04  0.11077963871E+04  0.00000000000E+00 0.  1.
         21    1    1    2  503  504  0.21680848142E+02 -0.78407453195E+01 -0.10446875953E+03  0.10698251344E+03  0.00000000000E+00 0.  1.
         21    1    1    2  504  502 -0.21680848142E+02  0.78407453195E+01 -0.10019381411E+04  0.10022033601E+04  0.00000000000E+00 0.  1.
</event>
<event>
 4    1  0.1679763E+006  0.2399509E+02  0.7546771E-02  0.1480367E+00
         21   -1    0    0  503  501  0.00000000000E+00  0.00000000000E+00  0.34920988516E+02  0.34920988516E+02  0.00000000000E+00 0. -1.
         21   -1    0    0  504  502 -0.00000000000E+00 -0.00000000000E+00 -0.27676553056E+02  0.27676553056E+02  0.00000000000E+00 0. -1.
         21    1    1    2  503  502  0.23858454166E+02 -0.25570553274E+01 -0.16278347364E+02  0.28995671402E+02  0.00000000000E+00 0. -1.
         21    1    1    2  504  501 -0.23858454166E+02  0.25570553274E+01  0.23522782824E+02  0.33601870170E+02  0.00000000000E+00 0. -1.
</event>
<event>
 4    1  0.1679763E+006  0.2471692E+02  0.7546771E-02  0.1471995E+00
         21   -1    0    0  504  501  0.00000000000E+00  0.00000000000E+00  0.97651562990E+03  0.97651562990E+03  0.00000000000E+00 0.  1.
         21   -1    0    0  503  502 -0.00000000000E+00 -0.00000000000E+00 -0.19716483067E+01  0.19716483067E+01  0.00000000000E+00 0.  1.
         21    1    1    2  503  501 -0.34472629057E+00  0.24714511026E+02  0.83033317816E+02  0.86634045034E+02  0.00000000000E+00 0.  1.
         21    1    1    2  504  502  0.34472629057E+00 -0.24714511026E+02  0.89151066378E+03  0.89185323318E+03  0.00000000000E+00 0.  1.
</event>
<event>
 4    1  0.1679763E+006  0.2062501E+02  0.7546771E-02  0.1524687E+00
         21   -1    0    0  504  501  0.00000000000E+00  0.00000000000E+00  0.50202196473E+02  0.50202196473E+02  0.00000000000E+00 0. -1.
         21   -1    0    0  503  502 -0.00000000000E+00 -0.00000000000E+00 -0.33608528247E+02  0.33608528247E+02  0.00000000000E+00 0.  1.
         21    1    1    2  503  501 -0.54956955401E+01 -0.19879341634E+02 -0.27942824481E+02  0.34730279775E+02  0.00000000000E+00 0.  1.
         21    1    1    2  504  502  0.54956955401E+01  0.19879341634E+02  0.44536492708E+02  0.49080444945E+02  0.00000000000E+00 0. -1.
</event>
<event>
 4    1  0.1679763E+006  0.2107408E+02  0.7546771E-02  0.1518210E+00
         21   -1    0    0  503  501  0.00000000000E+00  0.00000000000E+00  0.40216837078E+02  0.40216837078E+02  0.00000000000E+00 0.  1.
         21   -1    0    0  501  502 -0.00000000000E+00 -0.00000000000E+00 -0.20054303961E+02  0.20054303961E+02  0.00000000000E+00 0. -1.
         21    1    1    2  503  504  0.14101632677E+02 -0.15660803428E+02  0.30282043673E+02  0.36893345974E+02  0.00000000000E+00 0.  1.
         21    1    1    2  504  502 -0.14101632677E+02  0.15660803428E+02 -0.10119510556E+02  0.23377795064E+02  0.00000000000E+00 0. -1.
</event>
<event>
 4    1  0.1679763E+006  0.2019871E+02  0.7546771E-02  0.1531019E+00
         21   -1    0    0  503  501  0.00000000000E+00  0.00000000000E+00  0.38206124559E+02  0.38206124559E+02  0.00000000000E+00 0. -1.
         21   -1    0    0  501  502 -0.00000000000E+00 -0.00000000000E+00 -0.14052132807E+02  0.14052132807E+02  0.00000000000E+00 0.  1.
         21    1    1    2  503  504 -0.90073274351E+01  0.18079162886E+02  0.24879532011E+02  0.32046516055E+02  0.00000000000E+00 0. -1.
         21    1    1    2  504  502  0.90073274351E+01 -0.18079162886E+02 -0.72554025799E+00  0.20211741311E+02  0.00000000000E+00 0.  1.
</event>
<event>
 4    1  0.1679763E+006  0.2285243E+02  0.7546771E-02  0.1494359E+00
         21   -1    0    0  504  501  0.00000000000E+00  0.00000000000E+00  0.23081320088E+03  0.23081320088E+03  0.00000000000E+00 0. -1.
         21   -1    0    0  503  502 -0.00000000000E+00 -0.00000000000E+00 -0.43946808094E+01  0.43946808094E+01  0.00000000000E+00 0. -1.
         21    1    1    2  503  501 -0.10672671888E+02  0.20207123499E+02  0.19512396713E+03  0.19645761964E+03  0.00000000000E+00 0. -1.
         21    1    1    2  504  502  0.10672671888E+02 -0.20207123499E+02  0.31294552944E+02  0.38750262055E+02  0.00000000000E+00 0. -1.
</event>
<event>
 4    1  0.1679763E+006  0.2172803E+02  0.7546771E-02  0.1509119E+00
         21   -1    0    0  502  501  0.00000000000E+00  0.00000000000E+00  0.54891505469E+03  0.54891505469E+03  0.00000000000E+00 0.  1.
         21   -1    0    0  503  502 -0.00000000000E+00 -0.00000000000E+00 -0.16336584100E+02  0.16336584100E+02  0.00000000000E+00 0. -1.
         21    1    1    2  503  504  0.44222531850E+01  0.21273249674E+02 -0.87962831942E+01  0.23441033956E+02  0.00000000000E+00 0. -1.
         21    1    1    2  504  501 -0.44222531850E+01 -0.21273249674E+02  0.54137475378E+03  0.54181060483E+03  0.00000000000E+00 0.  1.
</event>
<event>
 4    1  0.1679763E+006  0.2146436E+02  0.7546771E-02  0.1512737E+00
         21   -1    0    0  504  501  0.00000000000E+00  0.00000000000E+00  0.48039049953E+03  0.48039049953E+03  0.00000000000E+00 0.  1.
         21   -1    0    0  503  502 -0.00000000000E+00 -0.00000000000E+00 -0.80915080246E+02  0.80915080246E+02  0.00000000000E+00 0.  1.
         21    1    1    2  503  501  0.19548814203E+02  0.88635551223E+01 -0.79246896040E+02  0.82102309822E+02  0.00000000000E+00 0.  1.
         21    1    1    2  504  502 -0.19548814203E+02 -0.88635551223E+01  0.47872231532E+03  0.47920326995E+03  0.00000000000E+00 0.  1.
</event>
<event>
 4    1  0.1679763E+006  0.2987566E+02  0.7546771E-02  0.1420680E+00
         21   -1    0    0  502  501  0.00000000000E+00  0.00000000000E+00  0.34195943108E+02  0.34195943108E+02  0.00000000000E+00 0.  1.
         21   -1    0    0  503  502 -0.00000000000E+00 -0.00000000000E+00 -0.50935817354E+02  0.50935817354E+02  0.00000000000E+00 0.  1.
         21    1    1    2  503  504 -0.20617317908E+02 -0.21621318670E+02 -0.38091982840E+02  0.48410271383E+02  0.00000000000E+00 0.  1.
         21    1    1    2  504  501  0.20617317908E+02  0.21621318670E+02  0.21352108593E+02  0.36721489078E+02  0.00000000000E+00 0.  1.
</event>
<event>
 4    1  0.1679763E+006  0.2959564E+02  0.7546771E-02  0.1423143E+00
         21   -1    0    0  504  501  0.00000000000E+00  0.00000000000E+00  0.27395395165E+02  0.27395395165E+02  0.00000000000E+00 0. -1.
         21   -1    0    0  501  502 -0.00000000000E+00 -0.00000000000E+00 -0.89079928230E+02  0.89079928230E+02  0.00000000000E+00 0. -1.
         21    1    1    2  503  502 -0.29305802830E+02 -0.41318278757E+01 -0.77471675575E+02  0.82932277175E+02  0.00000000000E+00 0. -1.
         21    1    1    2  504  503  0.29305802830E+02  0.41318278757E+01  0.15787142510E+02  0.33543046220E+02  0.00000000000E+00 0. -1.
</event>
<event>
 4    1  0.1679763E+006  0.2409157E+02  0.7546771E-02  0.1479228E+00
         21   -1    0    0  502  501  0.00000000000E+00  0.00000000000E+00  0.83323222366E+02  0.83323222366E+02  0.00000000000E+00 0.  1.
         21   -1    0    0  504  502 -0.00000000000E+00 -0.00000000000E+00 -0.26402508456E+03  0.26402508456E+03  0.00000000000E+00 0.  1.
         21    1    1    2  503  501  0.20467937767E+02 -0.12706975678E+02  0.81016914125E+02  0.84523038762E+02  0.00000000000E+00 0.  1.
         21    1    1    2  504  503 -0.20467937767E+02  0.12706975678E+02 -0.26171877632E+03  0.26282526816E+03  0.00000000000E+00 0.  1.
</event>
<event>
 4    1  0.1679763E+006  0.2734451E+02  0.7546771E-02  0.1444178E+00
         21   -1    0    0  504  501  0.00000000000E+00  0.00000000000E+00  0.18585789569E+02  0.18585789569E+02  0.00000000000E+00 0. -1.
         21   -1    0    0  501  502 -0.00000000000E+00 -0.00000000000E+00 -0.11627919432E+03  0.11627919432E+03  0.00000000000E+00 0. -1.
         21    1    1    2  503  502 -0.16506181619E+02  0.21800652771E+02 -0.10338015886E+03  0.10693539984E+03  0.00000000000E+00 0. -1.
         21    1    1    2  504  503  0.16506181619E+02 -0.21800652771E+02  0.56867541086E+01  0.27929584050E+02  0.00000000000E+00 0. -1.
</event>
<event>
 4    1  0.1679763E+006  0.2035388E+02  0.7546771E-02  0.1528693E+00
         21   -1    0    0  503  501  0.00000000000E+00  0.00000000000E+00  0.58303653464E+01  0.58303653464E+01  0.00000000000E+00 0.  1.
         21   -1    0    0  504  502 -0.00000000000E+00 -0.00000000000E+00 -0.10005662776E+03  0.10005662776E+03  0.00000000000E+00 0.  1.
         21    1    1    2  503  502  0.60397026742E+01 -0.19437141972E+02 -0.18609782575E+02  0.27579059156E+02  0.00000000000E+00 0.  1.
         21    1    1    2  504  501 -0.60397026742E+01  0.19437141972E+02 -0.75616479838E+02  0.78307933950E+02  0.00000000000E+00 0.  1.
</event>
<event>
 4    1  0.1679763E+006  0.2489072E+02  0.7546771E-02  0.1470030E+00
         21   -1    0    0  503  501  0.00000000000E+00  0.00000000000E+00  0.42235366563E+03  0.42235366563E+03  0.00000000000E+00 0.  1.
         21   -1    0    0  504  502 -0.00000000000E+00 -0.00000000000E+00 -0.18923324561E+01  0.18923324561E+01  0.00000000000E+00 0.  1.
         21    1    1    2  503  502  0.16511480664E+02  0.18625758198E+02  0.31080974414E+03  0.31180481862E+03  0.00000000000E+00 0.  1.
         21    1    1    2  504  501 -0.16511480664E+02 -0.18625758198E+02  0.10965158904E+03  0.11244117947E+03  0.00000000000E+00 0.  1.
</event>
<event>
 4    1  0.1679763E+006  0.8207558E+02  0.7546771E-02  0.1199109E+00
         21   -1    0    0  504  501  0.00000000000E+00  0.00000000000E+00  0.14008883201E+03  0.14008883201E+03  0.00000000000E+00 0. -1.
         21   -1    0    0  503  502 -0.00000000000E+00 -0.00000000000E+00 -0.51637980571E+02  0.51637980571E+02  0.00000000000E+00 0. -1.
         21    1    1    2  503  501 -0.20405990716E+02  0.79498409845E+02  0.19085486579E+02  0.84265398729E+02  0.00000000000E+00 0. -1.
         21    1    1    2  504  502  0.20405990716E+02 -0.79498409845E+02  0.69365364862E+02  0.10746141385E+03  0.00000000000E+00 0. -1.
</event>
<event>
 4    1  0.1679763E+006  0.2821383E+02  0.7546771E-02  0.1435782E+00
         21   -1    0    0  503  501  0.00000000000E+00  0.00000000000E+00  0.49205143628E+02  0.49205143628E+02  0.00000000000E+00 0. -1.
         21   -1    0    0  501  502 -0.00000000000E+00 -0.00000000000E+00 -0.46362028305E+02  0.46362028305E+02  0.00000000000E+00 0. -1.
         21    1    1    2  503  504 -0.22294362913E+02  0.17291076925E+02  0.39977309261E+02  0.48930616333E+02  0.00000000000E+00 0. -1.
         21    1    1    2  504  502  0.22294362913E+02 -0.17291076925E+02 -0.37134193938E+02  0.46636555601E+02  0.00000000000E+00 0. -1.
</event>
<event>
 4    1  0.1679763E+006  0.4194375E+02  0.7546771E-02  0.1337457E+00
         21   -1    0    0  502  501  0.00000000000E+00  0.00000000000E+00  0.12730555347E+02  0.12730555347E+02  0.00000000000E+00 0.  1.
         21   -1    0    0  503  502 -0.00000000000E+00 -0.00000000000E+00 -0.43711585136E+03  0.43711585136E+03  0.00000000000E+00 0.  1.
         21    1    1    2  503  504  0.20124720463E+02  0.36800453752E+02 -0.39819365881E+03  0.40039663796E+03  0.00000000000E+00 0.  1.
         21    1    1    2  504  501 -0.20124720463E+02 -0.36800453752E+02 -0.26191637203E+02  0.49449768751E+02  0.00000000000E+00 0.  1.
</event>
<event>
 4    1  0.1679763E+006  0.2045591E+02  0.7546771E-02  0.1527177E+00
         21   -1    0    0  503  501  0.00000000000E+00  0.00000000000E+00  0.46086511525E+03  0.46086511525E+03  0.00000000000E+00 0.  1.
         21   -1    0    0  504  502 -0.00000000000E+00 -0.00000000000E+00 -0.17766006209E+02  0.17766006209E+02  0.00000000000E+00 0.  1.
         21    1    1    2  503  502  0.14466615938E+01  0.20404688065E+02 -0.11570553792E+02  0.23501528458E+02  0.00000000000E+00 0.  1.
         21    1    1    2  504  501 -0.14466615938E+01 -0.20404688065E+02  0.45466966283E+03  0.45512959300E+03  0.00000000000E+00 0.  1.
</event>
<event>
 4    1  0.1679763E+006  0.3381291E+02  0.7546771E-02  0.1389106E+00
         21   -1    0    0  504  501  0.00000000000E+00  0.00000000000E+00  0.65075235385E+02  0.65075235385E+02  0.00000000000E+00 0. -1.
         21   -1    0    0  503  502 -0.00000000000E+00 -0.00000000000E+00 -0.47270173908E+02  0.47270173908E+02  0.00000000000E+00 0. -1.
         21    1    1    2  503  501 -0.17664272026E+02 -0.28832036933E+02  0.53428959378E+02  0.63229475406E+02  0.00000000000E+00 0. -1.
         21    1    1    2  504  502  0.17664272026E+02  0.28832036933E+02 -0.35623897901E+02  0.49115933887E+02  0.00000000000E+00 0. -1.
</event>
<event>
 4    1  0.1679763E+006  0.2649383E+02  0.7546771E-02  0.1452760E+00
         21   -1    0    0  503  501  0.00000000000E+00  0.00000000000E+00  0.84341781516E+03  0.84341781516E+03  0.00000000000E+00 0.  1.
         21   -1    0    0  504  502 -0.00000000000E+00 -0.00000000000E+00 -0.24876511772E+01  0.24876511772E+01  0.00000000000E+00 0.  1.
         21    1    1    2  503  502 -0.21707609737E+02  0.15188905004E+02  0.76549001875E+03  0.76594836116E+03  0.00000000000E+00 0.  1.
         21    1    1    2  504  501  0.21707609737E+02 -0.15188905004E+02  0.75440145229E+02  0.79957105175E+02  0.00000000000E+00 0.  1.
</event>
<event>
 4    1  0.1679763E+006  0.2149554E+02  0.7546771E-02  0.1512306E+00
         21   -1    0    0  503  501  0.00000000000E+00  0.00000000000E+00  0.57821314611E+02  0.57821314611E+02  0.00000000000E+00 0. -1.
         21   -1    0    0  504  502 -0.00000000000E+00 -0.00000000000E+00 -0.45018174383E+02  0.45018174383E+02  0.00000000000E+00 0.  1.
         21    1    1    2  503  502  0.16697829161E+02 -0.13536640390E+02 -0.40231654620E+02  0.45614078586E+02  0.00000000000E+00 0.  1.
         21    1    1    2  504  501 -0.16697829161E+02  0.13536640390E+02  0.53034794848E+02  0.57225410408E+02  0.00000000000E+00 0. -1.
</event>
<event>
 4    1  0.1679763E+006  0.2184983E+02  0.7546771E-02  0.1507469E+00
         21   -1    0    0  504  501  0.00000000000E+00  0.00000000000E+00  0.69455522243E+02  0.69455522243E+02  0.00000000000E+00 0.  1.
         21   -1    0    0  503  502 -0.00000000000E+00 -0.00000000000E+00 -0.70366060777E+01  0.70366060777E+01  0.00000000000E+00 0.  1.
         21    1    1    2  503  501  0.18992539091E+02 -0.10802705575E+02  0.25389748680E+02  0.33497079379E+02  0.00000000000E+00 0.  1.
         21    1    1    2  504  502 -0.18992539091E+02  0.10802705575E+02  0.37029167485E+02  0.42995048942E+02  0.00000000000E+00 0.  1.
</event>
<event>
 4    1  0.1679763E+006  0.2294673E+02  0.7546771E-02  0.1493168E+00
         21   -1    0    0  504  501  0.00000000000E+00  0.00000000000E+00  0.35678929497E+02  0.35678929497E+02  0.00000000000E+00 0.  1.
         21   -1    0    0  503  502 -0.00000000000E+00 -0.00000000000E+00 -0.14858575613E+02  0.14858575613E+02  0.00000000000E+00 0.  1.
         21    1    1    2  503  501 -0.41644168248E+01 -0.22565680308E+02  0.12488346183E+02  0.26124913122E+02  0.00000000000E+00 0.  1.
         21    1    1    2  504  502  0.41644168248E+01  0.22565680308E+02  0.83320077011E+01  0.24412591988E+02  0.00000000000E+00 0.  1.
</event>
<event>
 4    1  0.1679763E+006  0.2524521E+02  0.7546771E-02  0.1466079E+00
         21   -1    0    0  503  501  0.00000000000E+00  0.00000000000E+00  0.86710628940E+03  0.86710628940E+03  0.00000000000E+00 0.  1.
         21   -1    0    0  501  502 -0.00000000000E+00 -0.00000000000E+00 -0.77810692723E+00  0.77810692723E+00  0.00000000000E+00 0.  1.
         21    1    1    2  503  504  0.23818991145E+02 -0.83651739363E+01  0.53530534000E+03  0.53590029623E+03  0.00000000000E+00 0.  1.
         21    1    1    2  504  502 -0.23818991145E+02  0.83651739363E+01  0.33102284248E+03  0.33198410010E+03  0.00000000000E+00 0.  1.
</event>
<event>
 4    1  0.1679763E+006  0.2175152E+02  0.7546771E-02  0.1508800E+00
         21   -1    0    0  503  501  0.00000000000E+00  0.00000000000E+00  0.14209150317E+03  0.14209150317E+03  0.00000000000E+00 0. -1.
         21   -1    0    0  501  502 -0.00000000000E+00 -0.00000000000E+00 -0.49818574424E+01  0.49818574424E+01  0.00000000000E+00 0. -1.
         21    1    1    2  503  504 -0.12063813022E+02  0.18099526592E+02  0.11090236379E+03  0.11301532083E+03  0.00000000000E+00 0. -1.
         21    1    1    2  504  502  0.12063813022E+02 -0.18099526592E+02  0.26207281941E+02  0.34058039789E+02  0.00000000000E+00 0. -1.
</event>
<event>
 4    1  0.1679763E+006  0.3296688E+02  0.7546771E-02  0.1395449E+00
         21   -1    0    0  504  501  0.00000000000E+00  0.00000000000E+00  0.19387512030E+01  0.19387512030E+01  0.00000000000E+00 0.  1.
         21   -1    0    0  503  502 -0.00000000000E+00 -0.00000000000E+00 -0.73821647460E+03  0.73821647460E+03  0.00000000000E+00 0. -1.
         21    1    1    2  503  501  0.13131257922E+02 -0.30238805982E+02 -0.54967923193E+03  0.55066693503E+03  0.00000000000E+00 0. -1.
         21    1    1    2  504  502 -0.13131257922E+02  0.30238805982E+02 -0.18659849147E+03  0.18948829078E+03  0.00000000000E+00 0.  1.
</event>
<event>
 4    1  0.1679763E+006  0.2920474E+02  0.7546771E-02  0.1426635E+00
         21   -1    0    0  502  501  0.00000000000E+00  0.00000000000E+00  0.34270050296E+03  0.34270050296E+03  0.00000000000E+00 0.  1.
         21   -1    0    0  503  502 -0.00000000000E+00 -0.00000000000E+00 -0.43632611692E+01  0.43632611692E+01  0.00000000000E+00 0. -1.
         21    1    1    2  503  504  0.18607396525E+02  0.22509592088E+02  0.55429316423E+02  0.62652422623E+02  0.00000000000E+00 0. -1.
         21    1    1    2  504  501 -0.18607396525E+02 -0.22509592088E+02  0.28290792537E+03  0.28441134150E+03  0.00000000000E+00 0.  1.
</event>
<event>
 4    1  0.1679763E+006  0.5065824E+02  0.7546771E-02  0.1295343E+00
         21   -1    0    0  503  501  0.00000000000E+00  0.00000000000E+00  0.77637068017E+01  0.77637068017E+01  0.00000000000E+00 0.  1.
         21   -1    0    0  504  502 -0.00000000000E+00 -0.00000000000E+00 -0.15779797434E+04  0.15779797434E+04  0.00000000000E+00 0.  1.
         21    1    1    2  503  502  0.31491495632E+02  0.39680512415E+02 -0.80153543565E+02  0.94820081779E+02  0.00000000000E+00 0.  1.
         21    1    1    2  504  501 -0.31491495632E+02 -0.39680512415E+02 -0.14900624931E+04  0.14909233685E+04  0.00000000000E+00 0.  1.
</event>
<event>
 4    1  0.1679763E+006  0.2463506E+02  0.7546771E-02  0.1472928E+00
         21   -1    0    0  504  501  0.00000000000E+00  0.00000000000E+00  0.26570272164E+02  0.26570272164E+02  0.00000000000E+00 0.  1.
         21   -1    0    0  503  502 -0.00000000000E+00 -0.00000000000E+00 -0.28097774811E+03  0.28097774811E+03  0.00000000000E+00 0.  1.
         21    1    1    2  503  501 -0.23712202779E+02  0.66796546458E+01 -0.27459510931E+03  0.27569795140E+03  0.00000000000E+00 0.  1.
         21    1    1    2  504  502  0.23712202779E+02 -0.66796546458E+01  0.20187633363E+02  0.31850068879E+02  0.00000000000E+00 0.  1.
</event>
<event>
 4    1  0.1679763E+006  0.2329955E+02  0.7546771E-02  0.1488771E+00
         21   -1    0    0  502  501  0.00000000000E+00  0.00000000000E+00  0.22349339319E+03  0.22349339319E+03  0.00000000000E+00 0. -1.
         21   -1    0    0  504  502 -0.00000000000E+00 -0.00000000000E+00 -0.43013375400E+01  0.43013375400E+01  0.00000000000E+00 0.  1.
         21    1    1    2  503  501  0.22702797322E+01 -0.23188681587E+02  0.18474137290E+03  0.18620484415E+03  0.00000000000E+00 0. -1.
         21    1    1    2  504  503 -0.22702797322E+01  0.23188681587E+02  0.34450682747E+02  0.41589886578E+02  0.00000000000E+00 0.  1.
</event>
<event>
 4    1  0.1679763E+006  0.2450533E+02  0.7546771E-02  0.1474414E+00
         21   -1    0    0  503  501  0.00000000000E+00  0.00000000000E+00  0.22974905915E+02  0.22974905915E+02  0.00000000000E+00 0.  1.
         21   -1    0    0  504  502 -0.00000000000E+00 -0.00000000000E+00 -0.33747776325E+02  0.33747776325E+02  0.00000000000E+00 0.  1.
         21    1    1    2  503  502  0.13820118815E+02 -0.20236495419E+02  0.80814187992E+01  0.25803502877E+02  0.00000000000E+00 0.  1.
         21    1    1    2  504  501 -0.13820118815E+02  0.20236495419E+02 -0.18854289209E+02  0.30919179363E+02  0.00000000000E+00 0.  1.
</event>
<event>
 4    1  0.1679763E+006  0.2228623E+02  0.7546771E-02  0.1501661E+00
         21   -1    0    0  504  501  0.00000000000E+00  0.00000000000E+00  0.53939271296E+03  0.53939271296E+03  0.00000000000E+00 0. -1.
         21   -1    0    0  503  502 -0.00000000000E+00 -0.00000000000E+00 -0.16337939377E+01  0.16337939377E+01  0.00000000000E+00 0. -1.
         21    1    1    2  503  501 -0.21756814128E+02  0.48287729207E+01  0.90176798300E+02  0.92889886213E+02  0.00000000000E+00 0. -1.
         21    1    1    2  504  502  0.21756814128E+02 -0.48287729207E+01  0.44758212072E+03  0.44813662068E+03  0.00000000000E+00 0. -1.
</event>
<event>
 4    1  0.1679763E+006  0.2497348E+02  0.7546771E-02  0.1469100E+00
         21   -1    0    0  504  501  0.00000000000E+00  0.00000000000E+00  0.67076985301E+02  0.67076985301E+02  0.00000000000E+00 0. -1.
         21   -1    0    0  503  502 -0.00000000000E+00 -0.00000000000E+00 -0.15957847085E+02  0.15957847085E+02  0.00000000000E+00 0.  1.
         21    1    1    2  503  501 -0.97528842572E+01 -0.22990348643E+02  0.52380797487E+02  0.58029499631E+02  0.00000000000E+00 0. -1.
         21    1    1    2  504  502  0.97528842572E+01  0.22990348643E+02 -0.12616592708E+01  0.25005332754E+02  0.00000000000E+00 0.  1.
</event>
<event>
 4    1  0.1679763E+006  0.2386266E+02  0.7546771E-02  0.1481941E+00
         21   -1    0    0  503  501  0.00000000000E+00  0.00000000000E+00  0.24707072014E+03  0.24707072014E+03  0.00000000000E+00 0. -1.
         21   -1    0    0  501  502 -0.00000000000E+00 -0.00000000000E+00 -0.13709915404E+02  0.13709915404E+02  0.00000000000E+00 0.  1.
         21    1    1    2  503  504 -0.83943410085E+01  0.22337444928E+02  0.23560714070E+03  0.23681248100E+03  0.00000000000E+00 0. -1.
         21    1    1    2  504  502  0.83943410085E+01 -0.22337444928E+02 -0.22463359703E+01  0.23968154542E+02  0.00000000000E+00 0.  1.
</event>
<event>
 4    1  0.1679763E+006  0.2249754E+02  0.7546771E-02  0.1498906E+00
         21   -1    0    0  504  501  0.00000000000E+00  0.00000000000E+00  0.99421305194E+02  0.99421305194E+02  0.00000000000E+00 0. -1.
         21   -1    0    0  501  502 -0.00000000000E+00 -0.00000000000E+00 -0.65842072235E+02  0.65842072235E+02  0.00000000000E+00 0.  1.
         21    1    1    2  503  502 -0.30014236227E+01 -0.22296425755E+02 -0.62583308689E+02  0.66504207924E+02  0.00000000000E+00 0.  1.
         21    1    1    2  504  503  0.30014236227E+01  0.22296425755E+02  0.96162541647E+02  0.98759169505E+02  0.00000000000E+00 0. -1.
</event>
<event>
 4    1  0.1679763E+006  0.2357903E+02  0.7546771E-02  0.1485352E+00
         21   -1    0    0  503  501  0.00000000000E+00  0.00000000000E+00  0.27827461767E+02  0.27827461767E+02  0.00000000000E+00 0.  1.
         21   -1    0    0  504  502 -0.00000000000E+00 -0.00000000000E+00 -0.20768319466E+02  0.20768319466E+02  0.00000000000E+00 0.  1.
         21    1    1    2  503  502 -0.19114735805E+02 -0.13805708221E+02 -0.12066993908E+01  0.23609888348E+02  0.00000000000E+00 0.  1.
         21    1    1    2  504  501  0.19114735805E+02  0.13805708221E+02  0.82658416912E+01  0.24985892885E+02  0.00000000000E+00 0.  1.
</event>
<event>
 4    1  0.1679763E+006  0.2094878E+02  0.7546771E-02  0.1519997E+00
         21   -1    0    0  504  501  0.00000000000E+00  0.00000000000E+00  0.45891064357E+03  0.45891064357E+03  0.00000000000E+00 0.  1.
         21   -1    0    0  503  502 -0.00000000000E+00 -0.00000000000E+00 -0.30083335036E+01  0.30083335036E+01  0.00000000000E+00 0.  1.
         21    1    1    2  503  501  0.20062381987E+02 -0.60292635423E+01  0.37200424897E+02  0.42693357826E+02  0.00000000000E+00 0.  1.
         21    1    1    2  504  502 -0.20062381987E+02  0.60292635423E+01  0.41870188516E+03  0.41922561924E+03  0.00000000000E+00 0.  1.
</event>
<event>
 4    1  0.1679763E+006  0.2148242E+02  0.7546771E-02  0.1512487E+00
         21   -1    0    0  504  501  0.00000000000E+00  0.00000000000E+00  0.19121735722E+02  0.19121735722E+02  0.00000000000E+00 0. -1.
         21   -1    0    0  501  502 -0.00000000000E+00 -0.00000000000E+00 -0.12336893120E+03  0.12336893120E+03  0.00000000000E+00 0. -1.
         21    1    1    2  503  502  0.21401546257E+02 -0.18623202406E+01 -0.11602120756E+03  0.11799328380E+03  0.00000000000E+00 0. -1.
         21    1    1    2  504  503 -0.21401546257E+02  0.18623202406E+01  0.11774012086E+02  0.24497383115E+02  0.00000000000E+00 0. -1.
</event>
<event>
 4    1  0.1679763E+006  0.2983609E+02  0.7546771E-02  0.1421026E+00
         21   -1    0    0  504  501  0.00000000000E+00  0.00000000000E+00  0.34121623177E+02  0.34121623177E+02  0.00000000000E+00 0. -1.
         21   -1    0    0  503  502 -0.00000000000E+00 -0.00000000000E+00 -0.37794435555E+02  0.37794435555E+02  0.00000000000E+00 0. -1.
         21    1    1    2  503  501  0.27602436191E+02 -0.11326866956E+02 -0.21847892385E+02  0.36980032455E+02  0.00000000000E+00 0. -1.
         21    1    1    2  504  502 -0.27602436191E+02  0.11326866956E+02  0.18175080007E+02  0.34936026276E+02  0.00000000000E+00 0. -1.
</event>
<event>
 4    1  0.1679763E+006  0.2737964E+02  0.7546771E-02  0.1443831E+00
         21   -1    0    0  504  501  0.00000000000E+00  0.00000000000E+00  0.10769965398E+02  0.10769965398E+02  0.00000000000E+00 0.  1.
         21   -1    0    0  503  502 -0.00000000000E+00 -0.00000000000E+00 -0.69948898359E+02  0.69948898359E+02  0.00000000000E+00 0.  1.
         21    1    1    2  503  501  0.19792012683E+02 -0.18918801012E+02 -0.32418838970E+02  0.42433782744E+02  0.00000000000E+00 0.  1.
         21    1    1    2  504  502 -0.19792012683E+02  0.18918801012E+02 -0.26760093991E+02  0.38285081013E+02  0.00000000000E+00 0.  1.
</event>
<event>
 4    1  0.1679763E+006  0.3327900E+02  0.7546771E-02  0.1393083E+00
         21   -1    0    0  503  501  0.00000000000E+00  0.00000000000E+00  0.92499548387E+02  0.92499548387E+02  0.00000000000E+00 0. -1.
         21   -1    0    0  501  502 -0.00000000000E+00 -0.00000000000E+00 -0.16710266190E+02  0.16710266190E+02  0.00000000000E+00 0. -1.
         21    1    1    2  503  504 -0.61067880070E+01  0.32713900108E+02  0.66968745700E+02  0.74781715818E+02  0.00000000000E+00 0. -1.
         21    1    1    2  504  502  0.61067880070E+01 -0.32713900108E+02  0.88205364968E+01  0.34428098759E+02  0.00000000000E+00 0. -1.
</event>
<event>
 4    1  0.1679763E+006  0.2050717E+02  0.7546771E-02  0.1526419E+00
         21   -1    0    0  503  501  0.00000000000E+00  0.00000000000E+00  0.54191226641E+01  0.54191226641E+01  0.00000000000E+00 0.  1.
         21   -1    0    0  504  502 -0.00000000000E+00 -0.00000000000E+00 -0.19142127934E+03  0.19142127934E+03  0.00000000000E+00 0.  1.
         21    1    1    2  503  502  0.20351638147E+02 -0.25208598494E+01 -0.17109456514E+02  0.26707253918E+02  0.00000000000E+00 0.  1.
         21    1    1    2  504  501 -0.20351638147E+02  0.25208598494E+01 -0.16889270017E+03  0.17013314809E+03  0.00000000000E+00 0.  1.
</event>
<event>
 4    1  0.1679763E+006  0.3116949E+02  0.7546771E-02  0.1409699E+00
         21   -1    0    0  502  501  0.00000000000E+00  0.00000000000E+00  0.65723990008E+02  0.65723990008E+02  0.00000000000E+00 0.  1.
         21   -1    0    0  503  502 -0.00000000000E+00 -0.00000000000E+00 -0.72884512942E+02  0.72884512942E+02  0.00000000000E+00 0.  1.
         21    1    1    2  503  504  0.22665294117E+02  0.21396764425E+02 -0.65458710450E+02  0.72500895574E+02  0.00000000000E+00 0.  1.
         21    1    1    2  504  501 -0.22665294117E+02 -0.21396764425E+02  0.58298187515E+02  0.66107607375E+02  0.00000000000E+00 0.  1.
</event>
<event>
 4    1  0.1679763E+006  0.2470200E+02  0.7546771E-02  0.1472165E+00
         21   -1    0    0  503  501  0.00000000000E+00  0.00000000000E+00  0.63762239701E+02  0.63762239701E+02  0.00000000000E+00 0.  1.
         21   -1    0    0  504  502 -0.00000000000E+00 -0.00000000000E+00 -0.38357612546E+02  0.38357612546E+02  0.00000000000E+00 0.  1.
         21    1    1    2  503  502  0.15616568417E+02  0.19139268613E+02  0.56936606980E+02  0.62064208901E+02  0.00000000000E+00 0.  1.
         21    1    1    2  504  501 -0.15616568417E+02 -0.19139268613E+02 -0.31531979824E+02  0.40055643345E+02  0.00000000000E+00 0.  1.
</event>
<event>
 4    1  0.1679763E+006  0.2401156E+02  0.7546771E-02  0.1480172E+00
         21   -1    0    0  503  501  0.00000000000E+00  0.00000000000E+00  0.61630035702E+02  0.61630035702E+02  0.00000000000E+00 0.  1.
         21   -1    0    0  504  502 -0.00000000000E+00 -0.00000000000E+00 -0.46116161133E+03  0.46116161133E+03  0.00000000000E+00 0. -1.
         21    1    1    2  503  502 -0.75784487271E+01  0.22784254701E+02 -0.45849669609E+03  0.45912501072E+03  0.00000000000E+00 0. -1.
         21    1    1    2  504  501  0.75784487271E+01 -0.22784254701E+02  0.58965120463E+02  0.63666636307E+02  0.00000000000E+00 0.  1.
</event>
<event>
 4    1  0.1679763E+006  0.2225213E+02  0.7546771E-02  0.1502109E+00
         21   -1    0    0  504  501  0.00000000000E+00  0.00000000000E+00  0.36425892219E+02  0.36425892219E+02  0.00000000000E+00 0. -1.
         21   -1    0    0  501  502 -0.00000000000E+00 -0.00000000000E+00 -0.42832339031E+03  0.42832339031E+03  0.00000000000E+00 0.  1.
         21    1    1    2  503  502 -0.16885052050E+02 -0.14493179338E+02 -0.42460626346E+03  0.42518894176E+03  0.00000000000E+00 0.  1.
         21    1    1    2  504  503  0.16885052050E+02  0.14493179338E+02  0.32708765364E+02  0.39560340768E+02  0.00000000000E+00 0. -1.
</event>
<event>
 4    1  0.1679763E+006  0.2096171E+02  0.7546771E-02  0.1519812E+00
         21   -1    0    0  503  501  0.00000000000E+00  0.00000000000E+00  0.31680338236E+02  0.31680338236E+02  0.00000000000E+00 0. -1.
         21   -1    0    0  504  502 -0.00000000000E+00 -0.00000000000E+00 -0.25645172313E+02  0.25645172313E+02  0.00000000000E+00 0.  1.
         21    1    1    2  503  502  0.15340247734E+01  0.20905502460E+02 -0.16404971276E+02  0.26617970390E+02  0.00000000000E+00 0.  1.
         21    1    1    2  504  501 -0.15340247734E+01 -0.20905502460E+02  0.22440137198E+02  0.30707540159E+02  0.00000000000E+00 0. -1.
</event>
<event>
 4    1  0.1679763E+006  0.2062782E+02  0.7546771E-02  0.1524646E+00
         21   -1    0    0  504  501  0.00000000000E+00  0.00000000000E+00  0.25419122057E+02  0.25419122057E+02  0.00000000000E+00 0. -1.
         21   -1    0    0  503  502 -0.00000000000E+00 -0.00000000000E+00 -0.20243131467E+02  0.20243131467E+02  0.00000000000E+00 0. -1.
         21    1    1    2  503  501  0.78332158692E+01  0.19082653699E+02  0.12086145915E+02  0.23907778360E+02  0.00000000000E+00 0. -1.
         21    1    1    2  504  502 -0.78332158692E+01 -0.19082653699E+02 -0.69101553244E+01  0.21754475164E+02  0.00000000000E+00 0. -1.
</event>
<event>
 4    1  0.1679763E+006  0.2986817E+02  0.7546771E-02  0.1420746E+00
         21   -1    0    0  503  501  0.00000000000E+00  0.00000000000E+00  0.11648744887E+03  0.11648744887E+03  0.00000000000E+00 0. -1.
         21   -1    0    0  504  502 -0.00000000000E+00 -0.00000000000E+00 -0.99877019782E+01  0.99877019782E+01  0.00000000000E+00 0. -1.
         21    1    1    2  503  502 -0.28413702935E+02 -0.92070019920E+01  0.22710833272E+02  0.37521851608E+02  0.00000000000E+00 0. -1.
         21    1    1    2  504  501  0.28413702935E+02  0.92070019920E+01  0.83788913623E+02  0.88953299243E+02  0.00000000000E+00 0. -1.
</event>
<event>
 4    1  0.1679763E+006  0.5779912E+02  0.7546771E-02  0.1267499E+00
         21   -1    0    0  503  501  0.00000000000E+00  0.00000000000E+00  0.51772221944E+02  0.51772221944E+02  0.00000000000E+00 0. -1.
         21   -1    0    0  501  502 -0.00000000000E+00 -0.00000000000E+00 -0.68411505785E+02  0.68411505785E+02  0.00000000000E+00 0. -1.
         21    1    1    2  503  504  0.13157071535E+02 -0.56281701748E+02  0.59984151306E+01  0.58109547125E+02  0.00000000000E+00 0. -1.
         21    1    1    2  504  502 -0.13157071535E+02  0.56281701748E+02 -0.22637698972E+02  0.62074180604E+02  0.00000000000E+00 0. -1.
</event>
<event>
 4    1  0.1679763E+006  0.2496203E+02  0.7546771E-02  0.1469229E+00
         21   -1    0    0  502  501  0.00000000000E+00  0.00000000000E+00  0.21793777194E+01  0.21793777194E+01  0.00000000000E+00 0. -1.
         21   -1    0    0  504  502 -0.00000000000E+00 -0.00000000000E+00 -0.29376849443E+03  0.29376849443E+03  0.00000000000E+00 0. -1.
         21    1    1    2  503  501 -0.23813790689E+02 -0.74837439874E+01 -0.12159049924E+03  0.12412635722E+03  0.00000000000E+00 0. -1.
         21    1    1    2  504  503  0.23813790689E+02  0.74837439874E+01 -0.16999861747E+03  0.17182151493E+03  0.00000000000E+00 0. -1.
</event>
<event>
 4    1  0.1679763E+006  0.2063867E+02  0.7546771E-02  0.1524487E+00
         21   -1    0    0  504  501  0.00000000000E+00  0.00000000000E+00  0.17830732837E+03  0.17830732837E+03  0.00000000000E+00 0. -1.
         21   -1    0    0  503  502 -0.00000000000E+00 -0.00000000000E+00 -0.30128868209E+01  0.30128868209E+01  0.00000000000E+00 0.  1.
         21    1    1    2  503  501 -0.16564557673E+02 -0.12311375415E+02  0.12890634702E+03  0.13054807864E+03  0.00000000000E+00 0. -1.
         21    1    1    2  504  502  0.16564557673E+02  0.12311375415E+02  0.46388094529E+02  0.50772136547E+02  0.00000000000E+00 0.  1.
</event>
<event>
 4    1  0.1679763E+006  0.2275720E+02  0.7546771E-02  0.1495570E+00
         21   -1    0    0  502  501  0.00000000000E+00  0.00000000000E+00  0.41943222939E+02  0.41943222939E+02  0.00000000000E+00 0.  1.
         21   -1    0    0  503  502 -0.00000000000E+00 -0.00000000000E+00 -0.22780352009E+02  0.22780352009E+02  0.00000000000E+00 0.  1.
         21    1    1    2  503  504 -0.43664628343E+01 -0.22334370515E+02 -0.12319149538E+02  0.25877626424E+02  0.00000000000E+00 0.  1.
         21    1    1    2  504  501  0.43664628343E+01  0.22334370515E+02  0.31482020468E+02  0.38845948524E+02  0.00000000000E+00 0.  1.
</event>
<event>
 4    1  0.1679763E+006  0.3814575E+02  0.7546771E-02  0.1359708E+00
         21   -1    0    0  503  501  0.00000000000E+00  0.00000000000E+00  0.23550009604E+03  0.23550009604E+03  0.00000000000E+00 0. -1.
         21   -1    0    0  504  502 -0.00000000000E+00 -0.00000000000E+00 -0.62467866335E+01  0.62467866335E+01  0.00000000000E+00 0. -1.
         21    1    1    2  503  502  0.37456629435E+02 -0.72179870494E+01  0.12724039956E+03  0.13283530294E+03  0.00000000000E+00 0. -1.
         21    1    1    2  504  501 -0.37456629435E+02  0.72179870494E+01  0.10201290984E+03  0.10891157973E+03  0.00000000000E+00 0. -1.
</event>
<event>
 4    1  0.1679763E+006  0.2056240E+02  0.7546771E-02  0.1525605E+00
         21   -1    0    0  504  501  0.00000000000E+00  0.00000000000E+00  0.32957559158E+01  0.32957559158E+01  0.00000000000E+00 0. -1.
         21   -1    0    0  503  502 -0.00000000000E+00 -0.00000000000E+00 -0.14236030763E+03  0.14236030763E+03  0.00000000000E+00 0. -1.
         21    1    1    2  503  501  0.65047252537E+01 -0.19506428719E+02 -0.46636393610E+02  0.50968278575E+02  0.00000000000E+00 0. -1.
         21    1    1    2  504  502 -0.65047252537E+01  0.19506428719E+02 -0.92428158103E+02  0.94687784969E+02  0.00000000000E+00 0. -1.
</event>
<event>
 4    1  0.1679763E+006  0.2482629E+02  0.7546771E-02  0.1470756E+00
         21   -1    0    0  502  501  0.00000000000E+00  0.00000000000E+00  0.18332086498E+03  0.18332086498E+03  0.00000000000E+00 0.  1.
         21   -1    0    0  503  502 -0.00000000000E+00 -0.00000000000E+00 -0.10629901355E+02  0.10629901355E+02  0.00000000000E+00 0.  1.
         21    1    1    2  503  504 -0.33844935424E+01  0.24594506566E+02  0.61595515670E+01  0.25578987964E+02  0.00000000000E+00 0.  1.
         21    1    1    2  504  501  0.33844935424E+01 -0.24594506566E+02  0.16653141206E+03  0.16837177837E+03  0.00000000000E+00 0.  1.
</event>
<event>
 4    1  0.1679763E+006  0.3017468E+02  0.7546771E-02  0.1418084E+00
         21   -1    0    0  503  501  0.00000000000E+00  0.00000000000E+00  0.25406782765E+01  0.25406782765E+01  0.00000000000E+00 0. -1.
         21   -1    0    0  504  502 -0.00000000000E+00 -0.00000000000E+00 -0.36126228507E+03  0.36126228507E+03  0.00000000000E+00 0. -1.
         21    1    1    2  503  502  0.28803378593E+02 -0.89931543486E+01 -0.19562722746E+03  0.19794070720E+03  0.00000000000E+00 0. -1.
         21    1    1    2  504  501 -0.28803378593E+02  0.89931543486E+01 -0.16309437934E+03  0.16586225615E+03  0.00000000000E+00 0. -1.
</event>
<event>
 4    1  0.1679763E+006  0.2304650E+02  0.7546771E-02  0.1491915E+00
         21   -1    0    0  504  501  0.00000000000E+00  0.00000000000E+00  0.11012846842E+04  0.11012846842E+04  0.00000000000E+00 0.  1.
         21   -1    0    0  503  502 -0.00000000000E+00 -0.00000000000E+00 -0.16140199810E+01  0.16140199810E+01  0.00000000000E+00 0.  1.
         21    1    1    2  503  501  0.81751461864E+01  0.21547814599E+02  0.10116015004E+04  0.10118639913E+04  0.00000000000E+00 0.  1.
         21    1    1    2  504  502 -0.81751461864E+01 -0.21547814599E+02  0.88069163853E+02  0.91034712890E+02  0.00000000000E+00 0.  1.
</event>
<event>
 4    1  0.1679763E+006  0.2324275E+02  0.7546771E-02  0.1489472E+00
         21   -1    0    0  503  501  0.00000000000E+00  0.00000000000E+00  0.24751461702E+02  0.24751461702E+02  0.00000000000E+00 0. -1.
         21   -1    0    0  501  502 -0.00000000000E+00 -0.00000000000E+00 -0.14766237226E+03  0.14766237226E+03  0.00000000000E+00 0. -1.
         21    1    1    2  503  504  0.23146110953E+02 -0.21172545531E+01  0.18125711202E+02  0.29474847339E+02  0.00000000000E+00 0. -1.
         21    1    1    2  504  502 -0.23146110953E+02  0.21172545531E+01 -0.14103662176E+03  0.14293898662E+03  0.00000000000E+00 0. -1.
</event>
<event>
 4    1  0.1679763E+006  0.3354111E+02  0.7546771E-02  0.1391120E+00
         21   -1    0    0  503  501  0.00000000000E+00  0.00000000000E+00  0.10129953091E+02  0.10129953091E+02  0.00000000000E+00 0.  1.
         21   -1    0    0  504  502 -0.00000000000E+00 -0.00000000000E+00 -0.11510899362E+03  0.11510899362E+03  0.00000000000E+00 0.  1.
         21    1    1    2  503  502  0.68955490925E+01 -0.32824651177E+02 -0.40741427892E+02  0.52771870053E+02  0.00000000000E+00 0.  1.
         21    1    1    2  504  501 -0.68955490925E+01  0.32824651177E+02 -0.64237612635E+02  0.72467076657E+02  0.00000000000E+00 0.  1.
</event>
<event>
 4    1  0.1679763E+006  0.2456666E+02  0.7546771E-02  0.1473710E+00
         21   -1    0    0  503  501  0.00000000000E+00  0.00000000000E+00  0.37071241045E+02  0.37071241045E+02  0.00000000000E+00 0.  1.
         21   -1    0    0  501  502 -0.00000000000E+00 -0.00000000000E+00 -0.17171055049E+02  0.17171055049E+02  0.00000000000E+00 0.  1.
         21    1    1    2  503  504 -0.74622080308E+01 -0.23405902531E+02  0.16128196164E+02  0.29387744614E+02  0.00000000000E+00 0.  1.
         21    1    1    2  504  502  0.74622080308E+01  0.23405902531E+02  0.37719898312E+01  0.24854551480E+02  0.00000000000E+00 0.  1.
</event>
<event>
 4    1  0.1679763E+006  0.2311292E+02  0.7546771E-02  0.1491085E+00
         21   -1    0    0  503  501  0.00000000000E+00  0.00000000000E+00  0.91645063354E+02  0.91645063354E+02  0.00000000000E+00 0.  1.
         21   -1    0    0  501  502 -0.00000000000E+00 -0.00000000000E+00 -0.11113218981E+02  0.11113218981E+02  0.00000000000E+00 0.  1.
         21    1    1    2  503  504 -0.22477674193E+02  0.53815504249E+01  0.75694505694E+02  0.79144583607E+02  0.00000000000E+00 0.  1.
         21    1    1    2  504  502  0.22477674193E+02 -0.53815504249E+01  0.48373386790E+01  0.23613698728E+02  0.00000000000E+00 0.  1.
</event>
<event>
 4    1  0.1679763E+006  0.2038542E+02  0.7546771E-02  0.1528223E+00
         21   -1    0    0  504  501  0.00000000000E+00  0.00000000000E+00  0.79357264087E+01  0.79357264087E+01  0.00000000000E+00 0.  1.
         21   -1    0    0  501  502 -0.00000000000E+00 -0.00000000000E+00 -0.52625159068E+02  0.52625159068E+02  0.00000000000E+00 0.  1.
         21    1    1    2  503  502 -0.20318224054E+02 -0.16537595037E+01 -0.20221265093E+02  0.28713493538E+02  0.00000000000E+00 0.  1.
         21    1    1    2  504  503  0.20318224054E+02  0.16537595037E+01 -0.24468167567E+02  0.31847391939E+02  0.00000000000E+00 0.  1.
</event>
<event>
 4    1  0.1679763E+006  0.2780034E+02  0.7546771E-02  0.1439730E+00
         21   -1    0    0  504  501  0.00000000000E+00  0.00000000000E+00  0.17802133797E+02  0.17802133797E+02  0.00000000000E+00 0. -1.
         21   -1    0    0  503  502 -0.00000000000E+00 -0.00000000000E+00 -0.92504193272E+02  0.92504193272E+02  0.00000000000E+00 0.  1.
         21    1    1    2  503  501 -0.14578318956E+02  0.23671327999E+02  0.28269186061E+01  0.27943704508E+02  0.00000000000E+00 0. -1.
         21    1    1    2  504  502  0.14578318956E+02 -0.23671327999E+02 -0.77528978082E+02  0.82362622561E+02  0.00000000000E+00 0.  1.
</event>
<event>
 4    1  0.1679763E+006  0.2375238E+02  0.7546771E-02  0.1483261E+00
         21   -1    0    0  502  501  0.00000000000E+00  0.00000000000E+00  0.15672363862E+03  0.15672363862E+03  0.00000000000E+00 0. -1.
         21   -1    0    0  504  502 -0.00000000000E+00 -0.00000000000E+00 -0.45346351387E+01  0.45346351387E+01  0.00000000000E+00 0. -1.
         21    1    1    2  503  501 -0.23341607634E+02  0.43982641319E+01  0.11270334018E+03  0.11517907042E+03  0.00000000000E+00 0. -1.
         21    1    1    2  504  503  0.23341607634E+02 -0.43982641319E+01  0.39485663301E+02  0.46079203342E+02  0.00000000000E+00 0. -1.
</event>
<event>
 4    1  0.1679763E+006  0.2113908E+02  0.7546771E-02  0.1517288E+00
         21   -1    0    0  504  501  0.00000000000E+00  0.00000000000E+00  0.10581806153E+02  0.10581806153E+02  0.00000000000E+00 0. -1.
         21   -1    0    0  503  502 -0.00000000000E+00 -0.00000000000E+00 -0.31008498782E+03  0.31008498782E+03  0.00000000000E+00 0. -1.
         21    1    1    2  503  501 -0.20164244245E+02  0.63453842694E+01 -0.29876803086E+03  0.29951493604E+03  0.00000000000E+00 0. -1.
         21    1    1    2  504  502  0.20164244245E+02 -0.63453842694E+01 -0.73515081244E+00  0.21151857937E+02  0.00000000000E+00 0. -1.
</event>
<event>
 4    1  0.1679763E+006  0.2175799E+02  0.7546771E-02  0.1508712E+00
         21   -1    0    0  502  501  0.00000000000E+00  0.00000000000E+00  0.12921821283E+02  0.12921821283E+02  0.00000000000E+00 0.  1.
         21   -1    0    0  503  502 -0.00000000000E+00 -0.00000000000E+00 -0.29982162810E+03  0.29982162810E+03  0.00000000000E+00 0.  1.
         21    1    1    2  503  504 -0.21750739833E+02 -0.56145533128E+00 -0.28995658933E+03  0.29077178958E+03  0.00000000000E+00 0.  1.
         21    1    1    2  504  501  0.21750739833E+02  0.56145533128E+00  0.30567825152E+01  0.21971659808E+02  0.00000000000E+00 0.  1.
</event>
<event>
 4    1  0.1679763E+006  0.2400559E+02  0.7546771E-02  0.1480243E+00
         21   -1    0    0  503  501  0.00000000000E+00  0.00000000000E+00  0.25047798955E+03  0.25047798955E+03  0.00000000000E+00 0.  1.
         21   -1    0    0  504  502 -0.00000000000E+00 -0.00000000000E+00 -0.18722248518E+02  0.18722248518E+02  0.00000000000E+00 0. -1.
         21    1    1    2  503  502 -0.14423741872E+02 -0.19189170292E+02 -0.10181118067E+02  0.26075347576E+02  0.00000000000E+00 0. -1.
         21    1    1    2  504  501  0.14423741872E+02  0.19189170292E+02  0.24193685909E+03  0.24312489049E+03  0.00000000000E+00 0.  1.
</event>
<event>
 4    1  0.1679763E+006  0.3088971E+02  0.7546771E-02  0.1412019E+00
         21   -1    0    0  504  501  0.00000000000E+00  0.00000000000E+00  0.58695175682E+02  0.58695175682E+02  0.00000000000E+00 0. -1.
         21   -1    0    0  503  502 -0.00000000000E+00 -0.00000000000E+00 -0.51559848873E+02  0.51559848873E+02  0.00000000000E+00 0.  1.
         21    1    1    2  503  501  0.30689730569E+02 -0.35092421480E+01 -0.42048727878E+02  0.52175375983E+02  0.00000000000E+00 0.  1.
         21    1    1    2  504  502 -0.30689730569E+02  0.35092421480E+01  0.49184054686E+02  0.58079648572E+02  0.00000000000E+00 0. -1.
</event>
<event>
 4    1  0.1679763E+006  0.2228187E+02  0.7546771E-02  0.1501718E+00
         21   -1    0    0  503  501  0.00000000000E+00  0.00000000000E+00  0.25640154758E+01  0.25640154758E+01  0.00000000000E+00 0.  1.
         21   -1    0    0  504  502 -0.00000000000E+00 -0.00000000000E+00 -0.15574588898E+04  0.15574588898E+04  0.00000000000E+00 0.  1.
         21    1    1    2  503  502  0.17693933678E+02 -0.13542766220E+02 -0.47533068858E+02  0.52496423126E+02  0.00000000000E+00 0.  1.
         21    1    1    2  504  501 -0.17693933678E+02  0.13542766220E+02 -0.15073618054E+04  0.15075264821E+04  0.00000000000E+00 0.  1.
</event>
<event>
 4    1  0.1679763E+006  0.2876154E+02  0.7546771E-02  0.1430673E+00
         21   -1    0    0  502  501  0.00000000000E+00  0.00000000000E+00  0.28603406877E+03  0.28603406877E+03  0.00000000000E+00 0.  1.
         21   -1    0    0  503  502 -0.00000000000E+00 -0.00000000000E+00 -0.68982924044E+01  0.68982924044E+01  0.00000000000E+00 0. -1.
         21    1    1    2  503  504  0.17690894916E+02  0.22677270824E+02  0.27949723905E+02  0.40105030125E+02  0.00000000000E+00 0. -1.
         21    1    1    2  504  501 -0.17690894916E+02 -0.22677270824E+02  0.25118605246E+03  0.25282733105E+03  0.00000000000E+00 0.  1.
</event>
<event>
 4    1  0.1679763E+006  0.2876454E+02  0.7546771E-02  0.1430645E+00
         21   -1    0    0  503  501  0.00000000000E+00  0.00000000000E+00  0.25982422926E+03  0.25982422926E+03  0.00000000000E+00 0. -1.
         21   -1    0    0  504  502 -0.00000000000E+00 -0.00000000000E+00 -0.16424747622E+02  0.16424747622E+02  0.00000000000E+00 0. -1.
         21    1    1    2  503  502 -0.28530024694E+02 -0.36655531427E+01  0.24571357083E+03  0.24739150648E+03  0.00000000000E+00 0. -1.
         21    1    1    2  504  501  0.28530024694E+02  0.36655531427E+01 -0.23140891966E+01  0.28857470396E+02  0.00000000000E+00 0. -1.
</event>
<event>
 4    1  0.1679763E+006  0.2146355E+02  0.7546771E-02  0.1512748E+00
         21   -1    0    0  504  501  0.00000000000E+00  0.00000000000E+00  0.53511389044E+02  0.53511389044E+02  0.00000000000E+00 0.  1.
         21   -1    0    0  503  502 -0.00000000000E+00 -0.00000000000E+00 -0.21986820898E+02  0.21986820898E+02  0.00000000000E+00 0.  1.
         21    1    1    2  503  501 -0.19204580062E+02 -0.95847788378E+01 -0.13683072247E+02  0.25454083108E+02  0.00000000000E+00 0.  1.
         21    1    1    2  504  502  0.19204580062E+02  0.95847788378E+01  0.45207640393E+02  0.50044126834E+02  0.00000000000E+00 0.  1.
</event>
<event>
 4    1  0.1679763E+006  0.2308221E+02  0.7546771E-02  0.1491468E+00
         21   -1    0    0  504  501  0.00000000000E+00  0.00000000000E+00  0.37342754075E+02  0.37342754075E+02  0.00000000000E+00 0. -1.
         21   -1    0    0  503  502 -0.00000000000E+00 -0.00000000000E+00 -0.14733996303E+02  0.14733996303E+02  0.00000000000E+00 0. -1.
         21    1    1    2  503  501  0.21177260056E+02  0.91821504076E+01  0.15937478621E+02  0.28049803108E+02  0.00000000000E+00 0. -1.
         21    1    1    2  504  502 -0.21177260056E+02 -0.91821504076E+01  0.66712791520E+01  0.24026947270E+02  0.00000000000E+00 0. -1.
</event>
<event>
 4    1  0.1679763E+006  0.2570840E+02  0.7546771E-02  0.1461032E+00
         21   -1    0    0  503  501  0.00000000000E+00  0.00000000000E+00  0.46651076321E+02  0.46651076321E+02  0.00000000000E+00 0.  1.
         21   -1    0    0  504  502 -0.00000000000E+00 -0.00000000000E+00 -0.24822434415E+03  0.24822434415E+03  0.00000000000E+00 0.  1.
         21    1    1    2  503  502  0.18126329899E+02 -0.18230694113E+02  0.42381777101E+02  0.49569517586E+02  0.00000000000E+00 0.  1.
         21    1    1    2  504  501 -0.18126329899E+02  0.18230694113E+02 -0.24395504493E+03  0.24530590288E+03  0.00000000000E+00 0.  1.
</event>
<event>
 4    1  0.1679763E+006  0.2117367E+02  0.7546771E-02  0.1516800E+00
         21   -1    0    0  504  501  0.00000000000E+00  0.00000000000E+00  0.36684990845E+02  0.36684990845E+02  0.00000000000E+00 0.  1.
         21   -1    0    0  503  502 -0.00000000000E+00 -0.00000000000E+00 -0.15056147468E+04  0.15056147468E+04  0.00000000000E+00 0. -1.
         21    1    1    2  503  501  0.70221006525E+01  0.19975348615E+02 -0.15024786972E+04  0.15026278848E+04  0.00000000000E+00 0. -1.
         21    1    1    2  504  502 -0.70221006525E+01 -0.19975348615E+02  0.33548941277E+02  0.39671852877E+02  0.00000000000E+00 0.  1.
</event>
<event>
 4    1  0.1679763E+006  0.2163131E+02  0.7546771E-02  0.1510439E+00
         21   -1    0    0  503  501  0.00000000000E+00  0.00000000000E+00  0.10609293493E+01  0.10609293493E+01  0.00000000000E+00 0. -1.
         21   -1    0    0  504  502 -0.00000000000E+00 -0.00000000000E+00 -0.44194614461E+03  0.44194614461E+03  0.00000000000E+00 0. -1.
         21    1    1    2  503  502 -0.21591654018E+02 -0.13091644178E+01 -0.23046644051E+03  0.23147935898E+03  0.00000000000E+00 0. -1.
         21    1    1    2  504  501  0.21591654018E+02  0.13091644178E+01 -0.21041877475E+03  0.21152771497E+03  0.00000000000E+00 0. -1.
</event>
<event>
 4    1  0.1679763E+006  0.4216207E+02  0.7546771E-02  0.1336262E+00
         21   -1    0    0  503  501  0.00000000000E+00  0.00000000000E+00  0.13149262259E+02  0.13149262259E+02  0.00000000000E+00 0. -1.
         21   -1    0    0  504  502 -0.00000000000E+00 -0.00000000000E+00 -0.13522784957E+03  0.13522784957E+03  0.00000000000E+00 0. -1.
         21    1    1    2  503  502  0.42027833313E+02  0.33617166879E+01 -0.62291462466E+02  0.75218788931E+02  0.00000000000E+00 0. -1.
         21    1    1    2  504  501 -0.42027833313E+02 -0.33617166879E+01 -0.59787124849E+02  0.73158322902E+02  0.00000000000E+00 0. -1.
</event>
<event>
 4    1  0.1679763E+006  0.5977587E+02  0.7546771E-02  0.1260596E+00
         21   -1    0    0  503  501  0.00000000000E+00  0.00000000000E+00  0.26350943769E+02  0.26350943769E+02  0.00000000000E+00 0.  1.
         21   -1    0    0  504  502 -0.00000000000E+00 -0.00000000000E+00 -0.13894279459E+03  0.13894279459E+03  0.00000000000E+00 0.  1.
         21    1    1    2  503  502  0.58912263478E+02  0.10124233363E+02 -0.69117600990E+02  0.91380510263E+02  0.00000000000E+00 0.  1.
         21    1    1    2  504  501 -0.58912263478E+02 -0.10124233363E+02 -0.43474249833E+02  0.73913228098E+02  0.00000000000E+00 0.  1.
</event>
<event>
 4    1  0.1679763E+006  0.2183460E+02  0.7546771E-02  0.1507675E+00
         21   -1    0    0  504  501  0.00000000000E+00  0.00000000000E+00  0.63796280725E+02  0.63796280725E+02  0.00000000000E+00 0. -1.
         21   -1    0    0  503  502 -0.00000000000E+00 -0.00000000000E+00 -0.15692003385E+02  0.15692003385E+02  0.00000000000E+00 0. -1.
         21    1    1    2  503  501  0.67086124258E+01  0.20778452143E+02  0.52815757898E+02  0.57151149039E+02  0.00000000000E+00 0. -1.
         21    1    1    2  504  502 -0.67086124258E+01 -0.20778452143E+02 -0.47114805585E+01  0.22337135071E+02  0.00000000000E+00 0. -1.
</event>
<event>
 4    1  0.1679763E+006  0.2452085E+02  0.7546771E-02  0.1474236E+00
         21   -1    0    0  503  501  0.00000000000E+00  0.00000000000E+00  0.70046420107E+02  0.70046420107E+02  0.00000000000E+00 0. -1.
         21   -1    0    0  504  502 -0.00000000000E+00 -0.00000000000E+00 -0.85913982794E+01  0.85913982794E+01  0.00000000000E+00 0. -1.
         21    1    1    2  503  502  0.51566662007E+01  0.23972503822E+02  0.29566680124E+02  0.38411726327E+02  0.00000000000E+00 0. -1.
         21    1    1    2  504  501 -0.51566662007E+01 -0.23972503822E+02  0.31888341703E+02  0.40226092060E+02  0.00000000000E+00 0. -1.
</event>
<event>
 4    1  0.1679763E+006  0.2078160E+02  0.7546771E-02  0.1522406E+00
         21   -1    0    0  504  501  0.00000000000E+00  0.00000000000E+00  0.18455900962E+03  0.18455900962E+03  0.00000000000E+00 0.  1.
         21   -1    0    0  501  502 -0.00000000000E+00 -0.00000000000E+00 -0.91966806573E+01  0.91966806573E+01  0.00000000000E+00 0.  1.
         21    1    1    2  503  502  0.24873785109E+01 -0.20632199232E+02  0.40313959563E+01  0.21169006834E+02  0.00000000000E+00 0.  1.
         21    1    1    2  504  503 -0.24873785109E+01  0.20632199232E+02  0.17133093301E+03  0.17258668344E+03  0.00000000000E+00 0.  1.
</event>
<event>
 4    1  0.1679763E+006  0.3256519E+02  0.7546771E-02  0.1398539E+00
         21   -1    0    0  504  501  0.00000000000E+00  0.00000000000E+00  0.21728402974E+03  0.21728402974E+03  0.00000000000E+00 0. -1.
         21   -1    0    0  501  502 -0.00000000000E+00 -0.00000000000E+00 -0.92735262084E+01  0.92735262084E+01  0.00000000000E+00 0. -1.
         21    1    1    2  503  502  0.26617235884E+02  0.18762048900E+02  0.26040270439E+02  0.41696371660E+02  0.00000000000E+00 0. -1.
         21    1    1    2  504  503 -0.26617235884E+02 -0.18762048900E+02  0.18197023309E+03  0.18486118429E+03  0.00000000000E+00 0. -1.
</event>
<event>
 4    1  0.1679763E+006  0.2558037E+02  0.7546771E-02  0.1462414E+00
         21   -1    0    0  503  501  0.00000000000E+00  0.00000000000E+00  0.18193972734E+02  0.18193972734E+02  0.00000000000E+00 0. -1.
         21   -1    0    0  501  502 -0.00000000000E+00 -0.00000000000E+00 -0.14332948182E+03  0.14332948182E+03  0.00000000000E+00 0. -1.
         21    1    1    2  503  504  0.10171654834E+01 -0.25560138740E+02  0.73306300927E+01  0.26610025472E+02  0.00000000000E+00 0. -1.
         21    1    1    2  504  502 -0.10171654834E+01  0.25560138740E+02 -0.13246613918E+03  0.13491342908E+03  0.00000000000E+00 0. -1.
</event>
<event>
 4    1  0.1679763E+006  0.2176840E+02  0.7546771E-02  0.1508571E+00
         21   -1    0    0  503  501  0.00000000000E+00  0.00000000000E+00  0.26809506265E+02  0.26809506265E+02  0.00000000000E+00 0.  1.
         21   -1    0    0  504  502 -0.00000000000E+00 -0.00000000000E+00 -0.43105895257E+02  0.43105895257E+02  0.00000000000E+00 0.  1.
         21    1    1    2  503  502 -0.28294814578E+01 -0.21583724065E+02 -0.34998778143E+02  0.41216229586E+02  0.00000000000E+00 0.  1.
         21    1    1    2  504  501  0.28294814578E+01  0.21583724065E+02  0.18702389151E+02  0.28699171935E+02  0.00000000000E+00 0.  1.
</event>
<event>
 4    1  0.1679763E+006  0.4563572E+02  0.7546771E-02  0.1318291E+00
         21   -1    0    0  503  501  0.00000000000E+00  0.00000000000E+00  0.41202279722E+03  0.41202279722E+03  0.00000000000E+00 0.  1.
         21   -1    0    0  504  502 -0.00000000000E+00 -0.00000000000E+00 -0.65227824981E+01  0.65227824981E+01  0.00000000000E+00 0. -1.
         21    1    1    2  503  502  0.45495174068E+02 -0.35788682216E+01  0.10346510735E+03  0.11308248140E+03  0.00000000000E+00 0. -1.
         21    1    1    2  504  501 -0.45495174068E+02  0.35788682216E+01  0.30203490738E+03  0.30546309832E+03  0.00000000000E+00 0.  1.
</event>
<event>
 4    1  0.1679763E+006  0.2234063E+02  0.7546771E-02  0.1500948E+00
         21   -1    0    0  503  501  0.00000000000E+00  0.00000000000E+00  0.72573432130E+01  0.72573432130E+01  0.00000000000E+00 0.  1.
         21   -1    0    0  501  502 -0.00000000000E+00 -0.00000000000E+00 -0.27299217304E+03  0.27299217304E+03  0.00000000000E+00 0.  1.
         21    1    1    2  503  504  0.15817422031E+02  0.15776973740E+02 -0.11671259253E+02  0.25205595265E+02  0.00000000000E+00 0.  1.
         21    1    1    2  504  502 -0.15817422031E+02 -0.15776973740E+02 -0.25406357057E+03  0.25504392099E+03  0.00000000000E+00 0.  1.
</event>
<event>
 4    1  0.1679763E+006  0.2930879E+02  0.7546771E-02  0.1425700E+00
         21   -1    0    0  504  501  0.00000000000E+00  0.00000000000E+00  0.25377942635E+02  0.25377942635E+02  0.00000000000E+00 0. -1.
         21   -1    0    0  501  502 -0.00000000000E+00 -0.00000000000E+00 -0.47811963193E+02  0.47811963193E+02  0.00000000000E+00 0.  1.
         21    1    1    2  503  502 -0.25285121440E+02 -0.14821192898E+02 -0.30993516879E+02  0.42656807354E+02  0.00000000000E+00 0.  1.
         21    1    1    2  504  503  0.25285121440E+02  0.14821192898E+02  0.85594963207E+01  0.30533098474E+02  0.00000000000E+00 0. -1.
</event>
<event>
 4    1  0.1679763E+006  0.3368235E+02  0.7546771E-02  0.1390071E+00
         21   -1    0    0  503  501  0.00000000000E+00  0.00000000000E+00  0.54604369064E+01  0.54604369064E+01  0.00000000000E+00 0.  1.
         21   -1    0    0  504  502 -0.00000000000E+00 -0.00000000000E+00 -0.57262065042E+03  0.57262065042E+03  0.00000000000E+00 0.  1.
         21    1    1    2  503  502 -0.32632521288E+02  0.83438171639E+01 -0.52860566534E+02  0.62679663567E+02  0.00000000000E+00 0.  1.
         21    1    1    2  504  501  0.32632521288E+02 -0.83438171639E+01 -0.51429964698E+03  0.51540142376E+03  0.00000000000E+00 0.  1.
</event>
<event>
 4    1  0.1679763E+006  0.2026477E+02  0.7546771E-02  0.1530026E+00
         21   -1    0    0  503  501  0.00000000000E+00  0.00000000000E+00  0.11714584188E+02  0.11714584188E+02  0.00000000000E+00 0.  1.
         21   -1    0    0  504  502 -0.00000000000E+00 -0.00000000000E+00 -0.64954204424E+02  0.64954204424E+02  0.00000000000E+00 0.  1.
         21    1    1    2  503  502 -0.17440289475E+01 -0.20189580388E+02 -0.52628054701E+02  0.56394795281E+02  0.00000000000E+00 0.  1.
         21    1    1    2  504  501  0.17440289475E+01  0.20189580388E+02 -0.61156553480E+00  0.20273993331E+02  0.00000000000E+00 0.  1.
</event>
<event>
 4    1  0.1679763E+006  0.2798592E+02  0.7546771E-02  0.1437948E+00
         21   -1    0    0  502  501  0.00000000000E+00  0.00000000000E+00  0.22402702922E+02  0.22402702922E+02  0.00000000000E+00 0.  1.
         21   -1    0    0  503  502 -0.00000000000E+00 -0.00000000000E+00 -0.16293143131E+03  0.16293143131E+03  0.00000000000E+00 0.  1.
         21    1    1    2  503  504 -0.22839559128E+02  0.16173012615E+02 -0.15238995135E+03  0.15493840412E+03  0.00000000000E+00 0.  1.
         21    1    1    2  504  501  0.22839559128E+02 -0.16173012615E+02  0.11861222972E+02  0.30395730105E+02  0.00000000000E+00 0.  1.
</event>
<event>
 4    1  0.1679763E+006  0.4491136E+02  0.7546771E-02  0.1321883E+00
         21   -1    0    0  503  501  0.00000000000E+00  0.00000000000E+00  0.14449885735E+03  0.14449885735E+03  0.00000000000E+00 0.  1.
         21   -1    0    0  504  502 -0.00000000000E+00 -0.00000000000E+00 -0.14315611772E+02  0.14315611772E+02  0.00000000000E+00 0.  1.
         21    1    1    2  503  502 -0.41467082701E+02  0.17248517322E+02  0.77628119369E+02  0.89683639613E+02  0.00000000000E+00 0.  1.
         21    1    1    2  504  501  0.41467082701E+02 -0.17248517322E+02  0.52555126207E+02  0.69130829506E+02  0.00000000000E+00 0.  1.
</event>
<event>
 4    1  0.1679763E+006  0.2421226E+02  0.7546771E-02  0.1477812E+00
         21   -1    0    0  502  501  0.00000000000E+00  0.00000000000E+00  0.99141356832E+01  0.99141356832E+01  0.00000000000E+00 0.  1.
         21   -1    0    0  503  502 -0.00000000000E+00 -0.00000000000E+00 -0.88439750434E+02  0.88439750434E+02  0.00000000000E+00 0.  1.
         21    1    1    2  503  504 -0.17989040618E+02  0.16205798924E+02 -0.67572546660E+02  0.71779402082E+02  0.00000000000E+00 0.  1.
         21    1    1    2  504  501  0.17989040618E+02 -0.16205798924E+02 -0.10953068091E+02  0.26574484035E+02  0.00000000000E+00 0.  1.
</event>
<event>
 4    1  0.1679763E+006  0.4651783E+02  0.7546771E-02  0.1314020E+00
         21   -1    0    0  504  501  0.00000000000E+00  0.00000000000E+00  0.15774394941E+03  0.15774394941E+03  0.00000000000E+00 0. -1.
         21   -1    0    0  503  502 -0.00000000000E+00 -0.00000000000E+00 -0.81386069221E+03  0.81386069221E+03  0.00000000000E+00 0. -1.
         21    1    1    2  503  501  0.52380234031E+01 -0.46221979218E+02  0.15363238247E+03  0.16052045725E+03  0.00000000000E+00 0. -1.
         21    1    1    2  504  502 -0.52380234031E+01  0.46221979218E+02 -0.80974912527E+03  0.81108418436E+03  0.00000000000E+00 0. -1.
</event>
<event>
 4    1  0.1679763E+006  0.2405440E+02  0.7546771E-02  0.1479666E+00
         21   -1    0    0  503  501  0.00000000000E+00  0.00000000000E+00  0.11481583419E+02  0.11481583419E+02  0.00000000000E+00 0.  1.
         21   -1    0    0  504  502 -0.00000000000E+00 -0.00000000000E+00 -0.81529955896E+02  0.81529955896E+02  0.00000000000E+00 0. -1.
         21    1    1    2  503  502 -0.21727578259E+02  0.10321162327E+02 -0.62851254419E+01  0.24861955888E+02  0.00000000000E+00 0.  1.
         21    1    1    2  504  501  0.21727578259E+02 -0.10321162327E+02 -0.63763247035E+02  0.68149583426E+02  0.00000000000E+00 0. -1.
</event>
<event>
 4    1  0.1679763E+006  0.2560575E+02  0.7546771E-02  0.1462140E+00
         21   -1    0    0  502  501  0.00000000000E+00  0.00000000000E+00  0.45508662456E+03  0.45508662456E+03  0.00000000000E+00 0. -1.
         21   -1    0    0  503  502 -0.00000000000E+00 -0.00000000000E+00 -0.77589508785E+02  0.77589508785E+02  0.00000000000E+00 0.  1.
         21    1    1    2  503  504 -0.14059334158E+02  0.21400689318E+02 -0.75105166796E+02  0.79350113168E+02  0.00000000000E+00 0.  1.
         21    1    1    2  504  501  0.14059334158E+02 -0.21400689318E+02  0.45260228257E+03  0.45332602018E+03  0.00000000000E+00 0. -1.
</event>
<event>
 4    1  0.1679763E+006  0.2903403E+02  0.7546771E-02  0.1428180E+00
         21   -1    0    0  503  501  0.00000000000E+00  0.00000000000E+00  0.29275404349E+02  0.29275404349E+02  0.00000000000E+00 0.  1.
         21   -1    0    0  501  502 -0.00000000000E+00 -0.00000000000E+00 -0.36702568639E+02  0.36702568639E+02  0.00000000000E+00 0.  1.
         21    1    1    2  503  504 -0.13865734285E+02 -0.25509143855E+02  0.11599120638E+02  0.31265230002E+02  0.00000000000E+00 0.  1.
         21    1    1    2  504  502  0.13865734285E+02  0.25509143855E+02 -0.19026284928E+02  0.34712742987E+02  0.00000000000E+00 0.  1.
</event>
<event>
 4    1  0.1679763E+006  0.2126983E+02  0.7546771E-02  0.1515447E+00
         21   -1    0    0  503  501  0.00000000000E+00  0.00000000000E+00  0.11911322283E+03  0.11911322283E+03  0.00000000000E+00 0.  1.
         21   -1    0    0  501  502 -0.00000000000E+00 -0.00000000000E+00 -0.12603846094E+03  0.12603846094E+03  0.00000000000E+00 0. -1.
         21    1    1    2  503  504  0.11740095041E+02  0.17736280151E+02  0.11725221120E+03  0.11916579416E+03  0.00000000000E+00 0.  1.
         21    1    1    2  504  502 -0.11740095041E+02 -0.17736280151E+02 -0.12417744931E+03  0.12598588961E+03  0.00000000000E+00 0. -1.
</event>
<event>
 4    1  0.1679763E+006  0.2134795E+02  0.7546771E-02  0.1514355E+00
         21   -1    0    0  503  501  0.00000000000E+00  0.00000000000E+00  0.16442130693E+02  0.16442130693E+02  0.00000000000E+00 0.  1.
         21   -1    0    0  504  502 -0.00000000000E+00 -0.00000000000E+00 -0.29576250808E+02  0.29576250808E+02  0.00000000000E+00 0.  1.
         21    1    1    2  503  502 -0.88290252091E+01 -0.19436643755E+02 -0.79886390325E+00  0.21362888150E+02  0.00000000000E+00 0.  1.
         21    1    1    2  504  501  0.88290252091E+01  0.19436643755E+02 -0.12335256211E+02  0.24655493351E+02  0.00000000000E+00 0.  1.
</event>
<event>
 4    1  0.1679763E+006  0.3177911E+02  0.7546771E-02  0.1404741E+00
         21   -1    0    0  502  501  0.00000000000E+00  0.00000000000E+00  0.44247824842E+02  0.44247824842E+02  0.00000000000E+00 0.  1.
         21   -1    0    0  503  502 -0.00000000000E+00 -0.00000000000E+00 -0.27006261122E+02  0.27006261122E+02  0.00000000000E+00 0. -1.
         21    1    1    2  503  504 -0.29577627808E+02 -0.11622202292E+02 -0.53994095159E+01  0.32234535455E+02  0.00000000000E+00 0. -1.
         21    1    1    2  504  501  0.29577627808E+02  0.11622202292E+02  0.22640973236E+02  0.39019550509E+02  0.00000000000E+00 0.  1.
</event>
<event>
 4    1  0.1679763E+006  0.2651470E+02  0.7546771E-02  0.1452545E+00
         21   -1    0    0  504  501  0.00000000000E+00  0.00000000000E+00  0.19067794244E+03  0.19067794244E+03  0.00000000000E+00 0. -1.
         21   -1    0    0  503  502 -0.00000000000E+00 -0.00000000000E+00 -0.37080029438E+01  0.37080029438E+01  0.00000000000E+00 0. -1.
         21    1    1    2  503  501 -0.26338836387E+02 -0.30487557386E+01  0.10080013992E+03  0.10422906227E+03  0.00000000000E+00 0. -1.
         21    1    1    2  504  502  0.26338836387E+02  0.30487557386E+01  0.86169799574E+02  0.90156883112E+02  0.00000000000E+00 0. -1.
</event>
<event>
 4    1  0.1679763E+006  0.2515717E+02  0.7546771E-02  0.1467053E+00
         21   -1    0    0  504  501  0.00000000000E+00  0.00000000000E+00  0.39610677489E+03  0.39610677489E+03  0.00000000000E+00 0. -1.
         21   -1    0    0  503  502 -0.00000000000E+00 -0.00000000000E+00 -0.23094786423E+02  0.23094786423E+02  0.00000000000E+00 0. -1.
         21    1    1    2  503  501  0.10174858313E+02 -0.23007724888E+02  0.38872646933E+03  0.38953966563E+03  0.00000000000E+00 0. -1.
         21    1    1    2  504  502 -0.10174858313E+02  0.23007724888E+02 -0.15714480864E+02  0.29661895675E+02  0.00000000000E+00 0. -1.
</event>
<event>
 4    1  0.1679763E+006  0.2460814E+02  0.7546771E-02  0.1473235E+00
         21   -1    0    0  503  501  0.00000000000E+00  0.00000000000E+00  0.47992732007E+03  0.47992732007E+03  0.00000000000E+00 0.  1.
         21   -1    0    0  504  502 -0.00000000000E+00 -0.00000000000E+00 -0.23856597663E+01  0.23856597663E+01  0.00000000000E+00 0.  1.
         21    1    1    2  503  502 -0.99936658498E+01 -0.22487487926E+02  0.40429275278E+03  0.40504097376E+03  0.00000000000E+00 0.  1.
         21    1    1    2  504  501  0.99936658498E+01  0.22487487926E+02  0.73248907524E+02  0.77272006082E+02  0.00000000000E+00 0.  1.
</event>
<event>
 4    1  0.1679763E+006  0.3049391E+02  0.7546771E-02  0.1415352E+00
         21   -1    0    0  504  501  0.00000000000E+00  0.00000000000E+00  0.12899897175E+01  0.12899897175E+01  0.00000000000E+00 0. -1.
         21   -1    0    0  503  502 -0.00000000000E+00 -0.00000000000E+00 -0.23713268953E+04  0.23713268953E+04  0.00000000000E+00 0. -1.
         21    1    1    2  503  501 -0.18794606585E+02  0.24013354809E+02 -0.21747279039E+04  0.21749416853E+04  0.00000000000E+00 0. -1.
         21    1    1    2  504  502  0.18794606585E+02 -0.24013354809E+02 -0.19530900168E+03  0.19767519971E+03  0.00000000000E+00 0. -1.
</event>
<event>
 4    1  0.1679763E+006  0.2617549E+02  0.7546771E-02  0.1456071E+00
         21   -1    0    0  503  501  0.00000000000E+00  0.00000000000E+00  0.35671723161E+03  0.35671723161E+03  0.00000000000E+00 0.  1.
         21   -1    0    0  501  502 -0.00000000000E+00 -0.00000000000E+00 -0.17057205635E+03  0.17057205635E+03  0.00000000000E+00 0. -1.
         21    1    1    2  503  504  0.25605268594E+02 -0.54338155733E+01  0.35522864427E+03  0.35619172624E+03  0.00000000000E+00 0.  1.
         21    1    1    2  504  502 -0.25605268594E+02  0.54338155733E+01 -0.16908346902E+03  0.17109756172E+03  0.00000000000E+00 0. -1.
</event>
<event>
 4    1  0.1679763E+006  0.2146408E+02  0.7546771E-02  0.1512741E+00
         21   -1    0    0  503  501  0.00000000000E+00  0.00000000000E+00  0.73126216107E+02  0.73126216107E+02  0.00000000000E+00 0.  1.
         21   -1    0    0  504  502 -0.00000000000E+00 -0.00000000000E+00 -0.14128776815E+03  0.14128776815E+03  0.00000000000E+00 0.  1.
         21    1    1    2  503  502  0.15105214392E+02  0.15249243785E+02 -0.13887027847E+03  0.14051925555E+03  0.00000000000E+00 0.  1.
         21    1    1    2  504  501 -0.15105214392E+02 -0.15249243785E+02  0.70708726427E+02  0.73894728708E+02  0.00000000000E+00 0.  1.
</event>
<event>
 4    1  0.1679763E+006  0.2185539E+02  0.7546771E-02  0.1507394E+00
         21   -1    0    0  503  501  0.00000000000E+00  0.00000000000E+00  0.55485586058E+02  0.55485586058E+02  0.00000000000E+00 0.  1.
         21   -1    0    0  501  502 -0.00000000000E+00 -0.00000000000E+00 -0.10387270185E+03  0.10387270185E+03  0.00000000000E+00 0.  1.
         21    1    1    2  503  504 -0.21824332710E+02  0.11647831396E+01  0.52112387697E+02  0.56509814806E+02  0.00000000000E+00 0.  1.
         21    1    1    2  504  502  0.21824332710E+02 -0.11647831396E+01 -0.10049950349E+03  0.10284847310E+03  0.00000000000E+00 0.  1.
</event>
<event>
 4    1  0.1679763E+006  0.2013727E+02  0.7546771E-02  0.1531948E+00
         21   -1    0    0  503  501  0.00000000000E+00  0.00000000000E+00  0.91668789590E+02  0.91668789590E+02  0.00000000000E+00 0.  1.
         21   -1    0    0  504  502 -0.00000000000E+00 -0.00000000000E+00 -0.46721750569E+01  0.46721750569E+01  0.00000000000E+00 0.  1.
         21    1    1    2  503  502  0.19260647302E+02  0.58768216553E+01  0.54608376549E+02  0.58202958315E+02  0.00000000000E+00 0.  1.
         21    1    1    2  504  501 -0.19260647302E+02 -0.58768216553E+01  0.32388237984E+02  0.38138006332E+02  0.00000000000E+00 0.  1.
</event>
<event>
 4    1  0.1679763E+006  0.2433453E+02  0.7546771E-02  0.1476387E+00
         21   -1    0    0  504  501  0.00000000000E+00  0.00000000000E+00  0.78889968224E+02  0.78889968224E+02  0.00000000000E+00 0. -1.
         21   -1    0    0  501  502 -0.00000000000E+00 -0.00000000000E+00 -0.90094533772E+02  0.90094533772E+02  0.00000000000E+00 0. -1.
         21    1    1    2  503  502  0.26372714091E+01 -0.24191198483E+02 -0.86498242441E+02  0.89856080651E+02  0.00000000000E+00 0. -1.
         21    1    1    2  504  503 -0.26372714091E+01  0.24191198483E+02  0.75293676893E+02  0.79128421345E+02  0.00000000000E+00 0. -1.
</event>
<event>
 4    1  0.1679763E+006  0.2508651E+02  0.7546771E-02  0.1467838E+00
         21   -1    0    0  503  501  0.00000000000E+00  0.00000000000E+00  0.48309844721E+03  0.48309844721E+03  0.00000000000E+00 0.  1.
         21   -1    0    0  504  502 -0.00000000000E+00 -0.00000000000E+00 -0.11902540607E+03  0.11902540607E+03  0.00000000000E+00 0. -1.
         21    1    1    2  503  502  0.10907916932E+02  0.22590937313E+02  0.48144639291E+03  0.48209953572E+03  0.00000000000E+00 0.  1.
         21    1    1    2  504  501 -0.10907916932E+02 -0.22590937313E+02 -0.11737335177E+03  0.12002431756E+03  0.00000000000E+00 0. -1.
</event>
<event>
 4    1  0.1679763E+006  0.2065553E+02  0.7546771E-02  0.1524240E+00
         21   -1    0    0  504  501  0.00000000000E+00  0.00000000000E+00  0.11621175870E+01  0.11621175870E+01  0.00000000000E+00 0.  1.
         21   -1    0    0  503  502 -0.00000000000E+00 -0.00000000000E+00 -0.39598524616E+03  0.39598524616E+03  0.00000000000E+00 0.  1.
         21    1    1    2  503  501 -0.16311219058E+02  0.12672603861E+02 -0.25101322178E+03  0.25186164508E+03  0.00000000000E+00 0.  1.
         21    1    1    2  504  502  0.16311219058E+02 -0.12672603861E+02 -0.14380990680E+03  0.14528571867E+03  0.00000000000E+00 0.  1.
</event>
<event>
 4    1  0.1679763E+006  0.3446918E+02  0.7546771E-02  0.1384334E+00
         21   -1    0    0  503  501  0.00000000000E+00  0.00000000000E+00  0.45943524500E+02  0.45943524500E+02  0.00000000000E+00 0.  1.
         21   -1    0    0  504  502 -0.00000000000E+00 -0.00000000000E+00 -0.42533483048E+02  0.42533483048E+02  0.00000000000E+00 0.  1.
         21    1    1    2  503  502  0.11765220731E+02  0.32399130786E+02 -0.25992516987E+02  0.43170997601E+02  0.00000000000E+00 0.  1.
         21    1    1    2  504  501 -0.11765220731E+02 -0.32399130786E+02  0.29402558439E+02  0.45306009947E+02  0.00000000000E+00 0.  1.
</event>
<event>
 4    1  0.1679763E+006  0.2125736E+02  0.7546771E-02  0.1515622E+00
         21   -1    0    0  504  501  0.00000000000E+00  0.00000000000E+00  0.53769110359E+02  0.53769110359E+02  0.00000000000E+00 0. -1.
         21   -1    0    0  503  502 -0.00000000000E+00 -0.00000000000E+00 -0.86081585301E+01  0.86081585301E+01  0.00000000000E+00 0. -1.
         21    1    1    2  503  501  0.59001534505E+01 -0.20422137650E+02  0.17777319730E+02  0.27711164063E+02  0.00000000000E+00 0. -1.
         21    1    1    2  504  502 -0.59001534505E+01  0.20422137650E+02  0.27383632099E+02  0.34666104827E+02  0.00000000000E+00 0. -1.
</event>
<event>
 4    1  0.1679763E+006  0.2462462E+02  0.7546771E-02  0.1473047E+00
         21   -1    0    0  504  501  0.00000000000E+00  0.00000000000E+00  0.60072518473E+03  0.60072518473E+03  0.00000000000E+00 0. -1.
         21   -1    0    0  501  502 -0.00000000000E+00 -0.00000000000E+00 -0.48611785163E+01  0.48611785163E+01  0.00000000000E+00 0. -1.
         21    1    1    2  503  502  0.44958834656E+01  0.24210716470E+02  0.28402703758E+02  0.37591027399E+02  0.00000000000E+00 0. -1.
         21    1    1    2  504  503 -0.44958834656E+01 -0.24210716470E+02  0.56746130246E+03  0.56799533585E+03  0.00000000000E+00 0. -1.
</event>
<event>
 4    1  0.1679763E+006  0.2046884E+02  0.7546771E-02  0.1526985E+00
         21   -1    0    0  502  501  0.00000000000E+00  0.00000000000E+00  0.64744464286E+02  0.64744464286E+02  0.00000000000E+00 0. -1.
         21   -1    0    0  503  502 -0.00000000000E+00 -0.00000000000E+00 -0.21649329585E+02  0.21649329585E+02  0.00000000000E+00 0.  1.
         21    1    1    2  503  504  0.51657764900E+01 -0.19806264331E+02 -0.14621697241E+02  0.25154867992E+02  0.00000000000E+00 0.  1.
         21    1    1    2  504  501 -0.51657764900E+01  0.19806264331E+02  0.57716831942E+02  0.61238925880E+02  0.00000000000E+00 0. -1.
</event>
<event>
 4    1  0.1679763E+006  0.2478686E+02  0.7546771E-02  0.1471202E+00
         21   -1    0    0  502  501  0.00000000000E+00  0.00000000000E+00  0.11746283789E+03  0.11746283789E+03  0.00000000000E+00 0. -1.
         21   -1    0    0  503  502 -0.00000000000E+00 -0.00000000000E+00 -0.92453968883E+01  0.92453968883E+01  0.00000000000E+00 0. -1.
         21    1    1    2  503  504  0.23692940661E+02 -0.72823604771E+01  0.12359362790E+02  0.27697329471E+02  0.00000000000E+00 0. -1.
         21    1    1    2  504  501 -0.23692940661E+02  0.72823604771E+01  0.95858078212E+02  0.99010905307E+02  0.00000000000E+00 0. -1.
</event>
<event>
 4    1  0.1679763E+006  0.3168824E+02  0.7546771E-02  0.1405472E+00
         21   -1    0    0  504  501  0.00000000000E+00  0.00000000000E+00  0.18927125503E+02  0.18927125503E+02  0.00000000000E+00 0.  1.
         21   -1    0    0  501  502 -0.00000000000E+00 -0.00000000000E+00 -0.11098124944E+03  0.11098124944E+03  0.00000000000E+00 0.  1.
         21    1    1    2  503  502 -0.71704494326E+01 -0.30866311818E+02 -0.92954495896E+02  0.98207346250E+02  0.00000000000E+00 0.  1.
         21    1    1    2  504  503  0.71704494326E+01  0.30866311818E+02  0.90037196080E+00  0.31701028690E+02  0.00000000000E+00 0.  1.
</event>
<event>
 4    1  0.1679763E+006  0.2003185E+02  0.7546771E-02  0.1533549E+00
         21   -1    0    0  504  501  0.00000000000E+00  0.00000000000E+00  0.79102097136E+02  0.79102097136E+02  0.00000000000E+00 0. -1.
         21   -1    0    0  503  502 -0.00000000000E+00 -0.00000000000E+00 -0.50729855655E+01  0.50729855655E+01  0.00000000000E+00 0. -1.
         21    1    1    2  503  501  0.17027399219E+02 -0.10551908655E+02  0.37210486145E+02  0.42259855413E+02  0.00000000000E+00 0. -1.
         21    1    1    2  504  502 -0.17027399219E+02  0.10551908655E+02  0.36818625426E+02  0.41915227289E+02  0.00000000000E+00 0. -1.
</event>
<event>
 4    1  0.1679763E+006  0.3261533E+02  0.7546771E-02  0.1398151E+00
         21   -1    0    0  504  501  0.00000000000E+00  0.00000000000E+00  0.19822639887E+02  0.19822639887E+02  0.00000000000E+00 0. -1.
         21   -1    0    0  501  502 -0.00000000000E+00 -0.00000000000E+00 -0.69907730242E+02  0.69907730242E+02  0.00000000000E+00 0.  1.
         21    1    1    2  503  502  0.23677889037E+02  0.22430274918E+02 -0.46669303279E+02  0.56936662448E+02  0.00000000000E+00 0.  1.
         21    1    1    2  504  503 -0.23677889037E+02 -0.22430274918E+02 -0.34157870764E+01  0.32793707681E+02  0.00000000000E+00 0. -1.
</event>
<event>
 4    1  0.1679763E+006  0.3660550E+02  0.7546771E-02  0.1369614E+00
         21   -1    0    0  504  501  0.00000000000E+00  0.00000000000E+00  0.11336988801E+03  0.11336988801E+03  0.00000000000E+00 0.  1.
         21   -1    0    0  501  502 -0.00000000000E+00 -0.00000000000E+00 -0.45158042437E+02  0.45158042437E+02  0.00000000000E+00 0. -1.
         21    1    1    2  503  502 -0.31825149906E+01  0.36466894665E+02 -0.33999590105E+02  0.49959332817E+02  0.00000000000E+00 0. -1.
         21    1    1    2  504  503  0.31825149906E+01 -0.36466894665E+02  0.10221143568E+03  0.10856859763E+03  0.00000000000E+00 0.  1.
</event>
<event>
 4    1  0.1679763E+006  0.2604044E+02  0.7546771E-02  0.1457493E+00
         21   -1    0    0  504  501  0.00000000000E+00  0.00000000000E+00  0.65065310938E+00  0.65065310938E+00  0.00000000000E+00 0.  1.
         21   -1    0    0  503  502 -0.00000000000E+00 -0.00000000000E+00 -0.10427764878E+04  0.10427764878E+04  0.00000000000E+00 0.  1.
         21    1    1    2  503  501 -0.80914696458E+00 -0.26027869469E+02 -0.53342684132E+03  0.53406207481E+03  0.00000000000E+00 0.  1.
         21    1    1    2  504  502  0.80914696458E+00  0.26027869469E+02 -0.50869899342E+03  0.50936506615E+03  0.00000000000E+00 0.  1.
</event>
<event>
 4    1  0.1679763E+006  0.2020973E+02  0.7546771E-02  0.1530853E+00
         21   -1    0    0  502  501  0.00000000000E+00  0.00000000000E+00  0.22931924748E+02  0.22931924748E+02  0.00000000000E+00 0.  1.
         21   -1    0    0  503  502 -0.00000000000E+00 -0.00000000000E+00 -0.24057704504E+02  0.24057704504E+02  0.00000000000E+00 0. -1.
         21    1    1    2  503  504  0.71002075962E+01  0.18921428003E+02 -0.12535289729E+02  0.23781649947E+02  0.00000000000E+00 0. -1.
         21    1    1    2  504  501 -0.71002075962E+01 -0.18921428003E+02  0.11409509973E+02  0.23207979305E+02  0.00000000000E+00 0.  1.
</event>
<event>
 4    1  0.1679763E+006  0.2592866E+02  0.7546771E-02  0.1458677E+00
         21   -1    0    0  504  501  0.00000000000E+00  0.00000000000E+00  0.35134673930E+03  0.35134673930E+03  0.00000000000E+00 0.  1.
         21   -1    0    0  503  502 -0.00000000000E+00 -0.00000000000E+00 -0.28554898185E+01  0.28554898185E+01  0.00000000000E+00 0. -1.
         21    1    1    2  503  501  0.69460615691E+01 -0.24980945621E+02  0.27596610488E+03  0.27718150454E+03  0.00000000000E+00 0.  1.
         21    1    1    2  504  502 -0.69460615691E+01  0.24980945621E+02  0.72525144603E+02  0.77020724582E+02  0.00000000000E+00 0. -1.
</event>
<event>
 4    1  0.1679763E+006  0.2133793E+02  0.7546771E-02  0.1514494E+00
         21   -1    0    0  503  501  0.00000000000E+00  0.00000000000E+00  0.51476089222E+02  0.51476089222E+02  0.00000000000E+00 0.  1.
         21   -1    0    0  504  502 -0.00000000000E+00 -0.00000000000E+00 -0.10107629451E+02  0.10107629451E+02  0.00000000000E+00 0.  1.
         21    1    1    2  503  502 -0.89056583609E+01  0.19390625478E+02  0.31567152646E+02  0.38102391440E+02  0.00000000000E+00 0.  1.
         21    1    1    2  504  501  0.89056583609E+01 -0.19390625478E+02  0.98013071254E+01  0.23481327233E+02  0.00000000000E+00 0.  1.
</event>
<event>
 4    1  0.1679763E+006  0.2311879E+02  0.7546771E-02  0.1491012E+00
         21   -1    0    0  504  501  0.00000000000E+00  0.00000000000E+00  0.58414011179E+01  0.58414011179E+01  0.00000000000E+00 0.  1.
         21   -1    0    0  503  502 -0.00000000000E+00 -0.00000000000E+00 -0.93608535625E+02  0.93608535625E+02  0.00000000000E+00 0. -1.
         21    1    1    2  503  501  0.20950990419E+02 -0.97741811417E+01 -0.36417769963E+02  0.43136209680E+02  0.00000000000E+00 0.  1.
         21    1    1    2  504  502 -0.20950990419E+02  0.97741811417E+01 -0.51349364545E+02  0.56313727063E+02  0.00000000000E+00 0. -1.
</event>
<event>
 4    1  0.1679763E+006  0.3242581E+02  0.7546771E-02  0.1399624E+00
         21   -1    0    0  504  501  0.00000000000E+00  0.00000000000E+00  0.37942899040E+03  0.37942899040E+03  0.00000000000E+00 0. -1.
         21   -1    0    0  503  502 -0.00000000000E+00 -0.00000000000E+00 -0.31035466474E+01  0.31035466474E+01  0.00000000000E+00 0. -1.
         21    1    1    2  503  501  0.23124256866E+02  0.22731082903E+02  0.25076269791E+03  0.25285047765E+03  0.00000000000E+00 0. -1.
         21    1    1    2  504  502 -0.23124256866E+02 -0.22731082903E+02  0.12556274585E+03  0.12968205940E+03  0.00000000000E+00 0. -1.
</event>
<event>
 4    1  0.1679763E+006  0.2395326E+02  0.7546771E-02  0.1480863E+00
         21   -1    0    0  504  501  0.00000000000E+00  0.00000000000E+00  0.18393760493E+01  0.18393760493E+01  0.00000000000E+00 0. -1.
         21   -1    0    0  503  502 -0.00000000000E+00 -0.00000000000E+00 -0.42107815757E+03  0.42107815757E+03  0.00000000000E+00 0.  1.
         21    1    1    2  503  501 -0.63120772721E+01 -0.23106630172E+02 -0.31727837167E+03  0.31818127508E+03  0.00000000000E+00 0.  1.
         21    1    1    2  504  502  0.63120772721E+01  0.23106630172E+02 -0.10196040985E+03  0.10473625854E+03  0.00000000000E+00 0. -1.
</event>
<event>
 4    1  0.1679763E+006  0.3739204E+02  0.7546771E-02  0.1364485E+00
         21   -1    0    0  503  501  0.00000000000E+00  0.00000000000E+00  0.31449968829E+03  0.31449968829E+03  0.00000000000E+00 0. -1.
         21   -1    0    0  504  502 -0.00000000000E+00 -0.00000000000E+00 -0.38811792580E+02  0.38811792580E+02  0.00000000000E+00 0. -1.
         21    1    1    2  503  502  0.16148994468E+02 -0.33724982538E+02  0.30407460354E+03  0.30636502572E+03  0.00000000000E+00 0. -1.
         21    1    1    2  504  501 -0.16148994468E+02  0.33724982538E+02 -0.28386707828E+02  0.46946455147E+02  0.00000000000E+00 0. -1.
</event>
<event>
 4    1  0.1679763E+006  0.4633451E+02  0.7546771E-02  0.1314898E+00
         21   -1    0    0  504  501  0.00000000000E+00  0.00000000000E+00  0.74686074561E+02  0.74686074561E+02  0.00000000000E+00 0.  1.
         21   -1    0    0  503  502 -0.00000000000E+00 -0.00000000000E+00 -0.37188701111E+02  0.37188701111E+02  0.00000000000E+00 0.  1.
         21    1    1    2  503  501 -0.64215375825E+01  0.45887372649E+02 -0.79045981181E+01  0.47003933718E+02  0.00000000000E+00 0.  1.
         21    1    1    2  504  502  0.64215375825E+01 -0.45887372649E+02  0.45401971568E+02  0.64870841954E+02  0.00000000000E+00 0.  1.
</event>
<event>
 4    1  0.1679763E+006  0.2218986E+02  0.7546771E-02  0.1502930E+00
         21   -1    0    0  503  501  0.00000000000E+00  0.00000000000E+00  0.46103395249E+03  0.46103395249E+03  0.00000000000E+00 0. -1.
         21   -1    0    0  501  502 -0.00000000000E+00 -0.00000000000E+00 -0.15984226152E+02  0.15984226152E+02  0.00000000000E+00 0. -1.
         21    1    1    2  503  504 -0.87637163075E+01  0.20385954329E+02  0.45292802220E+03  0.45347125946E+03  0.00000000000E+00 0. -1.
         21    1    1    2  504  502  0.87637163075E+01 -0.20385954329E+02 -0.78782958642E+01  0.23546919186E+02  0.00000000000E+00 0. -1.
</event>
<event>
 4    1  0.1679763E+006  0.2402030E+02  0.7546771E-02  0.1480069E+00
         21   -1    0    0  504  501  0.00000000000E+00  0.00000000000E+00  0.27540225560E+02  0.27540225560E+02  0.00000000000E+00 0.  1.
         21   -1    0    0  503  502 -0.00000000000E+00 -0.00000000000E+00 -0.80483627981E+03  0.80483627981E+03  0.00000000000E+00 0.  1.
         21    1    1    2  503  501 -0.21177136561E+02  0.11335945612E+02 -0.79938377790E+03  0.79974458370E+03  0.00000000000E+00 0.  1.
         21    1    1    2  504  502  0.21177136561E+02 -0.11335945612E+02  0.22087723655E+02  0.32631921673E+02  0.00000000000E+00 0.  1.
</event>
<event>
 4    1  0.1679763E+006  0.3068638E+02  0.7546771E-02  0.1413724E+00
         21   -1    0    0  504  501  0.00000000000E+00  0.00000000000E+00  0.52392899113E+02  0.52392899113E+02  0.00000000000E+00 0.  1.
         21   -1    0    0  503  502 -0.00000000000E+00 -0.00000000000E+00 -0.37713717609E+02  0.37713717609E+02  0.00000000000E+00 0.  1.
         21    1    1    2  503  501 -0.20947160644E+02 -0.22424767310E+02  0.39935214123E+02  0.50363429739E+02  0.00000000000E+00 0.  1.
         21    1    1    2  504  502  0.20947160644E+02  0.22424767310E+02 -0.25256032619E+02  0.39743186984E+02  0.00000000000E+00 0.  1.
</event>
<event>
 4    1  0.1679763E+006  0.3521689E+02  0.7546771E-02  0.1379045E+00
         21   -1    0    0  502  501  0.00000000000E+00  0.00000000000E+00  0.16376665690E+03  0.16376665690E+03  0.00000000000E+00 0. -1.
         21   -1    0    0  504  502 -0.00000000000E+00 -0.00000000000E+00 -0.36332338781E+03  0.36332338781E+03  0.00000000000E+00 0. -1.
         21    1    1    2  503  501 -0.48379832145E+01  0.34882989324E+02  0.16100551395E+03  0.16481202792E+03  0.00000000000E+00 0. -1.
         21    1    1    2  504  503  0.48379832145E+01 -0.34882989324E+02 -0.36056224487E+03  0.36227801679E+03  0.00000000000E+00 0. -1.
</event>
<event>
 4    1  0.1679763E+006  0.2931364E+02  0.7546771E-02  0.1425656E+00
         21   -1    0    0  503  501  0.00000000000E+00  0.00000000000E+00  0.86589102294E+02  0.86589102294E+02  0.00000000000E+00 0. -1.
         21   -1    0    0  504  502 -0.00000000000E+00 -0.00000000000E+00 -0.79895513890E+02  0.79895513890E+02  0.00000000000E+00 0.  1.
         21    1    1    2  503  502 -0.29112456884E+02 -0.34284249449E+01 -0.74554433914E+02  0.80110254397E+02  0.00000000000E+00 0.  1.
         21    1    1    2  504  501  0.29112456884E+02  0.34284249449E+01  0.81248022318E+02  0.86374361787E+02  0.00000000000E+00 0. -1.
</event>
<event>
 4    1  0.1679763E+006  0.2521969E+02  0.7546771E-02  0.1466361E+00
         21   -1    0    0  504  501  0.00000000000E+00  0.00000000000E+00  0.16895989300E+03  0.16895989300E+03  0.00000000000E+00 0. -1.
         21   -1    0    0  503  502 -0.00000000000E+00 -0.00000000000E+00 -0.10599046727E+02  0.10599046727E+02  0.00000000000E+00 0. -1.
         21    1    1    2  503  501  0.16236035664E+02  0.19298283207E+02  0.15127484691E+03  0.15336268091E+03  0.00000000000E+00 0. -1.
         21    1    1    2  504  502 -0.16236035664E+02 -0.19298283207E+02  0.70859993595E+01  0.26196258812E+02  0.00000000000E+00 0. -1.
</event>
<event>
 4    1  0.1679763E+006  0.2380973E+02  0.7546771E-02  0.1482573E+00
         21   -1    0    0  503  501  0.00000000000E+00  0.00000000000E+00  0.10087198017E+02  0.10087198017E+02  0.00000000000E+00 0.  1.
         21   -1    0    0  504  502 -0.00000000000E+00 -0.00000000000E+00 -0.35994782885E+03  0.35994782885E+03  0.00000000000E+00 0. -1.
         21    1    1    2  503  502 -0.11009424665E+02 -0.21111509883E+02 -0.34489138553E+03  0.34571226634E+03  0.00000000000E+00 0. -1.
         21    1    1    2  504  501  0.11009424665E+02  0.21111509883E+02 -0.49692453009E+01  0.24322760532E+02  0.00000000000E+00 0.  1.
</event>
<event>
 4    1  0.1679763E+006  0.4541819E+02  0.7546771E-02  0.1319361E+00
         21   -1    0    0  504  501  0.00000000000E+00  0.00000000000E+00  0.45521883880E+03  0.45521883880E+03  0.00000000000E+00 0.  1.
         21   -1    0    0  501  502 -0.00000000000E+00 -0.00000000000E+00 -0.47116481987E+01  0.47116481987E+01  0.00000000000E+00 0.  1.
         21    1    1    2  503  502 -0.12977449715E+02 -0.43524676528E+02  0.18028349738E+03  0.18591651646E+03  0.00000000000E+00 0.  1.
         21    1    1    2  504  503  0.12977449715E+02  0.43524676528E+02  0.27022369322E+03  0.27401397053E+03  0.00000000000E+00 0.  1.
</event>
<event>
 4    1  0.1679763E+006  0.4206745E+02  0.7546771E-02  0.1336779E+00
         21   -1    0    0  502  501  0.00000000000E+00  0.00000000000E+00  0.63222025045E+01  0.63222025045E+01  0.00000000000E+00 0. -1.
         21   -1    0    0  504  502 -0.00000000000E+00 -0.00000000000E+00 -0.29287056850E+03  0.29287056850E+03  0.00000000000E+00 0. -1.
         21    1    1    2  503  501 -0.20799435279E+02  0.36565742395E+02 -0.17473978885E+03  0.17973220032E+03  0.00000000000E+00 0. -1.
         21    1    1    2  504  503  0.20799435279E+02 -0.36565742395E+02 -0.11180857715E+03  0.11946057069E+03  0.00000000000E+00 0. -1.
</event>
<event>
 4    1  0.1679763E+006  0.2347203E+02  0.7546771E-02  0.1486654E+00
         21   -1    0    0  503  501  0.00000000000E+00  0.00000000000E+00  0.15230302492E+02  0.15230302492E+02  0.00000000000E+00 0.  1.
         21   -1    0    0  504  502 -0.00000000000E+00 -0.00000000000E+00 -0.36837413902E+02  0.36837413902E+02  0.00000000000E+00 0.  1.
         21    1    1    2  503  502 -0.21951927684E+02 -0.83095697323E+01 -0.73090062353E+01  0.24583686671E+02  0.00000000000E+00 0.  1.
         21    1    1    2  504  501  0.21951927684E+02  0.83095697323E+01 -0.14298105175E+02  0.27484029722E+02  0.00000000000E+00 0.  1.
</event>
<event>
 4    1  0.1679763E+006  0.2497295E+02  0.7546771E-02  0.1469106E+00
         21   -1    0    0  503  501  0.00000000000E+00  0.00000000000E+00  0.33779484033E+02  0.33779484033E+02  0.00000000000E+00 0.  1.
         21   -1    0    0  504  502 -0.00000000000E+00 -0.00000000000E+00 -0.30442691919E+02  0.30442691919E+02  0.00000000000E+00 0.  1.
         21    1    1    2  503  502  0.21231782240E+02  0.13147612425E+02 -0.18475723845E+02  0.31064459775E+02  0.00000000000E+00 0.  1.
         21    1    1    2  504  501 -0.21231782240E+02 -0.13147612425E+02  0.21812515959E+02  0.33157716176E+02  0.00000000000E+00 0.  1.
</event>
<event>
 4    1  0.1679763E+006  0.2324667E+02  0.7546771E-02  0.1489424E+00
         21   -1    0    0  503  501  0.00000000000E+00  0.00000000000E+00  0.12535422259E+02  0.12535422259E+02  0.00000000000E+00 0.  1.
         21   -1    0    0  501  502 -0.00000000000E+00 -0.00000000000E+00 -0.11401124997E+03  0.11401124997E+03  0.00000000000E+00 0.  1.
         21    1    1    2  503  504  0.22986098262E+02  0.34708847668E+01 -0.84114387289E+00  0.23261884648E+02  0.00000000000E+00 0.  1.
         21    1    1    2  504  502 -0.22986098262E+02 -0.34708847668E+01 -0.10063468384E+03  0.10328478758E+03  0.00000000000E+00 0.  1.
</event>
<event>
 4    1  0.1679763E+006  0.2748818E+02  0.7546771E-02  0.1442765E+00
         21   -1    0    0  502  501  0.00000000000E+00  0.00000000000E+00  0.50640859339E+03  0.50640859339E+03  0.00000000000E+00 0.  1.
         21   -1    0    0  503  502 -0.00000000000E+00 -0.00000000000E+00 -0.51483796891E+01  0.51483796891E+01  0.00000000000E+00 0. -1.
         21    1    1    2  503  504  0.21261866841E+01 -0.27405830908E+02  0.35079204974E+02  0.44566252470E+02  0.00000000000E+00 0. -1.
         21    1    1    2  504  501 -0.21261866841E+01  0.27405830908E+02  0.46618100873E+03  0.46699072061E+03  0.00000000000E+00 0.  1.
</event>
<event>
 4    1  0.1679763E+006  0.2020620E+02  0.7546771E-02  0.1530907E+00
         21   -1    0    0  503  501  0.00000000000E+00  0.00000000000E+00  0.24627779953E+01  0.24627779953E+01  0.00000000000E+00 0. -1.
         21   -1    0    0  501  502 -0.00000000000E+00 -0.00000000000E+00 -0.18157727044E+03  0.18157727044E+03  0.00000000000E+00 0. -1.
         21    1    1    2  503  504 -0.17322866354E+02  0.10402343081E+02 -0.62419071049E+02  0.65608161618E+02  0.00000000000E+00 0. -1.
         21    1    1    2  504  502  0.17322866354E+02 -0.10402343081E+02 -0.11669542139E+03  0.11843188682E+03  0.00000000000E+00 0. -1.
</event>
<event>
 4    1  0.1679763E+006  0.2333772E+02  0.7546771E-02  0.1488300E+00
         21   -1    0    0  503  501  0.00000000000E+00  0.00000000000E+00  0.46717171923E+01  0.46717171923E+01  0.00000000000E+00 0.  1.
         21   -1    0    0  504  502 -0.00000000000E+00 -0.00000000000E+00 -0.13748830312E+03  0.13748830312E+03  0.00000000000E+00 0.  1.
         21    1    1    2  503  502 -0.19646955370E+02  0.12595489662E+02 -0.38692418358E+02  0.45185754984E+02  0.00000000000E+00 0.  1.
         21    1    1    2  504  501  0.19646955370E+02 -0.12595489662E+02 -0.94124167568E+02  0.96974265326E+02  0.00000000000E+00 0.  1.
</event>
<event>
 4    1  0.1679763E+006  0.2472782E+02  0.7546771E-02  0.1471871E+00
         21   -1    0    0  504  501  0.00000000000E+00  0.00000000000E+00  0.53355978122E+00  0.53355978122E+00  0.00000000000E+00 0.  1.
         21   -1    0    0  503  502 -0.00000000000E+00 -0.00000000000E+00 -0.11481498629E+04  0.11481498629E+04  0.00000000000E+00 0.  1.
         21    1    1    2  503  501 -0.22880934547E+02  0.93769981373E+01 -0.59859864155E+03  0.59910917113E+03  0.00000000000E+00 0.  1.
         21    1    1    2  504  502  0.22880934547E+02 -0.93769981373E+01 -0.54901766157E+03  0.54957425156E+03  0.00000000000E+00 0.  1.
</event>
<event>
 4    1  0.1679763E+006  0.2152689E+02  0.7546771E-02  0.1511873E+00
         21   -1    0    0  502  501  0.00000000000E+00  0.00000000000E+00  0.33738795887E+03  0.33738795887E+03  0.00000000000E+00 0.  1.
         21   -1    0    0  504  502 -0.00000000000E+00 -0.00000000000E+00 -0.23099712375E+01  0.23099712375E+01  0.00000000000E+00 0.  1.
         21    1    1    2  503  501 -0.65175860422E+01  0.20516533368E+02  0.27568328657E+03  0.27652247931E+03  0.00000000000E+00 0.  1.
         21    1    1    2  504  503  0.65175860422E+01 -0.20516533368E+02  0.59394701061E+02  0.63175450797E+02  0.00000000000E+00 0.  1.
</event>
<event>
 4    1  0.1679763E+006  0.2223093E+02  0.7546771E-02  0.1502388E+00
         21   -1    0    0  503  501  0.00000000000E+00  0.00000000000E+00  0.75619563224E+02  0.75619563224E+02  0.00000000000E+00 0. -1.
         21   -1    0    0  504  502 -0.00000000000E+00 -0.00000000000E+00 -0.78736245997E+01  0.78736245997E+01  0.00000000000E+00 0. -1.
         21    1    1    2  503  502 -0.15426573847E+02  0.16007343447E+02  0.51082794480E+02  0.55710556601E+02  0.00000000000E+00 0. -1.
         21    1    1    2  504  501  0.15426573847E+02 -0.16007343447E+02  0.16663144144E+02  0.27782631223E+02  0.00000000000E+00 0. -1.
</event>
<event>
 4    1  0.1679763E+006  0.2013277E+02  0.7546771E-02  0.1532016E+00
         21   -1    0    0  504  501  0.00000000000E+00  0.00000000000E+00  0.11796089769E+02  0.11796089769E+02  0.00000000000E+00 0. -1.
         21   -1    0    0  503  502 -0.00000000000E+00 -0.00000000000E+00 -0.34361442673E+02  0.34361442673E+02  0.00000000000E+00 0. -1.
         21    1    1    2  503  501 -0.74413990048E+01 -0.18707057624E+02 -0.11336909253E+02  0.23105279386E+02  0.00000000000E+00 0. -1.
         21    1    1    2  504  502  0.74413990048E+01  0.18707057624E+02 -0.11228443652E+02  0.23052253056E+02  0.00000000000E+00 0. -1.
</event>
<event>
 4    1  0.1679763E+006  0.2341220E+02  0.7546771E-02  0.1487386E+00
         21   -1    0    0  503  501  0.00000000000E+00  0.00000000000E+00  0.32357317926E+03  0.32357317926E+03  0.00000000000E+00 0. -1.
         21   -1    0    0  501  502 -0.00000000000E+00 -0.00000000000E+00 -0.67884111067E+01  0.67884111067E+01  0.00000000000E+00 0. -1.
         21    1    1    2  503  504  0.93873363603E+01  0.21447820001E+02  0.30148681415E+03  0.30239449428E+03  0.00000000000E+00 0. -1.
         21    1    1    2  504  502 -0.93873363603E+01 -0.21447820001E+02  0.15297954007E+02  0.27967096087E+02  0.00000000000E+00 0. -1.
</event>
<event>
 4    1  0.1679763E+006  0.2285247E+02  0.7546771E-02  0.1494359E+00
         21   -1    0    0  503  501  0.00000000000E+00  0.00000000000E+00  0.50815977673E+03  0.50815977673E+03  0.00000000000E+00 0.  1.
         21   -1    0    0  504  502 -0.00000000000E+00 -0.00000000000E+00 -0.27987420597E+01  0.27987420597E+01  0.00000000000E+00 0.  1.
         21    1    1    2  503  502  0.34427122339E+01 -0.22591664382E+02  0.45591093313E+03  0.45648331241E+03  0.00000000000E+00 0.  1.
         21    1    1    2  504  501 -0.34427122339E+01  0.22591664382E+02  0.49450101540E+02  0.54475206373E+02  0.00000000000E+00 0.  1.
</event>
<event>
 4    1  0.1679763E+006  0.2123021E+02  0.7546771E-02  0.1516003E+00
         21   -1    0    0  502  501  0.00000000000E+00  0.00000000000E+00  0.18041573425E+02  0.18041573425E+02  0.00000000000E+00 0.  1.
         21   -1    0    0  504  502 -0.00000000000E+00 -0.00000000000E+00 -0.82771571227E+02  0.82771571227E+02  0.00000000000E+00 0. -1.
         21    1    1    2  503  501 -0.10096459213E+02 -0.18675736404E+02  0.97532045523E+01  0.23363360587E+02  0.00000000000E+00 0.  1.
         21    1    1    2  504  503  0.10096459213E+02  0.18675736404E+02 -0.74483202354E+02  0.77449784065E+02  0.00000000000E+00 0. -1.
</event>
<event>
 4    1  0.1679763E+006  0.2328491E+02  0.7546771E-02  0.1488951E+00
         21   -1    0    0  504  501  0.00000000000E+00  0.00000000000E+00  0.48751272590E+02  0.48751272590E+02  0.00000000000E+00 0. -1.
         21   -1    0    0  503  502 -0.00000000000E+00 -0.00000000000E+00 -0.11123333470E+02  0.11123333470E+02  0.00000000000E+00 0.  1.
         21    1    1    2  503  501 -0.22478023032E+02  0.60766348333E+01  0.19198899487E+02  0.30179210590E+02  0.00000000000E+00 0. -1.
         21    1    1    2  504  502  0.22478023032E+02 -0.60766348333E+01  0.18429039633E+02  0.29695395470E+02  0.00000000000E+00 0.  1.
</event>
<event>
 4    1  0.1679763E+006  0.2352937E+02  0.7546771E-02  0.1485956E+00
         21   -1    0    0  502  501  0.00000000000E+00  0.00000000000E+00  0.45249427010E+02  0.45249427010E+02  0.00000000000E+00 0.  1.
         21   -1    0    0  504  502 -0.00000000000E+00 -0.00000000000E+00 -0.13502677472E+02  0.13502677472E+02  0.00000000000E+00 0.  1.
         21    1    1    2  503  501 -0.52098761453E+01  0.22945332498E+02  0.24873973295E+02  0.34239533296E+02  0.00000000000E+00 0.  1.
         21    1    1    2  504  503  0.52098761453E+01 -0.22945332498E+02  0.68727762433E+01  0.24512571187E+02  0.00000000000E+00 0.  1.
</event>
<event>
 4    1  0.1679763E+006  0.2103980E+02  0.7546771E-02  0.1518697E+00
         21   -1    0    0  503  501  0.00000000000E+00  0.00000000000E+00  0.44153211363E+01  0.44153211363E+01  0.00000000000E+00 0. -1.
         21   -1    0    0  501  502 -0.00000000000E+00 -0.00000000000E+00 -0.10638599050E+03  0.10638599050E+03  0.00000000000E+00 0. -1.
         21    1    1    2  503  504  0.12031018746E+02 -0.17260588231E+02 -0.37689510595E+02  0.43164482240E+02  0.00000000000E+00 0. -1.
         21    1    1    2  504  502 -0.12031018746E+02  0.17260588231E+02 -0.64281158765E+02  0.67636829393E+02  0.00000000000E+00 0. -1.
</event>
<event>
 4    1  0.1679763E+006  0.2734307E+02  0.7546771E-02  0.1444192E+00
         21   -1    0    0  503  501  0.00000000000E+00  0.00000000000E+00  0.19508814663E+03  0.19508814663E+03  0.00000000000E+00 0. -1.
         21   -1    0    0  504  502 -0.00000000000E+00 -0.00000000000E+00 -0.40561893910E+02  0.40561893910E+02  0.00000000000E+00 0. -1.
         21    1    1    2  503  502  0.67696988288E+01  0.26491780670E+02  0.18938394580E+03  0.19134764747E+03  0.00000000000E+00 0. -1.
         21    1    1    2  504  501 -0.67696988288E+01 -0.26491780670E+02 -0.34857693078E+02  0.44302393073E+02  0.00000000000E+00 0. -1.
</event>
<event>
 4    1  0.1679763E+006  0.2278638E+02  0.7546771E-02  0.1495198E+00
         21   -1    0    0  504  501  0.00000000000E+00  0.00000000000E+00  0.13824341558E+02  0.13824341558E+02  0.00000000000E+00 0. -1.
         21   -1    0    0  503  502 -0.00000000000E+00 -0.00000000000E+00 -0.38905866271E+02  0.38905866271E+02  0.00000000000E+00 0. -1.
         21    1    1    2  503  501  0.22693345683E+02 -0.20569514283E+01 -0.17447518167E+02  0.28699039664E+02  0.00000000000E+00 0. -1.
         21    1    1    2  504  502 -0.22693345683E+02  0.20569514283E+01 -0.76340065465E+01  0.24031168166E+02  0.00000000000E+00 0. -1.
</event>
<event>
 4    1  0.1679763E+006  0.2079371E+02  0.7546771E-02  0.1522231E+00
         21   -1    0    0  503  501  0.00000000000E+00  0.00000000000E+00  0.10722217529E+03  0.10722217529E+03  0.00000000000E+00 0.  1.
         21   -1    0    0  504  502 -0.00000000000E+00 -0.00000000000E+00 -0.93771492925E+01  0.93771492925E+01  0.00000000000E+00 0. -1.
         21    1    1    2  503  502  0.20245689369E+02  0.47424130729E+01  0.49087666389E+01  0.21365261751E+02  0.00000000000E+00 0. -1.
         21    1    1    2  504  501 -0.20245689369E+02 -0.47424130729E+01  0.92936259356E+02  0.95234062829E+02  0.00000000000E+00 0.  1.
</event>
<event>
 4    1  0.1679763E+006  0.2292717E+02  0.7546771E-02  0.1493415E+00
         21   -1    0    0  504  501  0.00000000000E+00  0.00000000000E+00  0.10438485243E+03  0.10438485243E+03  0.00000000000E+00 0.  1.
         21   -1    0    0  503  502 -0.00000000000E+00 -0.00000000000E+00 -0.24844182546E+02  0.24844182546E+02  0.00000000000E+00 0. -1.
         21    1    1    2  503  501  0.12405731939E+02 -0.19280893712E+02 -0.17925293394E+02  0.29102769466E+02  0.00000000000E+00 0. -1.
         21    1    1    2  504  502 -0.12405731939E+02  0.19280893712E+02  0.97465963275E+02  0.10012626551E+03  0.00000000000E+00 0.  1.
</event>
<event>
 4    1  0.1679763E+006  0.2039376E+02  0.7546771E-02  0.1528099E+00
         21   -1    0    0  504  501  0.00000000000E+00  0.00000000000E+00  0.91626264713E+03  0.91626264713E+03  0.00000000000E+00 0. -1.
         21   -1    0    0  503  502 -0.00000000000E+00 -0.00000000000E+00 -0.17342512275E+01  0.17342512275E+01  0.00000000000E+00 0. -1.
         21    1    1    2  503  501 -0.19790088810E+02  0.49252120608E+01  0.62882061232E+02  0.66106421426E+02  0.00000000000E+00 0. -1.
         21    1    1    2  504  502  0.19790088810E+02 -0.49252120608E+01  0.85164633467E+03  0.85189047693E+03  0.00000000000E+00 0. -1.
</event>
<event>
 4    1  0.1679763E+006  0.2658715E+02  0.7546771E-02  0.1451800E+00
         21   -1    0    0  503  501  0.00000000000E+00  0.00000000000E+00  0.98579948861E+02  0.98579948861E+02  0.00000000000E+00 0. -1.
         21   -1    0    0  501  502 -0.00000000000E+00 -0.00000000000E+00 -0.82110442178E+01  0.82110442178E+01  0.00000000000E+00 0. -1.
         21    1    1    2  503  504 -0.22722368105E+02 -0.13804732363E+02  0.64191575412E+02  0.69479745262E+02  0.00000000000E+00 0. -1.
         21    1    1    2  504  502  0.22722368105E+02  0.13804732363E+02  0.26177329232E+02  0.37311247816E+02  0.00000000000E+00 0. -1.
</event>
<event>
 4    1  0.1679763E+006  0.2159566E+02  0.7546771E-02  0.1510928E+00
         21   -1    0    0  503  501  0.00000000000E+00  0.00000000000E+00  0.56741184857E+02  0.56741184857E+02  0.00000000000E+00 0.  1.
         21   -1    0    0  501  502 -0.00000000000E+00 -0.00000000000E+00 -0.23987947085E+03  0.23987947085E+03  0.00000000000E+00 0.  1.
         21    1    1    2  503  504  0.20451471955E+02 -0.69361100154E+01  0.54178167094E+02  0.58323632577E+02  0.00000000000E+00 0.  1.
         21    1    1    2  504  502 -0.20451471955E+02  0.69361100154E+01 -0.23731645309E+03  0.23829702313E+03  0.00000000000E+00 0.  1.
</event>
<event>
 4    1  0.1679763E+006  0.2952860E+02  0.7546771E-02  0.1423738E+00
         21   -1    0    0  503  501  0.00000000000E+00  0.00000000000E+00  0.46261479059E+03  0.46261479059E+03  0.00000000000E+00 0.  1.
         21   -1    0    0  504  502 -0.00000000000E+00 -0.00000000000E+00 -0.23243430570E+01  0.23243430570E+01  0.00000000000E+00 0.  1.
         21    1    1    2  503  502 -0.67513686519E+01  0.28746427846E+02  0.33123677290E+03  0.33255035380E+03  0.00000000000E+00 0.  1.
         21    1    1    2  504  501  0.67513686519E+01 -0.28746427846E+02  0.12905367463E+03  0.13238877985E+03  0.00000000000E+00 0.  1.
</event>
<event>
 4    1  0.1679763E+006  0.2930926E+02  0.7546771E-02  0.1425695E+00
         21   -1    0    0  503  501  0.00000000000E+00  0.00000000000E+00  0.80878651758E+01  0.80878651758E+01  0.00000000000E+00 0.  1.
         21   -1    0    0  504  502 -0.00000000000E+00 -0.00000000000E+00 -0.44456123228E+03  0.44456123228E+03  0.00000000000E+00 0.  1.
         21    1    1    2  503  502  0.27398446717E+02 -0.10409504305E+02 -0.41568258525E+03  0.41671458379E+03  0.00000000000E+00 0.  1.
         21    1    1    2  504  501 -0.27398446717E+02  0.10409504305E+02 -0.20790781854E+02  0.35934513667E+02  0.00000000000E+00 0.  1.
</event>
<event>
 4    1  0.1679763E+006  0.2511987E+02  0.7546771E-02  0.1467467E+00
         21   -1    0    0  502  501  0.00000000000E+00  0.00000000000E+00  0.37422419372E+02  0.37422419372E+02  0.00000000000E+00 0. -1.
         21   -1    0    0  503  502 -0.00000000000E+00 -0.00000000000E+00 -0.10160490498E+03  0.10160490498E+03  0.00000000000E+00 0. -1.
         21    1    1    2  503  504  0.24031737485E+02  0.73132514988E+01 -0.95575363255E+02  0.98821344432E+02  0.00000000000E+00 0. -1.
         21    1    1    2  504  501 -0.24031737485E+02 -0.73132514988E+01  0.31392877649E+02  0.40205979917E+02  0.00000000000E+00 0. -1.
</event>
<event>
 4    1  0.1679763E+006  0.2811932E+02  0.7546771E-02  0.1436677E+00
         21   -1    0    0  503  501  0.00000000000E+00  0.00000000000E+00  0.68787498497E+01  0.68787498497E+01  0.00000000000E+00 0. -1.
         21   -1    0    0  501  502 -0.00000000000E+00 -0.00000000000E+00 -0.20213737543E+03  0.20213737543E+03  0.00000000000E+00 0. -1.
         21    1    1    2  503  504 -0.75783402751E+01  0.27078863317E+02 -0.28992175945E+02  0.40388641298E+02  0.00000000000E+00 0. -1.
         21    1    1    2  504  502  0.75783402751E+01 -0.27078863317E+02 -0.16626644963E+03  0.16862748398E+03  0.00000000000E+00 0. -1.
</event>
<event>
 4    1  0.1679763E+006  0.2896910E+02  0.7546771E-02  0.1428771E+00
         21   -1    0    0  504  501  0.00000000000E+00  0.00000000000E+00  0.74672716817E+01  0.74672716817E+01  0.00000000000E+00 0. -1.
         21   -1    0    0  501  502 -0.00000000000E+00 -0.00000000000E+00 -0.15843051810E+03  0.15843051810E+03  0.00000000000E+00 0. -1.
         21    1    1    2  503  502  0.52475334624E+01  0.28489861467E+02 -0.12019991339E+03  0.12364153022E+03  0.00000000000E+00 0. -1.
         21    1    1    2  504  503 -0.52475334624E+01 -0.28489861467E+02 -0.30763333025E+02  0.42256259568E+02  0.00000000000E+00 0. -1.
</event>
<event>
 4    1  0.1679763E+006  0.2012922E+02  0.7546771E-02  0.1532069E+00
         21   -1    0    0  504  501  0.00000000000E+00  0.00000000000E+00  0.62909125658E+02  0.62909125658E+02  0.00000000000E+00 0. -1.
         21   -1    0    0  503  502 -0.00000000000E+00 -0.00000000000E+00 -0.11498025715E+02  0.11498025715E+02  0.00000000000E+00 0.  1.
         21    1    1    2  503  501 -0.18830332366E+01  0.20040953482E+02  0.10321585235E+01  0.20155668728E+02  0.00000000000E+00 0.  1.
         21    1    1    2  504  502  0.18830332366E+01 -0.20040953482E+02  0.50378941420E+02  0.54251482646E+02  0.00000000000E+00 0. -1.
</event>
<event>
 4    1  0.1679763E+006  0.2640964E+02  0.7546771E-02  0.1453630E+00
         21   -1    0    0  504  501  0.00000000000E+00  0.00000000000E+00  0.43723958051E+02  0.43723958051E+02  0.00000000000E+00 0. -1.
         21   -1    0    0  503  502 -0.00000000000E+00 -0.00000000000E+00 -0.28081558078E+02  0.28081558078E+02  0.00000000000E+00 0. -1.
         21    1    1    2  503  501 -0.26183301027E+02  0.34501808950E+01 -0.15775217940E+02  0.30762420288E+02  0.00000000000E+00 0. -1.
         21    1    1    2  504  502  0.26183301027E+02 -0.34501808950E+01  0.31417617913E+02  0.41043095841E+02  0.00000000000E+00 0. -1.
</event>
<event>
 4    1  0.1679763E+006  0.3094490E+02  0.7546771E-02  0.1411559E+00
         21   -1    0    0  504  501  0.00000000000E+00  0.00000000000E+00  0.16206597610E+03  0.16206597610E+03  0.00000000000E+00 0.  1.
         21   -1    0    0  503  502 -0.00000000000E+00 -0.00000000000E+00 -0.77303463275E+01  0.77303463275E+01  0.00000000000E+00 0.  1.
         21    1    1    2  503  501 -0.89467209839E+01  0.29623353210E+02  0.35954273735E+02  0.47437291993E+02  0.00000000000E+00 0.  1.
         21    1    1    2  504  502  0.89467209839E+01 -0.29623353210E+02  0.11838135604E+03  0.12235903043E+03  0.00000000000E+00 0.  1.
</event>
<event>
 4    1  0.1679763E+006  0.2021514E+02  0.7546771E-02  0.1530772E+00
         21   -1    0    0  503  501  0.00000000000E+00  0.00000000000E+00  0.25415043578E+03  0.25415043578E+03  0.00000000000E+00 0. -1.
         21   -1    0    0  504  502 -0.00000000000E+00 -0.00000000000E+00 -0.30717107867E+01  0.30717107867E+01  0.00000000000E+00 0. -1.
         21    1    1    2  503  502  0.54808444739E+00 -0.20207709094E+02  0.21432212985E+03  0.21527337793E+03  0.00000000000E+00 0. -1.
         21    1    1    2  504  501 -0.54808444739E+00  0.20207709094E+02  0.36756595147E+02  0.41948768637E+02  0.00000000000E+00 0. -1.
</event>
<event>
 4    1  0.1679763E+006  0.2189012E+02  0.7546771E-02  0.1506926E+00
         21   -1    0    0  504  501  0.00000000000E+00  0.00000000000E+00  0.40968216563E+02  0.40968216563E+02  0.00000000000E+00 0.  1.
         21   -1    0    0  503  502 -0.00000000000E+00 -0.00000000000E+00 -0.20246430757E+02  0.20246430757E+02  0.00000000000E+00 0.  1.
         21    1    1    2  503  501 -0.54330279907E+01 -0.21205176174E+02 -0.95292104721E+01  0.23874319717E+02  0.00000000000E+00 0.  1.
         21    1    1    2  504  502  0.54330279907E+01  0.21205176174E+02  0.30250996278E+02  0.37340327603E+02  0.00000000000E+00 0.  1.
</event>
<event>
 4    1  0.1679763E+006  0.5062902E+02  0.7546771E-02  0.1295468E+00
         21   -1    0    0  502  501  0.00000000000E+00  0.00000000000E+00  0.55886127700E+02  0.55886127700E+02  0.00000000000E+00 0. -1.
         21   -1    0    0  503  502 -0.00000000000E+00 -0.00000000000E+00 -0.70067779024E+03  0.70067779024E+03  0.00000000000E+00 0. -1.
         21    1    1    2  503  504 -0.89958904174E+01 -0.49823404763E+02 -0.68808706784E+03  0.68994717960E+03  0.00000000000E+00 0. -1.
         21    1    1    2  504  501  0.89958904174E+01  0.49823404763E+02  0.43295405303E+02  0.66616738339E+02  0.00000000000E+00 0. -1.
</event>
<event>
 4    1  0.1679763E+006  0.8491700E+02  0.7546771E-02  0.1192871E+00
         21   -1    0    0  504  501  0.00000000000E+00  0.00000000000E+00  0.28560037294E+02  0.28560037294E+02  0.00000000000E+00 0. -1.
         21   -1    0    0  503  502 -0.00000000000E+00 -0.00000000000E+00 -0.39558425965E+03  0.39558425965E+03  0.00000000000E+00 0. -1.
         21    1    1    2  503  501  0.62399564451E+02 -0.57595063860E+02 -0.31106411654E+03  0.32244655622E+03  0.00000000000E+00 0. -1.
         21    1    1    2  504  502 -0.62399564451E+02  0.57595063860E+02 -0.55960105825E+02  0.10169774073E+03  0.00000000000E+00 0. -1.
</event>
<event>
 4    1  0.1679763E+006  0.2265498E+02  0.7546771E-02  0.1496877E+00
         21   -1    0    0  502  501  0.00000000000E+00  0.00000000000E+00  0.15443797522E+03  0.15443797522E+03  0.00000000000E+00 0.  1.
         21   -1    0    0  503  502 -0.00000000000E+00 -0.00000000000E+00 -0.64612805725E+02  0.64612805725E+02  0.00000000000E+00 0. -1.
         21    1    1    2  503  504 -0.18243343442E+02  0.13432362115E+02 -0.61758932671E+02  0.65783080625E+02  0.00000000000E+00 0. -1.
         21    1    1    2  504  501  0.18243343442E+02 -0.13432362115E+02  0.15158410216E+03  0.15326770032E+03  0.00000000000E+00 0.  1.
</event>
<event>
 4    1  0.1679763E+006  0.2426314E+02  0.7546771E-02  0.1477218E+00
         21   -1    0    0  502  501  0.00000000000E+00  0.00000000000E+00  0.11831359831E+02  0.11831359831E+02  0.00000000000E+00 0. -1.
         21   -1    0    0  503  502 -0.00000000000E+00 -0.00000000000E+00 -0.11672879473E+03  0.11672879473E+03  0.00000000000E+00 0.  1.
         21    1    1    2  503  504 -0.77211534204E+01 -0.23001816625E+02 -0.10113778897E+03  0.10400746192E+03  0.00000000000E+00 0.  1.
         21    1    1    2  504  501  0.77211534204E+01  0.23001816625E+02 -0.37596459289E+01  0.24552692636E+02  0.00000000000E+00 0. -1.
</event>
<event>
 4    1  0.1679763E+006  0.2488879E+02  0.7546771E-02  0.1470051E+00
         21   -1    0    0  504  501  0.00000000000E+00  0.00000000000E+00  0.19178199036E+02  0.19178199036E+02  0.00000000000E+00 0. -1.
         21   -1    0    0  503  502 -0.00000000000E+00 -0.00000000000E+00 -0.34654275510E+02  0.34654275510E+02  0.00000000000E+00 0. -1.
         21    1    1    2  503  501 -0.72410057430E+01  0.23812174243E+02 -0.14753946852E+02  0.28933211955E+02  0.00000000000E+00 0. -1.
         21    1    1    2  504  502  0.72410057430E+01 -0.23812174243E+02 -0.72212962162E+00  0.24899262590E+02  0.00000000000E+00 0. -1.
</event>
<event>
 4    1  0.1679763E+006  0.2041609E+02  0.7546771E-02  0.1527767E+00
         21   -1    0    0  502  501  0.00000000000E+00  0.00000000000E+00  0.64240286134E+03  0.64240286134E+03  0.00000000000E+00 0.  1.
         21   -1    0    0  504  502 -0.00000000000E+00 -0.00000000000E+00 -0.91507069017E+00  0.91507069017E+00  0.00000000000E+00 0.  1.
         21    1    1    2  503  501  0.14312530718E+02 -0.14559131862E+02  0.49424297082E+03  0.49466446311E+03  0.00000000000E+00 0.  1.
         21    1    1    2  504  503 -0.14312530718E+02  0.14559131862E+02  0.14724481982E+03  0.14865346892E+03  0.00000000000E+00 0.  1.
</event>
<event>
 4    1  0.1679763E+006  0.2641536E+02  0.7546771E-02  0.1453571E+00
         21   -1    0    0  502  501  0.00000000000E+00  0.00000000000E+00  0.16537153489E+02  0.16537153489E+02  0.00000000000E+00 0. -1.
         21   -1    0    0  504  502 -0.00000000000E+00 -0.00000000000E+00 -0.42488554307E+02  0.42488554307E+02  0.00000000000E+00 0. -1.
         21    1    1    2  503  501 -0.24225567914E+01  0.26304039564E+02 -0.10519063960E+02  0.28432762535E+02  0.00000000000E+00 0. -1.
         21    1    1    2  504  503  0.24225567914E+01 -0.26304039564E+02 -0.15432336859E+02  0.30592945261E+02  0.00000000000E+00 0. -1.
</event>
<event>
 4    1  0.1679763E+006  0.2348021E+02  0.7546771E-02  0.1486555E+00
         21   -1    0    0  503  501  0.00000000000E+00  0.00000000000E+00  0.59198806060E+01  0.59198806060E+01  0.00000000000E+00 0. -1.
         21   -1    0    0  504  502 -0.00000000000E+00 -0.00000000000E+00 -0.64978270811E+03  0.64978270811E+03  0.00000000000E+00 0. -1.
         21    1    1    2  503  502 -0.17171476543E+02  0.16014392043E+02 -0.18483003178E+02  0.29882131209E+02  0.00000000000E+00 0. -1.
         21    1    1    2  504  501  0.17171476543E+02 -0.16014392043E+02 -0.62537982432E+03  0.62582045750E+03  0.00000000000E+00 0. -1.
</event>
<event>
 4    1  0.1679763E+006  0.3928279E+02  0.7546771E-02  0.1352741E+00
         21   -1    0    0  503  501  0.00000000000E+00  0.00000000000E+00  0.31627762832E+03  0.31627762832E+03  0.00000000000E+00 0. -1.
         21   -1    0    0  504  502 -0.00000000000E+00 -0.00000000000E+00 -0.38866455867E+02  0.38866455867E+02  0.00000000000E+00 0. -1.
         21    1    1    2  503  502  0.39282021976E+02 -0.24532039853E+00 -0.27347161304E+02  0.47864440496E+02  0.00000000000E+00 0. -1.
         21    1    1    2  504  501 -0.39282021976E+02  0.24532039853E+00  0.30475833376E+03  0.30727964370E+03  0.00000000000E+00 0. -1.
</event>
<event>
 4    1  0.1679763E+006  0.2952581E+02  0.7546771E-02  0.1423762E+00
         21   -1    0    0  502  501  0.00000000000E+00  0.00000000000E+00  0.28138117568E+02  0.28138117568E+02  0.00000000000E+00 0.  1.
         21   -1    0    0  503  502 -0.00000000000E+00 -0.00000000000E+00 -0.11515439546E+03  0.11515439546E+03  0.00000000000E+00 0.  1.
         21    1    1    2  503  504 -0.15168934029E+02  0.25331343329E+02 -0.10476267262E+03  0.10884388402E+03  0.00000000000E+00 0.  1.
         21    1    1    2  504  501  0.15168934029E+02 -0.25331343329E+02  0.17746394730E+02  0.34448629005E+02  0.00000000000E+00 0.  1.
</event>
<event>
 4    1  0.1679763E+006  0.2155898E+02  0.7546771E-02  0.1511432E+00
         21   -1    0    0  504  501  0.00000000000E+00  0.00000000000E+00  0.26257296284E+03  0.26257296284E+03  0.00000000000E+00 0. -1.
         21   -1    0    0  503  502 -0.00000000000E+00 -0.00000000000E+00 -0.12546254898E+02  0.12546254898E+02  0.00000000000E+00 0. -1.
         21    1    1    2  503  501 -0.23230823150E+01 -0.21433453940E+02 -0.24734052175E+01  0.21700400748E+02  0.00000000000E+00 0. -1.
         21    1    1    2  504  502  0.23230823150E+01  0.21433453940E+02  0.25250011316E+03  0.25341881699E+03  0.00000000000E+00 0. -1.
</event>
<event>
 4    1  0.1679763E+006  0.2290211E+02  0.7546771E-02  0.1493731E+00
         21   -1    0    0  504  501  0.00000000000E+00  0.00000000000E+00  0.43868940932E+03  0.43868940932E+03  0.00000000000E+00 0.  1.
         21   -1    0    0  503  502 -0.00000000000E+00 -0.00000000000E+00 -0.12713499661E+01  0.12713499661E+01  0.00000000000E+00 0.  1.
         21    1    1    2  503  501 -0.21060224808E+02  0.89985423731E+01  0.16502084499E+03  0.16660247932E+03  0.00000000000E+00 0.  1.
         21    1    1    2  504  502  0.21060224808E+02 -0.89985423731E+01  0.27239721437E+03  0.27335827997E+03  0.00000000000E+00 0.  1.
</event>
<event>
 4    1  0.1679763E+006  0.2266639E+02  0.7546771E-02  0.1496730E+00
         21   -1    0    0  503  501  0.00000000000E+00  0.00000000000E+00  0.18715287318E+02  0.18715287318E+02  0.00000000000E+00 0. -1.
         21   -1    0    0  504  502 -0.00000000000E+00 -0.00000000000E+00 -0.82049385676E+02  0.82049385676E+02  0.00000000000E+00 0. -1.
         21    1    1    2  503  502 -0.15829351817E+01 -0.22611047680E+02  0.94316455178E+01  0.24550378778E+02  0.00000000000E+00 0. -1.
         21    1    1    2  504  501  0.15829351817E+01  0.22611047680E+02 -0.72765743876E+02  0.76214294216E+02  0.00000000000E+00 0. -1.
</event>
<event>
 4    1  0.1679763E+006  0.3299313E+02  0.7546771E-02  0.1395249E+00
         21   -1    0    0  503  501  0.00000000000E+00  0.00000000000E+00  0.60874358734E+02  0.60874358734E+02  0.00000000000E+00 0. -1.
         21   -1    0    0  504  502 -0.00000000000E+00 -0.00000000000E+00 -0.31411071973E+02  0.31411071973E+02  0.00000000000E+00 0. -1.
         21    1    1    2  503  502 -0.30400982780E+02  0.12819015446E+02  0.45014579455E+02  0.55810924330E+02  0.00000000000E+00 0. -1.
         21    1    1    2  504  501  0.30400982780E+02 -0.12819015446E+02 -0.15551292695E+02  0.36474506377E+02  0.00000000000E+00 0. -1.
</event>
<event>
 4    1  0.1679763E+006  0.2032712E+02  0.7546771E-02  0.1529093E+00
         21   -1    0    0  503  501  0.00000000000E+00  0.00000000000E+00  0.88922712094E+02  0.88922712094E+02  0.00000000000E+00 0. -1.
         21   -1    0    0  504  502 -0.00000000000E+00 -0.00000000000E+00 -0.65033640978E+01  0.65033640978E+01  0.00000000000E+00 0. -1.
         21    1    1    2  503  502 -0.74494123121E+01 -0.18912902301E+02  0.15715437847E+02  0.25693707478E+02  0.00000000000E+00 0. -1.
         21    1    1    2  504  501  0.74494123121E+01  0.18912902301E+02  0.66703910149E+02  0.69732368714E+02  0.00000000000E+00 0. -1.
</event>
<event>
 4    1  0.1679763E+006  0.2557193E+02  0.7546771E-02  0.1462506E+00
         21   -1    0    0  504  501  0.00000000000E+00  0.00000000000E+00  0.15865090634E+03  0.15865090634E+03  0.00000000000E+00 0.  1.
         21   -1    0    0  503  502 -0.00000000000E+00 -0.00000000000E+00 -0.29632644084E+02  0.29632644084E+02  0.00000000000E+00 0. -1.
         21    1    1    2  503  501  0.14993549187E+02  0.20715139881E+02  0.15185850524E+03  0.15399652318E+03  0.00000000000E+00 0.  1.
         21    1    1    2  504  502 -0.14993549187E+02 -0.20715139881E+02 -0.22840242986E+02  0.34287027243E+02  0.00000000000E+00 0. -1.
</event>
<event>
 4    1  0.1679763E+006  0.2004747E+02  0.7546771E-02  0.1533311E+00
         21   -1    0    0  503  501  0.00000000000E+00  0.00000000000E+00  0.25842732507E+01  0.25842732507E+01  0.00000000000E+00 0.  1.
         21   -1    0    0  501  502 -0.00000000000E+00 -0.00000000000E+00 -0.27045972552E+03  0.27045972552E+03  0.00000000000E+00 0.  1.
         21    1    1    2  503  504 -0.14334583991E+02  0.14015013788E+02 -0.44937672947E+02  0.49206659707E+02  0.00000000000E+00 0.  1.
         21    1    1    2  504  502  0.14334583991E+02 -0.14015013788E+02 -0.22293777932E+03  0.22383733906E+03  0.00000000000E+00 0.  1.
</event>
<event>
 4    1  0.1679763E+006  0.2477473E+02  0.7546771E-02  0.1471339E+00
         21   -1    0    0  502  501  0.00000000000E+00  0.00000000000E+00  0.11077395893E+04  0.11077395893E+04  0.00000000000E+00 0.  1.
         21   -1    0    0  503  502 -0.00000000000E+00 -0.00000000000E+00 -0.55612360468E+00  0.55612360468E+00  0.00000000000E+00 0.  1.
         21    1    1    2  503  504  0.17908465106E+02 -0.17119409056E+02  0.52008078052E+03  0.52067053456E+03  0.00000000000E+00 0.  1.
         21    1    1    2  504  501 -0.17908465106E+02  0.17119409056E+02  0.58710268520E+03  0.58762517838E+03  0.00000000000E+00 0.  1.
</event>
<event>
 4    1  0.1679763E+006  0.2201769E+02  0.7546771E-02  0.1505216E+00
         21   -1    0    0  503  501  0.00000000000E+00  0.00000000000E+00  0.17759444798E+01  0.17759444798E+01  0.00000000000E+00 0. -1.
         21   -1    0    0  504  502 -0.00000000000E+00 -0.00000000000E+00 -0.29870519866E+03  0.29870519866E+03  0.00000000000E+00 0. -1.
         21    1    1    2  503  502 -0.15750993960E+02 -0.15384568180E+02 -0.10436514641E+03  0.10666237638E+03  0.00000000000E+00 0. -1.
         21    1    1    2  504  501  0.15750993960E+02  0.15384568180E+02 -0.19256410777E+03  0.19381876677E+03  0.00000000000E+00 0. -1.
</event>
<event>
 4    1  0.1679763E+006  0.2021082E+02  0.7546771E-02  0.1530837E+00
         21   -1    0    0  504  501  0.00000000000E+00  0.00000000000E+00  0.10012669902E+02  0.10012669902E+02  0.00000000000E+00 0.  1.
         21   -1    0    0  501  502 -0.00000000000E+00 -0.00000000000E+00 -0.89086717734E+03  0.89086717734E+03  0.00000000000E+00 0. -1.
         21    1    1    2  503  502 -0.13674739356E+02  0.14882158512E+02 -0.88043268371E+03  0.88066462838E+03  0.00000000000E+00 0. -1.
         21    1    1    2  504  503  0.13674739356E+02 -0.14882158512E+02 -0.42182373084E+00  0.20215218863E+02  0.00000000000E+00 0.  1.
</event>
<event>
 4    1  0.1679763E+006  0.2362219E+02  0.7546771E-02  0.1484830E+00
         21   -1    0    0  504  501  0.00000000000E+00  0.00000000000E+00  0.40160319257E+02  0.40160319257E+02  0.00000000000E+00 0. -1.
         21   -1    0    0  503  502 -0.00000000000E+00 -0.00000000000E+00 -0.14616327864E+02  0.14616327864E+02  0.00000000000E+00 0. -1.
         21    1    1    2  503  501  0.21299684523E+02 -0.10214268091E+02  0.18858403593E+02  0.30226597882E+02  0.00000000000E+00 0. -1.
         21    1    1    2  504  502 -0.21299684523E+02  0.10214268091E+02  0.66855877995E+01  0.24550049239E+02  0.00000000000E+00 0. -1.
</event>
<event>
 4    1  0.1679763E+006  0.2282351E+02  0.7546771E-02  0.1494726E+00
         21   -1    0    0  504  501  0.00000000000E+00  0.00000000000E+00  0.23418797709E+02  0.23418797709E+02  0.00000000000E+00 0. -1.
         21   -1    0    0  503  502 -0.00000000000E+00 -0.00000000000E+00 -0.86921576675E+02  0.86921576675E+02  0.00000000000E+00 0.  1.
         21    1    1    2  503  501  0.22783266932E+02 -0.13548116423E+01  0.15839045642E+02  0.27781075097E+02  0.00000000000E+00 0. -1.
         21    1    1    2  504  502 -0.22783266932E+02  0.13548116423E+01 -0.79341824608E+02  0.82559299288E+02  0.00000000000E+00 0.  1.
</event>
<event>
 4    1  0.1679763E+006  0.2148689E+02  0.7546771E-02  0.1512426E+00
         21   -1    0    0  503  501  0.00000000000E+00  0.00000000000E+00  0.31461137931E+03  0.31461137931E+03  0.00000000000E+00 0. -1.
         21   -1    0    0  504  502 -0.00000000000E+00 -0.00000000000E+00 -0.17893849969E+01  0.17893849969E+01  0.00000000000E+00 0. -1.
         21    1    1    2  503  502 -0.14113452092E+02 -0.16201757997E+02  0.22351033534E+03  0.22454076800E+03  0.00000000000E+00 0. -1.
         21    1    1    2  504  501  0.14113452092E+02  0.16201757997E+02  0.89311658971E+02  0.91859996300E+02  0.00000000000E+00 0. -1.
</event>
<event>
 4    1  0.1679763E+006  0.2373857E+02  0.7546771E-02  0.1483426E+00
         21   -1    0    0  503  501  0.00000000000E+00  0.00000000000E+00  0.52851009942E+01  0.52851009942E+01  0.00000000000E+00 0. -1.
         21   -1    0    0  504  502 -0.00000000000E+00 -0.00000000000E+00 -0.21143905746E+03  0.21143905746E+03  0.00000000000E+00 0. -1.
         21    1    1    2  503  502  0.23596756548E+02  0.25908808468E+01 -0.17937199605E+03  0.18093599020E+03  0.00000000000E+00 0. -1.
         21    1    1    2  504  501 -0.23596756548E+02 -0.25908808468E+01 -0.26781960415E+02  0.35788168252E+02  0.00000000000E+00 0. -1.
</event>
<event>
 4    1  0.1679763E+006  0.2063414E+02  0.7546771E-02  0.1524553E+00
         21   -1    0    0  504  501  0.00000000000E+00  0.00000000000E+00  0.40829864745E+03  0.40829864745E+03  0.00000000000E+00 0. -1.
         21   -1    0    0  503  502 -0.00000000000E+00 -0.00000000000E+00 -0.68657486789E+01  0.68657486789E+01  0.00000000000E+00 0. -1.
         21    1    1    2  503  501  0.18271296644E+02  0.95878723589E+01  0.95471240012E+01  0.22735768167E+02  0.00000000000E+00 0. -1.
         21    1    1    2  504  502 -0.18271296644E+02 -0.95878723589E+01  0.39188577477E+03  0.39242862796E+03  0.00000000000E+00 0. -1.
</event>
<event>
 4    1  0.1679763E+006  0.2238837E+02  0.7546771E-02  0.1500325E+00
         21   -1    0    0  503  501  0.00000000000E+00  0.00000000000E+00  0.27232175406E+01  0.27232175406E+01  0.00000000000E+00 0.  1.
         21   -1    0    0  501  502 -0.00000000000E+00 -0.00000000000E+00 -0.62910498655E+03  0.62910498655E+03  0.00000000000E+00 0. -1.
         21    1    1    2  503  504  0.16477344308E+02  0.15157046605E+02 -0.47480348559E+02  0.52494022865E+02  0.00000000000E+00 0.  1.
         21    1    1    2  504  502 -0.16477344308E+02 -0.15157046605E+02 -0.57890142045E+03  0.57933418122E+03  0.00000000000E+00 0. -1.
</event>
<event>
 4    1  0.1679763E+006  0.2417642E+02  0.7546771E-02  0.1478231E+00
         21   -1    0    0  503  501  0.00000000000E+00  0.00000000000E+00  0.29579368075E+02  0.29579368075E+02  0.00000000000E+00 0.  1.
         21   -1    0    0  501  502 -0.00000000000E+00 -0.00000000000E+00 -0.35275141788E+02  0.35275141788E+02  0.00000000000E+00 0. -1.
         21    1    1    2  503  504 -0.15667767861E+02 -0.18412510327E+02  0.18657555959E+02  0.30538563827E+02  0.00000000000E+00 0.  1.
         21    1    1    2  504  502  0.15667767861E+02  0.18412510327E+02 -0.24353329672E+02  0.34315946037E+02  0.00000000000E+00 0. -1.
</event>
<event>
 4    1  0.1679763E+006  0.3190361E+02  0.7546771E-02  0.1403745E+00
         21   -1    0    0  503  501  0.00000000000E+00  0.00000000000E+00  0.60990641203E+01  0.60990641203E+01  0.00000000000E+00 0.  1.
         21   -1    0    0  504  502 -0.00000000000E+00 -0.00000000000E+00 -0.19031189513E+03  0.19031189513E+03  0.00000000000E+00 0.  1.
         21    1    1    2  503  502 -0.16972263154E+02 -0.27014491952E+02 -0.12656225950E+03  0.13052143894E+03  0.00000000000E+00 0.  1.
         21    1    1    2  504  501  0.16972263154E+02  0.27014491952E+02 -0.57650571510E+02  0.65889520315E+02  0.00000000000E+00 0.  1.
</event>
<event>
 4    1  0.1679763E+006  0.3078770E+02  0.7546771E-02  0.1412872E+00
         21   -1    0    0  504  501  0.00000000000E+00  0.00000000000E+00  0.11141481792E+04  0.11141481792E+04  0.00000000000E+00 0.  1.
         21   -1    0    0  501  502 -0.00000000000E+00 -0.00000000000E+00 -0.36059183776E+03  0.36059183776E+03  0.00000000000E+00 0. -1.
         21    1    1    2  503  502 -0.12659923040E+02  0.28064370451E+02 -0.35972146048E+03  0.36103657941E+03  0.00000000000E+00 0. -1.
         21    1    1    2  504  503  0.12659923040E+02 -0.28064370451E+02  0.11132778019E+04  0.11137034375E+04  0.00000000000E+00 0.  1.
</event>
<event>
 4    1  0.1679763E+006  0.3996754E+02  0.7546771E-02  0.1348676E+00
         21   -1    0    0  502  501  0.00000000000E+00  0.00000000000E+00  0.36275892341E+03  0.36275892341E+03  0.00000000000E+00 0. -1.
         21   -1    0    0  503  502 -0.00000000000E+00 -0.00000000000E+00 -0.44040104444E+01  0.44040104444E+01  0.00000000000E+00 0. -1.
         21    1    1    2  503  504 -0.31892098548E+02  0.24089383606E+02  0.18117809912E+03  0.18553411534E+03  0.00000000000E+00 0. -1.
         21    1    1    2  504  501  0.31892098548E+02 -0.24089383606E+02  0.17717681384E+03  0.18162881852E+03  0.00000000000E+00 0. -1.
</event>
<event>
 4    1  0.1679763E+006  0.2334044E+02  0.7546771E-02  0.1488267E+00
         21   -1    0    0  504  501  0.00000000000E+00  0.00000000000E+00  0.24156332662E+03  0.24156332662E+03  0.00000000000E+00 0. -1.
         21   -1    0    0  503  502 -0.00000000000E+00 -0.00000000000E+00 -0.57212736107E+01  0.57212736107E+01  0.00000000000E+00 0. -1.
         21    1    1    2  503  501  0.12079499750E+02  0.19971527916E+02  0.21684724516E+02  0.31859119869E+02  0.00000000000E+00 0. -1.
         21    1    1    2  504  502 -0.12079499750E+02 -0.19971527916E+02  0.21415732849E+03  0.21542548036E+03  0.00000000000E+00 0. -1.
</event>
<event>
 4    1  0.1679763E+006  0.2991787E+02  0.7546771E-02  0.1420312E+00
         21   -1    0    0  503  501  0.00000000000E+00  0.00000000000E+00  0.12889573672E+03  0.12889573672E+03  0.00000000000E+00 0. -1.
         21   -1    0    0  504  502 -0.00000000000E+00 -0.00000000000E+00 -0.87124181143E+01  0.87124181143E+01  0.00000000000E+00 0. -1.
         21    1    1    2  503  502 -0.10281135124E+02 -0.28095860388E+02  0.91088074273E+02  0.95875525475E+02  0.00000000000E+00 0. -1.
         21    1    1    2  504  501  0.10281135124E+02  0.28095860388E+02  0.29095244329E+02  0.41732629356E+02  0.00000000000E+00 0. -1.
</event>
<event>
 4    1  0.1679763E+006  0.4007094E+02  0.7546771E-02  0.1348071E+00
         21   -1    0    0  503  501  0.00000000000E+00  0.00000000000E+00  0.42495768751E+02  0.42495768751E+02  0.00000000000E+00 0.  1.
         21   -1    0    0  504  502 -0.00000000000E+00 -0.00000000000E+00 -0.31791513727E+03  0.31791513727E+03  0.00000000000E+00 0.  1.
         21    1    1    2  503  502 -0.20176217405E+02  0.34620806450E+02  0.31448359861E+02  0.50937994915E+02  0.00000000000E+00 0.  1.
         21    1    1    2  504  501  0.20176217405E+02 -0.34620806450E+02 -0.30686772838E+03  0.30947291111E+03  0.00000000000E+00 0.  1.
</event>
<event>
 4    1  0.1679763E+006  0.2596740E+02  0.7546771E-02  0.1458266E+00
         21   -1    0    0  502  501  0.00000000000E+00  0.00000000000E+00  0.37372964129E+02  0.37372964129E+02  0.00000000000E+00 0. -1.
         21   -1    0    0  503  502 -0.00000000000E+00 -0.00000000000E+00 -0.20914739294E+02  0.20914739294E+02  0.00000000000E+00 0. -1.
         21    1    1    2  503  504  0.16411285370E+02 -0.20124008469E+02 -0.25708522258E+01  0.26094353518E+02  0.00000000000E+00 0. -1.
         21    1    1    2  504  501 -0.16411285370E+02  0.20124008469E+02  0.19029077061E+02  0.32193349905E+02  0.00000000000E+00 0. -1.
</event>
<event>
 4    1  0.1679763E+006  0.2466182E+02  0.7546771E-02  0.1472622E+00
         21   -1    0    0  503  501  0.00000000000E+00  0.00000000000E+00  0.17428294004E+02  0.17428294004E+02  0.00000000000E+00 0. -1.
         21   -1    0    0  504  502 -0.00000000000E+00 -0.00000000000E+00 -0.47230746758E+03  0.47230746758E+03  0.00000000000E+00 0.  1.
         21    1    1    2  503  502  0.10004636395E+02 -0.22541349406E+02 -0.46308756470E+03  0.46374378461E+03  0.00000000000E+00 0.  1.
         21    1    1    2  504  501 -0.10004636395E+02  0.22541349406E+02  0.82083911225E+01  0.25991976978E+02  0.00000000000E+00 0. -1.
</event>
<event>
 4    1  0.1679763E+006  0.2230028E+02  0.7546771E-02  0.1501477E+00
         21   -1    0    0  503  501  0.00000000000E+00  0.00000000000E+00  0.38084219144E+02  0.38084219144E+02  0.00000000000E+00 0. -1.
         21   -1    0    0  501  502 -0.00000000000E+00 -0.00000000000E+00 -0.35299722867E+02  0.35299722867E+02  0.00000000000E+00 0.  1.
         21    1    1    2  503  504 -0.42623023727E+01  0.21889157185E+02  0.30517516929E+02  0.37797106547E+02  0.00000000000E+00 0. -1.
         21    1    1    2  504  502  0.42623023727E+01 -0.21889157185E+02 -0.27733020653E+02  0.35586835464E+02  0.00000000000E+00 0.  1.
</event>
<event>
 4    1  0.1679763E+006  0.2091824E+02  0.7546771E-02  0.1520435E+00
         21   -1    0    0  504  501  0.00000000000E+00  0.00000000000E+00  0.56374304867E+01  0.56374304867E+01  0.00000000000E+00 0.  1.
         21   -1    0    0  503  502 -0.00000000000E+00 -0.00000000000E+00 -0.10270924666E+03  0.10270924666E+03  0.00000000000E+00 0.  1.
         21    1    1    2  503  501 -0.88911065822E+01  0.18934647562E+02 -0.75311054546E+02  0.78162187734E+02  0.00000000000E+00 0.  1.
         21    1    1    2  504  502  0.88911065822E+01 -0.18934647562E+02 -0.21760761630E+02  0.30184489416E+02  0.00000000000E+00 0.  1.
</event>
<event>
 4    1  0.1679763E+006  0.2412359E+02  0.7546771E-02  0.1478851E+00
         21   -1    0    0  504  501  0.00000000000E+00  0.00000000000E+00  0.87688303060E+01  0.87688303060E+01  0.00000000000E+00 0.  1.
         21   -1    0    0  503  502 -0.00000000000E+00 -0.00000000000E+00 -0.10192889684E+03  0.10192889684E+03  0.00000000000E+00 0. -1.
         21    1    1    2  503  501 -0.20586512451E+02 -0.12575493534E+02 -0.79273566357E+02  0.82862813466E+02  0.00000000000E+00 0. -1.
         21    1    1    2  504  502  0.20586512451E+02  0.12575493534E+02 -0.13886500181E+02  0.27834913684E+02  0.00000000000E+00 0.  1.
</event>
<event>
 4    1  0.1679763E+006  0.3196312E+02  0.7546771E-02  0.1403271E+00
         21   -1    0    0  504  501  0.00000000000E+00  0.00000000000E+00  0.50504897099E+01  0.50504897099E+01  0.00000000000E+00 0. -1.
         21   -1    0    0  503  502 -0.00000000000E+00 -0.00000000000E+00 -0.44608893510E+03  0.44608893510E+03  0.00000000000E+00 0.  1.
         21    1    1    2  503  501  0.50468308168E+01 -0.31562168762E+02 -0.38727847604E+03  0.38859523801E+03  0.00000000000E+00 0.  1.
         21    1    1    2  504  502 -0.50468308168E+01  0.31562168762E+02 -0.53759969352E+02  0.62544186805E+02  0.00000000000E+00 0. -1.
</event>
<event>
 4    1  0.1679763E+006  0.2219137E+02  0.7546771E-02  0.1502910E+00
         21   -1    0    0  504  501  0.00000000000E+00  0.00000000000E+00  0.39981109179E+02  0.39981109179E+02  0.00000000000E+00 0.  1.
         21   -1    0    0  501  502 -0.00000000000E+00 -0.00000000000E+00 -0.44781264319E+02  0.44781264319E+02  0.00000000000E+00 0.  1.
         21    1    1    2  503  502  0.22177556492E+02 -0.78287994428E+00 -0.38485028272E+02  0.44424703872E+02  0.00000000000E+00 0.  1.
         21    1    1    2  504  503 -0.22177556492E+02  0.78287994428E+00  0.33684873132E+02  0.40337669627E+02  0.00000000000E+00 0.  1.
</event>
<event>
 4    1  0.1679763E+006  0.4094453E+02  0.7546771E-02  0.1343038E+00
         21   -1    0    0  503  501  0.00000000000E+00  0.00000000000E+00  0.23561219180E+01  0.23561219180E+01  0.00000000000E+00 0.  1.
         21   -1    0    0  504  502 -0.00000000000E+00 -0.00000000000E+00 -0.81194115298E+03  0.81194115298E+03  0.00000000000E+00 0.  1.
         21    1    1    2  503  502 -0.39448416547E+02  0.10967088363E+02 -0.26161369553E+03  0.26479837666E+03  0.00000000000E+00 0.  1.
         21    1    1    2  504  501  0.39448416547E+02 -0.10967088363E+02 -0.54797133553E+03  0.54949889823E+03  0.00000000000E+00 0.  1.
</event>
<event>
 4    1  0.1679763E+006  0.3340250E+02  0.7546771E-02  0.1392156E+00
         21   -1    0    0  504  501  0.00000000000E+00  0.00000000000E+00  0.43688347592E+01  0.43688347592E+01  0.00000000000E+00 0.  1.
         21   -1    0    0  503  502 -0.00000000000E+00 -0.00000000000E+00 -0.34387807224E+03  0.34387807224E+03  0.00000000000E+00 0. -1.
         21    1    1    2  503  501 -0.62225434666E+01  0.32817780977E+02 -0.81423404743E+02  0.88008508881E+02  0.00000000000E+00 0.  1.
         21    1    1    2  504  502  0.62225434666E+01 -0.32817780977E+02 -0.25808583274E+03  0.26023839812E+03  0.00000000000E+00 0. -1.
</event>
<event>
 4    1  0.1679763E+006  0.6416848E+02  0.7546771E-02  0.1246291E+00
         21   -1    0    0  503  501  0.00000000000E+00  0.00000000000E+00  0.93699110504E+03  0.93699110504E+03  0.00000000000E+00 0. -1.
         21   -1    0    0  504  502 -0.00000000000E+00 -0.00000000000E+00 -0.45653517416E+03  0.45653517416E+03  0.00000000000E+00 0. -1.
         21    1    1    2  503  502 -0.87836686815E+01 -0.63564468222E+02  0.93362956782E+03  0.93583212403E+03  0.00000000000E+00 0. -1.
         21    1    1    2  504  501  0.87836686815E+01  0.63564468222E+02 -0.45317363694E+03  0.45769415516E+03  0.00000000000E+00 0. -1.
</event>
<event>
 4    1  0.1679763E+006  0.2302651E+02  0.7546771E-02  0.1492166E+00
         21   -1    0    0  503  501  0.00000000000E+00  0.00000000000E+00  0.61153882645E+01  0.61153882645E+01  0.00000000000E+00 0. -1.
         21   -1    0    0  504  502 -0.00000000000E+00 -0.00000000000E+00 -0.14687214092E+03  0.14687214092E+03  0.00000000000E+00 0. -1.
         21    1    1    2  503  502 -0.20517713108E+02 -0.10451967506E+02 -0.21418016124E+02  0.31447600713E+02  0.00000000000E+00 0. -1.
         21    1    1    2  504  501  0.20517713108E+02  0.10451967506E+02 -0.11933873653E+03  0.12153992847E+03  0.00000000000E+00 0. -1.
</event>
<event>
 4    1  0.1679763E+006  0.2074582E+02  0.7546771E-02  0.1522925E+00
         21   -1    0    0  502  501  0.00000000000E+00  0.00000000000E+00  0.54129098809E+01  0.54129098809E+01  0.00000000000E+00 0.  1.
         21   -1    0    0  504  502 -0.00000000000E+00 -0.00000000000E+00 -0.53416194706E+03  0.53416194706E+03  0.00000000000E+00 0.  1.
         21    1    1    2  503  501 -0.13945163528E+01  0.20698897056E+02 -0.15475027491E+02  0.25881759813E+02  0.00000000000E+00 0.  1.
         21    1    1    2  504  503  0.13945163528E+01 -0.20698897056E+02 -0.51327400969E+03  0.51369309713E+03  0.00000000000E+00 0.  1.
</event>
<event>
 4    1  0.1679763E+006  0.2109305E+02  0.7546771E-02  0.1517940E+00
         21   -1    0    0  502  501  0.00000000000E+00  0.00000000000E+00  0.64066707238E+02  0.64066707238E+02  0.00000000000E+00 0.  1.
         21   -1    0    0  503  502 -0.00000000000E+00 -0.00000000000E+00 -0.17893394397E+02  0.17893394397E+02  0.00000000000E+00 0.  1.
         21    1    1    2  503  504  0.16079921777E+02  0.13651111612E+02 -0.89693606815E+01  0.22920867427E+02  0.00000000000E+00 0.  1.
         21    1    1    2  504  501 -0.16079921777E+02 -0.13651111612E+02  0.55142673523E+02  0.59039234208E+02  0.00000000000E+00 0.  1.
</event>
<event>
 4    1  0.1679763E+006  0.2122473E+02  0.7546771E-02  0.1516080E+00
         21   -1    0    0  503  501  0.00000000000E+00  0.00000000000E+00  0.49275749790E+01  0.49275749790E+01  0.00000000000E+00 0.  1.
         21   -1    0    0  504  502 -0.00000000000E+00 -0.00000000000E+00 -0.91684237062E+02  0.91684237062E+02  0.00000000000E+00 0.  1.
         21    1    1    2  503  502  0.17663422634E+02  0.11768296206E+02 -0.40795416684E+02  0.45986468848E+02  0.00000000000E+00 0.  1.
         21    1    1    2  504  501 -0.17663422634E+02 -0.11768296206E+02 -0.45961245399E+02  0.50625343193E+02  0.00000000000E+00 0.  1.
</event>
<event>
 4    1  0.1679763E+006  0.3192129E+02  0.7546771E-02  0.1403604E+00
         21   -1    0    0  504  501  0.00000000000E+00  0.00000000000E+00  0.24186928744E+03  0.24186928744E+03  0.00000000000E+00 0.  1.
         21   -1    0    0  503  502 -0.00000000000E+00 -0.00000000000E+00 -0.43364174540E+01  0.43364174540E+01  0.00000000000E+00 0. -1.
         21    1    1    2  503  501 -0.10040437367E+02  0.30301132524E+02  0.97989472833E+02  0.10305777894E+03  0.00000000000E+00 0. -1.
         21    1    1    2  504  502  0.10040437367E+02 -0.30301132524E+02  0.13954339715E+03  0.14314792595E+03  0.00000000000E+00 0.  1.
</event>
<event>
 4    1  0.1679763E+006  0.2274298E+02  0.7546771E-02  0.1495751E+00
         21   -1    0    0  504  501  0.00000000000E+00  0.00000000000E+00  0.39137137579E+02  0.39137137579E+02  0.00000000000E+00 0. -1.
         21   -1    0    0  503  502 -0.00000000000E+00 -0.00000000000E+00 -0.13787343668E+02  0.13787343668E+02  0.00000000000E+00 0.  1.
         21    1    1    2  503  501  0.22706265290E+02  0.12918285579E+01  0.18060918204E+02  0.29042039715E+02  0.00000000000E+00 0. -1.
         21    1    1    2  504  502 -0.22706265290E+02 -0.12918285579E+01  0.72888757076E+01  0.23882441532E+02  0.00000000000E+00 0.  1.
</event>
<event>
 4    1  0.1679763E+006  0.2532112E+02  0.7546771E-02  0.1465243E+00
         21   -1    0    0  502  501  0.00000000000E+00  0.00000000000E+00  0.14002733474E+03  0.14002733474E+03  0.00000000000E+00 0.  1.
         21   -1    0    0  504  502 -0.00000000000E+00 -0.00000000000E+00 -0.18400434229E+02  0.18400434229E+02  0.00000000000E+00 0.  1.
         21    1    1    2  503  501  0.24544998517E+02  0.62211230172E+01  0.12946759003E+03  0.13192049193E+03  0.00000000000E+00 0.  1.
         21    1    1    2  504  503 -0.24544998517E+02 -0.62211230172E+01 -0.78406895183E+01  0.26507277037E+02  0.00000000000E+00 0.  1.
</event>
<event>
 4    1  0.1679763E+006  0.2387741E+02  0.7546771E-02  0.1481765E+00
         21   -1    0    0  504  501  0.00000000000E+00  0.00000000000E+00  0.41149904826E+02  0.41149904826E+02  0.00000000000E+00 0. -1.
         21   -1    0    0  503  502 -0.00000000000E+00 -0.00000000000E+00 -0.18972442974E+02  0.18972442974E+02  0.00000000000E+00 0.  1.
         21    1    1    2  503  501  0.18960237930E+02  0.14513444739E+02 -0.45237558300E+01  0.24302161784E+02  0.00000000000E+00 0.  1.
         21    1    1    2  504  502 -0.18960237930E+02 -0.14513444739E+02  0.26701217682E+02  0.35820186017E+02  0.00000000000E+00 0. -1.
</event>
<event>
 4    1  0.1679763E+006  0.2318848E+02  0.7546771E-02  0.1490145E+00
         21   -1    0    0  504  501  0.00000000000E+00  0.00000000000E+00  0.20517688017E+02  0.20517688017E+02  0.00000000000E+00 0.  1.
         21   -1    0    0  503  502 -0.00000000000E+00 -0.00000000000E+00 -0.28290499988E+02  0.28290499988E+02  0.00000000000E+00 0.  1.
         21    1    1    2  503  501  0.14361198561E+02  0.18206091046E+02  0.27364544492E+01  0.23349388819E+02  0.00000000000E+00 0.  1.
         21    1    1    2  504  502 -0.14361198561E+02 -0.18206091046E+02 -0.10509266421E+02  0.25458799186E+02  0.00000000000E+00 0.  1.
</event>
<event>
 4    1  0.1679763E+006  0.2479566E+02  0.7546771E-02  0.1471102E+00
         21   -1    0    0  504  501  0.00000000000E+00  0.00000000000E+00  0.94517715090E+02  0.94517715090E+02  0.00000000000E+00 0. -1.
         21   -1    0    0  501  502 -0.00000000000E+00 -0.00000000000E+00 -0.38549506568E+02  0.38549506568E+02  0.00000000000E+00 0. -1.
         21    1    1    2  503  502 -0.24415759939E+02  0.43238324152E+01 -0.32676872538E+02  0.41019542403E+02  0.00000000000E+00 0. -1.
         21    1    1    2  504  503  0.24415759939E+02 -0.43238324152E+01  0.88645081059E+02  0.92047679255E+02  0.00000000000E+00 0. -1.
</event>
<event>
 4    1  0.1679763E+006  0.2714003E+02  0.7546771E-02  0.1446207E+00
         21   -1    0    0  504  501  0.00000000000E+00  0.00000000000E+00  0.12215909679E+03  0.12215909679E+03  0.00000000000E+00 0.  1.
         21   -1    0    0  501  502 -0.00000000000E+00 -0.00000000000E+00 -0.96236523683E+01  0.96236523683E+01  0.00000000000E+00 0.  1.
         21    1    1    2  503  502 -0.18367089477E+02 -0.19980773243E+02  0.16001074946E+02  0.31505803825E+02  0.00000000000E+00 0.  1.
         21    1    1    2  504  503  0.18367089477E+02  0.19980773243E+02  0.96534369479E+02  0.10027694534E+03  0.00000000000E+00 0.  1.
</event>
<event>
 4    1  0.1679763E+006  0.3451683E+02  0.7546771E-02  0.1383992E+00
         21   -1    0    0  504  501  0.00000000000E+00  0.00000000000E+00  0.23591449619E+03  0.23591449619E+03  0.00000000000E+00 0.  1.
         21   -1    0    0  501  502 -0.00000000000E+00 -0.00000000000E+00 -0.45955582002E+02  0.45955582002E+02  0.00000000000E+00 0. -1.
         21    1    1    2  503  502  0.62890225011E+01 -0.33939064135E+02 -0.37986403983E+02  0.51326199605E+02  0.00000000000E+00 0. -1.
         21    1    1    2  504  503 -0.62890225011E+01  0.33939064135E+02  0.22794531817E+03  0.23054387858E+03  0.00000000000E+00 0.  1.
</event>
<event>
 4    1  0.1679763E+006  0.3061354E+02  0.7546771E-02  0.1414338E+00
         21   -1    0    0  504  501  0.00000000000E+00  0.00000000000E+00  0.79395409690E+01  0.79395409690E+01  0.00000000000E+00 0. -1.
         21   -1    0    0  503  502 -0.00000000000E+00 -0.00000000000E+00 -0.11900638186E+03  0.11900638186E+03  0.00000000000E+00 0. -1.
         21    1    1    2  503  501 -0.16303416299E+02 -0.25911149135E+02 -0.49815751491E+02  0.58470489386E+02  0.00000000000E+00 0. -1.
         21    1    1    2  504  502  0.16303416299E+02  0.25911149135E+02 -0.61251089404E+02  0.68475433447E+02  0.00000000000E+00 0. -1.
</event>
<event>
 4    1  0.1679763E+006  0.3661087E+02  0.7546771E-02  0.1369579E+00
         21   -1    0    0  503  501  0.00000000000E+00  0.00000000000E+00  0.92067598433E+02  0.92067598433E+02  0.00000000000E+00 0.  1.
         21   -1    0    0  504  502 -0.00000000000E+00 -0.00000000000E+00 -0.71326952163E+02  0.71326952163E+02  0.00000000000E+00 0. -1.
         21    1    1    2  503  502 -0.36586202917E+02  0.13438216531E+01  0.83254739830E+02  0.90948929651E+02  0.00000000000E+00 0.  1.
         21    1    1    2  504  501  0.36586202917E+02 -0.13438216531E+01 -0.62514093560E+02  0.72445620946E+02  0.00000000000E+00 0. -1.
</event>
<event>
 4    1  0.1679763E+006  0.2103881E+02  0.7546771E-02  0.1518711E+00
         21   -1    0    0  503  501  0.00000000000E+00  0.00000000000E+00  0.26341842036E+03  0.26341842036E+03  0.00000000000E+00 0.  1.
         21   -1    0    0  504  502 -0.00000000000E+00 -0.00000000000E+00 -0.34621136394E+01  0.34621136394E+01  0.00000000000E+00 0. -1.
         21    1    1    2  503  502 -0.16698124568E+02 -0.12798591970E+02  0.22570705084E+03  0.22668547399E+03  0.00000000000E+00 0.  1.
         21    1    1    2  504  501  0.16698124568E+02  0.12798591970E+02  0.34249255878E+02  0.40195060004E+02  0.00000000000E+00 0. -1.
</event>
<event>
 4    1  0.1679763E+006  0.2332817E+02  0.7546771E-02  0.1488418E+00
         21   -1    0    0  504  501  0.00000000000E+00  0.00000000000E+00  0.72463714184E+02  0.72463714184E+02  0.00000000000E+00 0.  1.
         21   -1    0    0  501  502 -0.00000000000E+00 -0.00000000000E+00 -0.21958831359E+02  0.21958831359E+02  0.00000000000E+00 0. -1.
         21    1    1    2  503  502 -0.14502209953E+02 -0.18272635854E+02 -0.13043900144E+02  0.26727264087E+02  0.00000000000E+00 0. -1.
         21    1    1    2  504  503  0.14502209953E+02  0.18272635854E+02  0.63548782969E+02  0.67695281456E+02  0.00000000000E+00 0.  1.
</event>
<event>
 4    1  0.1679763E+006  0.2478451E+02  0.7546771E-02  0.1471229E+00
         21   -1    0    0  504  501  0.00000000000E+00  0.00000000000E+00  0.57624022763E+02  0.57624022763E+02  0.00000000000E+00 0. -1.
         21   -1    0    0  501  502 -0.00000000000E+00 -0.00000000000E+00 -0.57072407394E+02  0.57072407394E+02  0.00000000000E+00 0. -1.
         21    1    1    2  503  502  0.24681335210E+02  0.22591516476E+01 -0.51440065027E+02  0.57099495304E+02  0.00000000000E+00 0. -1.
         21    1    1    2  504  503 -0.24681335210E+02 -0.22591516476E+01  0.51991680397E+02  0.57596934852E+02  0.00000000000E+00 0. -1.
</event>
<event>
 4    1  0.1679763E+006  0.2109468E+02  0.7546771E-02  0.1517917E+00
         21   -1    0    0  502  501  0.00000000000E+00  0.00000000000E+00  0.35113282127E+01  0.35113282127E+01  0.00000000000E+00 0. -1.
         21   -1    0    0  504  502 -0.00000000000E+00 -0.00000000000E+00 -0.14216244256E+03  0.14216244256E+03  0.00000000000E+00 0. -1.
         21    1    1    2  503  501  0.12303013547E+02  0.17135381567E+02 -0.45326342980E+02  0.49994627829E+02  0.00000000000E+00 0. -1.
         21    1    1    2  504  503 -0.12303013547E+02 -0.17135381567E+02 -0.93324771367E+02  0.95679142944E+02  0.00000000000E+00 0. -1.
</event>
<event>
 4    1  0.1679763E+006  0.2315477E+02  0.7546771E-02  0.1490564E+00
         21   -1    0    0  503  501  0.00000000000E+00  0.00000000000E+00  0.18063666433E+03  0.18063666433E+03  0.00000000000E+00 0.  1.
         21   -1    0    0  504  502 -0.00000000000E+00 -0.00000000000E+00 -0.77955220256E+01  0.77955220256E+01  0.00000000000E+00 0. -1.
         21    1    1    2  503  502  0.22472632503E+02  0.55789057146E+01  0.16056204079E+03  0.16222303271E+03  0.00000000000E+00 0.  1.
         21    1    1    2  504  501 -0.22472632503E+02 -0.55789057146E+01  0.12279101515E+02  0.26209153641E+02  0.00000000000E+00 0. -1.
</event>
<event>
 4    1  0.1679763E+006  0.2898791E+02  0.7546771E-02  0.1428600E+00
         21   -1    0    0  504  501  0.00000000000E+00  0.00000000000E+00  0.16024386110E+03  0.16024386110E+03  0.00000000000E+00 0. -1.
         21   -1    0    0  503  502 -0.00000000000E+00 -0.00000000000E+00 -0.18153173160E+03  0.18153173160E+03  0.00000000000E+00 0. -1.
         21    1    1    2  503  501 -0.22579541688E+02 -0.18178646458E+02 -0.17904544168E+03  0.18137687029E+03  0.00000000000E+00 0. -1.
         21    1    1    2  504  502  0.22579541688E+02  0.18178646458E+02  0.15775757117E+03  0.16039872241E+03  0.00000000000E+00 0. -1.
</event>
<event>
 4    1  0.1679763E+006  0.3608360E+02  0.7546771E-02  0.1373101E+00
         21   -1    0    0  504  501  0.00000000000E+00  0.00000000000E+00  0.63480106527E+02  0.63480106527E+02  0.00000000000E+00 0. -1.
         21   -1    0    0  503  502 -0.00000000000E+00 -0.00000000000E+00 -0.96296750064E+02  0.96296750064E+02  0.00000000000E+00 0. -1.
         21    1    1    2  503  501  0.31255799133E+02  0.18030555891E+02 -0.87279963753E+02  0.94444788093E+02  0.00000000000E+00 0. -1.
         21    1    1    2  504  502 -0.31255799133E+02 -0.18030555891E+02  0.54463320216E+02  0.65332068497E+02  0.00000000000E+00 0. -1.
</event>
<event>
 4    1  0.1679763E+006  0.3162779E+02  0.7546771E-02  0.1405959E+00
         21   -1    0    0  503  501  0.00000000000E+00  0.00000000000E+00  0.20725281070E+02  0.20725281070E+02  0.00000000000E+00 0.  1.
         21   -1    0    0  504  502 -0.00000000000E+00 -0.00000000000E+00 -0.68406274588E+02  0.68406274588E+02  0.00000000000E+00 0. -1.
         21    1    1    2  503  502 -0.31152215179E+02 -0.54641307205E+01 -0.48022428503E+02  0.57501920615E+02  0.00000000000E+00 0. -1.
         21    1    1    2  504  501  0.31152215179E+02  0.54641307205E+01  0.34143498586E+00  0.31629635043E+02  0.00000000000E+00 0.  1.
</event>
<event>
 4    1  0.1679763E+006  0.2560365E+02  0.7546771E-02  0.1462162E+00
         21   -1    0    0  503  501  0.00000000000E+00  0.00000000000E+00  0.14927576809E+03  0.14927576809E+03  0.00000000000E+00 0.  1.
         21   -1    0    0  504  502 -0.00000000000E+00 -0.00000000000E+00 -0.66472003004E+01  0.66472003004E+01  0.00000000000E+00 0.  1.
         21    1    1    2  503  502 -0.23106257035E+02  0.11029404940E+02  0.25899223341E+02  0.36418630632E+02  0.00000000000E+00 0.  1.
         21    1    1    2  504  501  0.23106257035E+02 -0.11029404940E+02  0.11672934445E+03  0.11950433776E+03  0.00000000000E+00 0.  1.
</event>
<event>
 4    1  0.1679763E+006  0.4765100E+02  0.7546771E-02  0.1308691E+00
         21   -1    0    0  504  501  0.00000000000E+00  0.00000000000E+00  0.10482326884E+02  0.10482326884E+02  0.00000000000E+00 0. -1.
         21   -1    0    0  503  502 -0.00000000000E+00 -0.00000000000E+00 -0.21765462053E+03  0.21765462053E+03  0.00000000000E+00 0. -1.
         21    1    1    2  503  501  0.44400859871E+02 -0.17296860969E+02 -0.95698494392E+02  0.10690565741E+03  0.00000000000E+00 0. -1.
         21    1    1    2  504  502 -0.44400859871E+02  0.17296860969E+02 -0.11147379925E+03  0.12123129001E+03  0.00000000000E+00 0. -1.
</event>
<event>
 4    1  0.1679763E+006  0.2367268E+02  0.7546771E-02  0.1484220E+00
         21   -1    0    0  504  501  0.00000000000E+00  0.00000000000E+00  0.45669658526E+02  0.45669658526E+02  0.00000000000E+00 0. -1.
         21   -1    0    0  501  502 -0.00000000000E+00 -0.00000000000E+00 -0.69877952667E+02  0.69877952667E+02  0.00000000000E+00 0.  1.
         21    1    1    2  503  502 -0.62839259440E+01  0.22823407787E+02 -0.64560696568E+02  0.68763938293E+02  0.00000000000E+00 0.  1.
         21    1    1    2  504  503  0.62839259440E+01 -0.22823407787E+02  0.40352402428E+02  0.46783672899E+02  0.00000000000E+00 0. -1.
</event>
<event>
 4    1  0.1679763E+006  0.2127093E+02  0.7546771E-02  0.1515432E+00
         21   -1    0    0  504  501  0.00000000000E+00  0.00000000000E+00  0.50120230170E+02  0.50120230170E+02  0.00000000000E+00 0. -1.
         21   -1    0    0  501  502 -0.00000000000E+00 -0.00000000000E+00 -0.40699664185E+03  0.40699664185E+03  0.00000000000E+00 0.  1.
         21    1    1    2  503  502  0.15034004835E+02 -0.15047630301E+02 -0.40444767120E+03  0.40500663108E+03  0.00000000000E+00 0.  1.
         21    1    1    2  504  503 -0.15034004835E+02  0.15047630301E+02  0.47571259518E+02  0.52110240943E+02  0.00000000000E+00 0. -1.
</event>
<event>
 4    1  0.1679763E+006  0.5472648E+02  0.7546771E-02  0.1278885E+00
         21   -1    0    0  502  501  0.00000000000E+00  0.00000000000E+00  0.56676496301E+02  0.56676496301E+02  0.00000000000E+00 0.  1.
         21   -1    0    0  503  502 -0.00000000000E+00 -0.00000000000E+00 -0.11734185800E+03  0.11734185800E+03  0.00000000000E+00 0.  1.
         21    1    1    2  503  504 -0.67427902238E+01 -0.54309503606E+02 -0.94840555609E+02  0.10949757253E+03  0.00000000000E+00 0.  1.
         21    1    1    2  504  501  0.67427902238E+01  0.54309503606E+02  0.34175193907E+02  0.64520781773E+02  0.00000000000E+00 0.  1.
</event>
<event>
 4    1  0.1679763E+006  0.6798918E+02  0.7546771E-02  0.1234864E+00
         21   -1    0    0  503  501  0.00000000000E+00  0.00000000000E+00  0.48064524439E+02  0.48064524439E+02  0.00000000000E+00 0. -1.
         21   -1    0    0  504  502 -0.00000000000E+00 -0.00000000000E+00 -0.12861771920E+03  0.12861771920E+03  0.00000000000E+00 0. -1.
         21    1    1    2  503  502  0.34327452384E+02  0.58686924417E+02 -0.84645817172E+02  0.10856999332E+03  0.00000000000E+00 0. -1.
         21    1    1    2  504  501 -0.34327452384E+02 -0.58686924417E+02  0.40926224144E+01  0.68112250315E+02  0.00000000000E+00 0. -1.
</event>
<event>
 4    1  0.1679763E+006  0.2340749E+02  0.7546771E-02  0.1487444E+00
         21   -1    0    0  502  501  0.00000000000E+00  0.00000000000E+00  0.11552910879E+02  0.11552910879E+02  0.00000000000E+00 0. -1.
         21   -1    0    0  504  502 -0.00000000000E+00 -0.00000000000E+00 -0.48351002314E+02  0.48351002314E+02  0.00000000000E+00 0. -1.
         21    1    1    2  503  501 -0.17459095178E+02 -0.15591360122E+02 -0.14256666066E+02  0.27407353798E+02  0.00000000000E+00 0. -1.
         21    1    1    2  504  503  0.17459095178E+02  0.15591360122E+02 -0.22541425368E+02  0.32496559395E+02  0.00000000000E+00 0. -1.
</event>
<event>
 4    1  0.1679763E+006  0.2574721E+02  0.7546771E-02  0.1460615E+00
         21   -1    0    0  503  501  0.00000000000E+00  0.00000000000E+00  0.23612858326E+02  0.23612858326E+02  0.00000000000E+00 0. -1.
         21   -1    0    0  504  502 -0.00000000000E+00 -0.00000000000E+00 -0.46852998276E+02  0.46852998276E+02  0.00000000000E+00 0. -1.
         21    1    1    2  503  502 -0.61733771879E+01 -0.24996162698E+02  0.10685365085E+02  0.27876437407E+02  0.00000000000E+00 0. -1.
         21    1    1    2  504  501  0.61733771879E+01  0.24996162698E+02 -0.33925505035E+02  0.42589419195E+02  0.00000000000E+00 0. -1.
</event>
<event>
 4    1  0.1679763E+006  0.2057908E+02  0.7546771E-02  0.1525360E+00
         21   -1    0    0  502  501  0.00000000000E+00  0.00000000000E+00  0.51622889768E+02  0.51622889768E+02  0.00000000000E+00 0.  1.
         21   -1    0    0  504  502 -0.00000000000E+00 -0.00000000000E+00 -0.77648438273E+02  0.77648438273E+02  0.00000000000E+00 0. -1.
         21    1    1    2  503  501  0.30915720201E+00  0.20576761555E+02  0.48113162156E+02  0.52329485636E+02  0.00000000000E+00 0.  1.
         21    1    1    2  504  503 -0.30915720201E+00 -0.20576761555E+02 -0.74138710661E+02  0.76941842406E+02  0.00000000000E+00 0. -1.
</event>
<event>
 4    1  0.1679763E+006  0.2227449E+02  0.7546771E-02  0.1501815E+00
         21   -1    0    0  504  501  0.00000000000E+00  0.00000000000E+00  0.29240727913E+02  0.29240727913E+02  0.00000000000E+00 0.  1.
         21   -1    0    0  503  502 -0.00000000000E+00 -0.00000000000E+00 -0.10984610161E+04  0.10984610161E+04  0.00000000000E+00 0.  1.
         21    1    1    2  503  501 -0.21845931690E+02  0.43483421060E+01  0.24868892353E+02  0.33385844565E+02  0.00000000000E+00 0.  1.
         21    1    1    2  504  502  0.21845931690E+02 -0.43483421060E+01 -0.10940891805E+04  0.10943158994E+04  0.00000000000E+00 0.  1.
</event>
<event>
 4    1  0.1679763E+006  0.2132503E+02  0.7546771E-02  0.1514675E+00
         21   -1    0    0  504  501  0.00000000000E+00  0.00000000000E+00  0.37761828079E+03  0.37761828079E+03  0.00000000000E+00 0.  1.
         21   -1    0    0  503  502 -0.00000000000E+00 -0.00000000000E+00 -0.11066176142E+02  0.11066176142E+02  0.00000000000E+00 0.  1.
         21    1    1    2  503  501 -0.15122817415E+02 -0.15035204908E+02 -0.18702266381E+00  0.21325852168E+02  0.00000000000E+00 0.  1.
         21    1    1    2  504  502  0.15122817415E+02  0.15035204908E+02  0.36673912731E+03  0.36735860476E+03  0.00000000000E+00 0.  1.
</event>
<event>
 4    1  0.1679763E+006  0.3913533E+02  0.7546771E-02  0.1353629E+00
         21   -1    0    0  502  501  0.00000000000E+00  0.00000000000E+00  0.22332588213E+03  0.22332588213E+03  0.00000000000E+00 0. -1.
         21   -1    0    0  504  502 -0.00000000000E+00 -0.00000000000E+00 -0.36141923722E+02  0.36141923722E+02  0.00000000000E+00 0.  1.
         21    1    1    2  503  501 -0.23689199227E+02 -0.31151174148E+02  0.21037032568E+03  0.21397954981E+03  0.00000000000E+00 0. -1.
         21    1    1    2  504  503  0.23689199227E+02  0.31151174148E+02 -0.23186367269E+02  0.45488256044E+02  0.00000000000E+00 0.  1.
</event>
<event>
 4    1  0.1679763E+006  0.2238583E+02  0.7546771E-02  0.1500358E+00
         21   -1    0    0  503  501  0.00000000000E+00  0.00000000000E+00  0.79610515633E+02  0.79610515633E+02  0.00000000000E+00 0. -1.
         21   -1    0    0  504  502 -0.00000000000E+00 -0.00000000000E+00 -0.18835539131E+02  0.18835539131E+02  0.00000000000E+00 0.  1.
         21    1    1    2  503  502  0.11521675641E+02  0.19193129204E+02 -0.97770144890E+01  0.24427755331E+02  0.00000000000E+00 0.  1.
         21    1    1    2  504  501 -0.11521675641E+02 -0.19193129204E+02  0.70551990991E+02  0.74018299434E+02  0.00000000000E+00 0. -1.
</event>
<event>
 4    1  0.1679763E+006  0.3691865E+02  0.7546771E-02  0.1367554E+00
         21   -1    0    0  504  501  0.00000000000E+00  0.00000000000E+00  0.10281968506E+02  0.10281968506E+02  0.00000000000E+00 0. -1.
         21   -1    0    0  503  502 -0.00000000000E+00 -0.00000000000E+00 -0.13744706767E+03  0.13744706767E+03  0.00000000000E+00 0. -1.
         21    1    1    2  503  501  0.36478029654E+02 -0.56868243106E+01 -0.77509433584E+02  0.85852774636E+02  0.00000000000E+00 0. -1.
         21    1    1    2  504  502 -0.36478029654E+02  0.56868243106E+01 -0.49655665584E+02  0.61876261544E+02  0.00000000000E+00 0. -1.
</event>
<event>
 4    1  0.1679763E+006  0.2340043E+02  0.7546771E-02  0.1487530E+00
         21   -1    0    0  503  501  0.00000000000E+00  0.00000000000E+00  0.42023387863E+02  0.42023387863E+02  0.00000000000E+00 0.  1.
         21   -1    0    0  501  502 -0.00000000000E+00 -0.00000000000E+00 -0.13221962563E+02  0.13221962563E+02  0.00000000000E+00 0.  1.
         21    1    1    2  503  504 -0.13085393253E+02 -0.19399814349E+02  0.17725826630E+02  0.29356178959E+02  0.00000000000E+00 0.  1.
         21    1    1    2  504  502  0.13085393253E+02  0.19399814349E+02  0.11075598669E+02  0.25889171467E+02  0.00000000000E+00 0.  1.
</event>
<event>
 4    1  0.1679763E+006  0.2397040E+02  0.7546771E-02  0.1480659E+00
         21   -1    0    0  502  501  0.00000000000E+00  0.00000000000E+00  0.90768972023E+03  0.90768972023E+03  0.00000000000E+00 0.  1.
         21   -1    0    0  503  502 -0.00000000000E+00 -0.00000000000E+00 -0.13905954308E+01  0.13905954308E+01  0.00000000000E+00 0.  1.
         21    1    1    2  503  504  0.58869049050E+01  0.23236277501E+02  0.11765418660E+03  0.12007117833E+03  0.00000000000E+00 0.  1.
         21    1    1    2  504  501 -0.58869049050E+01 -0.23236277501E+02  0.78864493820E+03  0.78900913733E+03  0.00000000000E+00 0.  1.
</event>
<event>
 4    1  0.1679763E+006  0.4962133E+02  0.7546771E-02  0.1299823E+00
         21   -1    0    0  502  501  0.00000000000E+00  0.00000000000E+00  0.21765343330E+03  0.21765343330E+03  0.00000000000E+00 0. -1.
         21   -1    0    0  504  502 -0.00000000000E+00 -0.00000000000E+00 -0.50014435133E+02  0.50014435133E+02  0.00000000000E+00 0. -1.
         21    1    1    2  503  501  0.30769147892E+02  0.38929889506E+02  0.20154838584E+03  0.20756692558E+03  0.00000000000E+00 0. -1.
         21    1    1    2  504  503 -0.30769147892E+02 -0.38929889506E+02 -0.33909387677E+02  0.60100942851E+02  0.00000000000E+00 0. -1.
</event>
<event>
 4    1  0.1679763E+006  0.2754999E+02  0.7546771E-02  0.1442160E+00
         21   -1    0    0  503  501  0.00000000000E+00  0.00000000000E+00  0.24553276853E+02  0.24553276853E+02  0.00000000000E+00 0. -1.
         21   -1    0    0  504  502 -0.00000000000E+00 -0.00000000000E+00 -0.55876609831E+02  0.55876609831E+02  0.00000000000E+00 0. -1.
         21    1    1    2  503  502  0.27386402594E+02  0.29978484386E+01  0.11218431251E+02  0.29746518149E+02  0.00000000000E+00 0. -1.
         21    1    1    2  504  501 -0.27386402594E+02 -0.29978484386E+01 -0.42541764229E+02  0.50683368535E+02  0.00000000000E+00 0. -1.
</event>
<event>
 4    1  0.1679763E+006  0.2430011E+02  0.7546771E-02  0.1476787E+00
         21   -1    0    0  503  501  0.00000000000E+00  0.00000000000E+00  0.54988212715E+02  0.54988212715E+02  0.00000000000E+00 0. -1.
         21   -1    0    0  504  502 -0.00000000000E+00 -0.00000000000E+00 -0.11629065877E+02  0.11629065877E+02  0.00000000000E+00 0.  1.
         21    1    1    2  503  502  0.18680862236E+02  0.15540943037E+02  0.30896732723E+02  0.39307806061E+02  0.00000000000E+00 0. -1.
         21    1    1    2  504  501 -0.18680862236E+02 -0.15540943037E+02  0.12462414115E+02  0.27309472531E+02  0.00000000000E+00 0.  1.
</event>
<event>
 4    1  0.1679763E+006  0.2489151E+02  0.7546771E-02  0.1470021E+00
         21   -1    0    0  503  501  0.00000000000E+00  0.00000000000E+00  0.99003361183E+02  0.99003361183E+02  0.00000000000E+00 0.  1.
         21   -1    0    0  504  502 -0.00000000000E+00 -0.00000000000E+00 -0.64007346485E+01  0.64007346485E+01  0.00000000000E+00 0.  1.
         21    1    1    2  503  502  0.66781661430E+01 -0.23978938021E+02  0.38438047002E+02  0.45793785922E+02  0.00000000000E+00 0.  1.
         21    1    1    2  504  501 -0.66781661430E+01  0.23978938021E+02  0.54164579532E+02  0.59610309910E+02  0.00000000000E+00 0.  1.
</event>
<event>
 4    1  0.1679763E+006  0.3021785E+02  0.7546771E-02  0.1417712E+00
         21   -1    0    0  504  501  0.00000000000E+00  0.00000000000E+00  0.67452201705E+02  0.67452201705E+02  0.00000000000E+00 0.  1.
         21   -1    0    0  501  502 -0.00000000000E+00 -0.00000000000E+00 -0.13986377286E+02  0.13986377286E+02  0.00000000000E+00 0.  1.
         21    1    1    2  503  502 -0.26468702525E+02 -0.14578288311E+02  0.19436281645E+02  0.35928926335E+02  0.00000000000E+00 0.  1.
         21    1    1    2  504  503  0.26468702525E+02  0.14578288311E+02  0.34029542774E+02  0.45509652655E+02  0.00000000000E+00 0.  1.
</event>
<event>
 4    1  0.1679763E+006  0.2321451E+02  0.7546771E-02  0.1489822E+00
         21   -1    0    0  502  501  0.00000000000E+00  0.00000000000E+00  0.23239032447E+01  0.23239032447E+01  0.00000000000E+00 0.  1.
         21   -1    0    0  504  502 -0.00000000000E+00 -0.00000000000E+00 -0.26066005164E+03  0.26066005164E+03  0.00000000000E+00 0.  1.
         21    1    1    2  503  501 -0.20810163440E+02  0.10288362782E+02 -0.85490715657E+02  0.88586543982E+02  0.00000000000E+00 0.  1.
         21    1    1    2  504  503  0.20810163440E+02 -0.10288362782E+02 -0.17284543274E+03  0.17439741091E+03  0.00000000000E+00 0.  1.
</event>
<event>
 4    1  0.1679763E+006  0.2350421E+02  0.7546771E-02  0.1486262E+00
         21   -1    0    0  503  501  0.00000000000E+00  0.00000000000E+00  0.37044310891E+02  0.37044310891E+02  0.00000000000E+00 0.  1.
         21   -1    0    0  504  502 -0.00000000000E+00 -0.00000000000E+00 -0.43837879927E+02  0.43837879927E+02  0.00000000000E+00 0.  1.
         21    1    1    2  503  502 -0.54390219082E+00 -0.23497919638E+02  0.29453009847E+02  0.37681929966E+02  0.00000000000E+00 0.  1.
         21    1    1    2  504  501  0.54390219082E+00  0.23497919638E+02 -0.36246578884E+02  0.43200260852E+02  0.00000000000E+00 0.  1.
</event>
<event>
 4    1  0.1679763E+006  0.2233864E+02  0.7546771E-02  0.1500974E+00
         21   -1    0    0  504  501  0.00000000000E+00  0.00000000000E+00  0.79809124749E+02  0.79809124749E+02  0.00000000000E+00 0.  1.
         21   -1    0    0  501  502 -0.00000000000E+00 -0.00000000000E+00 -0.12777617591E+02  0.12777617591E+02  0.00000000000E+00 0. -1.
         21    1    1    2  503  502  0.76591084663E+01  0.20984587182E+02  0.43430032051E+00  0.22342861465E+02  0.00000000000E+00 0. -1.
         21    1    1    2  504  503 -0.76591084663E+01 -0.20984587182E+02  0.66597206838E+02  0.70243880875E+02  0.00000000000E+00 0.  1.
</event>
<event>
 4    1  0.1679763E+006  0.2106806E+02  0.7546771E-02  0.1518295E+00
         21   -1    0    0  503  501  0.00000000000E+00  0.00000000000E+00  0.64327894930E+03  0.64327894930E+03  0.00000000000E+00 0.  1.
         21   -1    0    0  504  502 -0.00000000000E+00 -0.00000000000E+00 -0.12479892620E+02  0.12479892620E+02  0.00000000000E+00 0. -1.
         21    1    1    2  503  502 -0.21042887329E+02 -0.10295315751E+01  0.63408601160E+03  0.63443591729E+03  0.00000000000E+00 0.  1.
         21    1    1    2  504  501  0.21042887329E+02  0.10295315751E+01 -0.32869549125E+01  0.21322924635E+02  0.00000000000E+00 0. -1.
</event>
<event>
 4    1  0.1679763E+006  0.2521278E+02  0.7546771E-02  0.1466437E+00
         21   -1    0    0  503  501  0.00000000000E+00  0.00000000000E+00  0.19397707236E+01  0.19397707236E+01  0.00000000000E+00 0.  1.
         21   -1    0    0  504  502 -0.00000000000E+00 -0.00000000000E+00 -0.68667250674E+03  0.68667250674E+03  0.00000000000E+00 0.  1.
         21    1    1    2  503  502 -0.25065819401E+02  0.27182967437E+01 -0.93426873989E+02  0.96769133627E+02  0.00000000000E+00 0.  1.
         21    1    1    2  504  501  0.25065819401E+02 -0.27182967437E+01 -0.59130586203E+03  0.59184314384E+03  0.00000000000E+00 0.  1.
</event>
<event>
 4    1  0.1679763E+006  0.2614144E+02  0.7546771E-02  0.1456428E+00
         21   -1    0    0  502  501  0.00000000000E+00  0.00000000000E+00  0.20910579166E+02  0.20910579166E+02  0.00000000000E+00 0.  1.
         21   -1    0    0  503  502 -0.00000000000E+00 -0.00000000000E+00 -0.10253144698E+03  0.10253144698E+03  0.00000000000E+00 0.  1.
         21    1    1    2  503  504 -0.26122779487E+02  0.98766030588E+00 -0.91754033257E+02  0.95405333708E+02  0.00000000000E+00 0.  1.
         21    1    1    2  504  501  0.26122779487E+02 -0.98766030588E+00  0.10133165443E+02  0.28036692439E+02  0.00000000000E+00 0.  1.
</event>
<event>
 4    1  0.1679763E+006  0.2587645E+02  0.7546771E-02  0.1459233E+00
         21   -1    0    0  504  501  0.00000000000E+00  0.00000000000E+00  0.48042843538E+03  0.48042843538E+03  0.00000000000E+00 0.  1.
         21   -1    0    0  503  502 -0.00000000000E+00 -0.00000000000E+00 -0.19373532175E+01  0.19373532175E+01  0.00000000000E+00 0.  1.
         21    1    1    2  503  501  0.25293976018E+02 -0.54594144614E+01  0.36700371060E+03  0.36791481897E+03  0.00000000000E+00 0.  1.
         21    1    1    2  504  502 -0.25293976018E+02  0.54594144614E+01  0.11148737157E+03  0.11445096963E+03  0.00000000000E+00 0.  1.
</event>
<event>
 4    1  0.1679763E+006  0.2104748E+02  0.7546771E-02  0.1518588E+00
         21   -1    0    0  502  501  0.00000000000E+00  0.00000000000E+00  0.60320089101E+02  0.60320089101E+02  0.00000000000E+00 0. -1.
         21   -1    0    0  504  502 -0.00000000000E+00 -0.00000000000E+00 -0.22267930514E+03  0.22267930514E+03  0.00000000000E+00 0. -1.
         21    1    1    2  503  501 -0.16218953024E+01 -0.20984896327E+02  0.57967154614E+02  0.61669988100E+02  0.00000000000E+00 0. -1.
         21    1    1    2  504  503  0.16218953024E+01  0.20984896327E+02 -0.22032637065E+03  0.22132940614E+03  0.00000000000E+00 0. -1.
</event>
<event>
 4    1  0.1679763E+006  0.2131320E+02  0.7546771E-02  0.1514840E+00
         21   -1    0    0  504  501  0.00000000000E+00  0.00000000000E+00  0.18075922646E+02  0.18075922646E+02  0.00000000000E+00 0. -1.
         21   -1    0    0  503  502 -0.00000000000E+00 -0.00000000000E+00 -0.46439921470E+02  0.46439921470E+02  0.00000000000E+00 0.  1.
         21    1    1    2  503  501  0.16043096868E+02 -0.14031086412E+02  0.76693916892E+01  0.22651090744E+02  0.00000000000E+00 0. -1.
         21    1    1    2  504  502 -0.16043096868E+02  0.14031086412E+02 -0.36033390513E+02  0.41864753372E+02  0.00000000000E+00 0.  1.
</event>
<event>
 4    1  0.1679763E+006  0.2945453E+02  0.7546771E-02  0.1424397E+00
         21   -1    0    0  503  501  0.00000000000E+00  0.00000000000E+00  0.43046659395E+03  0.43046659395E+03  0.00000000000E+00 0.  1.
         21   -1    0    0  504  502 -0.00000000000E+00 -0.00000000000E+00 -0.51784435270E+02  0.51784435270E+02  0.00000000000E+00 0.  1.
         21    1    1    2  503  502 -0.13079954899E+02  0.26390981192E+02  0.42572780675E+03  0.42674551497E+03  0.00000000000E+00 0.  1.
         21    1    1    2  504  501  0.13079954899E+02 -0.26390981192E+02 -0.47045648076E+02  0.55505514243E+02  0.00000000000E+00 0.  1.
</event>
<event>
 4    1  0.1679763E+006  0.2495551E+02  0.7546771E-02  0.1469302E+00
         21   -1    0    0  503  501  0.00000000000E+00  0.00000000000E+00  0.51309607867E+02  0.51309607867E+02  0.00000000000E+00 0. -1.
         21   -1    0    0  504  502 -0.00000000000E+00 -0.00000000000E+00 -0.12187466645E+02  0.12187466645E+02  0.00000000000E+00 0. -1.
         21    1    1    2  503  502  0.68320550341E+01 -0.24002094154E+02  0.21591098443E+02  0.32999288352E+02  0.00000000000E+00 0. -1.
         21    1    1    2  504  501 -0.68320550341E+01  0.24002094154E+02  0.17531042780E+02  0.30497786161E+02  0.00000000000E+00 0. -1.
</event>
<event>
 4    1  0.1679763E+006  0.2230854E+02  0.7546771E-02  0.1501368E+00
         21   -1    0    0  503  501  0.00000000000E+00  0.00000000000E+00  0.43801883046E+02  0.43801883046E+02  0.00000000000E+00 0. -1.
         21   -1    0    0  504  502 -0.00000000000E+00 -0.00000000000E+00 -0.15862263942E+02  0.15862263942E+02  0.00000000000E+00 0.  1.
         21    1    1    2  503  502  0.16830376425E+02  0.14642720179E+02 -0.19202909623E+01  0.22391032630E+02  0.00000000000E+00 0.  1.
         21    1    1    2  504  501 -0.16830376425E+02 -0.14642720179E+02  0.29859910066E+02  0.37273114358E+02  0.00000000000E+00 0. -1.
</event>
<event>
 4    1  0.1679763E+006  0.2007343E+02  0.7546771E-02  0.1532916E+00
         21   -1    0    0  502  501  0.00000000000E+00  0.00000000000E+00  0.80103749228E+03  0.80103749228E+03  0.00000000000E+00 0. -1.
         21   -1    0    0  504  502 -0.00000000000E+00 -0.00000000000E+00 -0.90798040850E+02  0.90798040850E+02  0.00000000000E+00 0.  1.
         21    1    1    2  503  501 -0.14964814968E+02  0.13378966260E+02  0.79980057342E+03  0.80005243558E+03  0.00000000000E+00 0. -1.
         21    1    1    2  504  503  0.14964814968E+02 -0.13378966260E+02 -0.89561121989E+02  0.91783097557E+02  0.00000000000E+00 0.  1.
</event>
<event>
 4    1  0.1679763E+006  0.3850286E+02  0.7546771E-02  0.1357490E+00
         21   -1    0    0  504  501  0.00000000000E+00  0.00000000000E+00  0.22680532626E+03  0.22680532626E+03  0.00000000000E+00 0.  1.
         21   -1    0    0  503  502 -0.00000000000E+00 -0.00000000000E+00 -0.92355249532E+01  0.92355249532E+01  0.00000000000E+00 0.  1.
         21    1    1    2  503  501 -0.30274275807E+02 -0.23789455800E+02  0.17258848799E+03  0.17683115158E+03  0.00000000000E+00 0.  1.
         21    1    1    2  504  502  0.30274275807E+02  0.23789455800E+02  0.44981313320E+02  0.59209699635E+02  0.00000000000E+00 0.  1.
</event>
<event>
 4    1  0.1679763E+006  0.2424661E+02  0.7546771E-02  0.1477411E+00
         21   -1    0    0  503  501  0.00000000000E+00  0.00000000000E+00  0.18126815166E+02  0.18126815166E+02  0.00000000000E+00 0. -1.
         21   -1    0    0  504  502 -0.00000000000E+00 -0.00000000000E+00 -0.41975128437E+03  0.41975128437E+03  0.00000000000E+00 0.  1.
         21    1    1    2  503  502  0.25752149329E+01 -0.24109463484E+02  0.94985246135E+01  0.26040735997E+02  0.00000000000E+00 0. -1.
         21    1    1    2  504  501 -0.25752149329E+01  0.24109463484E+02 -0.41112299381E+03  0.41183736353E+03  0.00000000000E+00 0.  1.
</event>
<event>
 4    1  0.1679763E+006  0.3194465E+02  0.7546771E-02  0.1403418E+00
         21   -1    0    0  504  501  0.00000000000E+00  0.00000000000E+00  0.37075548557E+03  0.37075548557E+03  0.00000000000E+00 0. -1.
         21   -1    0    0  503  502 -0.00000000000E+00 -0.00000000000E+00 -0.14829858199E+02  0.14829858199E+02  0.00000000000E+00 0.  1.
         21    1    1    2  503  501 -0.13570020772E+02  0.28919113903E+02  0.39784882772E+01  0.32191442677E+02  0.00000000000E+00 0.  1.
         21    1    1    2  504  502  0.13570020772E+02 -0.28919113903E+02  0.35194713909E+03  0.35339390109E+03  0.00000000000E+00 0. -1.
</event>
<event>
 4    1  0.1679763E+006  0.2337371E+02  0.7546771E-02  0.1487858E+00
         21   -1    0    0  504  501  0.00000000000E+00  0.00000000000E+00  0.46140909084E+01  0.46140909084E+01  0.00000000000E+00 0. -1.
         21   -1    0    0  503  502 -0.00000000000E+00 -0.00000000000E+00 -0.17102791091E+04  0.17102791091E+04  0.00000000000E+00 0.  1.
         21    1    1    2  503  501  0.12341687395E+02  0.19849765199E+02 -0.16800657483E+04  0.16802283324E+04  0.00000000000E+00 0.  1.
         21    1    1    2  504  502 -0.12341687395E+02 -0.19849765199E+02 -0.25599269872E+02  0.34664867578E+02  0.00000000000E+00 0. -1.
</event>
<event>
 4    1  0.1679763E+006  0.5495827E+02  0.7546771E-02  0.1277997E+00
         21   -1    0    0  503  501  0.00000000000E+00  0.00000000000E+00  0.21169275496E+03  0.21169275496E+03  0.00000000000E+00 0.  1.
         21   -1    0    0  504  502 -0.00000000000E+00 -0.00000000000E+00 -0.42586721629E+02  0.42586721629E+02  0.00000000000E+00 0. -1.
         21    1    1    2  503  502  0.54820801376E+02 -0.38847289179E+01 -0.19123831508E+02  0.58190483018E+02  0.00000000000E+00 0. -1.
         21    1    1    2  504  501 -0.54820801376E+02  0.38847289179E+01  0.18822986484E+03  0.19608899357E+03  0.00000000000E+00 0.  1.
</event>
<event>
 4    1  0.1679763E+006  0.2418290E+02  0.7546771E-02  0.1478156E+00
         21   -1    0    0  503  501  0.00000000000E+00  0.00000000000E+00  0.18763741607E+03  0.18763741607E+03  0.00000000000E+00 0. -1.
         21   -1    0    0  504  502 -0.00000000000E+00 -0.00000000000E+00 -0.38360569610E+01  0.38360569610E+01  0.00000000000E+00 0. -1.
         21    1    1    2  503  502  0.24182459394E+02  0.14546841335E+00  0.13335822110E+03  0.13553312377E+03  0.00000000000E+00 0. -1.
         21    1    1    2  504  501 -0.24182459394E+02 -0.14546841335E+00  0.50443138007E+02  0.55940349261E+02  0.00000000000E+00 0. -1.
</event>
<event>
 4    1  0.1679763E+006  0.2090088E+02  0.7546771E-02  0.1520685E+00
         21   -1    0    0  504  501  0.00000000000E+00  0.00000000000E+00  0.30212869064E+02  0.30212869064E+02  0.00000000000E+00 0. -1.
         21   -1    0    0  501  502 -0.00000000000E+00 -0.00000000000E+00 -0.17083915006E+03  0.17083915006E+03  0.00000000000E+00 0. -1.
         21    1    1    2  503  502 -0.20581178797E+02  0.36416865279E+01 -0.16649111006E+03  0.16779790383E+03  0.00000000000E+00 0. -1.
         21    1    1    2  504  503  0.20581178797E+02 -0.36416865279E+01  0.25864829063E+02  0.33254115293E+02  0.00000000000E+00 0. -1.
</event>
<event>
 4    1  0.1679763E+006  0.2503818E+02  0.7546771E-02  0.1468377E+00
         21   -1    0    0  504  501  0.00000000000E+00  0.00000000000E+00  0.12520866009E+04  0.12520866009E+04  0.00000000000E+00 0. -1.
         21   -1    0    0  503  502 -0.00000000000E+00 -0.00000000000E+00 -0.87504869202E+00  0.87504869202E+00  0.00000000000E+00 0. -1.
         21    1    1    2  503  501  0.21319282878E+02 -0.13130057878E+02  0.21584135910E+03  0.21728875383E+03  0.00000000000E+00 0. -1.
         21    1    1    2  504  502 -0.21319282878E+02  0.13130057878E+02  0.10353701931E+04  0.10356728957E+04  0.00000000000E+00 0. -1.
</event>
<event>
 4    1  0.1679763E+006  0.2431037E+02  0.7546771E-02  0.1476668E+00
         21   -1    0    0  504  501  0.00000000000E+00  0.00000000000E+00  0.10509912702E+03  0.10509912702E+03  0.00000000000E+00 0. -1.
         21   -1    0    0  503  502 -0.00000000000E+00 -0.00000000000E+00 -0.19087429219E+03  0.19087429219E+03  0.00000000000E+00 0.  1.
         21    1    1    2  503  501 -0.17589829764E+02  0.16780698641E+02  0.10290296820E+03  0.10573558919E+03  0.00000000000E+00 0. -1.
         21    1    1    2  504  502  0.17589829764E+02 -0.16780698641E+02 -0.18867813337E+03  0.19023783002E+03  0.00000000000E+00 0.  1.
</event>
<event>
 4    1  0.1679763E+006  0.2022379E+02  0.7546771E-02  0.1530642E+00
         21   -1    0    0  504  501  0.00000000000E+00  0.00000000000E+00  0.50992532906E+03  0.50992532906E+03  0.00000000000E+00 0. -1.
         21   -1    0    0  503  502 -0.00000000000E+00 -0.00000000000E+00 -0.33622271694E+01  0.33622271694E+01  0.00000000000E+00 0. -1.
         21    1    1    2  503  501 -0.18688554155E+02  0.77291337284E+01  0.29332322877E+02  0.35628453937E+02  0.00000000000E+00 0. -1.
         21    1    1    2  504  502  0.18688554155E+02 -0.77291337284E+01  0.47723077901E+03  0.47765910229E+03  0.00000000000E+00 0. -1.
</event>
<event>
 4    1  0.1679763E+006  0.2164953E+02  0.7546771E-02  0.1510190E+00
         21   -1    0    0  502  501  0.00000000000E+00  0.00000000000E+00  0.33660268474E+02  0.33660268474E+02  0.00000000000E+00 0. -1.
         21   -1    0    0  503  502 -0.00000000000E+00 -0.00000000000E+00 -0.54568440636E+02  0.54568440636E+02  0.00000000000E+00 0. -1.
         21    1    1    2  503  504 -0.21433533336E+02  0.30505653281E+01 -0.48526207691E+02  0.53136570580E+02  0.00000000000E+00 0. -1.
         21    1    1    2  504  501  0.21433533336E+02 -0.30505653281E+01  0.27618035529E+02  0.35092138529E+02  0.00000000000E+00 0. -1.
</event>
<event>
 4    1  0.1679763E+006  0.2130682E+02  0.7546771E-02  0.1514929E+00
         21   -1    0    0  504  501  0.00000000000E+00  0.00000000000E+00  0.21700344212E+02  0.21700344212E+02  0.00000000000E+00 0.  1.
         21   -1    0    0  503  502 -0.00000000000E+00 -0.00000000000E+00 -0.32206851311E+03  0.32206851311E+03  0.00000000000E+00 0.  1.
         21    1    1    2  503  501  0.20841924909E+02  0.44265942846E+01  0.16024117397E+02  0.26659949535E+02  0.00000000000E+00 0.  1.
         21    1    1    2  504  502 -0.20841924909E+02 -0.44265942846E+01 -0.31639228630E+03  0.31710890779E+03  0.00000000000E+00 0.  1.
</event>
<event>
 4    1  0.1679763E+006  0.2256558E+02  0.7546771E-02  0.1498026E+00
         21   -1    0    0  503  501  0.00000000000E+00  0.00000000000E+00  0.14705515603E+02  0.14705515603E+02  0.00000000000E+00 0.  1.
         21   -1    0    0  504  502 -0.00000000000E+00 -0.00000000000E+00 -0.70456731001E+02  0.70456731001E+02  0.00000000000E+00 0.  1.
         21    1    1    2  503  502 -0.11087651401E+01 -0.22538328293E+02 -0.58240978273E+02  0.62459724244E+02  0.00000000000E+00 0.  1.
         21    1    1    2  504  501  0.11087651401E+01  0.22538328293E+02  0.24897628751E+01  0.22702522361E+02  0.00000000000E+00 0.  1.
</event>
<event>
 4    1  0.1679763E+006  0.2178065E+02  0.7546771E-02  0.1508405E+00
         21   -1    0    0  504  501  0.00000000000E+00  0.00000000000E+00  0.16138728353E+03  0.16138728353E+03  0.00000000000E+00 0.  1.
         21   -1    0    0  503  502 -0.00000000000E+00 -0.00000000000E+00 -0.22241957691E+02  0.22241957691E+02  0.00000000000E+00 0.  1.
         21    1    1    2  503  501 -0.13041842487E+02 -0.17444404628E+02 -0.15959944990E+02  0.27002161994E+02  0.00000000000E+00 0.  1.
         21    1    1    2  504  502  0.13041842487E+02  0.17444404628E+02  0.15510527083E+03  0.15662707923E+03  0.00000000000E+00 0.  1.
</event>
<event>
 4    1  0.1679763E+006  0.3016683E+02  0.7546771E-02  0.1418152E+00
         21   -1    0    0  503  501  0.00000000000E+00  0.00000000000E+00  0.35153046602E+02  0.35153046602E+02  0.00000000000E+00 0. -1.
         21   -1    0    0  504  502 -0.00000000000E+00 -0.00000000000E+00 -0.29272634189E+02  0.29272634189E+02  0.00000000000E+00 0.  1.
         21    1    1    2  503  502  0.28023140164E+02  0.11168756071E+02  0.13893943819E+02  0.33212635723E+02  0.00000000000E+00 0. -1.
         21    1    1    2  504  501 -0.28023140164E+02 -0.11168756071E+02 -0.80135314056E+01  0.31213045068E+02  0.00000000000E+00 0.  1.
</event>
<event>
 4    1  0.1679763E+006  0.2519987E+02  0.7546771E-02  0.1466580E+00
         21   -1    0    0  504  501  0.00000000000E+00  0.00000000000E+00  0.11694353326E+03  0.11694353326E+03  0.00000000000E+00 0. -1.
         21   -1    0    0  501  502 -0.00000000000E+00 -0.00000000000E+00 -0.10134458897E+02  0.10134458897E+02  0.00000000000E+00 0.  1.
         21    1    1    2  503  502 -0.25772006778E+01  0.25067733437E+02  0.10114981543E+02  0.27154117084E+02  0.00000000000E+00 0.  1.
         21    1    1    2  504  503  0.25772006778E+01 -0.25067733437E+02  0.96694092823E+02  0.99923875074E+02  0.00000000000E+00 0. -1.
</event>
<event>
 4    1  0.1679763E+006  0.2836239E+02  0.7546771E-02  0.1434383E+00
         21   -1    0    0  503  501  0.00000000000E+00  0.00000000000E+00  0.16202026219E+02  0.16202026219E+02  0.00000000000E+00 0.  1.
         21   -1    0    0  504  502 -0.00000000000E+00 -0.00000000000E+00 -0.50732622933E+02  0.50732622933E+02  0.00000000000E+00 0. -1.
         21    1    1    2  503  502  0.56573787841E+01  0.27792429982E+02 -0.22155019134E+02  0.35989859292E+02  0.00000000000E+00 0.  1.
         21    1    1    2  504  501 -0.56573787841E+01 -0.27792429982E+02 -0.12375577580E+02  0.30944789860E+02  0.00000000000E+00 0. -1.
</event>
<event>
 4    1  0.1679763E+006  0.2641398E+02  0.7546771E-02  0.1453585E+00
         21   -1    0    0  504  501  0.00000000000E+00  0.00000000000E+00  0.54752968492E+01  0.54752968492E+01  0.00000000000E+00 0.  1.
         21   -1    0    0  501  502 -0.00000000000E+00 -0.00000000000E+00 -0.24759802251E+03  0.24759802251E+03  0.00000000000E+00 0.  1.
         21    1    1    2  503  502 -0.20838214799E+02 -0.16231663853E+02 -0.20921566212E+03  0.21087648372E+03  0.00000000000E+00 0.  1.
         21    1    1    2  504  503  0.20838214799E+02  0.16231663853E+02 -0.32907063533E+02  0.42196835637E+02  0.00000000000E+00 0.  1.
</event>
<event>
 4    1  0.1679763E+006  0.2916656E+02  0.7546771E-02  0.1426980E+00
         21   -1    0    0  504  501  0.00000000000E+00  0.00000000000E+00  0.29458394928E+02  0.29458394928E+02  0.00000000000E+00 0. -1.
         21   -1    0    0  503  502 -0.00000000000E+00 -0.00000000000E+00 -0.69153471984E+02  0.69153471984E+02  0.00000000000E+00 0. -1.
         21    1    1    2  503  501  0.53995581630E+01 -0.28662401269E+02  0.17780755837E+02  0.34159094733E+02  0.00000000000E+00 0. -1.
         21    1    1    2  504  502 -0.53995581630E+01  0.28662401269E+02 -0.57475832893E+02  0.64452772179E+02  0.00000000000E+00 0. -1.
</event>
<event>
 4    1  0.1679763E+006  0.3103524E+02  0.7546771E-02  0.1410808E+00
         21   -1    0    0  503  501  0.00000000000E+00  0.00000000000E+00  0.57711845439E+02  0.57711845439E+02  0.00000000000E+00 0.  1.
         21   -1    0    0  504  502 -0.00000000000E+00 -0.00000000000E+00 -0.87099866263E+02  0.87099866263E+02  0.00000000000E+00 0. -1.
         21    1    1    2  503  502 -0.24677216693E+02 -0.18820758857E+02  0.50406295233E+02  0.59194430370E+02  0.00000000000E+00 0.  1.
         21    1    1    2  504  501  0.24677216693E+02  0.18820758857E+02 -0.79794316057E+02  0.85617281332E+02  0.00000000000E+00 0. -1.
</event>
<event>
 4    1  0.1679763E+006  0.2305158E+02  0.7546771E-02  0.1491851E+00
         21   -1    0    0  502  501  0.00000000000E+00  0.00000000000E+00  0.10396612294E+02  0.10396612294E+02  0.00000000000E+00 0. -1.
         21   -1    0    0  504  502 -0.00000000000E+00 -0.00000000000E+00 -0.27138597079E+03  0.27138597079E+03  0.00000000000E+00 0.  1.
         21    1    1    2  503  501 -0.15949340332E+02 -0.16643131081E+02 -0.35619561669E+01  0.23325153825E+02  0.00000000000E+00 0. -1.
         21    1    1    2  504  503  0.15949340332E+02  0.16643131081E+02 -0.25742740233E+03  0.25845742926E+03  0.00000000000E+00 0.  1.
</event>
<event>
 4    1  0.1679763E+006  0.5128575E+02  0.7546771E-02  0.1292692E+00
         21   -1    0    0  503  501  0.00000000000E+00  0.00000000000E+00  0.67131522574E+01  0.67131522574E+01  0.00000000000E+00 0.  1.
         21   -1    0    0  501  502 -0.00000000000E+00 -0.00000000000E+00 -0.40266946220E+03  0.40266946220E+03  0.00000000000E+00 0.  1.
         21    1    1    2  503  504  0.27785836907E+02 -0.43106553991E+02 -0.16435136554E+03  0.17216735778E+03  0.00000000000E+00 0.  1.
         21    1    1    2  504  502 -0.27785836907E+02  0.43106553991E+02 -0.23160494440E+03  0.23721525668E+03  0.00000000000E+00 0.  1.
</event>
<event>
 4    1  0.1679763E+006  0.2327360E+02  0.7546771E-02  0.1489091E+00
         21   -1    0    0  503  501  0.00000000000E+00  0.00000000000E+00  0.59802128687E+03  0.59802128687E+03  0.00000000000E+00 0. -1.
         21   -1    0    0  501  502 -0.00000000000E+00 -0.00000000000E+00 -0.91353443738E+01  0.91353443738E+01  0.00000000000E+00 0. -1.
         21    1    1    2  503  504 -0.96969844866E-01  0.23273396181E+02  0.58257888032E+03  0.58304357656E+03  0.00000000000E+00 0. -1.
         21    1    1    2  504  502  0.96969844866E-01 -0.23273396181E+02  0.63070621785E+01  0.24113054686E+02  0.00000000000E+00 0. -1.
</event>
<event>
 4    1  0.1679763E+006  0.2642567E+02  0.7546771E-02  0.1453464E+00
         21   -1    0    0  503  501  0.00000000000E+00  0.00000000000E+00  0.15294587287E+03  0.15294587287E+03  0.00000000000E+00 0.  1.
         21   -1    0    0  504  502 -0.00000000000E+00 -0.00000000000E+00 -0.66243615858E+01  0.66243615858E+01  0.00000000000E+00 0.  1.
         21    1    1    2  503  502  0.17507663416E+02  0.19793880468E+02  0.11763768119E+03  0.12056923330E+03  0.00000000000E+00 0.  1.
         21    1    1    2  504  501 -0.17507663416E+02 -0.19793880468E+02  0.28683830086E+02  0.39001001150E+02  0.00000000000E+00 0.  1.
</event>
<event>
 4    1  0.1679763E+006  0.2179599E+02  0.7546771E-02  0.1508197E+00
         21   -1    0    0  504  501  0.00000000000E+00  0.00000000000E+00  0.23197477491E+02  0.23197477491E+02  0.00000000000E+00 0. -1.
         21   -1    0    0  503  502 -0.00000000000E+00 -0.00000000000E+00 -0.58022161824E+02  0.58022161824E+02  0.00000000000E+00 0.  1.
         21    1    1    2  503  501 -0.92726196770E+01 -0.19725204572E+02  0.15253851000E+02  0.26603479874E+02  0.00000000000E+00 0. -1.
         21    1    1    2  504  502  0.92726196770E+01  0.19725204572E+02 -0.50078535333E+02  0.54616159442E+02  0.00000000000E+00 0.  1.
</event>
<event>
 4    1  0.1679763E+006  0.2001794E+02  0.7546771E-02  0.1533762E+00
         21   -1    0    0  504  501  0.00000000000E+00  0.00000000000E+00  0.15685330688E+02  0.15685330688E+02  0.00000000000E+00 0.  1.
         21   -1    0    0  503  502 -0.00000000000E+00 -0.00000000000E+00 -0.52871515446E+02  0.52871515446E+02  0.00000000000E+00 0.  1.
         21    1    1    2  503  501  0.15645970583E+02 -0.12486848054E+02  0.60493554458E+01  0.20912017385E+02  0.00000000000E+00 0.  1.
         21    1    1    2  504  502 -0.15645970583E+02  0.12486848054E+02 -0.43235540204E+02  0.47644828749E+02  0.00000000000E+00 0.  1.
</event>
<event>
 4    1  0.1679763E+006  0.2324640E+02  0.7546771E-02  0.1489427E+00
         21   -1    0    0  503  501  0.00000000000E+00  0.00000000000E+00  0.50696663486E+02  0.50696663486E+02  0.00000000000E+00 0.  1.
         21   -1    0    0  504  502 -0.00000000000E+00 -0.00000000000E+00 -0.27955088535E+02  0.27955088535E+02  0.00000000000E+00 0.  1.
         21    1    1    2  503  502  0.54457082944E+01 -0.22599546548E+02 -0.19561859748E+02  0.30381928836E+02  0.00000000000E+00 0.  1.
         21    1    1    2  504  501 -0.54457082944E+01  0.22599546548E+02  0.42303434699E+02  0.48269823185E+02  0.00000000000E+00 0.  1.
</event>
<event>
 4    1  0.1679763E+006  0.2053989E+02  0.7546771E-02  0.1525937E+00
         21   -1    0    0  503  501  0.00000000000E+00  0.00000000000E+00  0.11982871032E+03  0.11982871032E+03  0.00000000000E+00 0. -1.
         21   -1    0    0  504  502 -0.00000000000E+00 -0.00000000000E+00 -0.84296127581E+01  0.84296127581E+01  0.00000000000E+00 0. -1.
         21    1    1    2  503  502 -0.19080464891E+02 -0.76041349501E+01  0.67620051831E+01  0.21624331733E+02  0.00000000000E+00 0. -1.
         21    1    1    2  504  501  0.19080464891E+02  0.76041349501E+01  0.10463709238E+03  0.10663399134E+03  0.00000000000E+00 0. -1.
</event>
<event>
 4    1  0.1679763E+006  0.2447408E+02  0.7546771E-02  0.1474774E+00
         21   -1    0    0  504  501  0.00000000000E+00  0.00000000000E+00  0.26392310931E+02  0.26392310931E+02  0.00000000000E+00 0.  1.
         21   -1    0    0  503  502 -0.00000000000E+00 -0.00000000000E+00 -0.53199198714E+02  0.53199198714E+02  0.00000000000E+00 0.  1.
         21    1    1    2  503  501 -0.22753699163E+02  0.90138537848E+01  0.16730928692E+02  0.29646321197E+02  0.00000000000E+00 0.  1.
         21    1    1    2  504  502  0.22753699163E+02 -0.90138537848E+01 -0.43537816475E+02  0.49945188448E+02  0.00000000000E+00 0.  1.
</event>
<event>
 4    1  0.1679763E+006  0.3271505E+02  0.7546771E-02  0.1397380E+00
         21   -1    0    0  503  501  0.00000000000E+00  0.00000000000E+00  0.19671891574E+02  0.19671891574E+02  0.00000000000E+00 0. -1.
         21   -1    0    0  504  502 -0.00000000000E+00 -0.00000000000E+00 -0.54453480275E+02  0.54453480275E+02  0.00000000000E+00 0. -1.
         21    1    1    2  503  502  0.32137785582E+02 -0.61186211785E+01 -0.16299817890E+02  0.36550770860E+02  0.00000000000E+00 0. -1.
         21    1    1    2  504  501 -0.32137785582E+02  0.61186211785E+01 -0.18481770810E+02  0.37574600989E+02  0.00000000000E+00 0. -1.
</event>
<event>
 4    1  0.1679763E+006  0.2445134E+02  0.7546771E-02  0.1475036E+00
         21   -1    0    0  504  501  0.00000000000E+00  0.00000000000E+00  0.13136165850E+03  0.13136165850E+03  0.00000000000E+00 0. -1.
         21   -1    0    0  503  502 -0.00000000000E+00 -0.00000000000E+00 -0.80204888369E+01  0.80204888369E+01  0.00000000000E+00 0. -1.
         21    1    1    2  503  501 -0.20486711524E+02  0.13347752876E+02  0.15836351371E+02  0.29131733225E+02  0.00000000000E+00 0. -1.
         21    1    1    2  504  502  0.20486711524E+02 -0.13347752876E+02  0.10750481829E+03  0.11025041411E+03  0.00000000000E+00 0. -1.
</event>
<event>
 4    1  0.1679763E+006  0.4699452E+02  0.7546771E-02  0.1311757E+00
         21   -1    0    0  502  501  0.00000000000E+00  0.00000000000E+00  0.89489959365E+03  0.89489959365E+03  0.00000000000E+00 0. -1.
         21   -1    0    0  503  502 -0.00000000000E+00 -0.00000000000E+00 -0.12741612428E+02  0.12741612428E+02  0.00000000000E+00 0.  1.
         21    1    1    2  503  504  0.31075220525E+02  0.35253589646E+02  0.33570550118E+02  0.57753499884E+02  0.00000000000E+00 0.  1.
         21    1    1    2  504  501 -0.31075220525E+02 -0.35253589646E+02  0.84858743110E+03  0.84988770619E+03  0.00000000000E+00 0. -1.
</event>
<event>
 4    1  0.1679763E+006  0.2032508E+02  0.7546771E-02  0.1529123E+00
         21   -1    0    0  503  501  0.00000000000E+00  0.00000000000E+00  0.28582404593E+01  0.28582404593E+01  0.00000000000E+00 0.  1.
         21   -1    0    0  501  502 -0.00000000000E+00 -0.00000000000E+00 -0.28918178643E+03  0.28918178643E+03  0.00000000000E+00 0.  1.
         21    1    1    2  503  504 -0.12136227236E+00  0.20324722362E+02 -0.39889237763E+02  0.44768966453E+02  0.00000000000E+00 0.  1.
         21    1    1    2  504  502  0.12136227236E+00 -0.20324722362E+02 -0.24643430820E+03  0.24727106043E+03  0.00000000000E+00 0.  1.
</event>
<event>
 4    1  0.1679763E+006  0.2817354E+02  0.7546771E-02  0.1436163E+00
         21   -1    0    0  502  501  0.00000000000E+00  0.00000000000E+00  0.29435176921E+03  0.29435176921E+03  0.00000000000E+00 0. -1.
         21   -1    0    0  504  502 -0.00000000000E+00 -0.00000000000E+00 -0.95682560308E+02  0.95682560308E+02  0.00000000000E+00 0. -1.
         21    1    1    2  503  501  0.25063955119E+02  0.12866490911E+02  0.29158406901E+03  0.29294200405E+03  0.00000000000E+00 0. -1.
         21    1    1    2  504  503 -0.25063955119E+02 -0.12866490911E+02 -0.92914860113E+02  0.97092325466E+02  0.00000000000E+00 0. -1.
</event>
<event>
 4    1  0.1679763E+006  0.2172983E+02  0.7546771E-02  0.1509095E+00
         21   -1    0    0  504  501  0.00000000000E+00  0.00000000000E+00  0.21500713067E+03  0.21500713067E+03  0.00000000000E+00 0.  1.
         21   -1    0    0  503  502 -0.00000000000E+00 -0.00000000000E+00 -0.36321937360E+01  0.36321937360E+01  0.00000000000E+00 0.  1.
         21    1    1    2  503  501 -0.30143244041E+01  0.21519738783E+02  0.17442587199E+03  0.17577420212E+03  0.00000000000E+00 0.  1.
         21    1    1    2  504  502  0.30143244041E+01 -0.21519738783E+02  0.36949064937E+02  0.42865122287E+02  0.00000000000E+00 0.  1.
</event>
<event>
 4    1  0.1679763E+006  0.2839494E+02  0.7546771E-02  0.1434077E+00
         21   -1    0    0  503  501  0.00000000000E+00  0.00000000000E+00  0.32229558007E+02  0.32229558007E+02  0.00000000000E+00 0.  1.
         21   -1    0    0  501  502 -0.00000000000E+00 -0.00000000000E+00 -0.30048983847E+03  0.30048983847E+03  0.00000000000E+00 0.  1.
         21    1    1    2  503  504 -0.26288252655E+02  0.10733153372E+02  0.25154157201E+02  0.37934211913E+02  0.00000000000E+00 0.  1.
         21    1    1    2  504  502  0.26288252655E+02 -0.10733153372E+02 -0.29341443766E+03  0.29478518456E+03  0.00000000000E+00 0.  1.
</event>
<event>
 4    1  0.1679763E+006  0.2021749E+02  0.7546771E-02  0.1530737E+00
         21   -1    0    0  503  501  0.00000000000E+00  0.00000000000E+00  0.34096968633E+03  0.34096968633E+03  0.00000000000E+00 0.  1.
         21   -1    0    0  504  502 -0.00000000000E+00 -0.00000000000E+00 -0.58732298261E+01  0.58732298261E+01  0.00000000000E+00 0. -1.
         21    1    1    2  503  502 -0.19791434839E+02 -0.41286945156E+01  0.12834207610E+02  0.23947106221E+02  0.00000000000E+00 0. -1.
         21    1    1    2  504  501  0.19791434839E+02  0.41286945156E+01  0.32226224890E+03  0.32289580994E+03  0.00000000000E+00 0.  1.
</event>
<event>
 4    1  0.1679763E+006  0.2018340E+02  0.7546771E-02  0.1531250E+00
         21   -1    0    0  503  501  0.00000000000E+00  0.00000000000E+00  0.10348581823E+03  0.10348581823E+03  0.00000000000E+00 0. -1.
         21   -1    0    0  504  502 -0.00000000000E+00 -0.00000000000E+00 -0.51095610519E+01  0.51095610519E+01  0.00000000000E+00 0. -1.
         21    1    1    2  503  502  0.15129881799E+02  0.13358757019E+02  0.75204924933E+02  0.77866234316E+02  0.00000000000E+00 0. -1.
         21    1    1    2  504  501 -0.15129881799E+02 -0.13358757019E+02  0.23171332246E+02  0.30729144967E+02  0.00000000000E+00 0. -1.
</event>
<event>
 4    1  0.1679763E+006  0.2967887E+02  0.7546771E-02  0.1422408E+00
         21   -1    0    0  502  501  0.00000000000E+00  0.00000000000E+00  0.40593120375E+03  0.40593120375E+03  0.00000000000E+00 0.  1.
         21   -1    0    0  503  502 -0.00000000000E+00 -0.00000000000E+00 -0.27760996026E+01  0.27760996026E+01  0.00000000000E+00 0.  1.
         21    1    1    2  503  504 -0.26911916683E+02  0.12513357953E+02  0.10608531758E+03  0.11015865828E+03  0.00000000000E+00 0.  1.
         21    1    1    2  504  501  0.26911916683E+02 -0.12513357953E+02  0.29706978656E+03  0.29854864507E+03  0.00000000000E+00 0.  1.
</event>
<event>
 4    1  0.1679763E+006  0.3304450E+02  0.7546771E-02  0.1394858E+00
         21   -1    0    0  504  501  0.00000000000E+00  0.00000000000E+00  0.10584374920E+04  0.10584374920E+04  0.00000000000E+00 0. -1.
         21   -1    0    0  501  502 -0.00000000000E+00 -0.00000000000E+00 -0.11848539486E+01  0.11848539486E+01  0.00000000000E+00 0. -1.
         21    1    1    2  503  502 -0.20898859000E+02 -0.25596413693E+02  0.33811470548E+03  0.33972561394E+03  0.00000000000E+00 0. -1.
         21    1    1    2  504  503  0.20898859000E+02  0.25596413693E+02  0.71913793261E+03  0.71989673205E+03  0.00000000000E+00 0. -1.
</event>
<event>
 4    1  0.1679763E+006  0.2691393E+02  0.7546771E-02  0.1448475E+00
         21   -1    0    0  504  501  0.00000000000E+00  0.00000000000E+00  0.40374927239E+01  0.40374927239E+01  0.00000000000E+00 0.  1.
         21   -1    0    0  501  502 -0.00000000000E+00 -0.00000000000E+00 -0.19125752249E+03  0.19125752249E+03  0.00000000000E+00 0.  1.
         21    1    1    2  503  502 -0.21181717449E+02 -0.16604051032E+02 -0.11791509256E+03  0.12094762800E+03  0.00000000000E+00 0.  1.
         21    1    1    2  504  503  0.21181717449E+02  0.16604051032E+02 -0.69304937207E+02  0.74347387218E+02  0.00000000000E+00 0.  1.
</event>
<event>
 4    1  0.1679763E+006  0.2316616E+02  0.7546771E-02  0.1490422E+00
         21   -1    0    0  503  501  0.00000000000E+00  0.00000000000E+00  0.18994931422E+03  0.18994931422E+03  0.00000000000E+00 0.  1.
         21   -1    0    0  501  502 -0.00000000000E+00 -0.00000000000E+00 -0.51483624888E+02  0.51483624888E+02  0.00000000000E+00 0. -1.
         21    1    1    2  503  504 -0.14683985698E+02 -0.17917909329E+02  0.18659021695E+03  0.18802281769E+03  0.00000000000E+00 0.  1.
         21    1    1    2  504  502  0.14683985698E+02  0.17917909329E+02 -0.48124527622E+02  0.53410121414E+02  0.00000000000E+00 0. -1.
</event>
<event>
 4    1  0.1679763E+006  0.3448600E+02  0.7546771E-02  0.1384213E+00
         21   -1    0    0  503  501  0.00000000000E+00  0.00000000000E+00  0.13159549270E+02  0.13159549270E+02  0.00000000000E+00 0. -1.
         21   -1    0    0  504  502 -0.00000000000E+00 -0.00000000000E+00 -0.90382683471E+02  0.90382683471E+02  0.00000000000E+00 0. -1.
         21    1    1    2  503  502 -0.20003707319E+02 -0.28091565787E+02 -0.38111430368E+02  0.51398107938E+02  0.00000000000E+00 0. -1.
         21    1    1    2  504  501  0.20003707319E+02  0.28091565787E+02 -0.39111703833E+02  0.52144124804E+02  0.00000000000E+00 0. -1.
</event>
<event>
 4    1  0.1679763E+006  0.2013937E+02  0.7546771E-02  0.1531916E+00
         21   -1    0    0  504  501  0.00000000000E+00  0.00000000000E+00  0.46426106413E+03  0.46426106413E+03  0.00000000000E+00 0. -1.
         21   -1    0    0  501  502 -0.00000000000E+00 -0.00000000000E+00 -0.24656958817E+01  0.24656958817E+01  0.00000000000E+00 0. -1.
         21    1    1    2  503  502 -0.17629701912E+02 -0.97359065107E+01  0.43379702669E+02  0.47826696194E+02  0.00000000000E+00 0. -1.
         21    1    1    2  504  503  0.17629701912E+02  0.97359065107E+01  0.41841566558E+03  0.41890006382E+03  0.00000000000E+00 0. -1.
</event>
<event>
 4    1  0.1679763E+006  0.2222291E+02  0.7546771E-02  0.1502494E+00
         21   -1    0    0  504  501  0.00000000000E+00  0.00000000000E+00  0.11531714532E+01  0.11531714532E+01  0.00000000000E+00 0.  1.
         21   -1    0    0  503  502 -0.00000000000E+00 -0.00000000000E+00 -0.57550900206E+03  0.57550900206E+03  0.00000000000E+00 0.  1.
         21    1    1    2  503  501 -0.19140196752E+01  0.22140327253E+02 -0.43302277720E+03  0.43359264654E+03  0.00000000000E+00 0.  1.
         21    1    1    2  504  502  0.19140196752E+01 -0.22140327253E+02 -0.14133305341E+03  0.14306952697E+03  0.00000000000E+00 0.  1.
</event>
<event>
 4    1  0.1679763E+006  0.3450110E+02  0.7546771E-02  0.1384105E+00
         21   -1    0    0  502  501  0.00000000000E+00  0.00000000000E+00  0.10775925687E+02  0.10775925687E+02  0.00000000000E+00 0.  1.
         21   -1    0    0  503  502 -0.00000000000E+00 -0.00000000000E+00 -0.17584035487E+03  0.17584035487E+03  0.00000000000E+00 0.  1.
         21    1    1    2  503  504  0.25782223904E+02  0.22926023837E+02 -0.13942781565E+03  0.14363300949E+03  0.00000000000E+00 0.  1.
         21    1    1    2  504  501 -0.25782223904E+02 -0.22926023837E+02 -0.25636613540E+02  0.42983271074E+02  0.00000000000E+00 0.  1.
</event>
<event>
 4    1  0.1679763E+006  0.2475196E+02  0.7546771E-02  0.1471597E+00
         21   -1    0    0  504  501  0.00000000000E+00  0.00000000000E+00  0.33951769754E+03  0.33951769754E+03  0.00000000000E+00 0.  1.
         21   -1    0    0  503  502 -0.00000000000E+00 -0.00000000000E+00 -0.17564239406E+02  0.17564239406E+02  0.00000000000E+00 0.  1.
         21    1    1    2  503  501  0.23591376044E+02 -0.74904132567E+01 -0.81443508847E+01  0.26057432063E+02  0.00000000000E+00 0.  1.
         21    1    1    2  504  502 -0.23591376044E+02  0.74904132567E+01  0.33009780902E+03  0.33102450488E+03  0.00000000000E+00 0.  1.
</event>
<event>
 4    1  0.1679763E+006  0.3330923E+02  0.7546771E-02  0.1392856E+00
         21   -1    0    0  503  501  0.00000000000E+00  0.00000000000E+00  0.16280664576E+02  0.16280664576E+02  0.00000000000E+00 0. -1.
         21   -1    0    0  501  502 -0.00000000000E+00 -0.00000000000E+00 -0.24989389104E+03  0.24989389104E+03  0.00000000000E+00 0.  1.
         21    1    1    2  503  504  0.24476799067E+02  0.22591842094E+02 -0.33080751861E+01  0.33473099396E+02  0.00000000000E+00 0. -1.
         21    1    1    2  504  502 -0.24476799067E+02 -0.22591842094E+02 -0.23030515128E+03  0.23270145622E+03  0.00000000000E+00 0.  1.
</event>
<event>
 4    1  0.1679763E+006  0.2634804E+02  0.7546771E-02  0.1454269E+00
         21   -1    0    0  504  501  0.00000000000E+00  0.00000000000E+00  0.27394084638E+01  0.27394084638E+01  0.00000000000E+00 0.  1.
         21   -1    0    0  503  502 -0.00000000000E+00 -0.00000000000E+00 -0.28037112208E+03  0.28037112208E+03  0.00000000000E+00 0.  1.
         21    1    1    2  503  501 -0.26113039944E+02 -0.35111836653E+01 -0.94927168724E+02  0.98515920682E+02  0.00000000000E+00 0.  1.
         21    1    1    2  504  502  0.26113039944E+02  0.35111836653E+01 -0.18270454489E+03  0.18459460986E+03  0.00000000000E+00 0.  1.
</event>
<event>
 4    1  0.1679763E+006  0.2092302E+02  0.7546771E-02  0.1520367E+00
         21   -1    0    0  502  501  0.00000000000E+00  0.00000000000E+00  0.91231712134E+01  0.91231712134E+01  0.00000000000E+00 0.  1.
         21   -1    0    0  504  502 -0.00000000000E+00 -0.00000000000E+00 -0.95306844217E+02  0.95306844217E+02  0.00000000000E+00 0.  1.
         21    1    1    2  503  501 -0.18785781470E+02 -0.92123287970E+01 -0.62988083723E+01  0.21850573773E+02  0.00000000000E+00 0.  1.
         21    1    1    2  504  503  0.18785781470E+02  0.92123287970E+01 -0.79884864631E+02  0.82579441657E+02  0.00000000000E+00 0.  1.
</event>
<event>
 4    1  0.1679763E+006  0.2071915E+02  0.7546771E-02  0.1523313E+00
         21   -1    0    0  504  501  0.00000000000E+00  0.00000000000E+00  0.20311845375E+02  0.20311845375E+02  0.00000000000E+00 0.  1.
         21   -1    0    0  503  502 -0.00000000000E+00 -0.00000000000E+00 -0.33665766004E+02  0.33665766004E+02  0.00000000000E+00 0.  1.
         21    1    1    2  503  501  0.16157543327E+02 -0.12969856056E+02 -0.23142827478E+02  0.31062418389E+02  0.00000000000E+00 0.  1.
         21    1    1    2  504  502 -0.16157543327E+02  0.12969856056E+02  0.97889068489E+01  0.22915192990E+02  0.00000000000E+00 0.  1.
</event>
<event>
 4    1  0.1679763E+006  0.2519741E+02  0.7546771E-02  0.1466607E+00
         21   -1    0    0  503  501  0.00000000000E+00  0.00000000000E+00  0.20649576099E+02  0.20649576099E+02  0.00000000000E+00 0.  1.
         21   -1    0    0  501  502 -0.00000000000E+00 -0.00000000000E+00 -0.24588231858E+03  0.24588231858E+03  0.00000000000E+00 0.  1.
         21    1    1    2  503  504  0.15211326029E+02  0.20087929964E+02  0.12039159415E+02  0.27925807584E+02  0.00000000000E+00 0.  1.
         21    1    1    2  504  502 -0.15211326029E+02 -0.20087929964E+02 -0.23727190189E+03  0.23860608709E+03  0.00000000000E+00 0.  1.
</event>
<event>
 4    1  0.1679763E+006  0.2062375E+02  0.7546771E-02  0.1524705E+00
         21   -1    0    0  503  501  0.00000000000E+00  0.00000000000E+00  0.52768055576E+01  0.52768055576E+01  0.00000000000E+00 0. -1.
         21   -1    0    0  504  502 -0.00000000000E+00 -0.00000000000E+00 -0.13784562568E+03  0.13784562568E+03  0.00000000000E+00 0.  1.
         21    1    1    2  503  502  0.19594410809E+02  0.64341276465E+01 -0.20170500056E+02  0.28847668988E+02  0.00000000000E+00 0. -1.
         21    1    1    2  504  501 -0.19594410809E+02 -0.64341276465E+01 -0.11239832006E+03  0.11427476225E+03  0.00000000000E+00 0.  1.
</event>
<event>
 4    1  0.1679763E+006  0.2336268E+02  0.7546771E-02  0.1487993E+00
         21   -1    0    0  504  501  0.00000000000E+00  0.00000000000E+00  0.63116593747E+02  0.63116593747E+02  0.00000000000E+00 0.  1.
         21   -1    0    0  501  502 -0.00000000000E+00 -0.00000000000E+00 -0.19401086456E+02  0.19401086456E+02  0.00000000000E+00 0.  1.
         21    1    1    2  503  502 -0.22941428253E+02 -0.44165288899E+01 -0.88590583294E+01  0.24985951497E+02  0.00000000000E+00 0.  1.
         21    1    1    2  504  503  0.22941428253E+02  0.44165288899E+01  0.52574565620E+02  0.57531728706E+02  0.00000000000E+00 0.  1.
</event>
<event>
 4    1  0.1679763E+006  0.2803347E+02  0.7546771E-02  0.1437494E+00
         21   -1    0    0  503  501  0.00000000000E+00  0.00000000000E+00  0.42112018161E+02  0.42112018161E+02  0.00000000000E+00 0.  1.
         21   -1    0    0  504  502 -0.00000000000E+00 -0.00000000000E+00 -0.25037291277E+02  0.25037291277E+02  0.00000000000E+00 0.  1.
         21    1    1    2  503  502 -0.28007618750E+02  0.12035180404E+01 -0.84053718308E+01  0.29266455873E+02  0.00000000000E+00 0.  1.
         21    1    1    2  504  501  0.28007618750E+02 -0.12035180404E+01  0.25480098715E+02  0.37882853565E+02  0.00000000000E+00 0.  1.
</event>
<event>
 4    1  0.1679763E+006  0.2052404E+02  0.7546771E-02  0.1526170E+00
         21   -1    0    0  503  501  0.00000000000E+00  0.00000000000E+00  0.24048076306E+03  0.24048076306E+03  0.00000000000E+00 0. -1.
         21   -1    0    0  504  502 -0.00000000000E+00 -0.00000000000E+00 -0.25111549403E+01  0.25111549403E+01  0.00000000000E+00 0.  1.
         21    1    1    2  503  502  0.15983159085E+02  0.12875362407E+02  0.52166951073E+02  0.56059139449E+02  0.00000000000E+00 0.  1.
         21    1    1    2  504  501 -0.15983159085E+02 -0.12875362407E+02  0.18580265705E+03  0.18693277855E+03  0.00000000000E+00 0. -1.
</event>
<event>
 4    1  0.1679763E+006  0.2654026E+02  0.7546771E-02  0.1452282E+00
         21   -1    0    0  504  501  0.00000000000E+00  0.00000000000E+00  0.37476678076E+01  0.37476678076E+01  0.00000000000E+00 0.  1.
         21   -1    0    0  503  502 -0.00000000000E+00 -0.00000000000E+00 -0.36346084599E+03  0.36346084599E+03  0.00000000000E+00 0. -1.
         21    1    1    2  503  501 -0.25515924328E+02  0.73022721261E+01 -0.52270847233E+02  0.58622751923E+02  0.00000000000E+00 0.  1.
         21    1    1    2  504  502  0.25515924328E+02 -0.73022721261E+01 -0.30744233095E+03  0.30858576188E+03  0.00000000000E+00 0. -1.
</event>
<event>
 4    1  0.1679763E+006  0.2465286E+02  0.7546771E-02  0.1472724E+00
         21   -1    0    0  504  501  0.00000000000E+00  0.00000000000E+00  0.10348766871E+03  0.10348766871E+03  0.00000000000E+00 0. -1.
         21   -1    0    0  503  502 -0.00000000000E+00 -0.00000000000E+00 -0.31779746095E+02  0.31779746095E+02  0.00000000000E+00 0.  1.
         21    1    1    2  503  501  0.24090431840E+02  0.52359071340E+01 -0.25211549229E+02  0.35261676708E+02  0.00000000000E+00 0.  1.
         21    1    1    2  504  502 -0.24090431840E+02 -0.52359071340E+01  0.96919471847E+02  0.10000573810E+03  0.00000000000E+00 0. -1.
</event>
<event>
 4    1  0.1679763E+006  0.2039661E+02  0.7546771E-02  0.1528057E+00
         21   -1    0    0  504  501  0.00000000000E+00  0.00000000000E+00  0.20380067869E+03  0.20380067869E+03  0.00000000000E+00 0.  1.
         21   -1    0    0  501  502 -0.00000000000E+00 -0.00000000000E+00 -0.93156455953E+01  0.93156455953E+01  0.00000000000E+00 0. -1.
         21    1    1    2  503  502 -0.26176835475E+01  0.20227941321E+02  0.30802969345E+01  0.20627896317E+02  0.00000000000E+00 0. -1.
         21    1    1    2  504  503  0.26176835475E+01 -0.20227941321E+02  0.19140473616E+03  0.19248842796E+03  0.00000000000E+00 0.  1.
</event>
<event>
 4    1  0.1679763E+006  0.2126024E+02  0.7546771E-02  0.1515582E+00
         21   -1    0    0  504  501  0.00000000000E+00  0.00000000000E+00  0.21789448316E+03  0.21789448316E+03  0.00000000000E+00 0.  1.
         21   -1    0    0  503  502 -0.00000000000E+00 -0.00000000000E+00 -0.54826404122E+01  0.54826404122E+01  0.00000000000E+00 0.  1.
         21    1    1    2  503  501 -0.28208751872E+01 -0.21072271354E+02  0.18145731464E+02  0.27951127477E+02  0.00000000000E+00 0.  1.
         21    1    1    2  504  502  0.28208751872E+01  0.21072271354E+02  0.19426611129E+03  0.19542599610E+03  0.00000000000E+00 0.  1.
</event>
<event>
 4    1  0.1679763E+006  0.2074640E+02  0.7546771E-02  0.1522917E+00
         21   -1    0    0  502  501  0.00000000000E+00  0.00000000000E+00  0.12821365522E+03  0.12821365522E+03  0.00000000000E+00 0.  1.
         21   -1    0    0  503  502 -0.00000000000E+00 -0.00000000000E+00 -0.15075554426E+02  0.15075554426E+02  0.00000000000E+00 0.  1.
         21    1    1    2  503  504 -0.13451456066E+02 -0.15794665748E+02 -0.65970230326E+01  0.21770021802E+02  0.00000000000E+00 0.  1.
         21    1    1    2  504  501  0.13451456066E+02  0.15794665748E+02  0.11973512383E+03  0.12151918784E+03  0.00000000000E+00 0.  1.
</event>
<event>
 4    1  0.1679763E+006  0.2187122E+02  0.7546771E-02  0.1507180E+00
         21   -1    0    0  504  501  0.00000000000E+00  0.00000000000E+00  0.44799478253E+01  0.44799478253E+01  0.00000000000E+00 0. -1.
         21   -1    0    0  503  502 -0.00000000000E+00 -0.00000000000E+00 -0.11162895753E+03  0.11162895753E+03  0.00000000000E+00 0. -1.
         21    1    1    2  503  501 -0.63438737955E+01  0.20930974689E+02 -0.65679233779E+02  0.69225083503E+02  0.00000000000E+00 0. -1.
         21    1    1    2  504  502  0.63438737955E+01 -0.20930974689E+02 -0.41469775926E+02  0.46883821853E+02  0.00000000000E+00 0. -1.
</event>
<event>
 4    1  0.1679763E+006  0.3054978E+02  0.7546771E-02  0.1414878E+00
         21   -1    0    0  504  501  0.00000000000E+00  0.00000000000E+00  0.44533247692E+01  0.44533247692E+01  0.00000000000E+00 0. -1.
         21   -1    0    0  503  502 -0.00000000000E+00 -0.00000000000E+00 -0.27834284412E+03  0.27834284412E+03  0.00000000000E+00 0. -1.
         21    1    1    2  503  501  0.13572642518E+02 -0.27369187851E+02 -0.66660531768E+02  0.73327454368E+02  0.00000000000E+00 0. -1.
         21    1    1    2  504  502 -0.13572642518E+02  0.27369187851E+02 -0.20722898758E+03  0.20946871452E+03  0.00000000000E+00 0. -1.
</event>
<event>
 4    1  0.1679763E+006  0.4455269E+02  0.7546771E-02  0.1323691E+00
         21   -1    0    0  503  501  0.00000000000E+00  0.00000000000E+00  0.19210994572E+03  0.19210994572E+03  0.00000000000E+00 0. -1.
         21   -1    0    0  504  502 -0.00000000000E+00 -0.00000000000E+00 -0.34928144503E+02  0.34928144503E+02  0.00000000000E+00 0. -1.
         21    1    1    2  503  502 -0.13071369037E+02  0.42592040232E+02 -0.16669326356E+02  0.47568992220E+02  0.00000000000E+00 0. -1.
         21    1    1    2  504  501  0.13071369037E+02 -0.42592040232E+02  0.17385112757E+03  0.17946909800E+03  0.00000000000E+00 0. -1.
</event>
<event>
 4    1  0.1679763E+006  0.2428389E+02  0.7546771E-02  0.1476976E+00
         21   -1    0    0  504  501  0.00000000000E+00  0.00000000000E+00  0.45065804095E+03  0.45065804095E+03  0.00000000000E+00 0. -1.
         21   -1    0    0  503  502 -0.00000000000E+00 -0.00000000000E+00 -0.67387610086E+01  0.67387610086E+01  0.00000000000E+00 0. -1.
         21    1    1    2  503  501  0.23518880230E+02 -0.60472806495E+01  0.16663130830E+02  0.29451099463E+02  0.00000000000E+00 0. -1.
         21    1    1    2  504  502 -0.23518880230E+02  0.60472806495E+01  0.42725614911E+03  0.42794570249E+03  0.00000000000E+00 0. -1.
</event>
<event>
 4    1  0.1679763E+006  0.2779119E+02  0.7546771E-02  0.1439818E+00
         21   -1    0    0  504  501  0.00000000000E+00  0.00000000000E+00  0.93578527293E+01  0.93578527293E+01  0.00000000000E+00 0.  1.
         21   -1    0    0  503  502 -0.00000000000E+00 -0.00000000000E+00 -0.64333954707E+03  0.64333954707E+03  0.00000000000E+00 0. -1.
         21    1    1    2  503  501 -0.27791107953E+02  0.67515651927E-01 -0.62168739319E+03  0.62230825568E+03  0.00000000000E+00 0. -1.
         21    1    1    2  504  502  0.27791107953E+02 -0.67515651927E-01 -0.12294301157E+02  0.30389144123E+02  0.00000000000E+00 0.  1.
</event>
<event>
 4    1  0.1679763E+006  0.2781384E+02  0.7546771E-02  0.1439600E+00
         21   -1    0    0  503  501  0.00000000000E+00  0.00000000000E+00  0.40852994117E+02  0.40852994117E+02  0.00000000000E+00 0.  1.
         21   -1    0    0  504  502 -0.00000000000E+00 -0.00000000000E+00 -0.70478038854E+02  0.70478038854E+02  0.00000000000E+00 0. -1.
         21    1    1    2  503  502  0.16877615705E+02  0.22107817733E+02 -0.62415964688E+02  0.68332731284E+02  0.00000000000E+00 0. -1.
         21    1    1    2  504  501 -0.16877615705E+02 -0.22107817733E+02  0.32790919950E+02  0.42998301687E+02  0.00000000000E+00 0.  1.
</event>
<event>
 4    1  0.1679763E+006  0.3033791E+02  0.7546771E-02  0.1416682E+00
         21   -1    0    0  504  501  0.00000000000E+00  0.00000000000E+00  0.66138195415E+02  0.66138195415E+02  0.00000000000E+00 0. -1.
         21   -1    0    0  503  502 -0.00000000000E+00 -0.00000000000E+00 -0.41027325506E+02  0.41027325506E+02  0.00000000000E+00 0. -1.
         21    1    1    2  503  501  0.21289433813E+02 -0.21613623566E+02  0.56112909817E+02  0.63789084990E+02  0.00000000000E+00 0. -1.
         21    1    1    2  504  502 -0.21289433813E+02  0.21613623566E+02 -0.31002039907E+02  0.43376435931E+02  0.00000000000E+00 0. -1.
</event>
<event>
 4    1  0.1679763E+006  0.2080303E+02  0.7546771E-02  0.1522096E+00
         21   -1    0    0  503  501  0.00000000000E+00  0.00000000000E+00  0.84595232384E+02  0.84595232384E+02  0.00000000000E+00 0.  1.
         21   -1    0    0  504  502 -0.00000000000E+00 -0.00000000000E+00 -0.88622659325E+02  0.88622659325E+02  0.00000000000E+00 0.  1.
         21    1    1    2  503  502 -0.15186762615E+02 -0.14217184974E+02 -0.86085761846E+02  0.88563674833E+02  0.00000000000E+00 0.  1.
         21    1    1    2  504  501  0.15186762615E+02  0.14217184974E+02  0.82058334905E+02  0.84654216875E+02  0.00000000000E+00 0.  1.
</event>
<event>
 4    1  0.1679763E+006  0.3332869E+02  0.7546771E-02  0.1392710E+00
         21   -1    0    0  504  501  0.00000000000E+00  0.00000000000E+00  0.71441248245E+02  0.71441248245E+02  0.00000000000E+00 0.  1.
         21   -1    0    0  503  502 -0.00000000000E+00 -0.00000000000E+00 -0.36309871519E+03  0.36309871519E+03  0.00000000000E+00 0.  1.
         21    1    1    2  503  501 -0.26892376503E+02  0.19687595996E+02  0.66738430321E+02  0.74597717336E+02  0.00000000000E+00 0.  1.
         21    1    1    2  504  502  0.26892376503E+02 -0.19687595996E+02 -0.35839589727E+03  0.35994224610E+03  0.00000000000E+00 0.  1.
</event>
<event>
 4    1  0.1679763E+006  0.2357048E+02  0.7546771E-02  0.1485456E+00
         21   -1    0    0  503  501  0.00000000000E+00  0.00000000000E+00  0.13811160693E+03  0.13811160693E+03  0.00000000000E+00 0.  1.
         21   -1    0    0  504  502 -0.00000000000E+00 -0.00000000000E+00 -0.21617302998E+02  0.21617302998E+02  0.00000000000E+00 0. -1.
         21    1    1    2  503  502 -0.18880953379E+02  0.14109463302E+02 -0.13804473468E+02  0.27315395712E+02  0.00000000000E+00 0. -1.
         21    1    1    2  504  501  0.18880953379E+02 -0.14109463302E+02  0.13029877740E+03  0.13241351421E+03  0.00000000000E+00 0.  1.
</event>
<event>
 4    1  0.1679763E+006  0.2290572E+02  0.7546771E-02  0.1493685E+00
         21   -1    0    0  503  501  0.00000000000E+00  0.00000000000E+00  0.86422672368E+01  0.86422672368E+01  0.00000000000E+00 0. -1.
         21   -1    0    0  504  502 -0.00000000000E+00 -0.00000000000E+00 -0.17867695213E+03  0.17867695213E+03  0.00000000000E+00 0. -1.
         21    1    1    2  503  502 -0.11917242833E+02 -0.19561481371E+02 -0.89149665574E+01  0.24579439759E+02  0.00000000000E+00 0. -1.
         21    1    1    2  504  501  0.11917242833E+02  0.19561481371E+02 -0.16111971833E+03  0.16273977961E+03  0.00000000000E+00 0. -1.
</event>
<event>
 4    1  0.1679763E+006  0.2063903E+02  0.7546771E-02  0.1524481E+00
         21   -1    0    0  502  501  0.00000000000E+00  0.00000000000E+00  0.66726684915E+02  0.66726684915E+02  0.00000000000E+00 0.  1.
         21   -1    0    0  504  502 -0.00000000000E+00 -0.00000000000E+00 -0.24851572940E+02  0.24851572940E+02  0.00000000000E+00 0.  1.
         21    1    1    2  503  501 -0.19010197846E+02 -0.80362882961E+01  0.60409884779E+02  0.63838262278E+02  0.00000000000E+00 0.  1.
         21    1    1    2  504  503  0.19010197846E+02  0.80362882961E+01 -0.18534772803E+02  0.27739995577E+02  0.00000000000E+00 0.  1.
</event>
<event>
 4    1  0.1679763E+006  0.2875261E+02  0.7546771E-02  0.1430755E+00
         21   -1    0    0  503  501  0.00000000000E+00  0.00000000000E+00  0.59665918642E+02  0.59665918642E+02  0.00000000000E+00 0.  1.
         21   -1    0    0  504  502 -0.00000000000E+00 -0.00000000000E+00 -0.20243642765E+03  0.20243642765E+03  0.00000000000E+00 0.  1.
         21    1    1    2  503  502 -0.57226467732E+00 -0.28746916378E+02 -0.19787206502E+03  0.19995016080E+03  0.00000000000E+00 0.  1.
         21    1    1    2  504  501  0.57226467732E+00  0.28746916378E+02  0.55101556006E+02  0.62152185500E+02  0.00000000000E+00 0.  1.
</event>
<event>
 4    1  0.1679763E+006  0.4123551E+02  0.7546771E-02  0.1341394E+00
         21   -1    0    0  504  501  0.00000000000E+00  0.00000000000E+00  0.91252107506E+02  0.91252107506E+02  0.00000000000E+00 0.  1.
         21   -1    0    0  503  502 -0.00000000000E+00 -0.00000000000E+00 -0.19490725604E+02  0.19490725604E+02  0.00000000000E+00 0.  1.
         21    1    1    2  503  501 -0.40187467166E+02  0.92376804285E+01  0.24269932668E+02  0.47847642456E+02  0.00000000000E+00 0.  1.
         21    1    1    2  504  502  0.40187467166E+02 -0.92376804285E+01  0.47491449234E+02  0.62895190653E+02  0.00000000000E+00 0.  1.
</event>
<event>
 4    1  0.1679763E+006  0.2068353E+02  0.7546771E-02  0.1523832E+00
         21   -1    0    0  502  501  0.00000000000E+00  0.00000000000E+00  0.65679467116E+03  0.65679467116E+03  0.00000000000E+00 0.  1.
         21   -1    0    0  504  502 -0.00000000000E+00 -0.00000000000E+00 -0.29774537998E+02  0.29774537998E+02  0.00000000000E+00 0. -1.
         21    1    1    2  503  501  0.58787893226E+01  0.19830490424E+02  0.65301900122E+03  0.65334648117E+03  0.00000000000E+00 0.  1.
         21    1    1    2  504  503 -0.58787893226E+01 -0.19830490424E+02 -0.25998868055E+02  0.33222727981E+02  0.00000000000E+00 0. -1.
</event>
<event>
 4    1  0.1679763E+006  0.2738005E+02  0.7546771E-02  0.1443827E+00
         21   -1    0    0  504  501  0.00000000000E+00  0.00000000000E+00  0.21210403781E+02  0.21210403781E+02  0.00000000000E+00 0.  1.
         21   -1    0    0  503  502 -0.00000000000E+00 -0.00000000000E+00 -0.54463492197E+03  0.54463492197E+03  0.00000000000E+00 0. -1.
         21    1    1    2  503  501 -0.25555884208E+02  0.98266924430E+01  0.11876235419E+02  0.29844799710E+02  0.00000000000E+00 0.  1.
         21    1    1    2  504  502  0.25555884208E+02 -0.98266924430E+01 -0.53530075361E+03  0.53600052604E+03  0.00000000000E+00 0. -1.
</event>
<event>
 4    1  0.1679763E+006  0.3391451E+02  0.7546771E-02  0.1388359E+00
         21   -1    0    0  504  501  0.00000000000E+00  0.00000000000E+00  0.39313024080E+03  0.39313024080E+03  0.00000000000E+00 0.  1.
         21   -1    0    0  503  502 -0.00000000000E+00 -0.00000000000E+00 -0.29838676249E+01  0.29838676249E+01  0.00000000000E+00 0.  1.
         21    1    1    2  503  501 -0.25624952881E+02 -0.22216119328E+02  0.16742812845E+03  0.17082848816E+03  0.00000000000E+00 0.  1.
         21    1    1    2  504  502  0.25624952881E+02  0.22216119328E+02  0.22271824472E+03  0.22528562027E+03  0.00000000000E+00 0.  1.
</event>
<event>
 4    1  0.1679763E+006  0.3566244E+02  0.7546771E-02  0.1375965E+00
         21   -1    0    0  504  501  0.00000000000E+00  0.00000000000E+00  0.10250818682E+02  0.10250818682E+02  0.00000000000E+00 0.  1.
         21   -1    0    0  501  502 -0.00000000000E+00 -0.00000000000E+00 -0.25762924591E+03  0.25762924591E+03  0.00000000000E+00 0. -1.
         21    1    1    2  503  502 -0.33370999287E+02  0.12577204137E+02 -0.22012790105E+03  0.22299798761E+03  0.00000000000E+00 0. -1.
         21    1    1    2  504  503  0.33370999287E+02 -0.12577204137E+02 -0.27250526179E+02  0.44882076984E+02  0.00000000000E+00 0.  1.
</event>
<event>
 4    1  0.1679763E+006  0.3943480E+02  0.7546771E-02  0.1351830E+00
         21   -1    0    0  502  501  0.00000000000E+00  0.00000000000E+00  0.27080711420E+03  0.27080711420E+03  0.00000000000E+00 0.  1.
         21   -1    0    0  504  502 -0.00000000000E+00 -0.00000000000E+00 -0.82472324765E+01  0.82472324765E+01  0.00000000000E+00 0.  1.
         21    1    1    2  503  501 -0.39232076488E+02 -0.39934863651E+01  0.20817302880E+03  0.21187523140E+03  0.00000000000E+00 0.  1.
         21    1    1    2  504  503  0.39232076488E+02  0.39934863651E+01  0.54386852915E+02  0.67179115274E+02  0.00000000000E+00 0.  1.
</event>
<event>
 4    1  0.1679763E+006  0.2630008E+02  0.7546771E-02  0.1454768E+00
         21   -1    0    0  503  501  0.00000000000E+00  0.00000000000E+00  0.15798269514E+04  0.15798269514E+04  0.00000000000E+00 0.  1.
         21   -1    0    0  504  502 -0.00000000000E+00 -0.00000000000E+00 -0.30390730846E+01  0.30390730846E+01  0.00000000000E+00 0.  1.
         21    1    1    2  503  502  0.15001421586E+02 -0.21602120250E+02  0.56186508386E+02  0.62037230544E+02  0.00000000000E+00 0.  1.
         21    1    1    2  504  501 -0.15001421586E+02  0.21602120250E+02  0.15206013699E+04  0.15208287939E+04  0.00000000000E+00 0.  1.
</event>
<event>
 4    1  0.1679763E+006  0.2718782E+02  0.7546771E-02  0.1445731E+00
         21   -1    0    0  504  501  0.00000000000E+00  0.00000000000E+00  0.60491026358E+02  0.60491026358E+02  0.00000000000E+00 0.  1.
         21   -1    0    0  503  502 -0.00000000000E+00 -0.00000000000E+00 -0.31933156162E+02  0.31933156162E+02  0.00000000000E+00 0. -1.
         21    1    1    2  503  501  0.26272483615E+02 -0.69952864758E+01 -0.22030287759E+02  0.34993013688E+02  0.00000000000E+00 0. -1.
         21    1    1    2  504  502 -0.26272483615E+02  0.69952864758E+01  0.50588157955E+02  0.57431168832E+02  0.00000000000E+00 0.  1.
</event>
<event>
 4    1  0.1679763E+006  0.2533753E+02  0.7546771E-02  0.1465063E+00
         21   -1    0    0  503  501  0.00000000000E+00  0.00000000000E+00  0.18942115923E+02  0.18942115923E+02  0.00000000000E+00 0.  1.
         21   -1    0    0  501  502 -0.00000000000E+00 -0.00000000000E+00 -0.10126163206E+03  0.10126163206E+03  0.00000000000E+00 0.  1.
         21    1    1    2  503  504  0.73409651495E+01 -0.24250789148E+02  0.78629049794E+01  0.26529527292E+02  0.00000000000E+00 0.  1.
         21    1    1    2  504  502 -0.73409651495E+01  0.24250789148E+02 -0.90182421119E+02  0.93674220693E+02  0.00000000000E+00 0.  1.
</event>
<event>
 4    1  0.1679763E+006  0.2080374E+02  0.7546771E-02  0.1522086E+00
         21   -1    0    0  504  501  0.00000000000E+00  0.00000000000E+00  0.13275494219E+03  0.13275494219E+03  0.00000000000E+00 0.  1.
         21   -1    0    0  501  502 -0.00000000000E+00 -0.00000000000E+00 -0.82524229516E+01  0.82524229516E+01  0.00000000000E+00 0.  1.
         21    1    1    2  503  502 -0.10081769653E+01  0.20779292114E+02  0.74144643393E+01  0.22085508439E+02  0.00000000000E+00 0.  1.
         21    1    1    2  504  503  0.10081769653E+01 -0.20779292114E+02  0.11708805490E+03  0.11892185670E+03  0.00000000000E+00 0.  1.
</event>
<event>
 4    1  0.1679763E+006  0.2680187E+02  0.7546771E-02  0.1449609E+00
         21   -1    0    0  503  501  0.00000000000E+00  0.00000000000E+00  0.25538962480E+02  0.25538962480E+02  0.00000000000E+00 0. -1.
         21   -1    0    0  504  502 -0.00000000000E+00 -0.00000000000E+00 -0.34249157430E+02  0.34249157430E+02  0.00000000000E+00 0.  1.
         21    1    1    2  503  502  0.50427969398E+01 -0.26323191091E+02 -0.16993848452E+02  0.31735328506E+02  0.00000000000E+00 0.  1.
         21    1    1    2  504  501 -0.50427969398E+01  0.26323191091E+02  0.82836535009E+01  0.28052791404E+02  0.00000000000E+00 0. -1.
</event>
<event>
 4    1  0.1679763E+006  0.2823305E+02  0.7546771E-02  0.1435600E+00
         21   -1    0    0  504  501  0.00000000000E+00  0.00000000000E+00  0.12977152212E+03  0.12977152212E+03  0.00000000000E+00 0.  1.
         21   -1    0    0  503  502 -0.00000000000E+00 -0.00000000000E+00 -0.42855618782E+03  0.42855618782E+03  0.00000000000E+00 0. -1.
         21    1    1    2  503  501 -0.57069214092E+01  0.27650247670E+02  0.12776371393E+03  0.13084598482E+03  0.00000000000E+00 0.  1.
         21    1    1    2  504  502  0.57069214092E+01 -0.27650247670E+02 -0.42654837963E+03  0.42748172512E+03  0.00000000000E+00 0. -1.
</event>
<event>
 4    1  0.1679763E+006  0.3670870E+02  0.7546771E-02  0.1368933E+00
         21   -1    0    0  503  501  0.00000000000E+00  0.00000000000E+00  0.31919455793E+03  0.31919455793E+03  0.00000000000E+00 0.  1.
         21   -1    0    0  504  502 -0.00000000000E+00 -0.00000000000E+00 -0.46244692808E+01  0.46244692808E+01  0.00000000000E+00 0.  1.
         21    1    1    2  503  502 -0.36677927124E+02  0.15027656207E+01  0.20507041519E+03  0.20833003583E+03  0.00000000000E+00 0.  1.
         21    1    1    2  504  501  0.36677927124E+02 -0.15027656207E+01  0.10949967347E+03  0.11548899139E+03  0.00000000000E+00 0.  1.
</event>
<event>
 4    1  0.1679763E+006  0.2389937E+02  0.7546771E-02  0.1481503E+00
         21   -1    0    0  503  501  0.00000000000E+00  0.00000000000E+00  0.14073291488E+03  0.14073291488E+03  0.00000000000E+00 0. -1.
         21   -1    0    0  501  502 -0.00000000000E+00 -0.00000000000E+00 -0.14635413498E+02  0.14635413498E+02  0.00000000000E+00 0.  1.
         21    1    1    2  503  504 -0.12528417512E+01  0.23866512052E+02  0.12908877397E+03  0.13128248769E+03  0.00000000000E+00 0. -1.
         21    1    1    2  504  502  0.12528417512E+01 -0.23866512052E+02 -0.29912725837E+01  0.24085840688E+02  0.00000000000E+00 0.  1.
</event>
<event>
 4    1  0.1679763E+006  0.2116983E+02  0.7546771E-02  0.1516854E+00
         21   -1    0    0  503  501  0.00000000000E+00  0.00000000000E+00  0.50960001969E+01  0.50960001969E+01  0.00000000000E+00 0.  1.
         21   -1    0    0  504  502 -0.00000000000E+00 -0.00000000000E+00 -0.98372568440E+02  0.98372568440E+02  0.00000000000E+00 0.  1.
         21    1    1    2  503  502  0.47990951303E+01 -0.20618695247E+02 -0.63482732189E+02  0.66919497861E+02  0.00000000000E+00 0.  1.
         21    1    1    2  504  501 -0.47990951303E+01  0.20618695247E+02 -0.29793836053E+02  0.36549070775E+02  0.00000000000E+00 0.  1.
</event>
<event>
 4    1  0.1679763E+006  0.4258898E+02  0.7546771E-02  0.1333948E+00
         21   -1    0    0  503  501  0.00000000000E+00  0.00000000000E+00  0.33998234420E+02  0.33998234420E+02  0.00000000000E+00 0.  1.
         21   -1    0    0  504  502 -0.00000000000E+00 -0.00000000000E+00 -0.67645933087E+02  0.67645933087E+02  0.00000000000E+00 0. -1.
         21    1    1    2  503  502  0.78405360804E+01  0.41861048013E+02  0.65392756317E+01  0.43088089684E+02  0.00000000000E+00 0.  1.
         21    1    1    2  504  501 -0.78405360804E+01 -0.41861048013E+02 -0.40186974298E+02  0.58556077823E+02  0.00000000000E+00 0. -1.
</event>
<event>
 4    1  0.1679763E+006  0.3102774E+02  0.7546771E-02  0.1410871E+00
         21   -1    0    0  503  501  0.00000000000E+00  0.00000000000E+00  0.27376073469E+01  0.27376073469E+01  0.00000000000E+00 0. -1.
         21   -1    0    0  501  502 -0.00000000000E+00 -0.00000000000E+00 -0.35760333945E+03  0.35760333945E+03  0.00000000000E+00 0. -1.
         21    1    1    2  503  504  0.31008635502E+02 -0.10885345261E+01 -0.15421515436E+03  0.15730554414E+03  0.00000000000E+00 0. -1.
         21    1    1    2  504  502 -0.31008635502E+02  0.10885345261E+01 -0.20065057774E+03  0.20303540265E+03  0.00000000000E+00 0. -1.
</event>
<event>
 4    1  0.1679763E+006  0.2337489E+02  0.7546771E-02  0.1487844E+00
         21   -1    0    0  504  501  0.00000000000E+00  0.00000000000E+00  0.30991777757E+01  0.30991777757E+01  0.00000000000E+00 0.  1.
         21   -1    0    0  501  502 -0.00000000000E+00 -0.00000000000E+00 -0.18302758080E+03  0.18302758080E+03  0.00000000000E+00 0. -1.
         21    1    1    2  503  502 -0.22490662305E+02 -0.63683175276E+01 -0.10780633179E+03  0.11031133456E+03  0.00000000000E+00 0. -1.
         21    1    1    2  504  503  0.22490662305E+02  0.63683175276E+01 -0.72122071230E+02  0.75815424008E+02  0.00000000000E+00 0.  1.
</event>
<event>
 4    1  0.1679763E+006  0.2014234E+02  0.7546771E-02  0.1531871E+00
         21   -1    0    0  503  501  0.00000000000E+00  0.00000000000E+00  0.10841792495E+02  0.10841792495E+02  0.00000000000E+00 0. -1.
         21   -1    0    0  504  502 -0.00000000000E+00 -0.00000000000E+00 -0.52434669246E+02  0.52434669246E+02  0.00000000000E+00 0. -1.
         21    1    1    2  503  502  0.13648382826E+02  0.14813361288E+02 -0.38670241440E+01  0.20510190202E+02  0.00000000000E+00 0. -1.
         21    1    1    2  504  501 -0.13648382826E+02 -0.14813361288E+02 -0.37725852608E+02  0.42766271539E+02  0.00000000000E+00 0. -1.
</event>
<event>
 4    1  0.1679763E+006  0.3624606E+02  0.7546771E-02  0.1372008E+00
         21   -1    0    0  503  501  0.00000000000E+00  0.00000000000E+00  0.13325893186E+03  0.13325893186E+03  0.00000000000E+00 0. -1.
         21   -1    0    0  504  502 -0.00000000000E+00 -0.00000000000E+00 -0.99231055682E+01  0.99231055682E+01  0.00000000000E+00 0. -1.
         21    1    1    2  503  502  0.32337098065E+02 -0.16373417673E+02  0.67429853959E+02  0.76554307014E+02  0.00000000000E+00 0. -1.
         21    1    1    2  504  501 -0.32337098065E+02  0.16373417673E+02  0.55905972331E+02  0.66627730412E+02  0.00000000000E+00 0. -1.
</event>
<event>
 4    1  0.1679763E+006  0.2768324E+02  0.7546771E-02  0.1440863E+00
         21   -1    0    0  504  501  0.00000000000E+00  0.00000000000E+00  0.41238087355E+02  0.41238087355E+02  0.00000000000E+00 0.  1.
         21   -1    0    0  503  502 -0.00000000000E+00 -0.00000000000E+00 -0.21298378559E+02  0.21298378559E+02  0.00000000000E+00 0.  1.
         21    1    1    2  503  501  0.58923082266E+01  0.27048887402E+02  0.21132801673E+02  0.34827530956E+02  0.00000000000E+00 0.  1.
         21    1    1    2  504  502 -0.58923082266E+01 -0.27048887402E+02 -0.11930928778E+01  0.27708934959E+02  0.00000000000E+00 0.  1.
</event>
<event>
 4    1  0.1679763E+006  0.2774363E+02  0.7546771E-02  0.1440278E+00
         21   -1    0    0  504  501  0.00000000000E+00  0.00000000000E+00  0.67465940975E+03  0.67465940975E+03  0.00000000000E+00 0.  1.
         21   -1    0    0  503  502 -0.00000000000E+00 -0.00000000000E+00 -0.33883522366E+02  0.33883522366E+02  0.00000000000E+00 0.  1.
         21    1    1    2  503  501 -0.48429360175E+00  0.27739404155E+02  0.66864403816E+03  0.66921936526E+03  0.00000000000E+00 0.  1.
         21    1    1    2  504  502  0.48429360175E+00 -0.27739404155E+02 -0.27868150768E+02  0.39323566857E+02  0.00000000000E+00 0.  1.
</event>
<event>
 4    1  0.1679763E+006  0.2807031E+02  0.7546771E-02  0.1437143E+00
         21   -1    0    0  503  501  0.00000000000E+00  0.00000000000E+00  0.18085357805E+03  0.18085357805E+03  0.00000000000E+00 0. -1.
         21   -1    0    0  504  502 -0.00000000000E+00 -0.00000000000E+00 -0.16228493785E+03  0.16228493785E+03  0.00000000000E+00 0.  1.
         21    1    1    2  503  502  0.27448587389E+02 -0.58751658835E+01  0.17853488468E+03  0.18072810399E+03  0.00000000000E+00 0. -1.
         21    1    1    2  504  501 -0.27448587389E+02  0.58751658835E+01 -0.15996624448E+03  0.16241041191E+03  0.00000000000E+00 0.  1.
</event>
<event>
 4    1  0.1679763E+006  0.3652509E+02  0.7546771E-02  0.1370147E+00
         21   -1    0    0  503  501  0.00000000000E+00  0.00000000000E+00  0.51084705749E+03  0.51084705749E+03  0.00000000000E+00 0. -1.
         21   -1    0    0  504  502 -0.00000000000E+00 -0.00000000000E+00 -0.64235172757E+01  0.64235172757E+01  0.00000000000E+00 0. -1.
         21    1    1    2  503  502 -0.27281511763E+02 -0.24285830913E+02  0.45145251680E+03  0.45292765139E+03  0.00000000000E+00 0. -1.
         21    1    1    2  504  501  0.27281511763E+02  0.24285830913E+02  0.52971023417E+02  0.64342923380E+02  0.00000000000E+00 0. -1.
</event>
<event>
 4    1  0.1679763E+006  0.2278710E+02  0.7546771E-02  0.1495189E+00
         21   -1    0    0  502  501  0.00000000000E+00  0.00000000000E+00  0.12592468576E+03  0.12592468576E+03  0.00000000000E+00 0.  1.
         21   -1    0    0  503  502 -0.00000000000E+00 -0.00000000000E+00 -0.19183442574E+02  0.19183442574E+02  0.00000000000E+00 0. -1.
         21    1    1    2  503  504  0.12296880897E+02 -0.19184332685E+02 -0.10914424921E+02  0.25266115090E+02  0.00000000000E+00 0. -1.
         21    1    1    2  504  501 -0.12296880897E+02  0.19184332685E+02  0.11765566810E+03  0.11984201324E+03  0.00000000000E+00 0.  1.
</event>
<event>
 4    1  0.1679763E+006  0.2291727E+02  0.7546771E-02  0.1493540E+00
         21   -1    0    0  504  501  0.00000000000E+00  0.00000000000E+00  0.13394416899E+03  0.13394416899E+03  0.00000000000E+00 0. -1.
         21   -1    0    0  501  502 -0.00000000000E+00 -0.00000000000E+00 -0.73607146675E+01  0.73607146675E+01  0.00000000000E+00 0.  1.
         21    1    1    2  503  502  0.11879562962E+02 -0.19597885582E+02  0.14994127989E+02  0.27386584483E+02  0.00000000000E+00 0.  1.
         21    1    1    2  504  503 -0.11879562962E+02  0.19597885582E+02  0.11158932634E+03  0.11391829918E+03  0.00000000000E+00 0. -1.
</event>
<event>
 4    1  0.1679763E+006  0.4103442E+02  0.7546771E-02  0.1342528E+00
         21   -1    0    0  503  501  0.00000000000E+00  0.00000000000E+00  0.34775890721E+03  0.34775890721E+03  0.00000000000E+00 0.  1.
         21   -1    0    0  501  502 -0.00000000000E+00 -0.00000000000E+00 -0.62853380983E+02  0.62853380983E+02  0.00000000000E+00 0. -1.
         21    1    1    2  503  504  0.62374915043E+01  0.40557578577E+02  0.33969253756E+03  0.34216201361E+03  0.00000000000E+00 0.  1.
         21    1    1    2  504  502 -0.62374915043E+01 -0.40557578577E+02 -0.54787011334E+02  0.68450274588E+02  0.00000000000E+00 0. -1.
</event>
<event>
 4    1  0.1679763E+006  0.2232131E+02  0.7546771E-02  0.1501201E+00
         21   -1    0    0  503  501  0.00000000000E+00  0.00000000000E+00  0.67291589922E+02  0.67291589922E+02  0.00000000000E+00 0.  1.
         21   -1    0    0  504  502 -0.00000000000E+00 -0.00000000000E+00 -0.98584148538E+01  0.98584148538E+01  0.00000000000E+00 0.  1.
         21    1    1    2  503  502 -0.18809204077E+02 -0.12018937958E+02  0.94698170010E+01  0.24247029956E+02  0.00000000000E+00 0.  1.
         21    1    1    2  504  501  0.18809204077E+02  0.12018937958E+02  0.47963358067E+02  0.52902974819E+02  0.00000000000E+00 0.  1.
</event>
<event>
 4    1  0.1679763E+006  0.2468956E+02  0.7546771E-02  0.1472306E+00
         21   -1    0    0  504  501  0.00000000000E+00  0.00000000000E+00  0.14670548817E+03  0.14670548817E+03  0.00000000000E+00 0.  1.
         21   -1    0    0  503  502 -0.00000000000E+00 -0.00000000000E+00 -0.42420568764E+01  0.42420568764E+01  0.00000000000E+00 0.  1.
         21    1    1    2  503  501 -0.16004596717E+02  0.18799664766E+02  0.82038206069E+02  0.85672876492E+02  0.00000000000E+00 0.  1.
         21    1    1    2  504  502  0.16004596717E+02 -0.18799664766E+02  0.60425225221E+02  0.65274668550E+02  0.00000000000E+00 0.  1.
</event>
<event>
 4    1  0.1679763E+006  0.3717786E+02  0.7546771E-02  0.1365867E+00
         21   -1    0    0  503  501  0.00000000000E+00  0.00000000000E+00  0.13236378969E+02  0.13236378969E+02  0.00000000000E+00 0. -1.
         21   -1    0    0  501  502 -0.00000000000E+00 -0.00000000000E+00 -0.10955214547E+03  0.10955214547E+03  0.00000000000E+00 0. -1.
         21    1    1    2  503  504  0.33703032431E+02  0.15693902154E+02 -0.34874580379E+02  0.50974790990E+02  0.00000000000E+00 0. -1.
         21    1    1    2  504  502 -0.33703032431E+02 -0.15693902154E+02 -0.61441186125E+02  0.71813733452E+02  0.00000000000E+00 0. -1.
</event>
<event>
 4    1  0.1679763E+006  0.2187365E+02  0.7546771E-02  0.1507148E+00
         21   -1    0    0  502  501  0.00000000000E+00  0.00000000000E+00  0.20601749138E+02  0.20601749138E+02  0.00000000000E+00 0. -1.
         21   -1    0    0  504  502 -0.00000000000E+00 -0.00000000000E+00 -0.21347619209E+03  0.21347619209E+03  0.00000000000E+00 0. -1.
         21    1    1    2  503  501  0.21069757572E+02 -0.58755321690E+01  0.14052154070E+02  0.25998453731E+02  0.00000000000E+00 0. -1.
         21    1    1    2  504  503 -0.21069757572E+02  0.58755321690E+01 -0.20692659702E+03  0.20807948750E+03  0.00000000000E+00 0. -1.
</event>
<event>
 4    1  0.1679763E+006  0.5391359E+02  0.7546771E-02  0.1282041E+00
         21   -1    0    0  503  501  0.00000000000E+00  0.00000000000E+00  0.17243869962E+03  0.17243869962E+03  0.00000000000E+00 0.  1.
         21   -1    0    0  504  502 -0.00000000000E+00 -0.00000000000E+00 -0.31406161804E+02  0.31406161804E+02  0.00000000000E+00 0.  1.
         21    1    1    2  503  502  0.32167435367E+02  0.43265825564E+02  0.13988951639E+03  0.14991915274E+03  0.00000000000E+00 0.  1.
         21    1    1    2  504  501 -0.32167435367E+02 -0.43265825564E+02  0.11430214238E+01  0.53925708691E+02  0.00000000000E+00 0.  1.
</event>
<event>
 4    1  0.1679763E+006  0.2930121E+02  0.7546771E-02  0.1425768E+00
         21   -1    0    0  503  501  0.00000000000E+00  0.00000000000E+00  0.24979055612E+02  0.24979055612E+02  0.00000000000E+00 0. -1.
         21   -1    0    0  504  502 -0.00000000000E+00 -0.00000000000E+00 -0.35286671325E+02  0.35286671325E+02  0.00000000000E+00 0. -1.
         21    1    1    2  503  502 -0.29712000209E+01 -0.29150180682E+02 -0.30038158462E+00  0.29302752302E+02  0.00000000000E+00 0. -1.
         21    1    1    2  504  501  0.29712000209E+01  0.29150180682E+02 -0.10007234129E+02  0.30962974635E+02  0.00000000000E+00 0. -1.
</event>
<event>
 4    1  0.1679763E+006  0.4200194E+02  0.7546771E-02  0.1337138E+00
         21   -1    0    0  504  501  0.00000000000E+00  0.00000000000E+00  0.16141943317E+02  0.16141943317E+02  0.00000000000E+00 0.  1.
         21   -1    0    0  501  502 -0.00000000000E+00 -0.00000000000E+00 -0.62330415343E+03  0.62330415343E+03  0.00000000000E+00 0. -1.
         21    1    1    2  503  502  0.41433930588E+02  0.68842360873E+01 -0.59392400027E+03  0.59540732394E+03  0.00000000000E+00 0. -1.
         21    1    1    2  504  503 -0.41433930588E+02 -0.68842360873E+01 -0.13238209848E+02  0.44038772808E+02  0.00000000000E+00 0.  1.
</event>
<event>
 4    1  0.1679763E+006  0.2074068E+02  0.7546771E-02  0.1523000E+00
         21   -1    0    0  504  501  0.00000000000E+00  0.00000000000E+00  0.54205258890E+00  0.54205258890E+00  0.00000000000E+00 0.  1.
         21   -1    0    0  503  502 -0.00000000000E+00 -0.00000000000E+00 -0.79903930511E+03  0.79903930511E+03  0.00000000000E+00 0.  1.
         21    1    1    2  503  501  0.20508972386E+02  0.30915500293E+01 -0.36627841718E+03  0.36686517213E+03  0.00000000000E+00 0.  1.
         21    1    1    2  504  502 -0.20508972386E+02 -0.30915500293E+01 -0.43221883534E+03  0.43271618557E+03  0.00000000000E+00 0.  1.
</event>
<event>
 4    1  0.1679763E+006  0.2282885E+02  0.7546771E-02  0.1494659E+00
         21   -1    0    0  502  501  0.00000000000E+00  0.00000000000E+00  0.84149211260E+02  0.84149211260E+02  0.00000000000E+00 0.  1.
         21   -1    0    0  504  502 -0.00000000000E+00 -0.00000000000E+00 -0.57347979421E+02  0.57347979421E+02  0.00000000000E+00 0. -1.
         21    1    1    2  503  501  0.10831128142E+02  0.20095845923E+02  0.80219881002E+02  0.83404949902E+02  0.00000000000E+00 0.  1.
         21    1    1    2  504  503 -0.10831128142E+02 -0.20095845923E+02 -0.53418649163E+02  0.58092240778E+02  0.00000000000E+00 0. -1.
</event>
<event>
 4    1  0.1679763E+006  0.2842432E+02  0.7546771E-02  0.1433802E+00
         21   -1    0    0  504  501  0.00000000000E+00  0.00000000000E+00  0.15282860432E+03  0.15282860432E+03  0.00000000000E+00 0.  1.
         21   -1    0    0  503  502 -0.00000000000E+00 -0.00000000000E+00 -0.36548044645E+02  0.36548044645E+02  0.00000000000E+00 0.  1.
         21    1    1    2  503  501  0.36960913462E+01  0.28182992575E+02 -0.29432462551E+02  0.40917135939E+02  0.00000000000E+00 0.  1.
         21    1    1    2  504  502 -0.36960913462E+01 -0.28182992575E+02  0.14571302223E+03  0.14845951303E+03  0.00000000000E+00 0.  1.
</event>
<event>
 4    1  0.1679763E+006  0.2281674E+02  0.7546771E-02  0.1494812E+00
         21   -1    0    0  504  501  0.00000000000E+00  0.00000000000E+00  0.41679100527E+01  0.41679100527E+01  0.00000000000E+00 0. -1.
         21   -1    0    0  503  502 -0.00000000000E+00 -0.00000000000E+00 -0.12500576134E+03  0.12500576134E+03  0.00000000000E+00 0. -1.
         21    1    1    2  503  501 -0.49105903067E+00  0.22811460132E+02 -0.62228337507E+02  0.66279482807E+02  0.00000000000E+00 0. -1.
         21    1    1    2  504  502  0.49105903067E+00 -0.22811460132E+02 -0.58609513784E+02  0.62894188589E+02  0.00000000000E+00 0. -1.
</event>
<event>
 4    1  0.1679763E+006  0.2259352E+02  0.7546771E-02  0.1497666E+00
         21   -1    0    0  503  501  0.00000000000E+00  0.00000000000E+00  0.52267152883E+01  0.52267152883E+01  0.00000000000E+00 0.  1.
         21   -1    0    0  501  502 -0.00000000000E+00 -0.00000000000E+00 -0.98621832354E+02  0.98621832354E+02  0.00000000000E+00 0.  1.
         21    1    1    2  503  504 -0.38791709400E+01  0.22258014101E+02 -0.41583079801E+02  0.47324620280E+02  0.00000000000E+00 0.  1.
         21    1    1    2  504  502  0.38791709400E+01 -0.22258014101E+02 -0.51812037265E+02  0.56523927362E+02  0.00000000000E+00 0.  1.
</event>
<event>
 4    1  0.1679763E+006  0.2791509E+02  0.7546771E-02  0.1438626E+00
         21   -1    0    0  504  501  0.00000000000E+00  0.00000000000E+00  0.16132722529E+03  0.16132722529E+03  0.00000000000E+00 0. -1.
         21   -1    0    0  501  502 -0.00000000000E+00 -0.00000000000E+00 -0.19175754408E+03  0.19175754408E+03  0.00000000000E+00 0.  1.
         21    1    1    2  503  502 -0.10902974307E+02  0.25697812320E+02 -0.18951986331E+03  0.19156469141E+03  0.00000000000E+00 0.  1.
         21    1    1    2  504  503  0.10902974307E+02 -0.25697812320E+02  0.15908954452E+03  0.16152007796E+03  0.00000000000E+00 0. -1.
</event>
<event>
 4    1  0.1679763E+006  0.2843087E+02  0.7546771E-02  0.1433741E+00
         21   -1    0    0  504  501  0.00000000000E+00  0.00000000000E+00  0.10949818496E+03  0.10949818496E+03  0.00000000000E+00 0.  1.
         21   -1    0    0  503  502 -0.00000000000E+00 -0.00000000000E+00 -0.17235246068E+03  0.17235246068E+03  0.00000000000E+00 0. -1.
         21    1    1    2  503  501  0.23486197119E+02  0.16022267333E+02  0.10644718769E+03  0.11017857448E+03  0.00000000000E+00 0.  1.
         21    1    1    2  504  502 -0.23486197119E+02 -0.16022267333E+02 -0.16930146341E+03  0.17167207117E+03  0.00000000000E+00 0. -1.
</event>
<event>
 4    1  0.1679763E+006  0.2947381E+02  0.7546771E-02  0.1424225E+00
         21   -1    0    0  504  501  0.00000000000E+00  0.00000000000E+00  0.62420742308E+01  0.62420742308E+01  0.00000000000E+00 0.  1.
         21   -1    0    0  503  502 -0.00000000000E+00 -0.00000000000E+00 -0.16842226752E+03  0.16842226752E+03  0.00000000000E+00 0.  1.
         21    1    1    2  503  501 -0.24180409024E+02  0.16852686819E+02 -0.44693623015E+02  0.53537138248E+02  0.00000000000E+00 0.  1.
         21    1    1    2  504  502  0.24180409024E+02 -0.16852686819E+02 -0.11748657027E+03  0.12112720350E+03  0.00000000000E+00 0.  1.
</event>
<event>
 4    1  0.1679763E+006  0.2168777E+02  0.7546771E-02  0.1509668E+00
         21   -1    0    0  504  501  0.00000000000E+00  0.00000000000E+00  0.33252751393E+02  0.33252751393E+02  0.00000000000E+00 0.  1.
         21   -1    0    0  503  502 -0.00000000000E+00 -0.00000000000E+00 -0.82129147195E+02  0.82129147195E+02  0.00000000000E+00 0.  1.
         21    1    1    2  503  501 -0.71070045377E+01  0.20490236405E+02 -0.76926550105E+02  0.79925298951E+02  0.00000000000E+00 0.  1.
         21    1    1    2  504  502  0.71070045377E+01 -0.20490236405E+02  0.28050154302E+02  0.35456599637E+02  0.00000000000E+00 0.  1.
</event>
<event>
 4    1  0.1679763E+006  0.2452024E+02  0.7546771E-02  0.1474243E+00
         21   -1    0    0  502  501  0.00000000000E+00  0.00000000000E+00  0.28127952159E+03  0.28127952159E+03  0.00000000000E+00 0. -1.
         21   -1    0    0  503  502 -0.00000000000E+00 -0.00000000000E+00 -0.37328178488E+01  0.37328178488E+01  0.00000000000E+00 0. -1.
         21    1    1    2  503  504  0.22385138387E+02  0.10007387508E+02  0.45612087748E+02  0.51785179097E+02  0.00000000000E+00 0. -1.
         21    1    1    2  504  501 -0.22385138387E+02 -0.10007387508E+02  0.23193461600E+03  0.23322716034E+03  0.00000000000E+00 0. -1.
</event>
<event>
 4    1  0.1679763E+006  0.2525154E+02  0.7546771E-02  0.1466009E+00
         21   -1    0    0  503  501  0.00000000000E+00  0.00000000000E+00  0.48981385739E+03  0.48981385739E+03  0.00000000000E+00 0. -1.
         21   -1    0    0  504  502 -0.00000000000E+00 -0.00000000000E+00 -0.40321087201E+02  0.40321087201E+02  0.00000000000E+00 0. -1.
         21    1    1    2  503  502  0.20012847916E+02  0.15398907353E+02  0.48549978332E+03  0.48615602437E+03  0.00000000000E+00 0. -1.
         21    1    1    2  504  501 -0.20012847916E+02 -0.15398907353E+02 -0.36007013128E+02  0.43978920221E+02  0.00000000000E+00 0. -1.
</event>
<event>
 4    1  0.1679763E+006  0.2555996E+02  0.7546771E-02  0.1462636E+00
         21   -1    0    0  504  501  0.00000000000E+00  0.00000000000E+00  0.52336663298E+01  0.52336663298E+01  0.00000000000E+00 0.  1.
         21   -1    0    0  503  502 -0.00000000000E+00 -0.00000000000E+00 -0.23654451994E+03  0.23654451994E+03  0.00000000000E+00 0.  1.
         21    1    1    2  503  501  0.22280398911E+02 -0.12525786184E+02 -0.32577028946E+02  0.41407418539E+02  0.00000000000E+00 0.  1.
         21    1    1    2  504  502 -0.22280398911E+02  0.12525786184E+02 -0.19873382466E+03  0.20037076773E+03  0.00000000000E+00 0.  1.
</event>
<event>
 4    1  0.1679763E+006  0.2802301E+02  0.7546771E-02  0.1437594E+00
         21   -1    0    0  503  501  0.00000000000E+00  0.00000000000E+00  0.40498881199E+03  0.40498881199E+03  0.00000000000E+00 0.  1.
         21   -1    0    0  504  502 -0.00000000000E+00 -0.00000000000E+00 -0.20164991254E+01  0.20164991254E+01  0.00000000000E+00 0.  1.
         21    1    1    2  503  502 -0.27477959049E+02  0.55001022833E+01  0.24137104439E+03  0.24299232587E+03  0.00000000000E+00 0.  1.
         21    1    1    2  504  501  0.27477959049E+02 -0.55001022833E+01  0.16160126847E+03  0.16401298525E+03  0.00000000000E+00 0.  1.
</event>
<event>
 4    1  0.1679763E+006  0.2116945E+02  0.7546771E-02  0.1516859E+00
         21   -1    0    0  503  501  0.00000000000E+00  0.00000000000E+00  0.60612572355E+02  0.60612572355E+02  0.00000000000E+00 0. -1.
         21   -1    0    0  504  502 -0.00000000000E+00 -0.00000000000E+00 -0.78369574013E+01  0.78369574013E+01  0.00000000000E+00 0. -1.
         21    1    1    2  503  502 -0.18574530526E+02  0.10155407933E+02  0.18247503093E+02  0.27948468002E+02  0.00000000000E+00 0. -1.
         21    1    1    2  504  501  0.18574530526E+02 -0.10155407933E+02  0.34528111861E+02  0.40501061755E+02  0.00000000000E+00 0. -1.
</event>
<event>
 4    1  0.1679763E+006  0.2648621E+02  0.7546771E-02  0.1452839E+00
         21   -1    0    0  504  501  0.00000000000E+00  0.00000000000E+00  0.10918118896E+02  0.10918118896E+02  0.00000000000E+00 0. -1.
         21   -1    0    0  503  502 -0.00000000000E+00 -0.00000000000E+00 -0.35103272228E+03  0.35103272228E+03  0.00000000000E+00 0. -1.
         21    1    1    2  503  501 -0.15477558614E+02 -0.21493354086E+02 -0.64810667010E+01  0.27267623954E+02  0.00000000000E+00 0. -1.
         21    1    1    2  504  502  0.15477558614E+02  0.21493354086E+02 -0.33363353669E+03  0.33468321723E+03  0.00000000000E+00 0. -1.
</event>
<event>
 4    1  0.1679763E+006  0.2568660E+02  0.7546771E-02  0.1461267E+00
         21   -1    0    0  503  501  0.00000000000E+00  0.00000000000E+00  0.96616430673E+02  0.96616430673E+02  0.00000000000E+00 0. -1.
         21   -1    0    0  504  502 -0.00000000000E+00 -0.00000000000E+00 -0.34456879089E+02  0.34456879089E+02  0.00000000000E+00 0. -1.
         21    1    1    2  503  502 -0.25389904598E+01 -0.25560810946E+02  0.89763738124E+02  0.93366643994E+02  0.00000000000E+00 0. -1.
         21    1    1    2  504  501  0.25389904598E+01  0.25560810946E+02 -0.27604186540E+02  0.37706665767E+02  0.00000000000E+00 0. -1.
</event>
<event>
 4    1  0.1679763E+006  0.2583455E+02  0.7546771E-02  0.1459680E+00
         21   -1    0    0  503  501  0.00000000000E+00  0.00000000000E+00  0.36645064502E+02  0.36645064502E+02  0.00000000000E+00 0.  1.
         21   -1    0    0  501  502 -0.00000000000E+00 -0.00000000000E+00 -0.17429966539E+03  0.17429966539E+03  0.00000000000E+00 0.  1.
         21    1    1    2  503  504  0.24983279757E+02  0.65772287820E+01  0.30982461177E+02  0.40340266563E+02  0.00000000000E+00 0.  1.
         21    1    1    2  504  502 -0.24983279757E+02 -0.65772287820E+01 -0.16863706206E+03  0.17060446332E+03  0.00000000000E+00 0.  1.
</event>
<event>
 4    1  0.1679763E+006  0.2117222E+02  0.7546771E-02  0.1516820E+00
         21   -1    0    0  503  501  0.00000000000E+00  0.00000000000E+00  0.58840204910E+03  0.58840204910E+03  0.00000000000E+00 0.  1.
         21   -1    0    0  504  502 -0.00000000000E+00 -0.00000000000E+00 -0.10173729707E+01  0.10173729707E+01  0.00000000000E+00 0.  1.
         21    1    1    2  503  502  0.20907815367E+02 -0.33356082003E+01  0.14599069769E+03  0.14751795429E+03  0.00000000000E+00 0.  1.
         21    1    1    2  504  501 -0.20907815367E+02  0.33356082003E+01  0.44139397844E+03  0.44190146778E+03  0.00000000000E+00 0.  1.
</event>
<event>
 4    1  0.1679763E+006  0.2223524E+02  0.7546771E-02  0.1502331E+00
         21   -1    0    0  503  501  0.00000000000E+00  0.00000000000E+00  0.13564614722E+01  0.13564614722E+01  0.00000000000E+00 0.  1.
         21   -1    0    0  504  502 -0.00000000000E+00 -0.00000000000E+00 -0.37294730626E+03  0.37294730626E+03  0.00000000000E+00 0.  1.
         21    1    1    2  503  502 -0.16924793821E+02  0.14420718356E+02 -0.21399173419E+03  0.21514383111E+03  0.00000000000E+00 0.  1.
         21    1    1    2  504  501  0.16924793821E+02 -0.14420718356E+02 -0.15759911059E+03  0.15915993662E+03  0.00000000000E+00 0.  1.
</event>
<event>
 4    1  0.1679763E+006  0.2406758E+02  0.7546771E-02  0.1479511E+00
         21   -1    0    0  503  501  0.00000000000E+00  0.00000000000E+00  0.19089641479E+03  0.19089641479E+03  0.00000000000E+00 0. -1.
         21   -1    0    0  504  502 -0.00000000000E+00 -0.00000000000E+00 -0.38831306928E+03  0.38831306928E+03  0.00000000000E+00 0.  1.
         21    1    1    2  503  502  0.99144858536E+01  0.21930607012E+02 -0.38717933372E+03  0.38792664901E+03  0.00000000000E+00 0.  1.
         21    1    1    2  504  501 -0.99144858536E+01 -0.21930607012E+02  0.18976267924E+03  0.19128283506E+03  0.00000000000E+00 0. -1.
</event>
<event>
 4    1  0.1679763E+006  0.2535381E+02  0.7546771E-02  0.1464884E+00
         21   -1    0    0  504  501  0.00000000000E+00  0.00000000000E+00  0.91265695917E+02  0.91265695917E+02  0.00000000000E+00 0. -1.
         21   -1    0    0  501  502 -0.00000000000E+00 -0.00000000000E+00 -0.79435151217E+01  0.79435151217E+01  0.00000000000E+00 0. -1.
         21    1    1    2  503  502 -0.11048816621E+02 -0.22819718532E+02  0.24962584365E+02  0.35580142225E+02  0.00000000000E+00 0. -1.
         21    1    1    2  504  503  0.11048816621E+02  0.22819718532E+02  0.58359596431E+02  0.63629068814E+02  0.00000000000E+00 0. -1.
</event>
<event>
 4    1  0.1679763E+006  0.4070224E+02  0.7546771E-02  0.1344419E+00
         21   -1    0    0  504  501  0.00000000000E+00  0.00000000000E+00  0.47128757323E+02  0.47128757323E+02  0.00000000000E+00 0.  1.
         21   -1    0    0  503  502 -0.00000000000E+00 -0.00000000000E+00 -0.69719159887E+02  0.69719159887E+02  0.00000000000E+00 0.  1.
         21    1    1    2  503  501  0.40545457896E+02 -0.35690188251E+01 -0.52433515726E+02  0.66377297495E+02  0.00000000000E+00 0.  1.
         21    1    1    2  504  502 -0.40545457896E+02  0.35690188251E+01  0.29843113162E+02  0.50470619716E+02  0.00000000000E+00 0.  1.
</event>
<event>
 4    1  0.1679763E+006  0.2348114E+02  0.7546771E-02  0.1486543E+00
         21   -1    0    0  503  501  0.00000000000E+00  0.00000000000E+00  0.49902720199E+02  0.49902720199E+02  0.00000000000E+00 0. -1.
         21   -1    0    0  504  502 -0.00000000000E+00 -0.00000000000E+00 -0.16608271981E+02  0.16608271981E+02  0.00000000000E+00 0.  1.
         21    1    1    2  503  502 -0.13980712270E+02 -0.18865401838E+02 -0.25933989902E+01  0.23623916280E+02  0.00000000000E+00 0.  1.
         21    1    1    2  504  501  0.13980712270E+02  0.18865401838E+02  0.35887847208E+02  0.42887075901E+02  0.00000000000E+00 0. -1.
</event>
<event>
 4    1  0.1679763E+006  0.2341894E+02  0.7546771E-02  0.1487303E+00
         21   -1    0    0  503  501  0.00000000000E+00  0.00000000000E+00  0.53197025675E+02  0.53197025675E+02  0.00000000000E+00 0.  1.
         21   -1    0    0  504  502 -0.00000000000E+00 -0.00000000000E+00 -0.17374250976E+02  0.17374250976E+02  0.00000000000E+00 0.  1.
         21    1    1    2  503  502 -0.10794490048E+02  0.20782819931E+02 -0.45888187241E+01  0.23864280357E+02  0.00000000000E+00 0.  1.
         21    1    1    2  504  501  0.10794490048E+02 -0.20782819931E+02  0.40411593423E+02  0.46706996293E+02  0.00000000000E+00 0.  1.
</event>
<event>
 4    1  0.1679763E+006  0.3396352E+02  0.7546771E-02  0.1388000E+00
         21   -1    0    0  503  501  0.00000000000E+00  0.00000000000E+00  0.12080508612E+02  0.12080508612E+02  0.00000000000E+00 0.  1.
         21   -1    0    0  504  502 -0.00000000000E+00 -0.00000000000E+00 -0.96304876746E+02  0.96304876746E+02  0.00000000000E+00 0.  1.
         21    1    1    2  503  502  0.43495703473E+01 -0.33683851378E+02 -0.47109080904E+02  0.58075692931E+02  0.00000000000E+00 0.  1.
         21    1    1    2  504  501 -0.43495703473E+01  0.33683851378E+02 -0.37115287230E+02  0.50309692427E+02  0.00000000000E+00 0.  1.
</event>
<event>
 4    1  0.1679763E+006  0.2415841E+02  0.7546771E-02  0.1478443E+00
         21   -1    0    0  503  501  0.00000000000E+00  0.00000000000E+00  0.93421362742E+02  0.93421362742E+02  0.00000000000E+00 0. -1.
         21   -1    0    0  504  502 -0.00000000000E+00 -0.00000000000E+00 -0.68011000212E+01  0.68011000212E+01  0.00000000000E+00 0.  1.
         21    1    1    2  503  502 -0.90010493714E+01  0.22418962795E+02  0.57610013480E+02  0.62470332444E+02  0.00000000000E+00 0. -1.
         21    1    1    2  504  501  0.90010493714E+01 -0.22418962795E+02  0.29010249242E+02  0.37752130319E+02  0.00000000000E+00 0.  1.
</event>
<event>
 4    1  0.1679763E+006  0.3944502E+02  0.7546771E-02  0.1351769E+00
         21   -1    0    0  502  501  0.00000000000E+00  0.00000000000E+00  0.49033752848E+02  0.49033752848E+02  0.00000000000E+00 0. -1.
         21   -1    0    0  503  502 -0.00000000000E+00 -0.00000000000E+00 -0.85053795267E+02  0.85053795267E+02  0.00000000000E+00 0.  1.
         21    1    1    2  503  504 -0.34847615582E+02 -0.18481170303E+02 -0.71094358699E+02  0.81303860956E+02  0.00000000000E+00 0.  1.
         21    1    1    2  504  501  0.34847615582E+02  0.18481170303E+02  0.35074316280E+02  0.52783687158E+02  0.00000000000E+00 0. -1.
</event>
<event>
 4    1  0.1679763E+006  0.2661874E+02  0.7546771E-02  0.1451476E+00
         21   -1    0    0  503  501  0.00000000000E+00  0.00000000000E+00  0.49163918145E+02  0.49163918145E+02  0.00000000000E+00 0. -1.
         21   -1    0    0  504  502 -0.00000000000E+00 -0.00000000000E+00 -0.28402930001E+02  0.28402930001E+02  0.00000000000E+00 0.  1.
         21    1    1    2  503  502  0.17619628001E+02 -0.19952588760E+02  0.37600345711E+02  0.46068895001E+02  0.00000000000E+00 0. -1.
         21    1    1    2  504  501 -0.17619628001E+02  0.19952588760E+02 -0.16839357567E+02  0.31497953145E+02  0.00000000000E+00 0.  1.
</event>
<event>
 4    1  0.1679763E+006  0.2030004E+02  0.7546771E-02  0.1529497E+00
         21   -1    0    0  504  501  0.00000000000E+00  0.00000000000E+00  0.15458936412E+02  0.15458936412E+02  0.00000000000E+00 0. -1.
         21   -1    0    0  503  502 -0.00000000000E+00 -0.00000000000E+00 -0.32041896229E+02  0.32041896229E+02  0.00000000000E+00 0. -1.
         21    1    1    2  503  501  0.16953739771E+02 -0.11165229529E+02 -0.18027771077E+02  0.27149441479E+02  0.00000000000E+00 0. -1.
         21    1    1    2  504  502 -0.16953739771E+02  0.11165229529E+02  0.14448112598E+01  0.20351391162E+02  0.00000000000E+00 0. -1.
</event>
<event>
 4    1  0.1679763E+006  0.2144215E+02  0.7546771E-02  0.1513045E+00
         21   -1    0    0  502  501  0.00000000000E+00  0.00000000000E+00  0.52657560941E+01  0.52657560941E+01  0.00000000000E+00 0. -1.
         21   -1    0    0  504  502 -0.00000000000E+00 -0.00000000000E+00 -0.42580559989E+03  0.42580559989E+03  0.00000000000E+00 0.  1.
         21    1    1    2  503  501 -0.21402766615E+02  0.12989657843E+01 -0.18098648235E+02  0.28059344234E+02  0.00000000000E+00 0. -1.
         21    1    1    2  504  503  0.21402766615E+02 -0.12989657843E+01 -0.40244119556E+03  0.40301201175E+03  0.00000000000E+00 0.  1.
</event>
<event>
 4    1  0.1679763E+006  0.2064058E+02  0.7546771E-02  0.1524459E+00
         21   -1    0    0  504  501  0.00000000000E+00  0.00000000000E+00  0.10673498248E+03  0.10673498248E+03  0.00000000000E+00 0. -1.
         21   -1    0    0  501  502 -0.00000000000E+00 -0.00000000000E+00 -0.36145713810E+02  0.36145713810E+02  0.00000000000E+00 0. -1.
         21    1    1    2  503  502 -0.13403262552E+02 -0.15696690414E+02 -0.32085838311E+02  0.38151468610E+02  0.00000000000E+00 0. -1.
         21    1    1    2  504  503  0.13403262552E+02  0.15696690414E+02  0.10267510698E+03  0.10472922768E+03  0.00000000000E+00 0. -1.
</event>
<event>
 4    1  0.1679763E+006  0.2116683E+02  0.7546771E-02  0.1516896E+00
         21   -1    0    0  503  501  0.00000000000E+00  0.00000000000E+00  0.12152470461E+03  0.12152470461E+03  0.00000000000E+00 0. -1.
         21   -1    0    0  501  502 -0.00000000000E+00 -0.00000000000E+00 -0.38962923792E+01  0.38962923792E+01  0.00000000000E+00 0. -1.
         21    1    1    2  503  504 -0.55473704234E+01 -0.20426973520E+02  0.44272285965E+02  0.49072088506E+02  0.00000000000E+00 0. -1.
         21    1    1    2  504  502  0.55473704234E+01  0.20426973520E+02  0.73356126268E+02  0.76348908485E+02  0.00000000000E+00 0. -1.
</event>
<event>
 4    1  0.1679763E+006  0.2822655E+02  0.7546771E-02  0.1435661E+00
         21   -1    0    0  502  501  0.00000000000E+00  0.00000000000E+00  0.35605886519E+03  0.35605886519E+03  0.00000000000E+00 0.  1.
         21   -1    0    0  504  502 -0.00000000000E+00 -0.00000000000E+00 -0.36028508041E+01  0.36028508041E+01  0.00000000000E+00 0.  1.
         21    1    1    2  503  501 -0.16572784739E+02 -0.22849096033E+02  0.28692552608E+03  0.28831058930E+03  0.00000000000E+00 0.  1.
         21    1    1    2  504  503  0.16572784739E+02  0.22849096033E+02  0.65530488300E+02  0.71351126693E+02  0.00000000000E+00 0.  1.
</event>
<event>
 4    1  0.1679763E+006  0.2202630E+02  0.7546771E-02  0.1505101E+00
         21   -1    0    0  504  501  0.00000000000E+00  0.00000000000E+00  0.18278815705E+03  0.18278815705E+03  0.00000000000E+00 0. -1.
         21   -1    0    0  503  502 -0.00000000000E+00 -0.00000000000E+00 -0.66126066909E+01  0.66126066909E+01  0.00000000000E+00 0. -1.
         21    1    1    2  503  501  0.43277163648E-01  0.22026260746E+02  0.16135758719E+03  0.16285401125E+03  0.00000000000E+00 0. -1.
         21    1    1    2  504  502 -0.43277163648E-01 -0.22026260746E+02  0.14817963163E+02  0.26546752488E+02  0.00000000000E+00 0. -1.
</event>
<event>
 4    1  0.1679763E+006  0.4196921E+02  0.7546771E-02  0.1337317E+00
         21   -1    0    0  504  501  0.00000000000E+00  0.00000000000E+00  0.11912758529E+03  0.11912758529E+03  0.00000000000E+00 0. -1.
         21   -1    0    0  503  502 -0.00000000000E+00 -0.00000000000E+00 -0.28863150974E+02  0.28863150974E+02  0.00000000000E+00 0. -1.
         21    1    1    2  503  501  0.38210388265E+02 -0.17360317421E+02  0.96808448828E+02  0.10551440734E+03  0.00000000000E+00 0. -1.
         21    1    1    2  504  502 -0.38210388265E+02  0.17360317421E+02 -0.65440145156E+01  0.42476328917E+02  0.00000000000E+00 0. -1.
</event>
<event>
 4    1  0.1679763E+006  0.2136780E+02  0.7546771E-02  0.1514078E+00
         21   -1    0    0  502  501  0.00000000000E+00  0.00000000000E+00  0.20888990996E+02  0.20888990996E+02  0.00000000000E+00 0.  1.
         21   -1    0    0  504  502 -0.00000000000E+00 -0.00000000000E+00 -0.33271203839E+02  0.33271203839E+02  0.00000000000E+00 0.  1.
         21    1    1    2  503  501  0.14995926741E+02 -0.15221864293E+02  0.96697845202E+01  0.23453948581E+02  0.00000000000E+00 0.  1.
         21    1    1    2  504  503 -0.14995926741E+02  0.15221864293E+02 -0.22051997363E+02  0.30706246255E+02  0.00000000000E+00 0.  1.
</event>
<event>
 4    1  0.1679763E+006  0.4071698E+02  0.7546771E-02  0.1344335E+00
         21   -1    0    0  503  501  0.00000000000E+00  0.00000000000E+00  0.58923851248E+02  0.58923851248E+02  0.00000000000E+00 0.  1.
         21   -1    0    0  504  502 -0.00000000000E+00 -0.00000000000E+00 -0.14473028520E+03  0.14473028520E+03  0.00000000000E+00 0.  1.
         21    1    1    2  503  502 -0.74325116209E+01  0.40032865548E+02 -0.13429821866E+03  0.14033489975E+03  0.00000000000E+00 0.  1.
         21    1    1    2  504  501  0.74325116209E+01 -0.40032865548E+02  0.48491784702E+02  0.63319236702E+02  0.00000000000E+00 0.  1.
</event>
<event>
 4    1  0.1679763E+006  0.3228740E+02  0.7546771E-02  0.1400707E+00
         21   -1    0    0  502  501  0.00000000000E+00  0.00000000000E+00  0.69577370594E+03  0.69577370594E+03  0.00000000000E+00 0. -1.
         21   -1    0    0  504  502 -0.00000000000E+00 -0.00000000000E+00 -0.15271598657E+01  0.15271598657E+01  0.00000000000E+00 0.  1.
         21    1    1    2  503  501 -0.17738745836E+02  0.26978016953E+02  0.39505339474E+03  0.39637061091E+03  0.00000000000E+00 0. -1.
         21    1    1    2  504  503  0.17738745836E+02 -0.26978016953E+02  0.29919315133E+03  0.30093025489E+03  0.00000000000E+00 0.  1.
</event>
<event>
 4    1  0.1679763E+006  0.2126394E+02  0.7546771E-02  0.1515530E+00
         21   -1    0    0  504  501  0.00000000000E+00  0.00000000000E+00  0.26198142632E+02  0.26198142632E+02  0.00000000000E+00 0. -1.
         21   -1    0    0  503  502 -0.00000000000E+00 -0.00000000000E+00 -0.17334076870E+02  0.17334076870E+02  0.00000000000E+00 0. -1.
         21    1    1    2  503  501  0.31422424822E+01  0.21030486089E+02  0.58640267201E+01  0.22057693495E+02  0.00000000000E+00 0. -1.
         21    1    1    2  504  502 -0.31422424822E+01 -0.21030486089E+02  0.30000390414E+01  0.21474526007E+02  0.00000000000E+00 0. -1.
</event>
<event>
 4    1  0.1679763E+006  0.2354657E+02  0.7546771E-02  0.1485747E+00
         21   -1    0    0  504  501  0.00000000000E+00  0.00000000000E+00  0.77166662836E+02  0.77166662836E+02  0.00000000000E+00 0.  1.
         21   -1    0    0  503  502 -0.00000000000E+00 -0.00000000000E+00 -0.43739220435E+02  0.43739220435E+02  0.00000000000E+00 0.  1.
         21    1    1    2  503  501  0.23505967837E+02 -0.13821884219E+01 -0.38551358193E+02  0.45173534147E+02  0.00000000000E+00 0.  1.
         21    1    1    2  504  502 -0.23505967837E+02  0.13821884219E+01  0.71978800595E+02  0.75732349124E+02  0.00000000000E+00 0.  1.
</event>
<event>
 4    1  0.1679763E+006  0.2398581E+02  0.7546771E-02  0.1480477E+00
         21   -1    0    0  502  501  0.00000000000E+00  0.00000000000E+00  0.16389607444E+03  0.16389607444E+03  0.00000000000E+00 0.  1.
         21   -1    0    0  504  502 -0.00000000000E+00 -0.00000000000E+00 -0.22275765572E+03  0.22275765572E+03  0.00000000000E+00 0. -1.
         21    1    1    2  503  501 -0.74002523720E+01 -0.22815685048E+02  0.16236678026E+03  0.16412888397E+03  0.00000000000E+00 0.  1.
         21    1    1    2  504  503  0.74002523720E+01  0.22815685048E+02 -0.22122836155E+03  0.22252484619E+03  0.00000000000E+00 0. -1.
</event>
<event>
 4    1  0.1679763E+006  0.2157379E+02  0.7546771E-02  0.1511228E+00
         21   -1    0    0  502  501  0.00000000000E+00  0.00000000000E+00  0.42501755941E+02  0.42501755941E+02  0.00000000000E+00 0. -1.
         21   -1    0    0  504  502 -0.00000000000E+00 -0.00000000000E+00 -0.20771996817E+02  0.20771996817E+02  0.00000000000E+00 0. -1.
         21    1    1    2  503  501  0.13927549888E+02  0.16475793964E+02  0.32618751876E+02  0.39107689865E+02  0.00000000000E+00 0. -1.
         21    1    1    2  504  503 -0.13927549888E+02 -0.16475793964E+02 -0.10888992752E+02  0.24166062894E+02  0.00000000000E+00 0. -1.
</event>
<event>
 4    1  0.1679763E+006  0.2688566E+02  0.7546771E-02  0.1448760E+00
         21   -1    0    0  502  501  0.00000000000E+00  0.00000000000E+00  0.42112129952E+02  0.42112129952E+02  0.00000000000E+00 0.  1.
         21   -1    0    0  503  502 -0.00000000000E+00 -0.00000000000E+00 -0.12487689692E+03  0.12487689692E+03  0.00000000000E+00 0.  1.
         21    1    1    2  503  504  0.69841147763E+01  0.25962676961E+02 -0.11892661644E+03  0.12192775957E+03  0.00000000000E+00 0.  1.
         21    1    1    2  504  501 -0.69841147763E+01 -0.25962676961E+02  0.36161849473E+02  0.45061267309E+02  0.00000000000E+00 0.  1.
</event>
<event>
 4    1  0.1679763E+006  0.2722714E+02  0.7546771E-02  0.1445340E+00
         21   -1    0    0  503  501  0.00000000000E+00  0.00000000000E+00  0.22896263102E+03  0.22896263102E+03  0.00000000000E+00 0. -1.
         21   -1    0    0  504  502 -0.00000000000E+00 -0.00000000000E+00 -0.11145069018E+02  0.11145069018E+02  0.00000000000E+00 0.  1.
         21    1    1    2  503  502  0.17999831468E+02 -0.20428492380E+02  0.77857394333E+01  0.28318456390E+02  0.00000000000E+00 0.  1.
         21    1    1    2  504  501 -0.17999831468E+02  0.20428492380E+02  0.21003182257E+03  0.21178924365E+03  0.00000000000E+00 0. -1.
</event>
<event>
 4    1  0.1679763E+006  0.4029173E+02  0.7546771E-02  0.1346785E+00
         21   -1    0    0  504  501  0.00000000000E+00  0.00000000000E+00  0.11780445372E+03  0.11780445372E+03  0.00000000000E+00 0. -1.
         21   -1    0    0  501  502 -0.00000000000E+00 -0.00000000000E+00 -0.26384124923E+02  0.26384124923E+02  0.00000000000E+00 0. -1.
         21    1    1    2  503  502  0.37778264434E+02  0.14008089741E+02 -0.41179429246E+01  0.40501620903E+02  0.00000000000E+00 0. -1.
         21    1    1    2  504  503 -0.37778264434E+02 -0.14008089741E+02  0.95538271716E+02  0.10368695774E+03  0.00000000000E+00 0. -1.
</event>
<event>
 4    1  0.1679763E+006  0.2029742E+02  0.7546771E-02  0.1529537E+00
         21   -1    0    0  504  501  0.00000000000E+00  0.00000000000E+00  0.38578886139E+01  0.38578886139E+01  0.00000000000E+00 0. -1.
         21   -1    0    0  503  502 -0.00000000000E+00 -0.00000000000E+00 -0.23315420645E+03  0.23315420645E+03  0.00000000000E+00 0. -1.
         21    1    1    2  503  501 -0.18934995064E+02  0.73110334631E+01 -0.20189110721E+03  0.20290885742E+03  0.00000000000E+00 0. -1.
         21    1    1    2  504  502  0.18934995064E+02 -0.73110334631E+01 -0.27405210622E+02  0.34103237641E+02  0.00000000000E+00 0. -1.
</event>
<event>
 4    1  0.1679763E+006  0.2419648E+02  0.7546771E-02  0.1477997E+00
         21   -1    0    0  504  501  0.00000000000E+00  0.00000000000E+00  0.86000648339E+01  0.86000648339E+01  0.00000000000E+00 0. -1.
         21   -1    0    0  503  502 -0.00000000000E+00 -0.00000000000E+00 -0.19367555644E+03  0.19367555644E+03  0.00000000000E+00 0.  1.
         21    1    1    2  503  501 -0.12694788242E+02  0.20598832412E+02 -0.11092099022E+02  0.26617742315E+02  0.00000000000E+00 0. -1.
         21    1    1    2  504  502  0.12694788242E+02 -0.20598832412E+02 -0.17398339258E+03  0.17565787896E+03  0.00000000000E+00 0.  1.
</event>
<event>
 4    1  0.1679763E+006  0.2921237E+02  0.7546771E-02  0.1426567E+00
         21   -1    0    0  503  501  0.00000000000E+00  0.00000000000E+00  0.21574613155E+01  0.21574613155E+01  0.00000000000E+00 0. -1.
         21   -1    0    0  504  502 -0.00000000000E+00 -0.00000000000E+00 -0.95673825927E+03  0.95673825927E+03  0.00000000000E+00 0. -1.
         21    1    1    2  503  502  0.21400868376E+02  0.19883800680E+02 -0.11009021397E+03  0.11390003472E+03  0.00000000000E+00 0. -1.
         21    1    1    2  504  501 -0.21400868376E+02 -0.19883800680E+02 -0.84449058398E+03  0.84499568586E+03  0.00000000000E+00 0. -1.
</event>
<event>
 4    1  0.1679763E+006  0.2633379E+02  0.7546771E-02  0.1454418E+00
         21   -1    0    0  503  501  0.00000000000E+00  0.00000000000E+00  0.22893654795E+03  0.22893654795E+03  0.00000000000E+00 0. -1.
         21   -1    0    0  504  502 -0.00000000000E+00 -0.00000000000E+00 -0.36591293761E+01  0.36591293761E+01  0.00000000000E+00 0. -1.
         21    1    1    2  503  502  0.26201240533E+02 -0.26388000002E+01  0.16089659820E+03  0.16303736867E+03  0.00000000000E+00 0. -1.
         21    1    1    2  504  501 -0.26201240533E+02  0.26388000002E+01  0.64380820377E+02  0.69558308658E+02  0.00000000000E+00 0. -1.
</event>
<event>
 4    1  0.1679763E+006  0.2017308E+02  0.7546771E-02  0.1531406E+00
         21   -1    0    0  502  501  0.00000000000E+00  0.00000000000E+00  0.45718717165E+02  0.45718717165E+02  0.00000000000E+00 0.  1.
         21   -1    0    0  503  502 -0.00000000000E+00 -0.00000000000E+00 -0.97811912462E+01  0.97811912462E+01  0.00000000000E+00 0.  1.
         21    1    1    2  503  504 -0.19223095556E+02 -0.61176632850E+01  0.96454530905E+01  0.22360410822E+02  0.00000000000E+00 0.  1.
         21    1    1    2  504  501  0.19223095556E+02  0.61176632850E+01  0.26292072828E+02  0.33139497589E+02  0.00000000000E+00 0.  1.
</event>
<event>
 4    1  0.1679763E+006  0.4285068E+02  0.7546771E-02  0.1332545E+00
         21   -1    0    0  504  501  0.00000000000E+00  0.00000000000E+00  0.17414215208E+01  0.17414215208E+01  0.00000000000E+00 0.  1.
         21   -1    0    0  503  502 -0.00000000000E+00 -0.00000000000E+00 -0.11029225635E+04  0.11029225635E+04  0.00000000000E+00 0.  1.
         21    1    1    2  503  501  0.41879285472E+02  0.90722816503E+01 -0.43475745338E+03  0.43686407968E+03  0.00000000000E+00 0.  1.
         21    1    1    2  504  502 -0.41879285472E+02 -0.90722816503E+01 -0.66642368861E+03  0.66779990536E+03  0.00000000000E+00 0.  1.
</event>
<event>
 4    1  0.1679763E+006  0.5551964E+02  0.7546771E-02  0.1275865E+00
         21   -1    0    0  504  501  0.00000000000E+00  0.00000000000E+00  0.63081179882E+02  0.63081179882E+02  0.00000000000E+00 0.  1.
         21   -1    0    0  503  502 -0.00000000000E+00 -0.00000000000E+00 -0.55752203298E+02  0.55752203298E+02  0.00000000000E+00 0.  1.
         21    1    1    2  503  501 -0.53892567128E+02 -0.13342471121E+02 -0.17219558484E+02  0.58128680715E+02  0.00000000000E+00 0.  1.
         21    1    1    2  504  502  0.53892567128E+02  0.13342471121E+02  0.24548535068E+02  0.60704702464E+02  0.00000000000E+00 0.  1.
</event>
<event>
 4    1  0.1679763E+006  0.2349830E+02  0.7546771E-02  0.1486334E+00
         21   -1    0    0  503  501  0.00000000000E+00  0.00000000000E+00  0.41535930575E+03  0.41535930575E+03  0.00000000000E+00 0.  1.
         21   -1    0    0  501  502 -0.00000000000E+00 -0.00000000000E+00 -0.56354924828E+02  0.56354924828E+02  0.00000000000E+00 0.  1.
         21    1    1    2  503  504  0.27185192821E+01 -0.23340520307E+02  0.41256083800E+03  0.41322949470E+03  0.00000000000E+00 0.  1.
         21    1    1    2  504  502 -0.27185192821E+01  0.23340520307E+02 -0.53556457083E+02  0.58484735877E+02  0.00000000000E+00 0.  1.
</event>
<event>
 4    1  0.1679763E+006  0.2551263E+02  0.7546771E-02  0.1463150E+00
         21   -1    0    0  502  501  0.00000000000E+00  0.00000000000E+00  0.47634076694E+01  0.47634076694E+01  0.00000000000E+00 0. -1.
         21   -1    0    0  504  502 -0.00000000000E+00 -0.00000000000E+00 -0.10108671552E+04  0.10108671552E+04  0.00000000000E+00 0. -1.
         21    1    1    2  503  501 -0.12368560683E+02 -0.22313962058E+02 -0.30804324447E+02  0.39997507432E+02  0.00000000000E+00 0. -1.
         21    1    1    2  504  503  0.12368560683E+02  0.22313962058E+02 -0.97529942313E+03  0.97563305549E+03  0.00000000000E+00 0. -1.
</event>
<event>
 4    1  0.1679763E+006  0.2951547E+02  0.7546771E-02  0.1423854E+00
         21   -1    0    0  504  501  0.00000000000E+00  0.00000000000E+00  0.18936526688E+02  0.18936526688E+02  0.00000000000E+00 0.  1.
         21   -1    0    0  501  502 -0.00000000000E+00 -0.00000000000E+00 -0.10274297132E+03  0.10274297132E+03  0.00000000000E+00 0.  1.
         21    1    1    2  503  502  0.14417085799E+02 -0.25754821580E+02 -0.87114899911E+02  0.91979176905E+02  0.00000000000E+00 0.  1.
         21    1    1    2  504  503 -0.14417085799E+02  0.25754821580E+02  0.33084552753E+01  0.29700321107E+02  0.00000000000E+00 0.  1.
</event>
<event>
 4    1  0.1679763E+006  0.2275359E+02  0.7546771E-02  0.1495616E+00
         21   -1    0    0  503  501  0.00000000000E+00  0.00000000000E+00  0.45633384460E+02  0.45633384460E+02  0.00000000000E+00 0.  1.
         21   -1    0    0  501  502 -0.00000000000E+00 -0.00000000000E+00 -0.23489579204E+02  0.23489579204E+02  0.00000000000E+00 0.  1.
         21    1    1    2  503  504 -0.13572103940E+02  0.18262632942E+02  0.35922686172E+02  0.42522525198E+02  0.00000000000E+00 0.  1.
         21    1    1    2  504  502  0.13572103940E+02 -0.18262632942E+02 -0.13778880916E+02  0.26600438467E+02  0.00000000000E+00 0.  1.
</event>
<event>
 4    1  0.1679763E+006  0.2323509E+02  0.7546771E-02  0.1489567E+00
         21   -1    0    0  504  501  0.00000000000E+00  0.00000000000E+00  0.11964880053E+01  0.11964880053E+01  0.00000000000E+00 0.  1.
         21   -1    0    0  501  502 -0.00000000000E+00 -0.00000000000E+00 -0.52092233819E+03  0.52092233819E+03  0.00000000000E+00 0. -1.
         21    1    1    2  503  502 -0.53877764795E+01  0.22601795845E+02 -0.35536275412E+03  0.35612154713E+03  0.00000000000E+00 0. -1.
         21    1    1    2  504  503  0.53877764795E+01 -0.22601795845E+02 -0.16436309606E+03  0.16599727906E+03  0.00000000000E+00 0.  1.
</event>
<event>
 4    1  0.1679763E+006  0.2466654E+02  0.7546771E-02  0.1472568E+00
         21   -1    0    0  504  501  0.00000000000E+00  0.00000000000E+00  0.43092416048E+03  0.43092416048E+03  0.00000000000E+00 0.  1.
         21   -1    0    0  503  502 -0.00000000000E+00 -0.00000000000E+00 -0.20444841686E+01  0.20444841686E+01  0.00000000000E+00 0.  1.
         21    1    1    2  503  501 -0.18530876266E+01  0.24596836704E+02  0.33485484086E+03  0.33576212228E+03  0.00000000000E+00 0.  1.
         21    1    1    2  504  502  0.18530876266E+01 -0.24596836704E+02  0.94024835452E+02  0.97206522370E+02  0.00000000000E+00 0.  1.
</event>
<event>
 4    1  0.1679763E+006  0.2067695E+02  0.7546771E-02  0.1523928E+00
         21   -1    0    0  503  501  0.00000000000E+00  0.00000000000E+00  0.40010197264E+02  0.40010197264E+02  0.00000000000E+00 0.  1.
         21   -1    0    0  504  502 -0.00000000000E+00 -0.00000000000E+00 -0.77030340456E+02  0.77030340456E+02  0.00000000000E+00 0. -1.
         21    1    1    2  503  502  0.12430644691E+02  0.16523172171E+02 -0.72819895356E+02  0.75698568716E+02  0.00000000000E+00 0. -1.
         21    1    1    2  504  501 -0.12430644691E+02 -0.16523172171E+02  0.35799752165E+02  0.41341969003E+02  0.00000000000E+00 0.  1.
</event>
<event>
 4    1  0.1679763E+006  0.2353810E+02  0.7546771E-02  0.1485850E+00
         21   -1    0    0  503  501  0.00000000000E+00  0.00000000000E+00  0.39982930705E+03  0.39982930705E+03  0.00000000000E+00 0.  1.
         21   -1    0    0  504  502 -0.00000000000E+00 -0.00000000000E+00 -0.56878042466E+01  0.56878042466E+01  0.00000000000E+00 0. -1.
         21    1    1    2  503  502  0.10221290089E+02  0.21203000150E+02  0.37340940503E+03  0.37415053889E+03  0.00000000000E+00 0.  1.
         21    1    1    2  504  501 -0.10221290089E+02 -0.21203000150E+02  0.20732097772E+02  0.31366572405E+02  0.00000000000E+00 0. -1.
</event>
<event>
 4    1  0.1679763E+006  0.2530877E+02  0.7546771E-02  0.1465379E+00
         21   -1    0    0  503  501  0.00000000000E+00  0.00000000000E+00  0.92433874498E+03  0.92433874498E+03  0.00000000000E+00 0.  1.
         21   -1    0    0  504  502 -0.00000000000E+00 -0.00000000000E+00 -0.11940706835E+01  0.11940706835E+01  0.00000000000E+00 0.  1.
         21    1    1    2  503  502  0.24445885057E+02 -0.65522780644E+01  0.16178600679E+03  0.16375361259E+03  0.00000000000E+00 0.  1.
         21    1    1    2  504  501 -0.24445885057E+02  0.65522780644E+01  0.76135866751E+03  0.76177920307E+03  0.00000000000E+00 0.  1.
</event>
<event>
 4    1  0.1679763E+006  0.2079203E+02  0.7546771E-02  0.1522255E+00
         21   -1    0    0  502  501  0.00000000000E+00  0.00000000000E+00  0.12452726766E+01  0.12452726766E+01  0.00000000000E+00 0.  1.
         21   -1    0    0  504  502 -0.00000000000E+00 -0.00000000000E+00 -0.40638350519E+03  0.40638350519E+03  0.00000000000E+00 0.  1.
         21    1    1    2  503  501  0.77286655643E+01  0.19302230058E+02 -0.12476271145E+03  0.12648336857E+03  0.00000000000E+00 0.  1.
         21    1    1    2  504  503 -0.77286655643E+01 -0.19302230058E+02 -0.28037552107E+03  0.28114540930E+03  0.00000000000E+00 0.  1.
</event>
<event>
 4    1  0.1679763E+006  0.2249246E+02  0.7546771E-02  0.1498972E+00
         21   -1    0    0  504  501  0.00000000000E+00  0.00000000000E+00  0.49016731710E+02  0.49016731710E+02  0.00000000000E+00 0.  1.
         21   -1    0    0  503  502 -0.00000000000E+00 -0.00000000000E+00 -0.17139745482E+02  0.17139745482E+02  0.00000000000E+00 0. -1.
         21    1    1    2  503  501  0.15789420046E+02  0.16018888064E+02 -0.49249829078E+01  0.23025334239E+02  0.00000000000E+00 0. -1.
         21    1    1    2  504  502 -0.15789420046E+02 -0.16018888064E+02  0.36801969136E+02  0.43131142953E+02  0.00000000000E+00 0.  1.
</event>
<event>
 4    1  0.1679763E+006  0.2036723E+02  0.7546771E-02  0.1528494E+00
         21   -1    0    0  503  501  0.00000000000E+00  0.00000000000E+00  0.30486804093E+01  0.30486804093E+01  0.00000000000E+00 0.  1.
         21   -1    0    0  504  502 -0.00000000000E+00 -0.00000000000E+00 -0.43340872675E+03  0.43340872675E+03  0.00000000000E+00 0.  1.
         21    1    1    2  503  502  0.20037426078E+02  0.36504293117E+01 -0.34424678032E+02  0.39998531668E+02  0.00000000000E+00 0.  1.
         21    1    1    2  504  501 -0.20037426078E+02 -0.36504293117E+01 -0.39593536831E+03  0.39645887549E+03  0.00000000000E+00 0.  1.
</event>
<event>
 4    1  0.1679763E+006  0.2270891E+02  0.7546771E-02  0.1496186E+00
         21   -1    0    0  503  501  0.00000000000E+00  0.00000000000E+00  0.55523282035E+00  0.55523282035E+00  0.00000000000E+00 0. -1.
         21   -1    0    0  504  502 -0.00000000000E+00 -0.00000000000E+00 -0.11523800021E+04  0.11523800021E+04  0.00000000000E+00 0. -1.
         21    1    1    2  503  502 -0.80759353302E+01  0.21224373472E+02 -0.32198874874E+03  0.32278855165E+03  0.00000000000E+00 0. -1.
         21    1    1    2  504  501  0.80759353302E+01 -0.21224373472E+02 -0.82983602051E+03  0.83014668325E+03  0.00000000000E+00 0. -1.
</event>
<event>
 4    1  0.1679763E+006  0.3968396E+02  0.7546771E-02  0.1350348E+00
         21   -1    0    0  503  501  0.00000000000E+00  0.00000000000E+00  0.30420409656E+02  0.30420409656E+02  0.00000000000E+00 0.  1.
         21   -1    0    0  504  502 -0.00000000000E+00 -0.00000000000E+00 -0.56541430250E+02  0.56541430250E+02  0.00000000000E+00 0. -1.
         21    1    1    2  503  502  0.28004558689E+02 -0.28116920753E+02 -0.42736421257E+00  0.39686259337E+02  0.00000000000E+00 0.  1.
         21    1    1    2  504  501 -0.28004558689E+02  0.28116920753E+02 -0.25693656381E+02  0.47275580570E+02  0.00000000000E+00 0. -1.
</event>
<event>
 4    1  0.1679763E+006  0.2775704E+02  0.7546771E-02  0.1440148E+00
         21   -1    0    0  503  501  0.00000000000E+00  0.00000000000E+00  0.86571552495E+03  0.86571552495E+03  0.00000000000E+00 0.  1.
         21   -1    0    0  501  502 -0.00000000000E+00 -0.00000000000E+00 -0.30253498067E+02  0.30253498067E+02  0.00000000000E+00 0. -1.
         21    1    1    2  503  504 -0.14710396219E+02 -0.23538427832E+02  0.85907720389E+03  0.85952550607E+03  0.00000000000E+00 0.  1.
         21    1    1    2  504  502  0.14710396219E+02  0.23538427832E+02 -0.23615177012E+02  0.36443516941E+02  0.00000000000E+00 0. -1.
</event>
<event>
 4    1  0.1679763E+006  0.2128232E+02  0.7546771E-02  0.1515272E+00
         21   -1    0    0  502  501  0.00000000000E+00  0.00000000000E+00  0.23630550839E+03  0.23630550839E+03  0.00000000000E+00 0.  1.
         21   -1    0    0  504  502 -0.00000000000E+00 -0.00000000000E+00 -0.28451966782E+01  0.28451966782E+01  0.00000000000E+00 0. -1.
         21    1    1    2  503  501 -0.21205442376E+02 -0.18073403372E+01  0.18503717146E+03  0.18625705916E+03  0.00000000000E+00 0.  1.
         21    1    1    2  504  503  0.21205442376E+02  0.18073403372E+01  0.48423140247E+02  0.52893645902E+02  0.00000000000E+00 0. -1.
</event>
<event>
 4    1  0.1679763E+006  0.2074443E+02  0.7546771E-02  0.1522945E+00
         21   -1    0    0  503  501  0.00000000000E+00  0.00000000000E+00  0.76498689074E+01  0.76498689074E+01  0.00000000000E+00 0. -1.
         21   -1    0    0  504  502 -0.00000000000E+00 -0.00000000000E+00 -0.56258983115E+02  0.56258983115E+02  0.00000000000E+00 0. -1.
         21    1    1    2  503  502 -0.19063223587E+02  0.81807513027E+01 -0.23986415836E+02  0.31712447557E+02  0.00000000000E+00 0. -1.
         21    1    1    2  504  501  0.19063223587E+02 -0.81807513027E+01 -0.24622698372E+02  0.32196404466E+02  0.00000000000E+00 0. -1.
</event>
<event>
 4    1  0.1679763E+006  0.2191763E+02  0.7546771E-02  0.1506556E+00
         21   -1    0    0  504  501  0.00000000000E+00  0.00000000000E+00  0.21253354656E+01  0.21253354656E+01  0.00000000000E+00 0. -1.
         21   -1    0    0  503  502 -0.00000000000E+00 -0.00000000000E+00 -0.68404592672E+03  0.68404592672E+03  0.00000000000E+00 0. -1.
         21    1    1    2  503  501 -0.12076119048E+02 -0.18290699634E+02 -0.60221907494E+02  0.64086351796E+02  0.00000000000E+00 0. -1.
         21    1    1    2  504  502  0.12076119048E+02  0.18290699634E+02 -0.62169868376E+03  0.62208491039E+03  0.00000000000E+00 0. -1.
</event>
<event>
 4    1  0.1679763E+006  0.2250772E+02  0.7546771E-02  0.1498774E+00
         21   -1    0    0  504  501  0.00000000000E+00  0.00000000000E+00  0.14736654170E+02  0.14736654170E+02  0.00000000000E+00 0.  1.
         21   -1    0    0  503  502 -0.00000000000E+00 -0.00000000000E+00 -0.51269835383E+02  0.51269835383E+02  0.00000000000E+00 0.  1.
         21    1    1    2  503  501  0.19962964984E+02  0.10396029066E+02 -0.37210994288E+02  0.43488567316E+02  0.00000000000E+00 0.  1.
         21    1    1    2  504  502 -0.19962964984E+02 -0.10396029066E+02  0.67781307469E+00  0.22517922237E+02  0.00000000000E+00 0.  1.
</event>
<event>
 4    1  0.1679763E+006  0.2568319E+02  0.7546771E-02  0.1461304E+00
         21   -1    0    0  503  501  0.00000000000E+00  0.00000000000E+00  0.15336357904E+01  0.15336357904E+01  0.00000000000E+00 0.  1.
         21   -1    0    0  501  502 -0.00000000000E+00 -0.00000000000E+00 -0.44669384163E+03  0.44669384163E+03  0.00000000000E+00 0.  1.
         21    1    1    2  503  504 -0.23630823632E+02 -0.10060329777E+02 -0.17939265529E+03  0.18122182770E+03  0.00000000000E+00 0.  1.
         21    1    1    2  504  502  0.23630823632E+02  0.10060329777E+02 -0.26576755054E+03  0.26700564972E+03  0.00000000000E+00 0.  1.
</event>
<event>
 4    1  0.1679763E+006  0.2054249E+02  0.7546771E-02  0.1525898E+00
         21   -1    0    0  502  501  0.00000000000E+00  0.00000000000E+00  0.57818778547E+03  0.57818778547E+03  0.00000000000E+00 0. -1.
         21   -1    0    0  503  502 -0.00000000000E+00 -0.00000000000E+00 -0.12516373641E+01  0.12516373641E+01  0.00000000000E+00 0. -1.
         21    1    1    2  503  504  0.10721387519E+02  0.17522723097E+02  0.10140720067E+03  0.10346697214E+03  0.00000000000E+00 0. -1.
         21    1    1    2  504  501 -0.10721387519E+02 -0.17522723097E+02  0.47552894743E+03  0.47597245070E+03  0.00000000000E+00 0. -1.
</event>
<event>
 4    1  0.1679763E+006  0.2664976E+02  0.7546771E-02  0.1451158E+00
         21   -1    0    0  504  501  0.00000000000E+00  0.00000000000E+00  0.21012707035E+03  0.21012707035E+03  0.00000000000E+00 0. -1.
         21   -1    0    0  503  502 -0.00000000000E+00 -0.00000000000E+00 -0.35466714764E+01  0.35466714764E+01  0.00000000000E+00 0. -1.
         21    1    1    2  503  501 -0.63974136958E+01  0.25870497302E+02  0.12645694739E+03  0.12923455062E+03  0.00000000000E+00 0. -1.
         21    1    1    2  504  502  0.63974136958E+01 -0.25870497302E+02  0.80123451484E+02  0.84439191199E+02  0.00000000000E+00 0. -1.
</event>
<event>
 4    1  0.1679763E+006  0.2017559E+02  0.7546771E-02  0.1531368E+00
         21   -1    0    0  504  501  0.00000000000E+00  0.00000000000E+00  0.75153638674E+01  0.75153638674E+01  0.00000000000E+00 0.  1.
         21   -1    0    0  503  502 -0.00000000000E+00 -0.00000000000E+00 -0.11641403630E+03  0.11641403630E+03  0.00000000000E+00 0. -1.
         21    1    1    2  503  501  0.53022245559E+01  0.19466402298E+02 -0.91371426496E+01  0.22148177791E+02  0.00000000000E+00 0.  1.
         21    1    1    2  504  502 -0.53022245559E+01 -0.19466402298E+02 -0.99761529785E+02  0.10178122238E+03  0.00000000000E+00 0. -1.
</event>
<event>
 4    1  0.1679763E+006  0.4337182E+02  0.7546771E-02  0.1329785E+00
         21   -1    0    0  504  501  0.00000000000E+00  0.00000000000E+00  0.18022129679E+01  0.18022129679E+01  0.00000000000E+00 0.  1.
         21   -1    0    0  503  502 -0.00000000000E+00 -0.00000000000E+00 -0.12304142615E+04  0.12304142615E+04  0.00000000000E+00 0.  1.
         21    1    1    2  503  501 -0.21004012775E+02 -0.37946618728E+02 -0.37435276522E+03  0.37685687900E+03  0.00000000000E+00 0.  1.
         21    1    1    2  504  502  0.21004012775E+02  0.37946618728E+02 -0.85425928328E+03  0.85535959543E+03  0.00000000000E+00 0.  1.
</event>
<event>
 4    1  0.1679763E+006  0.2229902E+02  0.7546771E-02  0.1501493E+00
         21   -1    0    0  503  501  0.00000000000E+00  0.00000000000E+00  0.30089776364E+02  0.30089776364E+02  0.00000000000E+00 0.  1.
         21   -1    0    0  504  502 -0.00000000000E+00 -0.00000000000E+00 -0.18193809385E+02  0.18193809385E+02  0.00000000000E+00 0. -1.
         21    1    1    2  503  502  0.16856356099E+02 -0.14598275989E+02 -0.13626581751E+01  0.22340618614E+02  0.00000000000E+00 0. -1.
         21    1    1    2  504  501 -0.16856356099E+02  0.14598275989E+02  0.13258625154E+02  0.25942967135E+02  0.00000000000E+00 0.  1.
</event>
<event>
 4    1  0.1679763E+006  0.5694858E+02  0.7546771E-02  0.1270568E+00
         21   -1    0    0  503  501  0.00000000000E+00  0.00000000000E+00  0.25987953647E+03  0.25987953647E+03  0.00000000000E+00 0.  1.
         21   -1    0    0  501  502 -0.00000000000E+00 -0.00000000000E+00 -0.16160186978E+03  0.16160186978E+03  0.00000000000E+00 0.  1.
         21    1    1    2  503  504  0.49039678468E+02 -0.28952565189E+02  0.25157904174E+03  0.25794409343E+03  0.00000000000E+00 0.  1.
         21    1    1    2  504  502 -0.49039678468E+02  0.28952565189E+02 -0.15330137504E+03  0.16353731282E+03  0.00000000000E+00 0.  1.
</event>
<event>
 4    1  0.1679763E+006  0.2253295E+02  0.7546771E-02  0.1498448E+00
         21   -1    0    0  503  501  0.00000000000E+00  0.00000000000E+00  0.28438187833E+02  0.28438187833E+02  0.00000000000E+00 0.  1.
         21   -1    0    0  504  502 -0.00000000000E+00 -0.00000000000E+00 -0.84183341025E+02  0.84183341025E+02  0.00000000000E+00 0.  1.
         21    1    1    2  503  502 -0.15802654539E+02  0.16062681672E+02  0.22111467326E+02  0.31569773840E+02  0.00000000000E+00 0.  1.
         21    1    1    2  504  501  0.15802654539E+02 -0.16062681672E+02 -0.77856620519E+02  0.81051755018E+02  0.00000000000E+00 0.  1.
</event>
<event>
 4    1  0.1679763E+006  0.2001553E+02  0.7546771E-02  0.1533798E+00
         21   -1    0    0  502  501  0.00000000000E+00  0.00000000000E+00  0.36143309942E+02  0.36143309942E+02  0.00000000000E+00 0. -1.
         21   -1    0    0  504  502 -0.00000000000E+00 -0.00000000000E+00 -0.15176903685E+02  0.15176903685E+02  0.00000000000E+00 0.  1.
         21    1    1    2  503  501  0.19955098622E+02  0.15542350925E+01  0.23808263534E+02  0.31103938983E+02  0.00000000000E+00 0. -1.
         21    1    1    2  504  503 -0.19955098622E+02 -0.15542350925E+01 -0.28418572772E+01  0.20216274644E+02  0.00000000000E+00 0.  1.
</event>
<event>
 4    1  0.1679763E+006  0.2626128E+02  0.7546771E-02  0.1455173E+00
         21   -1    0    0  502  501  0.00000000000E+00  0.00000000000E+00  0.11230122660E+02  0.11230122660E+02  0.00000000000E+00 0. -1.
         21   -1    0    0  504  502 -0.00000000000E+00 -0.00000000000E+00 -0.14859894935E+03  0.14859894935E+03  0.00000000000E+00 0. -1.
         21    1    1    2  503  501 -0.20805336044E+01  0.26178736445E+02 -0.74711200373E+01  0.27303342223E+02  0.00000000000E+00 0. -1.
         21    1    1    2  504  503  0.20805336044E+01 -0.26178736445E+02 -0.12989770666E+03  0.13252572979E+03  0.00000000000E+00 0. -1.
</event>
<event>
 4    1  0.1679763E+006  0.2721441E+02  0.7546771E-02  0.1445466E+00
         21   -1    0    0  504  501  0.00000000000E+00  0.00000000000E+00  0.11749549960E+02  0.11749549960E+02  0.00000000000E+00 0. -1.
         21   -1    0    0  503  502 -0.00000000000E+00 -0.00000000000E+00 -0.66978203478E+02  0.66978203478E+02  0.00000000000E+00 0. -1.
         21    1    1    2  503  501  0.27213961831E+02  0.15582771352E+00 -0.18062260426E+02  0.32662964540E+02  0.00000000000E+00 0. -1.
         21    1    1    2  504  502 -0.27213961831E+02 -0.15582771352E+00 -0.37166393092E+02  0.46064788899E+02  0.00000000000E+00 0. -1.
</event>
<event>
 4    1  0.1679763E+006  0.2080488E+02  0.7546771E-02  0.1522069E+00
         21   -1    0    0  504  501  0.00000000000E+00  0.00000000000E+00  0.33002498960E+03  0.33002498960E+03  0.00000000000E+00 0.  1.
         21   -1    0    0  501  502 -0.00000000000E+00 -0.00000000000E+00 -0.30315192917E+01  0.30315192917E+01  0.00000000000E+00 0.  1.
         21    1    1    2  503  502  0.85275693800E-01 -0.20804703576E+02  0.38061770954E+02  0.43376737671E+02  0.00000000000E+00 0.  1.
         21    1    1    2  504  503 -0.85275693800E-01  0.20804703576E+02  0.28893169936E+03  0.28967977122E+03  0.00000000000E+00 0.  1.
</event>
<event>
 4    1  0.1679763E+006  0.2527187E+02  0.7546771E-02  0.1465785E+00
         21   -1    0    0  502  501  0.00000000000E+00  0.00000000000E+00  0.29252134339E+03  0.29252134339E+03  0.00000000000E+00 0. -1.
         21   -1    0    0  503  502 -0.00000000000E+00 -0.00000000000E+00 -0.34081147624E+01  0.34081147624E+01  0.00000000000E+00 0. -1.
         21    1    1    2  503  504  0.21390494367E+02 -0.13457859161E+02  0.55854688813E+02  0.61305900898E+02  0.00000000000E+00 0. -1.
         21    1    1    2  504  501 -0.21390494367E+02  0.13457859161E+02  0.23325853982E+03  0.23462355726E+03  0.00000000000E+00 0. -1.
</event>
<event>
 4    1  0.1679763E+006  0.2229724E+02  0.7546771E-02  0.1501516E+00
         21   -1    0    0  503  501  0.00000000000E+00  0.00000000000E+00  0.76057555253E+02  0.76057555253E+02  0.00000000000E+00 0. -1.
         21   -1    0    0  504  502 -0.00000000000E+00 -0.00000000000E+00 -0.38098249462E+02  0.38098249462E+02  0.00000000000E+00 0. -1.
         21    1    1    2  503  502 -0.19566617355E+02 -0.10691795482E+02  0.70930724270E+02  0.74352771642E+02  0.00000000000E+00 0. -1.
         21    1    1    2  504  501  0.19566617355E+02  0.10691795482E+02 -0.32971418479E+02  0.39803033073E+02  0.00000000000E+00 0. -1.
</event>
<event>
 4    1  0.1679763E+006  0.4439778E+02  0.7546771E-02  0.1324478E+00
         21   -1    0    0  503  501  0.00000000000E+00  0.00000000000E+00  0.36117033824E+01  0.36117033824E+01  0.00000000000E+00 0. -1.
         21   -1    0    0  501  502 -0.00000000000E+00 -0.00000000000E+00 -0.11046192897E+04  0.11046192897E+04  0.00000000000E+00 0. -1.
         21    1    1    2  503  504 -0.38981645997E+02  0.21250737924E+02 -0.15637243635E+03  0.16255307268E+03  0.00000000000E+00 0. -1.
         21    1    1    2  504  502  0.38981645997E+02 -0.21250737924E+02 -0.94463515001E+03  0.94567792045E+03  0.00000000000E+00 0. -1.
</event>
<event>
 4    1  0.1679763E+006  0.2630854E+02  0.7546771E-02  0.1454680E+00
         21   -1    0    0  504  501  0.00000000000E+00  0.00000000000E+00  0.32081404671E+02  0.32081404671E+02  0.00000000000E+00 0. -1.
         21   -1    0    0  501  502 -0.00000000000E+00 -0.00000000000E+00 -0.27658344888E+02  0.27658344888E+02  0.00000000000E+00 0. -1.
         21    1    1    2  503  502  0.17330555875E+01  0.26251400401E+02 -0.11797569629E+02  0.28832657765E+02  0.00000000000E+00 0. -1.
         21    1    1    2  504  503 -0.17330555875E+01 -0.26251400401E+02  0.16220629411E+02  0.30907091794E+02  0.00000000000E+00 0. -1.
</event>
<event>
 4    1  0.1679763E+006  0.2229445E+02  0.7546771E-02  0.1501553E+00
         21   -1    0    0  503  501  0.00000000000E+00  0.00000000000E+00  0.25584315449E+03  0.25584315449E+03  0.00000000000E+00 0.  1.
         21   -1    0    0  504  502 -0.00000000000E+00 -0.00000000000E+00 -0.75376744413E+01  0.75376744413E+01  0.00000000000E+00 0. -1.
         21    1    1    2  503  502 -0.13717228854E+02  0.17574987577E+02  0.23760994848E+03  0.23865357774E+03  0.00000000000E+00 0.  1.
         21    1    1    2  504  501  0.13717228854E+02 -0.17574987577E+02  0.10695531578E+02  0.24727251192E+02  0.00000000000E+00 0. -1.
</event>
<event>
 4    1  0.1679763E+006  0.2352214E+02  0.7546771E-02  0.1486044E+00
         21   -1    0    0  503  501  0.00000000000E+00  0.00000000000E+00  0.15231733127E+02  0.15231733127E+02  0.00000000000E+00 0.  1.
         21   -1    0    0  504  502 -0.00000000000E+00 -0.00000000000E+00 -0.56448823107E+02  0.56448823107E+02  0.00000000000E+00 0.  1.
         21    1    1    2  503  502 -0.23265983470E+02  0.34619211040E+01  0.79079904996E+00  0.23535425377E+02  0.00000000000E+00 0.  1.
         21    1    1    2  504  501  0.23265983470E+02 -0.34619211040E+01 -0.42007889029E+02  0.48145130857E+02  0.00000000000E+00 0.  1.
</event>
<event>
 4    1  0.1679763E+006  0.2949151E+02  0.7546771E-02  0.1424067E+00
         21   -1    0    0  503  501  0.00000000000E+00  0.00000000000E+00  0.56950163253E+02  0.56950163253E+02  0.00000000000E+00 0.  1.
         21   -1    0    0  504  502 -0.00000000000E+00 -0.00000000000E+00 -0.22555102739E+02  0.22555102739E+02  0.00000000000E+00 0.  1.
         21    1    1    2  503  502 -0.19913920254E+01  0.29424204512E+02  0.39786596454E+02  0.49524970578E+02  0.00000000000E+00 0.  1.
         21    1    1    2  504  501  0.19913920254E+01 -0.29424204512E+02 -0.53915359401E+01  0.29980295414E+02  0.00000000000E+00 0.  1.
</event>
<event>
 4    1  0.1679763E+006  0.2856676E+02  0.7546771E-02  0.1432474E+00
         21   -1    0    0  504  501  0.00000000000E+00  0.00000000000E+00  0.13477602072E+02  0.13477602072E+02  0.00000000000E+00 0.  1.
         21   -1    0    0  503  502 -0.00000000000E+00 -0.00000000000E+00 -0.10338640885E+03  0.10338640885E+03  0.00000000000E+00 0. -1.
         21    1    1    2  503  501  0.23939242608E+02 -0.15587572258E+02 -0.82566626372E+02  0.87368801846E+02  0.00000000000E+00 0. -1.
         21    1    1    2  504  502 -0.23939242608E+02  0.15587572258E+02 -0.73421804108E+01  0.29495209081E+02  0.00000000000E+00 0.  1.
</event>
<event>
 4    1  0.1679763E+006  0.2788510E+02  0.7546771E-02  0.1438914E+00
         21   -1    0    0  503  501  0.00000000000E+00  0.00000000000E+00  0.88225800193E+02  0.88225800193E+02  0.00000000000E+00 0.  1.
         21   -1    0    0  504  502 -0.00000000000E+00 -0.00000000000E+00 -0.32356094866E+02  0.32356094866E+02  0.00000000000E+00 0.  1.
         21    1    1    2  503  502 -0.27505812620E+02  0.45835710529E+01 -0.23493326022E+02  0.36462518003E+02  0.00000000000E+00 0.  1.
         21    1    1    2  504  501  0.27505812620E+02 -0.45835710529E+01  0.79363031348E+02  0.84119377056E+02  0.00000000000E+00 0.  1.
</event>
<event>
 4    1  0.1679763E+006  0.2133279E+02  0.7546771E-02  0.1514566E+00
         21   -1    0    0  503  501  0.00000000000E+00  0.00000000000E+00  0.11429407782E+02  0.11429407782E+02  0.00000000000E+00 0.  1.
         21   -1    0    0  504  502 -0.00000000000E+00 -0.00000000000E+00 -0.60370559913E+03  0.60370559913E+03  0.00000000000E+00 0. -1.
         21    1    1    2  503  502 -0.14593932235E+02  0.15559719704E+02 -0.59338983280E+03  0.59377317337E+03  0.00000000000E+00 0. -1.
         21    1    1    2  504  501  0.14593932235E+02 -0.15559719704E+02  0.11136414496E+01  0.21361833550E+02  0.00000000000E+00 0.  1.
</event>
<event>
 4    1  0.1679763E+006  0.2341867E+02  0.7546771E-02  0.1487307E+00
         21   -1    0    0  503  501  0.00000000000E+00  0.00000000000E+00  0.11807341413E+02  0.11807341413E+02  0.00000000000E+00 0. -1.
         21   -1    0    0  504  502 -0.00000000000E+00 -0.00000000000E+00 -0.68351650482E+02  0.68351650482E+02  0.00000000000E+00 0.  1.
         21    1    1    2  503  502  0.77783814736E+01  0.22089155627E+02 -0.50960375308E+02  0.56083811088E+02  0.00000000000E+00 0.  1.
         21    1    1    2  504  501 -0.77783814736E+01 -0.22089155627E+02 -0.55839337601E+01  0.24075180807E+02  0.00000000000E+00 0. -1.
</event>
<event>
 4    1  0.1679763E+006  0.2504339E+02  0.7546771E-02  0.1468319E+00
         21   -1    0    0  504  501  0.00000000000E+00  0.00000000000E+00  0.16090574660E+03  0.16090574660E+03  0.00000000000E+00 0.  1.
         21   -1    0    0  503  502 -0.00000000000E+00 -0.00000000000E+00 -0.85434761341E+01  0.85434761341E+01  0.00000000000E+00 0. -1.
         21    1    1    2  503  501  0.63568018833E+01  0.24223175855E+02  0.13704324982E+02  0.28547849339E+02  0.00000000000E+00 0. -1.
         21    1    1    2  504  502 -0.63568018833E+01 -0.24223175855E+02  0.13865794549E+03  0.14090137340E+03  0.00000000000E+00 0.  1.
</event>
<event>
 4    1  0.1679763E+006  0.2028333E+02  0.7546771E-02  0.1529748E+00
         21   -1    0    0  504  501  0.00000000000E+00  0.00000000000E+00  0.50573437337E+03  0.50573437337E+03  0.00000000000E+00 0.  1.
         21   -1    0    0  503  502 -0.00000000000E+00 -0.00000000000E+00 -0.22112870113E+01  0.22112870113E+01  0.00000000000E+00 0.  1.
         21    1    1    2  503  501 -0.10956416749E+02  0.17069574242E+02  0.49838605461E+02  0.53807992223E+02  0.00000000000E+00 0.  1.
         21    1    1    2  504  502  0.10956416749E+02 -0.17069574242E+02  0.45368448090E+03  0.45413766816E+03  0.00000000000E+00 0.  1.
</event>
<event>
 4    1  0.1679763E+006  0.5536028E+02  0.7546771E-02  0.1276467E+00
         21   -1    0    0  503  501  0.00000000000E+00  0.00000000000E+00  0.78245441855E+02  0.78245441855E+02  0.00000000000E+00 0. -1.
         21   -1    0    0  501  502 -0.00000000000E+00 -0.00000000000E+00 -0.22955899669E+03  0.22955899669E+03  0.00000000000E+00 0.  1.
         21    1    1    2  503  504 -0.32447719832E+02 -0.44854271952E+02  0.64502001021E+02  0.85001578635E+02  0.00000000000E+00 0. -1.
         21    1    1    2  504  502  0.32447719832E+02  0.44854271952E+02 -0.21581555586E+03  0.22280285991E+03  0.00000000000E+00 0.  1.
</event>
<event>
 4    1  0.1679763E+006  0.2038425E+02  0.7546771E-02  0.1528241E+00
         21   -1    0    0  504  501  0.00000000000E+00  0.00000000000E+00  0.85002466412E+03  0.85002466412E+03  0.00000000000E+00 0.  1.
         21   -1    0    0  501  502 -0.00000000000E+00 -0.00000000000E+00 -0.13719238310E+02  0.13719238310E+02  0.00000000000E+00 0.  1.
         21    1    1    2  503  502 -0.17169790767E+02  0.10987076820E+02 -0.59554409024E+01  0.21236403848E+02  0.00000000000E+00 0.  1.
         21    1    1    2  504  503  0.17169790767E+02 -0.10987076820E+02  0.84226086671E+03  0.84250749858E+03  0.00000000000E+00 0.  1.
</event>
<event>
 4    1  0.1679763E+006  0.2960542E+02  0.7546771E-02  0.1423057E+00
         21   -1    0    0  504  501  0.00000000000E+00  0.00000000000E+00  0.31477082605E+01  0.31477082605E+01  0.00000000000E+00 0. -1.
         21   -1    0    0  503  502 -0.00000000000E+00 -0.00000000000E+00 -0.39850161824E+03  0.39850161824E+03  0.00000000000E+00 0. -1.
         21    1    1    2  503  501  0.28403003516E+02  0.83516764925E+01 -0.30790319924E+03  0.30932323096E+03  0.00000000000E+00 0. -1.
         21    1    1    2  504  502 -0.28403003516E+02 -0.83516764925E+01 -0.87450710732E+02  0.92326095534E+02  0.00000000000E+00 0. -1.
</event>
<event>
 4    1  0.1679763E+006  0.2076668E+02  0.7546771E-02  0.1522622E+00
         21   -1    0    0  502  501  0.00000000000E+00  0.00000000000E+00  0.81156694913E+03  0.81156694913E+03  0.00000000000E+00 0.  1.
         21   -1    0    0  503  502 -0.00000000000E+00 -0.00000000000E+00 -0.65815893746E+01  0.65815893746E+01  0.00000000000E+00 0. -1.
         21    1    1    2  503  504 -0.82638504416E+00  0.20750232647E+02  0.10279874041E+02  0.23171768975E+02  0.00000000000E+00 0. -1.
         21    1    1    2  504  501  0.82638504416E+00 -0.20750232647E+02  0.79470548571E+03  0.79497676953E+03  0.00000000000E+00 0.  1.
</event>
<event>
 4    1  0.1679763E+006  0.2465046E+02  0.7546771E-02  0.1472752E+00
         21   -1    0    0  504  501  0.00000000000E+00  0.00000000000E+00  0.29364380475E+01  0.29364380475E+01  0.00000000000E+00 0. -1.
         21   -1    0    0  503  502 -0.00000000000E+00 -0.00000000000E+00 -0.21148205381E+03  0.21148205381E+03  0.00000000000E+00 0. -1.
         21    1    1    2  503  501 -0.47162405353E+01  0.24195087198E+02 -0.88548611579E+02  0.91915731961E+02  0.00000000000E+00 0. -1.
         21    1    1    2  504  502  0.47162405353E+01 -0.24195087198E+02 -0.11999700419E+03  0.12250275990E+03  0.00000000000E+00 0. -1.
</event>
<event>
 4    1  0.1679763E+006  0.2458701E+02  0.7546771E-02  0.1473477E+00
         21   -1    0    0  504  501  0.00000000000E+00  0.00000000000E+00  0.24687646672E+02  0.24687646672E+02  0.00000000000E+00 0. -1.
         21   -1    0    0  503  502 -0.00000000000E+00 -0.00000000000E+00 -0.83115499870E+02  0.83115499870E+02  0.00000000000E+00 0. -1.
         21    1    1    2  503  501  0.24541602271E+02 -0.14935754740E+01 -0.74484462044E+02  0.78437593638E+02  0.00000000000E+00 0. -1.
         21    1    1    2  504  502 -0.24541602271E+02  0.14935754740E+01  0.16056608846E+02  0.29365552904E+02  0.00000000000E+00 0. -1.
</event>
<event>
 4    1  0.1679763E+006  0.2015885E+02  0.7546771E-02  0.1531621E+00
         21   -1    0    0  503  501  0.00000000000E+00  0.00000000000E+00  0.28119478035E+02  0.28119478035E+02  0.00000000000E+00 0. -1.
         21   -1    0    0  504  502 -0.00000000000E+00 -0.00000000000E+00 -0.36359901829E+02  0.36359901829E+02  0.00000000000E+00 0. -1.
         21    1    1    2  503  502 -0.62231487591E+01  0.19174239987E+02 -0.29145620686E+02  0.35437921281E+02  0.00000000000E+00 0. -1.
         21    1    1    2  504  501  0.62231487591E+01 -0.19174239987E+02  0.20905196891E+02  0.29041458583E+02  0.00000000000E+00 0. -1.
</event>
<event>
 4    1  0.1679763E+006  0.2211055E+02  0.7546771E-02  0.1503980E+00
         21   -1    0    0  502  501  0.00000000000E+00  0.00000000000E+00  0.14110390625E+02  0.14110390625E+02  0.00000000000E+00 0. -1.
         21   -1    0    0  504  502 -0.00000000000E+00 -0.00000000000E+00 -0.10701419704E+03  0.10701419704E+03  0.00000000000E+00 0.  1.
         21    1    1    2  503  501 -0.63022295991E+01 -0.21193354414E+02  0.33509059732E+01  0.22363026184E+02  0.00000000000E+00 0. -1.
         21    1    1    2  504  503  0.63022295991E+01  0.21193354414E+02 -0.96254712387E+02  0.98761561479E+02  0.00000000000E+00 0.  1.
</event>
<event>
 4    1  0.1679763E+006  0.2050231E+02  0.7546771E-02  0.1526491E+00
         21   -1    0    0  503  501  0.00000000000E+00  0.00000000000E+00  0.82704945422E+03  0.82704945422E+03  0.00000000000E+00 0. -1.
         21   -1    0    0  504  502 -0.00000000000E+00 -0.00000000000E+00 -0.85480785951E+00  0.85480785951E+00  0.00000000000E+00 0.  1.
         21    1    1    2  503  502  0.20017478918E+02 -0.44323035701E+01  0.14952117911E+03  0.15092026961E+03  0.00000000000E+00 0.  1.
         21    1    1    2  504  501 -0.20017478918E+02  0.44323035701E+01  0.67667346725E+03  0.67698399247E+03  0.00000000000E+00 0. -1.
</event>
<event>
 4    1  0.1679763E+006  0.2050811E+02  0.7546771E-02  0.1526405E+00
         21   -1    0    0  503  501  0.00000000000E+00  0.00000000000E+00  0.20414268643E+02  0.20414268643E+02  0.00000000000E+00 0. -1.
         21   -1    0    0  504  502 -0.00000000000E+00 -0.00000000000E+00 -0.28571997135E+02  0.28571997135E+02  0.00000000000E+00 0. -1.
         21    1    1    2  503  502 -0.46394627820E+01 -0.19976440013E+02  0.88569102061E+01  0.22338926314E+02  0.00000000000E+00 0. -1.
         21    1    1    2  504  501  0.46394627820E+01  0.19976440013E+02 -0.17014638698E+02  0.26647339464E+02  0.00000000000E+00 0. -1.
</event>
<event>
 4    1  0.1679763E+006  0.2193163E+02  0.7546771E-02  0.1506368E+00
         21   -1    0    0  502  501  0.00000000000E+00  0.00000000000E+00  0.28662194594E+02  0.28662194594E+02  0.00000000000E+00 0. -1.
         21   -1    0    0  504  502 -0.00000000000E+00 -0.00000000000E+00 -0.23018696357E+02  0.23018696357E+02  0.00000000000E+00 0. -1.
         21    1    1    2  503  501 -0.32008271550E+01 -0.21696804203E+02  0.16272667184E+02  0.27309271399E+02  0.00000000000E+00 0. -1.
         21    1    1    2  504  503  0.32008271550E+01  0.21696804203E+02 -0.10629168947E+02  0.24371619552E+02  0.00000000000E+00 0. -1.
</event>
<event>
 4    1  0.1679763E+006  0.2260617E+02  0.7546771E-02  0.1497504E+00
         21   -1    0    0  503  501  0.00000000000E+00  0.00000000000E+00  0.14234335630E+01  0.14234335630E+01  0.00000000000E+00 0. -1.
         21   -1    0    0  501  502 -0.00000000000E+00 -0.00000000000E+00 -0.59884066651E+03  0.59884066651E+03  0.00000000000E+00 0. -1.
         21    1    1    2  503  504  0.14034799922E+02  0.17721833969E+02 -0.10877520145E+03  0.11109943051E+03  0.00000000000E+00 0. -1.
         21    1    1    2  504  502 -0.14034799922E+02 -0.17721833969E+02 -0.48864203150E+03  0.48916466957E+03  0.00000000000E+00 0. -1.
</event>
<event>
 4    1  0.1679763E+006  0.2020286E+02  0.7546771E-02  0.1530957E+00
         21   -1    0    0  503  501  0.00000000000E+00  0.00000000000E+00  0.43326350699E+01  0.43326350699E+01  0.00000000000E+00 0.  1.
         21   -1    0    0  504  502 -0.00000000000E+00 -0.00000000000E+00 -0.18016274765E+03  0.18016274765E+03  0.00000000000E+00 0.  1.
         21    1    1    2  503  502  0.17318664567E+02  0.10402855808E+02 -0.24196530846E+02  0.31521859976E+02  0.00000000000E+00 0.  1.
         21    1    1    2  504  501 -0.17318664567E+02 -0.10402855808E+02 -0.15163358174E+03  0.15297352275E+03  0.00000000000E+00 0.  1.
</event>
<event>
 4    1  0.1679763E+006  0.2361727E+02  0.7546771E-02  0.1484889E+00
         21   -1    0    0  504  501  0.00000000000E+00  0.00000000000E+00  0.88174674952E+02  0.88174674952E+02  0.00000000000E+00 0. -1.
         21   -1    0    0  503  502 -0.00000000000E+00 -0.00000000000E+00 -0.37057744959E+02  0.37057744959E+02  0.00000000000E+00 0. -1.
         21    1    1    2  503  501 -0.18443619339E+02 -0.14751560289E+02 -0.31463513894E+02  0.39341178578E+02  0.00000000000E+00 0. -1.
         21    1    1    2  504  502  0.18443619339E+02  0.14751560289E+02  0.82580443887E+02  0.85891241333E+02  0.00000000000E+00 0. -1.
</event>
<event>
 4    1  0.1679763E+006  0.3011112E+02  0.7546771E-02  0.1418633E+00
         21   -1    0    0  503  501  0.00000000000E+00  0.00000000000E+00  0.37576540899E+03  0.37576540899E+03  0.00000000000E+00 0.  1.
         21   -1    0    0  501  502 -0.00000000000E+00 -0.00000000000E+00 -0.39367903266E+02  0.39367903266E+02  0.00000000000E+00 0. -1.
         21    1    1    2  503  504 -0.25344242116E+02 -0.16258805484E+02  0.36930388188E+03  0.37052940037E+03  0.00000000000E+00 0.  1.
         21    1    1    2  504  502  0.25344242116E+02  0.16258805484E+02 -0.32906376156E+02  0.44603911891E+02  0.00000000000E+00 0. -1.
</event>
<event>
 4    1  0.1679763E+006  0.2006518E+02  0.7546771E-02  0.1533042E+00
         21   -1    0    0  504  501  0.00000000000E+00  0.00000000000E+00  0.23259101492E+01  0.23259101492E+01  0.00000000000E+00 0.  1.
         21   -1    0    0  503  502 -0.00000000000E+00 -0.00000000000E+00 -0.22544863617E+03  0.22544863617E+03  0.00000000000E+00 0. -1.
         21    1    1    2  503  501  0.17328637640E+02 -0.10115827507E+02 -0.16644086158E+03  0.16764597237E+03  0.00000000000E+00 0. -1.
         21    1    1    2  504  502 -0.17328637640E+02  0.10115827507E+02 -0.56681864442E+02  0.60128573949E+02  0.00000000000E+00 0.  1.
</event>
<event>
 4    1  0.1679763E+006  0.2114204E+02  0.7546771E-02  0.1517246E+00
         21   -1    0    0  504  501  0.00000000000E+00  0.00000000000E+00  0.11402190871E+03  0.11402190871E+03  0.00000000000E+00 0. -1.
         21   -1    0    0  503  502 -0.00000000000E+00 -0.00000000000E+00 -0.43081453487E+01  0.43081453487E+01  0.00000000000E+00 0. -1.
         21    1    1    2  503  501  0.12487995829E+02  0.17059770641E+02  0.37101939249E+02  0.42702923907E+02  0.00000000000E+00 0. -1.
         21    1    1    2  504  502 -0.12487995829E+02 -0.17059770641E+02  0.72611824114E+02  0.75627130154E+02  0.00000000000E+00 0. -1.
</event>
<event>
 4    1  0.1679763E+006  0.3069190E+02  0.7546771E-02  0.1413677E+00
         21   -1    0    0  503  501  0.00000000000E+00  0.00000000000E+00  0.56850651793E+02  0.56850651793E+02  0.00000000000E+00 0.  1.
         21   -1    0    0  504  502 -0.00000000000E+00 -0.00000000000E+00 -0.35605853623E+02  0.35605853623E+02  0.00000000000E+00 0.  1.
         21    1    1    2  503  502 -0.29646530054E+02  0.79420570342E+01  0.44424012283E+02  0.53995239433E+02  0.00000000000E+00 0.  1.
         21    1    1    2  504  501  0.29646530054E+02 -0.79420570342E+01 -0.23179214112E+02  0.38461265983E+02  0.00000000000E+00 0.  1.
</event>
<event>
 4    1  0.1679763E+006  0.2043205E+02  0.7546771E-02  0.1527530E+00
         21   -1    0    0  503  501  0.00000000000E+00  0.00000000000E+00  0.14138027651E+03  0.14138027651E+03  0.00000000000E+00 0.  1.
         21   -1    0    0  501  502 -0.00000000000E+00 -0.00000000000E+00 -0.24362168551E+02  0.24362168551E+02  0.00000000000E+00 0. -1.
         21    1    1    2  503  504  0.13961121799E+02 -0.14918299772E+02  0.13619592643E+03  0.13772000206E+03  0.00000000000E+00 0.  1.
         21    1    1    2  504  502 -0.13961121799E+02  0.14918299772E+02 -0.19177818479E+02  0.28022442998E+02  0.00000000000E+00 0. -1.
</event>
<event>
 4    1  0.1679763E+006  0.2822183E+02  0.7546771E-02  0.1435706E+00
         21   -1    0    0  504  501  0.00000000000E+00  0.00000000000E+00  0.53341487696E+01  0.53341487696E+01  0.00000000000E+00 0.  1.
         21   -1    0    0  503  502 -0.00000000000E+00 -0.00000000000E+00 -0.15007993123E+03  0.15007993123E+03  0.00000000000E+00 0.  1.
         21    1    1    2  503  501  0.78619226331E+01  0.27104642104E+02 -0.66827284496E+02  0.72542107801E+02  0.00000000000E+00 0.  1.
         21    1    1    2  504  502 -0.78619226331E+01 -0.27104642104E+02 -0.77918497968E+02  0.82871972202E+02  0.00000000000E+00 0.  1.
</event>
<event>
 4    1  0.1679763E+006  0.2121023E+02  0.7546771E-02  0.1516284E+00
         21   -1    0    0  504  501  0.00000000000E+00  0.00000000000E+00  0.43531067458E+02  0.43531067458E+02  0.00000000000E+00 0.  1.
         21   -1    0    0  501  502 -0.00000000000E+00 -0.00000000000E+00 -0.14436496444E+02  0.14436496444E+02  0.00000000000E+00 0. -1.
         21    1    1    2  503  502 -0.19711620569E+02 -0.78310960607E+01 -0.90237968579E+00  0.21229421567E+02  0.00000000000E+00 0. -1.
         21    1    1    2  504  503  0.19711620569E+02  0.78310960607E+01  0.29996950700E+02  0.36738142335E+02  0.00000000000E+00 0.  1.
</event>
<event>
 4    1  0.1679763E+006  0.2153273E+02  0.7546771E-02  0.1511793E+00
         21   -1    0    0  503  501  0.00000000000E+00  0.00000000000E+00  0.24667983288E+02  0.24667983288E+02  0.00000000000E+00 0.  1.
         21   -1    0    0  504  502 -0.00000000000E+00 -0.00000000000E+00 -0.75201498214E+02  0.75201498214E+02  0.00000000000E+00 0.  1.
         21    1    1    2  503  502 -0.19306314671E+02 -0.95354541594E+01  0.17979685115E+02  0.28052232514E+02  0.00000000000E+00 0.  1.
         21    1    1    2  504  501  0.19306314671E+02  0.95354541594E+01 -0.68513200041E+02  0.71817248987E+02  0.00000000000E+00 0.  1.
</event>
<event>
 4    1  0.1679763E+006  0.2564602E+02  0.7546771E-02  0.1461705E+00
         21   -1    0    0  503  501  0.00000000000E+00  0.00000000000E+00  0.36843621908E+03  0.36843621908E+03  0.00000000000E+00 0.  1.
         21   -1    0    0  504  502 -0.00000000000E+00 -0.00000000000E+00 -0.43212620966E+01  0.43212620966E+01  0.00000000000E+00 0. -1.
         21    1    1    2  503  502 -0.10254506891E+02  0.23506668600E+02  0.39275217762E+02  0.46906940963E+02  0.00000000000E+00 0. -1.
         21    1    1    2  504  501  0.10254506891E+02 -0.23506668600E+02  0.32483973922E+03  0.32585054022E+03  0.00000000000E+00 0.  1.
</event>
<event>
 4    1  0.1679763E+006  0.2962111E+02  0.7546771E-02  0.1422918E+00
         21   -1    0    0  502  501  0.00000000000E+00  0.00000000000E+00  0.53617601983E+02  0.53617601983E+02  0.00000000000E+00 0.  1.
         21   -1    0    0  503  502 -0.00000000000E+00 -0.00000000000E+00 -0.93520898517E+03  0.93520898517E+03  0.00000000000E+00 0.  1.
         21    1    1    2  503  504  0.57931169880E+01  0.29049097651E+02 -0.93086429105E+03  0.93133545977E+03  0.00000000000E+00 0.  1.
         21    1    1    2  504  501 -0.57931169880E+01 -0.29049097651E+02  0.49272907860E+02  0.57491127383E+02  0.00000000000E+00 0.  1.
</event>
<event>
 4    1  0.1679763E+006  0.2184850E+02  0.7546771E-02  0.1507487E+00
         21   -1    0    0  503  501  0.00000000000E+00  0.00000000000E+00  0.24357909464E+01  0.24357909464E+01  0.00000000000E+00 0.  1.
         21   -1    0    0  504  502 -0.00000000000E+00 -0.00000000000E+00 -0.26398884604E+03  0.26398884604E+03  0.00000000000E+00 0.  1.
         21    1    1    2  503  502  0.21469157905E+02 -0.40536850126E+01 -0.63161011201E+02  0.66833153743E+02  0.00000000000E+00 0.  1.
         21    1    1    2  504  501 -0.21469157905E+02  0.40536850126E+01 -0.19839204389E+03  0.19959148324E+03  0.00000000000E+00 0.  1.
</event>
<event>
 4    1  0.1679763E+006  0.2258545E+02  0.7546771E-02  0.1497770E+00
         21   -1    0    0  503  501  0.00000000000E+00  0.00000000000E+00  0.11460998136E+03  0.11460998136E+03  0.00000000000E+00 0. -1.
         21   -1    0    0  504  502 -0.00000000000E+00 -0.00000000000E+00 -0.30390132284E+02  0.30390132284E+02  0.00000000000E+00 0. -1.
         21    1    1    2  503  502 -0.22058076473E+02  0.48522142568E+01  0.10909093503E+03  0.11140437526E+03  0.00000000000E+00 0. -1.
         21    1    1    2  504  501  0.22058076473E+02 -0.48522142568E+01 -0.24871085956E+02  0.33595738383E+02  0.00000000000E+00 0. -1.
</event>
<event>
 4    1  0.1679763E+006  0.2299830E+02  0.7546771E-02  0.1492519E+00
         21   -1    0    0  502  501  0.00000000000E+00  0.00000000000E+00  0.41858684376E+01  0.41858684376E+01  0.00000000000E+00 0. -1.
         21   -1    0    0  503  502 -0.00000000000E+00 -0.00000000000E+00 -0.18274886958E+03  0.18274886958E+03  0.00000000000E+00 0. -1.
         21    1    1    2  503  504  0.13267956953E+02  0.18785185908E+02 -0.14120135323E+03  0.14306202866E+03  0.00000000000E+00 0. -1.
         21    1    1    2  504  501 -0.13267956953E+02 -0.18785185908E+02 -0.37361647910E+02  0.43872709352E+02  0.00000000000E+00 0. -1.
</event>
<event>
 4    1  0.1679763E+006  0.2046687E+02  0.7546771E-02  0.1527014E+00
         21   -1    0    0  503  501  0.00000000000E+00  0.00000000000E+00  0.38709308223E+03  0.38709308223E+03  0.00000000000E+00 0. -1.
         21   -1    0    0  504  502 -0.00000000000E+00 -0.00000000000E+00 -0.53604821638E+01  0.53604821638E+01  0.00000000000E+00 0. -1.
         21    1    1    2  503  502  0.14197302017E+02 -0.14742100993E+02  0.15561589897E+02  0.25711009439E+02  0.00000000000E+00 0. -1.
         21    1    1    2  504  501 -0.14197302017E+02  0.14742100993E+02  0.36617101017E+03  0.36674255495E+03  0.00000000000E+00 0. -1.
</event>
<event>
 4    1  0.1679763E+006  0.2245507E+02  0.7546771E-02  0.1499457E+00
         21   -1    0    0  504  501  0.00000000000E+00  0.00000000000E+00  0.38436685077E+02  0.38436685077E+02  0.00000000000E+00 0.  1.
         21   -1    0    0  503  502 -0.00000000000E+00 -0.00000000000E+00 -0.24369364711E+02  0.24369364711E+02  0.00000000000E+00 0.  1.
         21    1    1    2  503  501  0.22400672562E+02  0.15621227988E+01  0.28371132997E+02  0.36182199303E+02  0.00000000000E+00 0.  1.
         21    1    1    2  504  502 -0.22400672562E+02 -0.15621227988E+01 -0.14303812632E+02  0.26623850485E+02  0.00000000000E+00 0.  1.
</event>
<event>
 4    1  0.1679763E+006  0.2185149E+02  0.7546771E-02  0.1507446E+00
         21   -1    0    0  503  501  0.00000000000E+00  0.00000000000E+00  0.45585823656E+03  0.45585823656E+03  0.00000000000E+00 0.  1.
         21   -1    0    0  504  502 -0.00000000000E+00 -0.00000000000E+00 -0.28524441703E+02  0.28524441703E+02  0.00000000000E+00 0.  1.
         21    1    1    2  503  502 -0.70112669577E+01 -0.20696132571E+02  0.45136988473E+03  0.45189850698E+03  0.00000000000E+00 0.  1.
         21    1    1    2  504  501  0.70112669577E+01  0.20696132571E+02 -0.24036089872E+02  0.32484171285E+02  0.00000000000E+00 0.  1.
</event>
<event>
 4    1  0.1679763E+006  0.2262726E+02  0.7546771E-02  0.1497232E+00
         21   -1    0    0  503  501  0.00000000000E+00  0.00000000000E+00  0.71783443342E+01  0.71783443342E+01  0.00000000000E+00 0.  1.
         21   -1    0    0  504  502 -0.00000000000E+00 -0.00000000000E+00 -0.81160729134E+02  0.81160729134E+02  0.00000000000E+00 0.  1.
         21    1    1    2  503  502 -0.94034549123E+01  0.20580771343E+02 -0.52367788847E+02  0.57047159632E+02  0.00000000000E+00 0.  1.
         21    1    1    2  504  501  0.94034549123E+01 -0.20580771343E+02 -0.21614595954E+02  0.31291913837E+02  0.00000000000E+00 0.  1.
</event>
<event>
 4    1  0.1679763E+006  0.2309131E+02  0.7546771E-02  0.1491355E+00
         21   -1    0    0  503  501  0.00000000000E+00  0.00000000000E+00  0.27950457009E+02  0.27950457009E+02  0.00000000000E+00 0.  1.
         21   -1    0    0  504  502 -0.00000000000E+00 -0.00000000000E+00 -0.18670700925E+03  0.18670700925E+03  0.00000000000E+00 0. -1.
         21    1    1    2  503  502  0.23089411350E+02 -0.29609772220E+00 -0.18107610516E+03  0.18254250040E+03  0.00000000000E+00 0. -1.
         21    1    1    2  504  501 -0.23089411350E+02  0.29609772220E+00  0.22319552916E+02  0.32114965868E+02  0.00000000000E+00 0.  1.
</event>
<event>
 4    1  0.1679763E+006  0.3962507E+02  0.7546771E-02  0.1350697E+00
         21   -1    0    0  504  501  0.00000000000E+00  0.00000000000E+00  0.27951459352E+02  0.27951459352E+02  0.00000000000E+00 0. -1.
         21   -1    0    0  503  502 -0.00000000000E+00 -0.00000000000E+00 -0.56731828386E+02  0.56731828386E+02  0.00000000000E+00 0.  1.
         21    1    1    2  503  501 -0.39308733274E+02  0.49969650599E+01 -0.10191703613E+02  0.40914752767E+02  0.00000000000E+00 0.  1.
         21    1    1    2  504  502  0.39308733274E+02 -0.49969650599E+01 -0.18588665422E+02  0.43768534972E+02  0.00000000000E+00 0. -1.
</event>
<event>
 4    1  0.1679763E+006  0.3312932E+02  0.7546771E-02  0.1394214E+00
         21   -1    0    0  502  501  0.00000000000E+00  0.00000000000E+00  0.44570270047E+03  0.44570270047E+03  0.00000000000E+00 0.  1.
         21   -1    0    0  504  502 -0.00000000000E+00 -0.00000000000E+00 -0.20624018685E+02  0.20624018685E+02  0.00000000000E+00 0.  1.
         21    1    1    2  503  501 -0.30638277172E+02 -0.12603478557E+02  0.43134044160E+03  0.43261082772E+03  0.00000000000E+00 0.  1.
         21    1    1    2  504  503  0.30638277172E+02  0.12603478557E+02 -0.62617598087E+01  0.33715891442E+02  0.00000000000E+00 0.  1.
</event>
<event>
 4    1  0.1679763E+006  0.2201313E+02  0.7546771E-02  0.1505277E+00
         21   -1    0    0  504  501  0.00000000000E+00  0.00000000000E+00  0.14183759500E+02  0.14183759500E+02  0.00000000000E+00 0. -1.
         21   -1    0    0  503  502 -0.00000000000E+00 -0.00000000000E+00 -0.51232396536E+02  0.51232396536E+02  0.00000000000E+00 0. -1.
         21    1    1    2  503  501 -0.21097910143E+02  0.62814064878E+01 -0.37403168471E+02  0.43400171561E+02  0.00000000000E+00 0. -1.
         21    1    1    2  504  502  0.21097910143E+02 -0.62814064878E+01  0.35453143564E+00  0.22015984475E+02  0.00000000000E+00 0. -1.
</event>
<event>
 4    1  0.1679763E+006  0.2111984E+02  0.7546771E-02  0.1517561E+00
         21   -1    0    0  504  501  0.00000000000E+00  0.00000000000E+00  0.22751004044E+03  0.22751004044E+03  0.00000000000E+00 0. -1.
         21   -1    0    0  503  502 -0.00000000000E+00 -0.00000000000E+00 -0.12417191135E+04  0.12417191135E+04  0.00000000000E+00 0.  1.
         21    1    1    2  503  501 -0.26372006562E+01  0.20954539110E+02  0.22692986641E+03  0.22791053465E+03  0.00000000000E+00 0. -1.
         21    1    1    2  504  502  0.26372006562E+01 -0.20954539110E+02 -0.12411389394E+04  0.12413186193E+04  0.00000000000E+00 0.  1.
</event>
<event>
 4    1  0.1679763E+006  0.2046538E+02  0.7546771E-02  0.1527036E+00
         21   -1    0    0  502  501  0.00000000000E+00  0.00000000000E+00  0.42791997468E+02  0.42791997468E+02  0.00000000000E+00 0. -1.
         21   -1    0    0  503  502 -0.00000000000E+00 -0.00000000000E+00 -0.13688676869E+02  0.13688676869E+02  0.00000000000E+00 0. -1.
         21    1    1    2  503  504 -0.11768265418E+02 -0.16743349214E+02 -0.52413658965E+00  0.20472091564E+02  0.00000000000E+00 0. -1.
         21    1    1    2  504  501  0.11768265418E+02  0.16743349214E+02  0.29627457189E+02  0.36008582773E+02  0.00000000000E+00 0. -1.
</event>
<event>
 4    1  0.1679763E+006  0.2255112E+02  0.7546771E-02  0.1498213E+00
         21   -1    0    0  502  501  0.00000000000E+00  0.00000000000E+00  0.45986503776E+01  0.45986503776E+01  0.00000000000E+00 0.  1.
         21   -1    0    0  503  502 -0.00000000000E+00 -0.00000000000E+00 -0.13975105100E+03  0.13975105100E+03  0.00000000000E+00 0.  1.
         21    1    1    2  503  504  0.22550264261E+02  0.19671481845E+00 -0.10054694609E+03  0.10304485181E+03  0.00000000000E+00 0.  1.
         21    1    1    2  504  501 -0.22550264261E+02 -0.19671481845E+00 -0.34605454525E+02  0.41304849568E+02  0.00000000000E+00 0.  1.
</event>
<event>
 4    1  0.1679763E+006  0.2182911E+02  0.7546771E-02  0.1507749E+00
         21   -1    0    0  503  501  0.00000000000E+00  0.00000000000E+00  0.15532695672E+03  0.15532695672E+03  0.00000000000E+00 0.  1.
         21   -1    0    0  504  502 -0.00000000000E+00 -0.00000000000E+00 -0.41421516193E+02  0.41421516193E+02  0.00000000000E+00 0.  1.
         21    1    1    2  503  502 -0.92550758939E+01 -0.19770017617E+02  0.15161395764E+03  0.15317735530E+03  0.00000000000E+00 0.  1.
         21    1    1    2  504  501  0.92550758939E+01  0.19770017617E+02 -0.37708517116E+02  0.43571117606E+02  0.00000000000E+00 0.  1.
</event>
<event>
 4    1  0.1679763E+006  0.2956935E+02  0.7546771E-02  0.1423376E+00
         21   -1    0    0  502  501  0.00000000000E+00  0.00000000000E+00  0.24977213513E+02  0.24977213513E+02  0.00000000000E+00 0. -1.
         21   -1    0    0  503  502 -0.00000000000E+00 -0.00000000000E+00 -0.26457966132E+03  0.26457966132E+03  0.00000000000E+00 0. -1.
         21    1    1    2  503  504 -0.22537189444E+02  0.19142133257E+02 -0.25466239311E+03  0.25637332279E+03  0.00000000000E+00 0. -1.
         21    1    1    2  504  501  0.22537189444E+02 -0.19142133257E+02  0.15059945303E+02  0.33183552043E+02  0.00000000000E+00 0. -1.
</event>
<event>
 4    1  0.1679763E+006  0.3220695E+02  0.7546771E-02  0.1401340E+00
         21   -1    0    0  502  501  0.00000000000E+00  0.00000000000E+00  0.28573684995E+03  0.28573684995E+03  0.00000000000E+00 0. -1.
         21   -1    0    0  503  502 -0.00000000000E+00 -0.00000000000E+00 -0.78215592511E+01  0.78215592511E+01  0.00000000000E+00 0. -1.
         21    1    1    2  503  504 -0.29741292585E+02 -0.12358927462E+02  0.31510649524E+02  0.45057836234E+02  0.00000000000E+00 0. -1.
         21    1    1    2  504  501  0.29741292585E+02  0.12358927462E+02  0.24640464117E+03  0.24850057297E+03  0.00000000000E+00 0. -1.
</event>
<event>
 4    1  0.1679763E+006  0.2084276E+02  0.7546771E-02  0.1521522E+00
         21   -1    0    0  504  501  0.00000000000E+00  0.00000000000E+00  0.49189993851E+02  0.49189993851E+02  0.00000000000E+00 0. -1.
         21   -1    0    0  501  502 -0.00000000000E+00 -0.00000000000E+00 -0.24566712349E+02  0.24566712349E+02  0.00000000000E+00 0. -1.
         21    1    1    2  503  502 -0.17297291202E+02  0.11628598250E+02 -0.17202798783E+02  0.27025115470E+02  0.00000000000E+00 0. -1.
         21    1    1    2  504  503  0.17297291202E+02 -0.11628598250E+02  0.41826080284E+02  0.46731590730E+02  0.00000000000E+00 0. -1.
</event>
<event>
 4    1  0.1679763E+006  0.2617813E+02  0.7546771E-02  0.1456043E+00
         21   -1    0    0  504  501  0.00000000000E+00  0.00000000000E+00  0.34331621337E+01  0.34331621337E+01  0.00000000000E+00 0. -1.
         21   -1    0    0  503  502 -0.00000000000E+00 -0.00000000000E+00 -0.34674404632E+03  0.34674404632E+03  0.00000000000E+00 0. -1.
         21    1    1    2  503  501  0.10948872135E+02 -0.23778487286E+02 -0.28570920929E+03  0.28690598901E+03  0.00000000000E+00 0. -1.
         21    1    1    2  504  502 -0.10948872135E+02  0.23778487286E+02 -0.57601674898E+02  0.63271219442E+02  0.00000000000E+00 0. -1.
</event>
<event>
 4    1  0.1679763E+006  0.8628120E+02  0.7546771E-02  0.1189971E+00
         21   -1    0    0  504  501  0.00000000000E+00  0.00000000000E+00  0.24226735900E+04  0.24226735900E+04  0.00000000000E+00 0.  1.
         21   -1    0    0  503  502 -0.00000000000E+00 -0.00000000000E+00 -0.86402593434E+01  0.86402593434E+01  0.00000000000E+00 0.  1.
         21    1    1    2  503  501  0.61742947740E+02 -0.60268176404E+02  0.21828492337E+04  0.21845537809E+04  0.00000000000E+00 0.  1.
         21    1    1    2  504  502 -0.61742947740E+02  0.60268176404E+02  0.23118409701E+03  0.24676006847E+03  0.00000000000E+00 0.  1.
</event>
<event>
 4    1  0.1679763E+006  0.2357619E+02  0.7546771E-02  0.1485387E+00
         21   -1    0    0  503  501  0.00000000000E+00  0.00000000000E+00  0.75511072963E+01  0.75511072963E+01  0.00000000000E+00 0.  1.
         21   -1    0    0  504  502 -0.00000000000E+00 -0.00000000000E+00 -0.80543295882E+02  0.80543295882E+02  0.00000000000E+00 0.  1.
         21    1    1    2  503  502  0.23401951703E+02  0.28610136696E+01 -0.49419428962E+02  0.54755060968E+02  0.00000000000E+00 0.  1.
         21    1    1    2  504  501 -0.23401951703E+02 -0.28610136696E+01 -0.23572759624E+02  0.33339342210E+02  0.00000000000E+00 0.  1.
</event>
<event>
 4    1  0.1679763E+006  0.3272875E+02  0.7546771E-02  0.1397275E+00
         21   -1    0    0  503  501  0.00000000000E+00  0.00000000000E+00  0.23669751431E+02  0.23669751431E+02  0.00000000000E+00 0.  1.
         21   -1    0    0  501  502 -0.00000000000E+00 -0.00000000000E+00 -0.32817423704E+03  0.32817423704E+03  0.00000000000E+00 0. -1.
         21    1    1    2  503  504  0.31851982102E+02 -0.75247708789E+01  0.11090278595E+02  0.34556695732E+02  0.00000000000E+00 0.  1.
         21    1    1    2  504  502 -0.31851982102E+02  0.75247708789E+01 -0.31559476420E+03  0.31728729274E+03  0.00000000000E+00 0. -1.
</event>
<event>
 4    1  0.1679763E+006  0.2704887E+02  0.7546771E-02  0.1447118E+00
         21   -1    0    0  504  501  0.00000000000E+00  0.00000000000E+00  0.25647374053E+01  0.25647374053E+01  0.00000000000E+00 0.  1.
         21   -1    0    0  503  502 -0.00000000000E+00 -0.00000000000E+00 -0.30121780383E+03  0.30121780383E+03  0.00000000000E+00 0. -1.
         21    1    1    2  503  501 -0.26972885865E+02 -0.20260150454E+01 -0.11437630599E+03  0.11753119024E+03  0.00000000000E+00 0.  1.
         21    1    1    2  504  502  0.26972885865E+02  0.20260150454E+01 -0.18427676043E+03  0.18625135099E+03  0.00000000000E+00 0. -1.
</event>
<event>
 4    1  0.1679763E+006  0.3305102E+02  0.7546771E-02  0.1394808E+00
         21   -1    0    0  503  501  0.00000000000E+00  0.00000000000E+00  0.48553042217E+02  0.48553042217E+02  0.00000000000E+00 0. -1.
         21   -1    0    0  504  502 -0.00000000000E+00 -0.00000000000E+00 -0.22617396156E+02  0.22617396156E+02  0.00000000000E+00 0. -1.
         21    1    1    2  503  502  0.80573679959E+01  0.32053838942E+02  0.15548087571E+02  0.36525508854E+02  0.00000000000E+00 0. -1.
         21    1    1    2  504  501 -0.80573679959E+01 -0.32053838942E+02  0.10387558491E+02  0.34644929519E+02  0.00000000000E+00 0. -1.
</event>
<event>
 4    1  0.1679763E+006  0.2403960E+02  0.7546771E-02  0.1479841E+00
         21   -1    0    0  503  501  0.00000000000E+00  0.00000000000E+00  0.24834766092E+02  0.24834766092E+02  0.00000000000E+00 0.  1.
         21   -1    0    0  501  502 -0.00000000000E+00 -0.00000000000E+00 -0.13946899317E+03  0.13946899317E+03  0.00000000000E+00 0. -1.
         21    1    1    2  503  504 -0.22886398593E+02 -0.73562938407E+01  0.17668864079E+02  0.29834393868E+02  0.00000000000E+00 0.  1.
         21    1    1    2  504  502  0.22886398593E+02  0.73562938407E+01 -0.13230309116E+03  0.13446936539E+03  0.00000000000E+00 0. -1.
</event>
<event>
 4    1  0.1679763E+006  0.2454631E+02  0.7546771E-02  0.1473943E+00
         21   -1    0    0  504  501  0.00000000000E+00  0.00000000000E+00  0.78899817704E+02  0.78899817704E+02  0.00000000000E+00 0.  1.
         21   -1    0    0  503  502 -0.00000000000E+00 -0.00000000000E+00 -0.34097795014E+02  0.34097795014E+02  0.00000000000E+00 0.  1.
         21    1    1    2  503  501  0.23380586726E+02  0.74745963679E+01  0.72172583987E+02  0.76232560667E+02  0.00000000000E+00 0.  1.
         21    1    1    2  504  502 -0.23380586726E+02 -0.74745963679E+01 -0.27370561297E+02  0.36765052050E+02  0.00000000000E+00 0.  1.
</event>
<event>
 4    1  0.1679763E+006  0.2366357E+02  0.7546771E-02  0.1484330E+00
         21   -1    0    0  502  501  0.00000000000E+00  0.00000000000E+00  0.10320107571E+03  0.10320107571E+03  0.00000000000E+00 0. -1.
         21   -1    0    0  503  502 -0.00000000000E+00 -0.00000000000E+00 -0.32424102057E+03  0.32424102057E+03  0.00000000000E+00 0. -1.
         21    1    1    2  503  504 -0.11046726205E+02  0.20926878407E+02 -0.32244523718E+03  0.32331238049E+03  0.00000000000E+00 0. -1.
         21    1    1    2  504  501  0.11046726205E+02 -0.20926878407E+02  0.10140529232E+03  0.10412971579E+03  0.00000000000E+00 0. -1.
</event>
<event>
 4    1  0.1679763E+006  0.2703747E+02  0.7546771E-02  0.1447232E+00
         21   -1    0    0  504  501  0.00000000000E+00  0.00000000000E+00  0.69373840217E+02  0.69373840217E+02  0.00000000000E+00 0.  1.
         21   -1    0    0  503  502 -0.00000000000E+00 -0.00000000000E+00 -0.14466212815E+02  0.14466212815E+02  0.00000000000E+00 0.  1.
         21    1    1    2  503  501 -0.28324056157E+01  0.26888701401E+02  0.56078652690E+01  0.27612912513E+02  0.00000000000E+00 0.  1.
         21    1    1    2  504  502  0.28324056157E+01 -0.26888701401E+02  0.49299762133E+02  0.56227140519E+02  0.00000000000E+00 0.  1.
</event>
<event>
 4    1  0.1679763E+006  0.2356747E+02  0.7546771E-02  0.1485493E+00
         21   -1    0    0  504  501  0.00000000000E+00  0.00000000000E+00  0.74649252742E+01  0.74649252742E+01  0.00000000000E+00 0.  1.
         21   -1    0    0  503  502 -0.00000000000E+00 -0.00000000000E+00 -0.74492284485E+02  0.74492284485E+02  0.00000000000E+00 0. -1.
         21    1    1    2  503  501  0.22812159717E+02 -0.59186867831E+01 -0.34918849557E+02  0.42127800068E+02  0.00000000000E+00 0. -1.
         21    1    1    2  504  502 -0.22812159717E+02  0.59186867831E+01 -0.32108509654E+02  0.39829409691E+02  0.00000000000E+00 0.  1.
</event>
<event>
 4    1  0.1679763E+006  0.2152459E+02  0.7546771E-02  0.1511905E+00
         21   -1    0    0  504  501  0.00000000000E+00  0.00000000000E+00  0.51731017850E+03  0.51731017850E+03  0.00000000000E+00 0. -1.
         21   -1    0    0  501  502 -0.00000000000E+00 -0.00000000000E+00 -0.69898474764E+02  0.69898474764E+02  0.00000000000E+00 0. -1.
         21    1    1    2  503  502  0.19743457611E+02 -0.85734340719E+01 -0.68011433854E+02  0.71336267249E+02  0.00000000000E+00 0. -1.
         21    1    1    2  504  503 -0.19743457611E+02  0.85734340719E+01  0.51542313759E+03  0.51587238601E+03  0.00000000000E+00 0. -1.
</event>
<event>
 4    1  0.1679763E+006  0.6062843E+02  0.7546771E-02  0.1257712E+00
         21   -1    0    0  503  501  0.00000000000E+00  0.00000000000E+00  0.10818522586E+03  0.10818522586E+03  0.00000000000E+00 0. -1.
         21   -1    0    0  501  502 -0.00000000000E+00 -0.00000000000E+00 -0.95323491754E+02  0.95323491754E+02  0.00000000000E+00 0.  1.
         21    1    1    2  503  504 -0.23322798831E+02  0.55962962815E+02  0.88060533787E+02  0.10691334698E+03  0.00000000000E+00 0. -1.
         21    1    1    2  504  502  0.23322798831E+02 -0.55962962815E+02 -0.75198799686E+02  0.96595370627E+02  0.00000000000E+00 0.  1.
</event>
<event>
 4    1  0.1679763E+006  0.2045239E+02  0.7546771E-02  0.1527229E+00
         21   -1    0    0  503  501  0.00000000000E+00  0.00000000000E+00  0.30799821799E+03  0.30799821799E+03  0.00000000000E+00 0.  1.
         21   -1    0    0  501  502 -0.00000000000E+00 -0.00000000000E+00 -0.26068291808E+02  0.26068291808E+02  0.00000000000E+00 0.  1.
         21    1    1    2  503  504 -0.11478180351E+02 -0.16927830318E+02  0.30358890962E+03  0.30427705485E+03  0.00000000000E+00 0.  1.
         21    1    1    2  504  502  0.11478180351E+02  0.16927830318E+02 -0.21658983429E+02  0.29789454957E+02  0.00000000000E+00 0.  1.
</event>
<event>
 4    1  0.1679763E+006  0.3216577E+02  0.7546771E-02  0.1401664E+00
         21   -1    0    0  503  501  0.00000000000E+00  0.00000000000E+00  0.26319294686E+03  0.26319294686E+03  0.00000000000E+00 0. -1.
         21   -1    0    0  504  502 -0.00000000000E+00 -0.00000000000E+00 -0.43477752543E+02  0.43477752543E+02  0.00000000000E+00 0.  1.
         21    1    1    2  503  502 -0.30494285776E+02  0.10234023191E+02 -0.36381545330E+02  0.48561852686E+02  0.00000000000E+00 0.  1.
         21    1    1    2  504  501  0.30494285776E+02 -0.10234023191E+02  0.25609673965E+03  0.25810884672E+03  0.00000000000E+00 0. -1.
</event>
<event>
 4    1  0.1679763E+006  0.2236641E+02  0.7546771E-02  0.1500611E+00
         21   -1    0    0  504  501  0.00000000000E+00  0.00000000000E+00  0.24505884248E+02  0.24505884248E+02  0.00000000000E+00 0. -1.
         21   -1    0    0  501  502 -0.00000000000E+00 -0.00000000000E+00 -0.74317079939E+02  0.74317079939E+02  0.00000000000E+00 0. -1.
         21    1    1    2  503  502 -0.22357728032E+02 -0.62321898973E+00 -0.66987121564E+02  0.70622452946E+02  0.00000000000E+00 0. -1.
         21    1    1    2  504  503  0.22357728032E+02  0.62321898973E+00  0.17175925874E+02  0.28200511241E+02  0.00000000000E+00 0. -1.
</event>
<event>
 4    1  0.1679763E+006  0.2235194E+02  0.7546771E-02  0.1500800E+00
         21   -1    0    0  504  501  0.00000000000E+00  0.00000000000E+00  0.46830717006E+02  0.46830717006E+02  0.00000000000E+00 0. -1.
         21   -1    0    0  503  502 -0.00000000000E+00 -0.00000000000E+00 -0.10668880849E+02  0.10668880849E+02  0.00000000000E+00 0.  1.
         21    1    1    2  503  501  0.22056772640E+02  0.36204882912E+01  0.17889342412E+02  0.28629315861E+02  0.00000000000E+00 0. -1.
         21    1    1    2  504  502 -0.22056772640E+02 -0.36204882912E+01  0.18272493745E+02  0.28870281994E+02  0.00000000000E+00 0.  1.
</event>
<event>
 4    1  0.1679763E+006  0.2023909E+02  0.7546771E-02  0.1530412E+00
         21   -1    0    0  503  501  0.00000000000E+00  0.00000000000E+00  0.27683533954E+02  0.27683533954E+02  0.00000000000E+00 0.  1.
         21   -1    0    0  504  502 -0.00000000000E+00 -0.00000000000E+00 -0.21531069506E+03  0.21531069506E+03  0.00000000000E+00 0.  1.
         21    1    1    2  503  502  0.19226166899E+02 -0.63225895232E+01 -0.21106164340E+03  0.21202980438E+03  0.00000000000E+00 0.  1.
         21    1    1    2  504  501 -0.19226166899E+02  0.63225895232E+01  0.23434482298E+02  0.30964424627E+02  0.00000000000E+00 0.  1.
</event>
<event>
 4    1  0.1679763E+006  0.2640387E+02  0.7546771E-02  0.1453690E+00
         21   -1    0    0  503  501  0.00000000000E+00  0.00000000000E+00  0.33380144858E+01  0.33380144858E+01  0.00000000000E+00 0. -1.
         21   -1    0    0  504  502 -0.00000000000E+00 -0.00000000000E+00 -0.25415080676E+03  0.25415080676E+03  0.00000000000E+00 0. -1.
         21    1    1    2  503  502 -0.18796649061E+02 -0.18543207240E+02 -0.17975727354E+03  0.18168610828E+03  0.00000000000E+00 0. -1.
         21    1    1    2  504  501  0.18796649061E+02  0.18543207240E+02 -0.71055518731E+02  0.75802712965E+02  0.00000000000E+00 0. -1.
</event>
<event>
 4    1  0.1679763E+006  0.3189450E+02  0.7546771E-02  0.1403818E+00
         21   -1    0    0  503  501  0.00000000000E+00  0.00000000000E+00  0.38120020699E+03  0.38120020699E+03  0.00000000000E+00 0. -1.
         21   -1    0    0  501  502 -0.00000000000E+00 -0.00000000000E+00 -0.31134411824E+01  0.31134411824E+01  0.00000000000E+00 0.  1.
         21    1    1    2  503  504 -0.30114466946E+02  0.10506102325E+02  0.26167952742E+03  0.26361607382E+03  0.00000000000E+00 0. -1.
         21    1    1    2  504  502  0.30114466946E+02 -0.10506102325E+02  0.11640723839E+03  0.12069757435E+03  0.00000000000E+00 0.  1.
</event>
<event>
 4    1  0.1679763E+006  0.2527488E+02  0.7546771E-02  0.1465752E+00
         21   -1    0    0  504  501  0.00000000000E+00  0.00000000000E+00  0.46682062403E+03  0.46682062403E+03  0.00000000000E+00 0. -1.
         21   -1    0    0  503  502 -0.00000000000E+00 -0.00000000000E+00 -0.23526099669E+01  0.23526099669E+01  0.00000000000E+00 0.  1.
         21    1    1    2  503  501 -0.18026922826E+01  0.25210512938E+02  0.38396056165E+03  0.38479154430E+03  0.00000000000E+00 0. -1.
         21    1    1    2  504  502  0.18026922826E+01 -0.25210512938E+02  0.80507452412E+02  0.84381689696E+02  0.00000000000E+00 0.  1.
</event>
<event>
 4    1  0.1679763E+006  0.2116725E+02  0.7546771E-02  0.1516890E+00
         21   -1    0    0  504  501  0.00000000000E+00  0.00000000000E+00  0.11171672766E+02  0.11171672766E+02  0.00000000000E+00 0. -1.
         21   -1    0    0  501  502 -0.00000000000E+00 -0.00000000000E+00 -0.47819612951E+02  0.47819612951E+02  0.00000000000E+00 0. -1.
         21    1    1    2  503  502  0.13002566084E+02  0.16702861031E+02 -0.30170216919E+02  0.36855044164E+02  0.00000000000E+00 0. -1.
         21    1    1    2  504  503 -0.13002566084E+02 -0.16702861031E+02 -0.64777232662E+01  0.22136241553E+02  0.00000000000E+00 0. -1.
</event>
<event>
 4    1  0.1679763E+006  0.3512166E+02  0.7546771E-02  0.1379710E+00
         21   -1    0    0  503  501  0.00000000000E+00  0.00000000000E+00  0.75065136916E+02  0.75065136916E+02  0.00000000000E+00 0.  1.
         21   -1    0    0  504  502 -0.00000000000E+00 -0.00000000000E+00 -0.38154843875E+02  0.38154843875E+02  0.00000000000E+00 0.  1.
         21    1    1    2  503  502  0.11956881846E+02  0.33023684408E+02  0.61168978439E+02  0.70534918151E+02  0.00000000000E+00 0.  1.
         21    1    1    2  504  501 -0.11956881846E+02 -0.33023684408E+02 -0.24258685397E+02  0.42685062640E+02  0.00000000000E+00 0.  1.
</event>
<event>
 4    1  0.1679763E+006  0.2200638E+02  0.7546771E-02  0.1505367E+00
         21   -1    0    0  504  501  0.00000000000E+00  0.00000000000E+00  0.16796165285E+03  0.16796165285E+03  0.00000000000E+00 0. -1.
         21   -1    0    0  503  502 -0.00000000000E+00 -0.00000000000E+00 -0.16467335689E+02  0.16467335689E+02  0.00000000000E+00 0. -1.
         21    1    1    2  503  501 -0.20954234045E+02  0.67231441102E+01 -0.80062006465E+01  0.23417511395E+02  0.00000000000E+00 0. -1.
         21    1    1    2  504  502  0.20954234045E+02 -0.67231441102E+01  0.15950051780E+03  0.16101147714E+03  0.00000000000E+00 0. -1.
</event>
<event>
 4    1  0.1679763E+006  0.2528761E+02  0.7546771E-02  0.1465611E+00
         21   -1    0    0  504  501  0.00000000000E+00  0.00000000000E+00  0.13980312388E+03  0.13980312388E+03  0.00000000000E+00 0. -1.
         21   -1    0    0  503  502 -0.00000000000E+00 -0.00000000000E+00 -0.22011179250E+02  0.22011179250E+02  0.00000000000E+00 0.  1.
         21    1    1    2  503  501 -0.14581831355E+02  0.20659946184E+02 -0.13115724332E+02  0.28486582925E+02  0.00000000000E+00 0.  1.
         21    1    1    2  504  502  0.14581831355E+02 -0.20659946184E+02  0.13090766896E+03  0.13332772020E+03  0.00000000000E+00 0. -1.
</event>
<event>
 4    1  0.1679763E+006  0.2218395E+02  0.7546771E-02  0.1503008E+00
         21   -1    0    0  502  501  0.00000000000E+00  0.00000000000E+00  0.17732004007E+03  0.17732004007E+03  0.00000000000E+00 0.  1.
         21   -1    0    0  503  502 -0.00000000000E+00 -0.00000000000E+00 -0.77900662567E+02  0.77900662567E+02  0.00000000000E+00 0.  1.
         21    1    1    2  503  504 -0.20427888283E+02 -0.86503665027E+01 -0.75606863306E+02  0.78794195467E+02  0.00000000000E+00 0.  1.
         21    1    1    2  504  501  0.20427888283E+02  0.86503665027E+01  0.17502624081E+03  0.17642650717E+03  0.00000000000E+00 0.  1.
</event>
<event>
 4    1  0.1679763E+006  0.4601038E+02  0.7546771E-02  0.1316463E+00
         21   -1    0    0  503  501  0.00000000000E+00  0.00000000000E+00  0.13312050779E+03  0.13312050779E+03  0.00000000000E+00 0. -1.
         21   -1    0    0  504  502 -0.00000000000E+00 -0.00000000000E+00 -0.18330720357E+02  0.18330720357E+02  0.00000000000E+00 0. -1.
         21    1    1    2  503  502  0.29799412289E+02  0.35056382511E+02  0.84955769880E+02  0.96614894107E+02  0.00000000000E+00 0. -1.
         21    1    1    2  504  501 -0.29799412289E+02 -0.35056382511E+02  0.29834017551E+02  0.54836334038E+02  0.00000000000E+00 0. -1.
</event>
<event>
 4    1  0.1679763E+006  0.2093223E+02  0.7546771E-02  0.1520235E+00
         21   -1    0    0  502  501  0.00000000000E+00  0.00000000000E+00  0.46719621185E+02  0.46719621185E+02  0.00000000000E+00 0.  1.
         21   -1    0    0  504  502 -0.00000000000E+00 -0.00000000000E+00 -0.17036344236E+03  0.17036344236E+03  0.00000000000E+00 0. -1.
         21    1    1    2  503  501  0.19082607304E+02  0.86030483019E+01  0.43689740214E+02  0.48445347987E+02  0.00000000000E+00 0.  1.
         21    1    1    2  504  503 -0.19082607304E+02 -0.86030483019E+01 -0.16733356139E+03  0.16863771556E+03  0.00000000000E+00 0. -1.
</event>
<event>
 4    1  0.1679763E+006  0.2824079E+02  0.7546771E-02  0.1435527E+00
         21   -1    0    0  503  501  0.00000000000E+00  0.00000000000E+00  0.20167300069E+02  0.20167300069E+02  0.00000000000E+00 0.  1.
         21   -1    0    0  501  502 -0.00000000000E+00 -0.00000000000E+00 -0.10168377502E+03  0.10168377502E+03  0.00000000000E+00 0.  1.
         21    1    1    2  503  504  0.12597189997E+02  0.25275541680E+02  0.68684439953E+01  0.29064028041E+02  0.00000000000E+00 0.  1.
         21    1    1    2  504  502 -0.12597189997E+02 -0.25275541680E+02 -0.88384918949E+02  0.92787047052E+02  0.00000000000E+00 0.  1.
</event>
<event>
 4    1  0.1679763E+006  0.2129760E+02  0.7546771E-02  0.1515058E+00
         21   -1    0    0  503  501  0.00000000000E+00  0.00000000000E+00  0.44871585117E+03  0.44871585117E+03  0.00000000000E+00 0.  1.
         21   -1    0    0  504  502 -0.00000000000E+00 -0.00000000000E+00 -0.17181559079E+01  0.17181559079E+01  0.00000000000E+00 0.  1.
         21    1    1    2  503  502  0.44193530038E+01  0.20834035857E+02  0.78997709665E+02  0.81818248963E+02  0.00000000000E+00 0.  1.
         21    1    1    2  504  501 -0.44193530038E+01 -0.20834035857E+02  0.36799998559E+03  0.36861575811E+03  0.00000000000E+00 0.  1.
</event>
<event>
 4    1  0.1679763E+006  0.2272628E+02  0.7546771E-02  0.1495964E+00
         21   -1    0    0  504  501  0.00000000000E+00  0.00000000000E+00  0.10131485217E+04  0.10131485217E+04  0.00000000000E+00 0.  1.
         21   -1    0    0  501  502 -0.00000000000E+00 -0.00000000000E+00 -0.36313913213E+02  0.36313913213E+02  0.00000000000E+00 0. -1.
         21    1    1    2  503  502 -0.22725648172E+02  0.16992194132E+00 -0.32617761070E+02  0.39754273928E+02  0.00000000000E+00 0. -1.
         21    1    1    2  504  503  0.22725648172E+02 -0.16992194132E+00  0.10094523695E+04  0.10097081609E+04  0.00000000000E+00 0.  1.
</event>
<event>
 4    1  0.1679763E+006  0.2064923E+02  0.7546771E-02  0.1524332E+00
         21   -1    0    0  504  501  0.00000000000E+00  0.00000000000E+00  0.40200560682E+02  0.40200560682E+02  0.00000000000E+00 0.  1.
         21   -1    0    0  503  502 -0.00000000000E+00 -0.00000000000E+00 -0.21763577197E+02  0.21763577197E+02  0.00000000000E+00 0. -1.
         21    1    1    2  503  501  0.50930125820E+01 -0.20011292649E+02 -0.12964436089E+02  0.24381698336E+02  0.00000000000E+00 0. -1.
         21    1    1    2  504  502 -0.50930125820E+01  0.20011292649E+02  0.31401419574E+02  0.37582439542E+02  0.00000000000E+00 0.  1.
</event>
<event>
 4    1  0.1679763E+006  0.2219166E+02  0.7546771E-02  0.1502906E+00
         21   -1    0    0  504  501  0.00000000000E+00  0.00000000000E+00  0.23930604905E+01  0.23930604905E+01  0.00000000000E+00 0.  1.
         21   -1    0    0  503  502 -0.00000000000E+00 -0.00000000000E+00 -0.12612022623E+04  0.12612022623E+04  0.00000000000E+00 0. -1.
         21    1    1    2  503  501  0.10895609971E+02 -0.19332758675E+02 -0.51446250106E+02  0.56028443888E+02  0.00000000000E+00 0.  1.
         21    1    1    2  504  502 -0.10895609971E+02  0.19332758675E+02 -0.12073629517E+04  0.12075668789E+04  0.00000000000E+00 0. -1.
</event>
<event>
 4    1  0.1679763E+006  0.2766769E+02  0.7546771E-02  0.1441014E+00
         21   -1    0    0  504  501  0.00000000000E+00  0.00000000000E+00  0.39636553276E+02  0.39636553276E+02  0.00000000000E+00 0. -1.
         21   -1    0    0  503  502 -0.00000000000E+00 -0.00000000000E+00 -0.99122674046E+02  0.99122674046E+02  0.00000000000E+00 0. -1.
         21    1    1    2  503  501  0.39667378459E+01  0.27381857280E+02  0.32511778850E+02  0.42690946128E+02  0.00000000000E+00 0. -1.
         21    1    1    2  504  502 -0.39667378459E+01 -0.27381857280E+02 -0.91997899620E+02  0.96068281195E+02  0.00000000000E+00 0. -1.
</event>
<event>
 4    1  0.1679763E+006  0.2754696E+02  0.7546771E-02  0.1442190E+00
         21   -1    0    0  504  501  0.00000000000E+00  0.00000000000E+00  0.10124358107E+02  0.10124358107E+02  0.00000000000E+00 0.  1.
         21   -1    0    0  503  502 -0.00000000000E+00 -0.00000000000E+00 -0.82406988828E+02  0.82406988828E+02  0.00000000000E+00 0.  1.
         21    1    1    2  503  501  0.79698332752E+01  0.26368858819E+02 -0.50057411711E+02  0.57136498187E+02  0.00000000000E+00 0.  1.
         21    1    1    2  504  502 -0.79698332752E+01 -0.26368858819E+02 -0.22225219011E+02  0.35394848749E+02  0.00000000000E+00 0.  1.
</event>
<event>
 4    1  0.1679763E+006  0.3109640E+02  0.7546771E-02  0.1410302E+00
         21   -1    0    0  503  501  0.00000000000E+00  0.00000000000E+00  0.87279495509E+02  0.87279495509E+02  0.00000000000E+00 0.  1.
         21   -1    0    0  504  502 -0.00000000000E+00 -0.00000000000E+00 -0.17597221990E+03  0.17597221990E+03  0.00000000000E+00 0.  1.
         21    1    1    2  503  502 -0.19087906062E+02 -0.24548688058E+02 -0.17176128779E+03  0.17455350534E+03  0.00000000000E+00 0.  1.
         21    1    1    2  504  501  0.19087906062E+02  0.24548688058E+02  0.83068563402E+02  0.88698210066E+02  0.00000000000E+00 0.  1.
</event>
<event>
 4    1  0.1679763E+006  0.2239537E+02  0.7546771E-02  0.1500233E+00
         21   -1    0    0  503  501  0.00000000000E+00  0.00000000000E+00  0.27509468297E+01  0.27509468297E+01  0.00000000000E+00 0. -1.
         21   -1    0    0  504  502 -0.00000000000E+00 -0.00000000000E+00 -0.23354157702E+03  0.23354157702E+03  0.00000000000E+00 0. -1.
         21    1    1    2  503  502  0.40790490229E+01  0.22020764165E+02 -0.17072577079E+03  0.17218838958E+03  0.00000000000E+00 0. -1.
         21    1    1    2  504  501 -0.40790490229E+01 -0.22020764165E+02 -0.60064859407E+02  0.64104134273E+02  0.00000000000E+00 0. -1.
</event>
<event>
 4    1  0.1679763E+006  0.2272115E+02  0.7546771E-02  0.1496030E+00
         21   -1    0    0  504  501  0.00000000000E+00  0.00000000000E+00  0.19386196870E+02  0.19386196870E+02  0.00000000000E+00 0.  1.
         21   -1    0    0  501  502 -0.00000000000E+00 -0.00000000000E+00 -0.83575100965E+03  0.83575100965E+03  0.00000000000E+00 0. -1.
         21    1    1    2  503  502 -0.89929139702E+01  0.20865719969E+02 -0.82888398513E+03  0.82919533982E+03  0.00000000000E+00 0. -1.
         21    1    1    2  504  503  0.89929139702E+01 -0.20865719969E+02  0.12519172353E+02  0.25941866700E+02  0.00000000000E+00 0.  1.
</event>
<event>
 4    1  0.1679763E+006  0.2044371E+02  0.7546771E-02  0.1527357E+00
         21   -1    0    0  503  501  0.00000000000E+00  0.00000000000E+00  0.68688562443E+02  0.68688562443E+02  0.00000000000E+00 0.  1.
         21   -1    0    0  504  502 -0.00000000000E+00 -0.00000000000E+00 -0.39366940851E+02  0.39366940851E+02  0.00000000000E+00 0.  1.
         21    1    1    2  503  502  0.16151932801E+02  0.12532366660E+02  0.64338082318E+02  0.67508029031E+02  0.00000000000E+00 0.  1.
         21    1    1    2  504  501 -0.16151932801E+02 -0.12532366660E+02 -0.35016460726E+02  0.40547474263E+02  0.00000000000E+00 0.  1.
</event>
<event>
 4    1  0.1679763E+006  0.2058962E+02  0.7546771E-02  0.1525205E+00
         21   -1    0    0  504  501  0.00000000000E+00  0.00000000000E+00  0.31216317267E+02  0.31216317267E+02  0.00000000000E+00 0.  1.
         21   -1    0    0  503  502 -0.00000000000E+00 -0.00000000000E+00 -0.15140145409E+02  0.15140145409E+02  0.00000000000E+00 0.  1.
         21    1    1    2  503  501  0.62757763494E+01  0.19609866981E+02  0.59877998338E+00  0.20598320059E+02  0.00000000000E+00 0.  1.
         21    1    1    2  504  502 -0.62757763494E+01 -0.19609866981E+02  0.15477391875E+02  0.25758142616E+02  0.00000000000E+00 0.  1.
</event>
<event>
 4    1  0.1679763E+006  0.2267218E+02  0.7546771E-02  0.1496656E+00
         21   -1    0    0  503  501  0.00000000000E+00  0.00000000000E+00  0.12472521747E+02  0.12472521747E+02  0.00000000000E+00 0. -1.
         21   -1    0    0  504  502 -0.00000000000E+00 -0.00000000000E+00 -0.11185140632E+03  0.11185140632E+03  0.00000000000E+00 0.  1.
         21    1    1    2  503  502  0.22545373913E+02 -0.23945190960E+01 -0.28965839990E+00  0.22674027180E+02  0.00000000000E+00 0. -1.
         21    1    1    2  504  501 -0.22545373913E+02  0.23945190960E+01 -0.99089226175E+02  0.10164990089E+03  0.00000000000E+00 0.  1.
</event>
<event>
 4    1  0.1679763E+006  0.2391521E+02  0.7546771E-02  0.1481315E+00
         21   -1    0    0  503  501  0.00000000000E+00  0.00000000000E+00  0.43400997199E+02  0.43400997199E+02  0.00000000000E+00 0. -1.
         21   -1    0    0  504  502 -0.00000000000E+00 -0.00000000000E+00 -0.33236704534E+02  0.33236704534E+02  0.00000000000E+00 0. -1.
         21    1    1    2  503  502 -0.19825872956E+02  0.13374297804E+02 -0.24686237279E+02  0.34370734517E+02  0.00000000000E+00 0. -1.
         21    1    1    2  504  501  0.19825872956E+02 -0.13374297804E+02  0.34850529944E+02  0.42266967216E+02  0.00000000000E+00 0. -1.
</event>
<event>
 4    1  0.1679763E+006  0.2222879E+02  0.7546771E-02  0.1502416E+00
         21   -1    0    0  504  501  0.00000000000E+00  0.00000000000E+00  0.11691069614E+03  0.11691069614E+03  0.00000000000E+00 0. -1.
         21   -1    0    0  503  502 -0.00000000000E+00 -0.00000000000E+00 -0.44942981484E+01  0.44942981484E+01  0.00000000000E+00 0. -1.
         21    1    1    2  503  501  0.12071766662E+02 -0.18665246120E+02  0.71026820197E+02  0.74423975642E+02  0.00000000000E+00 0. -1.
         21    1    1    2  504  502 -0.12071766662E+02  0.18665246120E+02  0.41389577798E+02  0.46981018650E+02  0.00000000000E+00 0. -1.
</event>
<event>
 4    1  0.1679763E+006  0.2265500E+02  0.7546771E-02  0.1496876E+00
         21   -1    0    0  504  501  0.00000000000E+00  0.00000000000E+00  0.19109129717E+03  0.19109129717E+03  0.00000000000E+00 0.  1.
         21   -1    0    0  503  502 -0.00000000000E+00 -0.00000000000E+00 -0.87783149152E+02  0.87783149152E+02  0.00000000000E+00 0.  1.
         21    1    1    2  503  501  0.43104248912E+01 -0.22241162164E+02  0.18894155880E+03  0.19029493345E+03  0.00000000000E+00 0.  1.
         21    1    1    2  504  502 -0.43104248912E+01  0.22241162164E+02 -0.85633410783E+02  0.88579512865E+02  0.00000000000E+00 0.  1.
</event>
<event>
 4    1  0.1679763E+006  0.3843708E+02  0.7546771E-02  0.1357896E+00
         21   -1    0    0  503  501  0.00000000000E+00  0.00000000000E+00  0.49128905834E+01  0.49128905834E+01  0.00000000000E+00 0.  1.
         21   -1    0    0  504  502 -0.00000000000E+00 -0.00000000000E+00 -0.32356955343E+03  0.32356955343E+03  0.00000000000E+00 0.  1.
         21    1    1    2  503  502 -0.84052253709E+01 -0.37506814024E+02 -0.11568392590E+03  0.12190233642E+03  0.00000000000E+00 0.  1.
         21    1    1    2  504  501  0.84052253709E+01  0.37506814024E+02 -0.20297273695E+03  0.20658010760E+03  0.00000000000E+00 0.  1.
</event>
<event>
 4    1  0.1679763E+006  0.2524020E+02  0.7546771E-02  0.1466134E+00
         21   -1    0    0  504  501  0.00000000000E+00  0.00000000000E+00  0.33530648848E+03  0.33530648848E+03  0.00000000000E+00 0. -1.
         21   -1    0    0  501  502 -0.00000000000E+00 -0.00000000000E+00 -0.35290390396E+02  0.35290390396E+02  0.00000000000E+00 0.  1.
         21    1    1    2  503  502 -0.36320393992E+01 -0.24977504707E+02 -0.30233357298E+02  0.39384303282E+02  0.00000000000E+00 0.  1.
         21    1    1    2  504  503  0.36320393992E+01  0.24977504707E+02  0.33024945539E+03  0.33121257560E+03  0.00000000000E+00 0. -1.
</event>
<event>
 4    1  0.1679763E+006  0.2813443E+02  0.7546771E-02  0.1436534E+00
         21   -1    0    0  504  501  0.00000000000E+00  0.00000000000E+00  0.30346845207E+02  0.30346845207E+02  0.00000000000E+00 0.  1.
         21   -1    0    0  503  502 -0.00000000000E+00 -0.00000000000E+00 -0.20048070111E+03  0.20048070111E+03  0.00000000000E+00 0.  1.
         21    1    1    2  503  501 -0.25551316104E+02  0.11776092423E+02 -0.19271130474E+03  0.19475418630E+03  0.00000000000E+00 0.  1.
         21    1    1    2  504  502  0.25551316104E+02 -0.11776092423E+02  0.22577448831E+02  0.36073360020E+02  0.00000000000E+00 0.  1.
</event>
<event>
 4    1  0.1679763E+006  0.2116464E+02  0.7546771E-02  0.1516927E+00
         21   -1    0    0  503  501  0.00000000000E+00  0.00000000000E+00  0.10775473929E+03  0.10775473929E+03  0.00000000000E+00 0. -1.
         21   -1    0    0  504  502 -0.00000000000E+00 -0.00000000000E+00 -0.47120506173E+01  0.47120506173E+01  0.00000000000E+00 0. -1.
         21    1    1    2  503  502  0.80241614941E+01 -0.19584555440E+02  0.32222311141E+02  0.38551515077E+02  0.00000000000E+00 0. -1.
         21    1    1    2  504  501 -0.80241614941E+01  0.19584555440E+02  0.70820377528E+02  0.73915274827E+02  0.00000000000E+00 0. -1.
</event>
<event>
 4    1  0.1679763E+006  0.2160479E+02  0.7546771E-02  0.1510803E+00
         21   -1    0    0  503  501  0.00000000000E+00  0.00000000000E+00  0.17087535634E+01  0.17087535634E+01  0.00000000000E+00 0.  1.
         21   -1    0    0  504  502 -0.00000000000E+00 -0.00000000000E+00 -0.90533599000E+03  0.90533599000E+03  0.00000000000E+00 0.  1.
         21    1    1    2  503  502  0.15683770249E+02 -0.14858877139E+02 -0.72837305234E+02  0.75973942328E+02  0.00000000000E+00 0.  1.
         21    1    1    2  504  501 -0.15683770249E+02  0.14858877139E+02 -0.83078993120E+03  0.83107080123E+03  0.00000000000E+00 0.  1.
</event>
<event>
 4    1  0.1679763E+006  0.2745996E+02  0.7546771E-02  0.1443042E+00
         21   -1    0    0  504  501  0.00000000000E+00  0.00000000000E+00  0.15100815155E+03  0.15100815155E+03  0.00000000000E+00 0.  1.
         21   -1    0    0  503  502 -0.00000000000E+00 -0.00000000000E+00 -0.26991871726E+02  0.26991871726E+02  0.00000000000E+00 0.  1.
         21    1    1    2  503  501 -0.26146954650E+02 -0.83896301947E+01 -0.18338827471E+02  0.33020625756E+02  0.00000000000E+00 0.  1.
         21    1    1    2  504  502  0.26146954650E+02  0.83896301947E+01  0.14235510729E+03  0.14497939752E+03  0.00000000000E+00 0.  1.
</event>
<event>
 4    1  0.1679763E+006  0.2296680E+02  0.7546771E-02  0.1492915E+00
         21   -1    0    0  503  501  0.00000000000E+00  0.00000000000E+00  0.11348368062E+01  0.11348368062E+01  0.00000000000E+00 0.  1.
         21   -1    0    0  504  502 -0.00000000000E+00 -0.00000000000E+00 -0.59994906228E+03  0.59994906228E+03  0.00000000000E+00 0. -1.
         21    1    1    2  503  502 -0.21073522735E+02 -0.91312998690E+01 -0.44205055430E+03  0.44264677403E+03  0.00000000000E+00 0. -1.
         21    1    1    2  504  501  0.21073522735E+02  0.91312998690E+01 -0.15676367116E+03  0.15843712505E+03  0.00000000000E+00 0.  1.
</event>
<event>
 4    1  0.1679763E+006  0.3363782E+02  0.7546771E-02  0.1390401E+00
         21   -1    0    0  503  501  0.00000000000E+00  0.00000000000E+00  0.62630091966E+01  0.62630091966E+01  0.00000000000E+00 0.  1.
         21   -1    0    0  504  502 -0.00000000000E+00 -0.00000000000E+00 -0.27459079685E+03  0.27459079685E+03  0.00000000000E+00 0. -1.
         21    1    1    2  503  502  0.15122249008E+02 -0.30046977335E+02 -0.21629373625E+03  0.21889377241E+03  0.00000000000E+00 0. -1.
         21    1    1    2  504  501 -0.15122249008E+02  0.30046977335E+02 -0.52034051409E+02  0.61960033635E+02  0.00000000000E+00 0.  1.
</event>
<event>
 4    1  0.1679763E+006  0.2099675E+02  0.7546771E-02  0.1519311E+00
         21   -1    0    0  502  501  0.00000000000E+00  0.00000000000E+00  0.77569562126E+03  0.77569562126E+03  0.00000000000E+00 0. -1.
         21   -1    0    0  504  502 -0.00000000000E+00 -0.00000000000E+00 -0.52073951511E+01  0.52073951511E+01  0.00000000000E+00 0. -1.
         21    1    1    2  503  501 -0.70074441983E+01 -0.19792904987E+02  0.75377282823E+03  0.75406520935E+03  0.00000000000E+00 0. -1.
         21    1    1    2  504  503  0.70074441983E+01  0.19792904987E+02  0.16715397879E+02  0.26837807069E+02  0.00000000000E+00 0. -1.
</event>
<event>
 4    1  0.1679763E+006  0.2321897E+02  0.7546771E-02  0.1489767E+00
         21   -1    0    0  504  501  0.00000000000E+00  0.00000000000E+00  0.23093433169E+03  0.23093433169E+03  0.00000000000E+00 0.  1.
         21   -1    0    0  501  502 -0.00000000000E+00 -0.00000000000E+00 -0.67082576384E+01  0.67082576384E+01  0.00000000000E+00 0.  1.
         21    1    1    2  503  502 -0.89859403124E+01 -0.21409659876E+02  0.16169481026E+02  0.28294394780E+02  0.00000000000E+00 0.  1.
         21    1    1    2  504  503  0.89859403124E+01  0.21409659876E+02  0.20805659303E+03  0.20934819455E+03  0.00000000000E+00 0.  1.
</event>
<event>
 4    1  0.1679763E+006  0.2599098E+02  0.7546771E-02  0.1458016E+00
         21   -1    0    0  504  501  0.00000000000E+00  0.00000000000E+00  0.12358910670E+03  0.12358910670E+03  0.00000000000E+00 0. -1.
         21   -1    0    0  503  502 -0.00000000000E+00 -0.00000000000E+00 -0.12452923148E+02  0.12452923148E+02  0.00000000000E+00 0.  1.
         21    1    1    2  503  501  0.23793146459E+02  0.10460261023E+02  0.46171469462E+01  0.26397896223E+02  0.00000000000E+00 0.  1.
         21    1    1    2  504  502 -0.23793146459E+02 -0.10460261023E+02  0.10651903661E+03  0.10964413363E+03  0.00000000000E+00 0. -1.
</event>
<event>
 4    1  0.1679763E+006  0.2061068E+02  0.7546771E-02  0.1524897E+00
         21   -1    0    0  504  501  0.00000000000E+00  0.00000000000E+00  0.20007267226E+04  0.20007267226E+04  0.00000000000E+00 0.  1.
         21   -1    0    0  501  502 -0.00000000000E+00 -0.00000000000E+00 -0.26303169864E+00  0.26303169864E+00  0.00000000000E+00 0. -1.
         21    1    1    2  503  502  0.20141118331E+02  0.43744227945E+01  0.56094092915E+03  0.56131945113E+03  0.00000000000E+00 0. -1.
         21    1    1    2  504  503 -0.20141118331E+02 -0.43744227945E+01  0.14395227618E+04  0.14396703032E+04  0.00000000000E+00 0.  1.
</event>
<event>
 4    1  0.1679763E+006  0.2357240E+02  0.7546771E-02  0.1485433E+00
         21   -1    0    0  502  501  0.00000000000E+00  0.00000000000E+00  0.15975729580E+02  0.15975729580E+02  0.00000000000E+00 0. -1.
         21   -1    0    0  503  502 -0.00000000000E+00 -0.00000000000E+00 -0.22293286590E+03  0.22293286590E+03  0.00000000000E+00 0.  1.
         21    1    1    2  503  504  0.44434807979E+01 -0.23149808688E+02 -0.21321947348E+03  0.21451853541E+03  0.00000000000E+00 0.  1.
         21    1    1    2  504  501 -0.44434807979E+01  0.23149808688E+02  0.62623371523E+01  0.24390060076E+02  0.00000000000E+00 0. -1.
</event>
<event>
 4    1  0.1679763E+006  0.2361384E+02  0.7546771E-02  0.1484931E+00
         21   -1    0    0  503  501  0.00000000000E+00  0.00000000000E+00  0.13595719213E+04  0.13595719213E+04  0.00000000000E+00 0. -1.
         21   -1    0    0  504  502 -0.00000000000E+00 -0.00000000000E+00 -0.46960512047E+00  0.46960512047E+00  0.00000000000E+00 0.  1.
         21    1    1    2  503  502 -0.87270508057E+01 -0.21942015655E+02  0.43756497545E+03  0.43820169010E+03  0.00000000000E+00 0.  1.
         21    1    1    2  504  501  0.87270508057E+01  0.21942015655E+02  0.92153734074E+03  0.92183983633E+03  0.00000000000E+00 0. -1.
</event>
<event>
 4    1  0.1679763E+006  0.2060561E+02  0.7546771E-02  0.1524971E+00
         21   -1    0    0  503  501  0.00000000000E+00  0.00000000000E+00  0.26880157832E+02  0.26880157832E+02  0.00000000000E+00 0. -1.
         21   -1    0    0  501  502 -0.00000000000E+00 -0.00000000000E+00 -0.27324459521E+03  0.27324459521E+03  0.00000000000E+00 0. -1.
         21    1    1    2  503  504  0.14061286764E+02 -0.15062255648E+02  0.22478192929E+02  0.30493613889E+02  0.00000000000E+00 0. -1.
         21    1    1    2  504  502 -0.14061286764E+02  0.15062255648E+02 -0.26884263031E+03  0.26963113915E+03  0.00000000000E+00 0. -1.
</event>
<event>
 4    1  0.1679763E+006  0.2317177E+02  0.7546771E-02  0.1490352E+00
         21   -1    0    0  504  501  0.00000000000E+00  0.00000000000E+00  0.18536463429E+04  0.18536463429E+04  0.00000000000E+00 0.  1.
         21   -1    0    0  501  502 -0.00000000000E+00 -0.00000000000E+00 -0.44783381614E+00  0.44783381614E+00  0.00000000000E+00 0. -1.
         21    1    1    2  503  502 -0.59559263022E+01 -0.22393253078E+02  0.37565462862E+03  0.37636861033E+03  0.00000000000E+00 0. -1.
         21    1    1    2  504  503  0.59559263022E+01  0.22393253078E+02  0.14775438805E+04  0.14777255664E+04  0.00000000000E+00 0.  1.
</event>
<event>
 4    1  0.1679763E+006  0.4311016E+02  0.7546771E-02  0.1331165E+00
         21   -1    0    0  503  501  0.00000000000E+00  0.00000000000E+00  0.31896669941E+02  0.31896669941E+02  0.00000000000E+00 0.  1.
         21   -1    0    0  504  502 -0.00000000000E+00 -0.00000000000E+00 -0.60270719508E+02  0.60270719508E+02  0.00000000000E+00 0.  1.
         21    1    1    2  503  502  0.38442421811E+02  0.19510668302E+02 -0.57819952582E+01  0.43496177320E+02  0.00000000000E+00 0.  1.
         21    1    1    2  504  501 -0.38442421811E+02 -0.19510668302E+02 -0.22592054308E+02  0.48671212129E+02  0.00000000000E+00 0.  1.
</event>
<event>
 4    1  0.1679763E+006  0.2247865E+02  0.7546771E-02  0.1499151E+00
         21   -1    0    0  504  501  0.00000000000E+00  0.00000000000E+00  0.77212692793E+02  0.77212692793E+02  0.00000000000E+00 0. -1.
         21   -1    0    0  501  502 -0.00000000000E+00 -0.00000000000E+00 -0.26191733264E+02  0.26191733264E+02  0.00000000000E+00 0.  1.
         21    1    1    2  503  502 -0.16080851095E+02  0.15706555990E+02 -0.19269287856E+02  0.29607349214E+02  0.00000000000E+00 0.  1.
         21    1    1    2  504  503  0.16080851095E+02 -0.15706555990E+02  0.70290247385E+02  0.73797076842E+02  0.00000000000E+00 0. -1.
</event>
<event>
 4    1  0.1679763E+006  0.2132740E+02  0.7546771E-02  0.1514641E+00
         21   -1    0    0  502  501  0.00000000000E+00  0.00000000000E+00  0.21433165713E+02  0.21433165713E+02  0.00000000000E+00 0.  1.
         21   -1    0    0  504  502 -0.00000000000E+00 -0.00000000000E+00 -0.25146036636E+02  0.25146036636E+02  0.00000000000E+00 0.  1.
         21    1    1    2  503  501  0.23490750577E+01 -0.21197635618E+02 -0.11056383448E+02  0.24022937463E+02  0.00000000000E+00 0.  1.
         21    1    1    2  504  503 -0.23490750577E+01  0.21197635618E+02  0.73435125247E+01  0.22556264886E+02  0.00000000000E+00 0.  1.
</event>
<event>
 4    1  0.1679763E+006  0.6563990E+02  0.7546771E-02  0.1241787E+00
         21   -1    0    0  504  501  0.00000000000E+00  0.00000000000E+00  0.25829408254E+03  0.25829408254E+03  0.00000000000E+00 0. -1.
         21   -1    0    0  501  502 -0.00000000000E+00 -0.00000000000E+00 -0.17123321218E+02  0.17123321218E+02  0.00000000000E+00 0. -1.
         21    1    1    2  503  502 -0.20883960397E+02 -0.62229070042E+02  0.98451943026E+02  0.11832743573E+03  0.00000000000E+00 0. -1.
         21    1    1    2  504  503  0.20883960397E+02  0.62229070042E+02  0.14271881830E+03  0.15708996803E+03  0.00000000000E+00 0. -1.
</event>
<event>
 4    1  0.1679763E+006  0.2042034E+02  0.7546771E-02  0.1527704E+00
         21   -1    0    0  504  501  0.00000000000E+00  0.00000000000E+00  0.13685233644E+02  0.13685233644E+02  0.00000000000E+00 0.  1.
         21   -1    0    0  503  502 -0.00000000000E+00 -0.00000000000E+00 -0.31347406245E+02  0.31347406245E+02  0.00000000000E+00 0. -1.
         21    1    1    2  503  501 -0.51139191382E+01  0.19769623759E+02 -0.12597921748E+02  0.23993703860E+02  0.00000000000E+00 0. -1.
         21    1    1    2  504  502  0.51139191382E+01 -0.19769623759E+02 -0.50642508526E+01  0.21038936029E+02  0.00000000000E+00 0.  1.
</event>
<event>
 4    1  0.1679763E+006  0.2379130E+02  0.7546771E-02  0.1482794E+00
         21   -1    0    0  504  501  0.00000000000E+00  0.00000000000E+00  0.44247661666E+01  0.44247661666E+01  0.00000000000E+00 0.  1.
         21   -1    0    0  501  502 -0.00000000000E+00 -0.00000000000E+00 -0.13909783294E+03  0.13909783294E+03  0.00000000000E+00 0.  1.
         21    1    1    2  503  502 -0.23170192524E+02  0.54007431384E+01 -0.87677241380E+02  0.90847809572E+02  0.00000000000E+00 0.  1.
         21    1    1    2  504  503  0.23170192524E+02 -0.54007431384E+01 -0.46995825390E+02  0.52674789531E+02  0.00000000000E+00 0.  1.
</event>
<event>
 4    1  0.1679763E+006  0.2018924E+02  0.7546771E-02  0.1531162E+00
         21   -1    0    0  502  501  0.00000000000E+00  0.00000000000E+00  0.18887858544E+03  0.18887858544E+03  0.00000000000E+00 0.  1.
         21   -1    0    0  503  502 -0.00000000000E+00 -0.00000000000E+00 -0.10542435726E+02  0.10542435726E+02  0.00000000000E+00 0.  1.
         21    1    1    2  503  504 -0.12852889694E+02 -0.15569481569E+02  0.24660782408E+00  0.20190749002E+02  0.00000000000E+00 0.  1.
         21    1    1    2  504  501  0.12852889694E+02  0.15569481569E+02  0.17808954189E+03  0.17923027217E+03  0.00000000000E+00 0.  1.
</event>
<event>
 4    1  0.1679763E+006  0.2261550E+02  0.7546771E-02  0.1497384E+00
         21   -1    0    0  503  501  0.00000000000E+00  0.00000000000E+00  0.37478186240E+02  0.37478186240E+02  0.00000000000E+00 0.  1.
         21   -1    0    0  501  502 -0.00000000000E+00 -0.00000000000E+00 -0.49674095505E+02  0.49674095505E+02  0.00000000000E+00 0.  1.
         21    1    1    2  503  504 -0.58814939048E+01  0.21837328255E+02  0.31012736284E+02  0.38382947876E+02  0.00000000000E+00 0.  1.
         21    1    1    2  504  502  0.58814939048E+01 -0.21837328255E+02 -0.43208645549E+02  0.48769333869E+02  0.00000000000E+00 0.  1.
</event>
<event>
 4    1  0.1679763E+006  0.2272429E+02  0.7546771E-02  0.1495990E+00
         21   -1    0    0  503  501  0.00000000000E+00  0.00000000000E+00  0.12148414513E+03  0.12148414513E+03  0.00000000000E+00 0. -1.
         21   -1    0    0  504  502 -0.00000000000E+00 -0.00000000000E+00 -0.98499794827E+01  0.98499794827E+01  0.00000000000E+00 0.  1.
         21    1    1    2  503  502 -0.21282996054E+02  0.79641400059E+01  0.63067614693E+01  0.23583228941E+02  0.00000000000E+00 0.  1.
         21    1    1    2  504  501  0.21282996054E+02 -0.79641400059E+01  0.10532740418E+03  0.10775089567E+03  0.00000000000E+00 0. -1.
</event>
<event>
 4    1  0.1679763E+006  0.2930423E+02  0.7546771E-02  0.1425741E+00
         21   -1    0    0  503  501  0.00000000000E+00  0.00000000000E+00  0.14619830829E+01  0.14619830829E+01  0.00000000000E+00 0.  1.
         21   -1    0    0  501  502 -0.00000000000E+00 -0.00000000000E+00 -0.81125717503E+03  0.81125717503E+03  0.00000000000E+00 0.  1.
         21    1    1    2  503  504 -0.18887561340E+02  0.22405308281E+02 -0.19142735679E+03  0.19365735396E+03  0.00000000000E+00 0.  1.
         21    1    1    2  504  502  0.18887561340E+02 -0.22405308281E+02 -0.61836783515E+03  0.61906180416E+03  0.00000000000E+00 0.  1.
</event>
<event>
 4    1  0.1679763E+006  0.2072447E+02  0.7546771E-02  0.1523235E+00
         21   -1    0    0  504  501  0.00000000000E+00  0.00000000000E+00  0.10975606685E+03  0.10975606685E+03  0.00000000000E+00 0.  1.
         21   -1    0    0  503  502 -0.00000000000E+00 -0.00000000000E+00 -0.26355154059E+02  0.26355154059E+02  0.00000000000E+00 0.  1.
         21    1    1    2  503  501 -0.14073001969E+02  0.15213618957E+02 -0.21099732066E+02  0.29575366092E+02  0.00000000000E+00 0.  1.
         21    1    1    2  504  502  0.14073001969E+02 -0.15213618957E+02  0.10450064486E+03  0.10653585482E+03  0.00000000000E+00 0.  1.
</event>
<event>
 4    1  0.1679763E+006  0.2500608E+02  0.7546771E-02  0.1468735E+00
         21   -1    0    0  502  501  0.00000000000E+00  0.00000000000E+00  0.36739183421E+03  0.36739183421E+03  0.00000000000E+00 0. -1.
         21   -1    0    0  503  502 -0.00000000000E+00 -0.00000000000E+00 -0.11755429397E+02  0.11755429397E+02  0.00000000000E+00 0. -1.
         21    1    1    2  503  504 -0.25005861190E+02 -0.10480241839E+00  0.25046011610E+01  0.25131197830E+02  0.00000000000E+00 0. -1.
         21    1    1    2  504  501  0.25005861190E+02  0.10480241839E+00  0.35313180365E+03  0.35401606578E+03  0.00000000000E+00 0. -1.
</event>
<event>
 4    1  0.1679763E+006  0.3138134E+02  0.7546771E-02  0.1407961E+00
         21   -1    0    0  503  501  0.00000000000E+00  0.00000000000E+00  0.79701218871E+02  0.79701218871E+02  0.00000000000E+00 0. -1.
         21   -1    0    0  504  502 -0.00000000000E+00 -0.00000000000E+00 -0.56676475222E+03  0.56676475222E+03  0.00000000000E+00 0.  1.
         21    1    1    2  503  502  0.24482057216E+02  0.19632056344E+02 -0.56322194467E+03  0.56409551294E+03  0.00000000000E+00 0.  1.
         21    1    1    2  504  501 -0.24482057216E+02 -0.19632056344E+02  0.76158411319E+02  0.82370458153E+02  0.00000000000E+00 0. -1.
</event>
<event>
 4    1  0.1679763E+006  0.2012435E+02  0.7546771E-02  0.1532143E+00
         21   -1    0    0  503  501  0.00000000000E+00  0.00000000000E+00  0.17308048346E+03  0.17308048346E+03  0.00000000000E+00 0. -1.
         21   -1    0    0  504  502 -0.00000000000E+00 -0.00000000000E+00 -0.18229653747E+03  0.18229653747E+03  0.00000000000E+00 0.  1.
         21    1    1    2  503  502  0.19645240069E+02 -0.43651107502E+01 -0.18115248190E+03  0.18226686848E+03  0.00000000000E+00 0.  1.
         21    1    1    2  504  501 -0.19645240069E+02  0.43651107502E+01  0.17193642789E+03  0.17311015246E+03  0.00000000000E+00 0. -1.
</event>
<event>
 4    1  0.1679763E+006  0.3389192E+02  0.7546771E-02  0.1388525E+00
         21   -1    0    0  502  501  0.00000000000E+00  0.00000000000E+00  0.13175446873E+03  0.13175446873E+03  0.00000000000E+00 0. -1.
         21   -1    0    0  503  502 -0.00000000000E+00 -0.00000000000E+00 -0.37155162930E+02  0.37155162930E+02  0.00000000000E+00 0. -1.
         21    1    1    2  503  504 -0.33833230801E+02  0.19937232448E+01 -0.26585368525E+02  0.43074868060E+02  0.00000000000E+00 0. -1.
         21    1    1    2  504  501  0.33833230801E+02 -0.19937232448E+01  0.12118467432E+03  0.12583476360E+03  0.00000000000E+00 0. -1.
</event>
<event>
 4    1  0.1679763E+006  0.2096732E+02  0.7546771E-02  0.1519732E+00
         21   -1    0    0  504  501  0.00000000000E+00  0.00000000000E+00  0.11714059601E+03  0.11714059601E+03  0.00000000000E+00 0.  1.
         21   -1    0    0  503  502 -0.00000000000E+00 -0.00000000000E+00 -0.59204794071E+01  0.59204794071E+01  0.00000000000E+00 0.  1.
         21    1    1    2  503  501  0.17192017857E+02 -0.12002624760E+02  0.92839790725E+02  0.95178018581E+02  0.00000000000E+00 0.  1.
         21    1    1    2  504  502 -0.17192017857E+02  0.12002624760E+02  0.18380325876E+02  0.27883056834E+02  0.00000000000E+00 0.  1.
</event>
<event>
 4    1  0.1679763E+006  0.3725196E+02  0.7546771E-02  0.1365388E+00
         21   -1    0    0  503  501  0.00000000000E+00  0.00000000000E+00  0.10401251378E+03  0.10401251378E+03  0.00000000000E+00 0.  1.
         21   -1    0    0  504  502 -0.00000000000E+00 -0.00000000000E+00 -0.30014027524E+03  0.30014027524E+03  0.00000000000E+00 0. -1.
         21    1    1    2  503  502  0.34587238753E+02 -0.13835867859E+02 -0.29559790330E+03  0.29793594741E+03  0.00000000000E+00 0. -1.
         21    1    1    2  504  501 -0.34587238753E+02  0.13835867859E+02  0.99470141835E+02  0.10621684161E+03  0.00000000000E+00 0.  1.
</event>
<event>
 4    1  0.1679763E+006  0.2126541E+02  0.7546771E-02  0.1515509E+00
         21   -1    0    0  502  501  0.00000000000E+00  0.00000000000E+00  0.14846309512E+04  0.14846309512E+04  0.00000000000E+00 0. -1.
         21   -1    0    0  503  502 -0.00000000000E+00 -0.00000000000E+00 -0.55475660374E+00  0.55475660374E+00  0.00000000000E+00 0.  1.
         21    1    1    2  503  504  0.54262136532E+00 -0.21258489632E+02  0.24337645782E+03  0.24430374136E+03  0.00000000000E+00 0.  1.
         21    1    1    2  504  501 -0.54262136532E+00  0.21258489632E+02  0.12406997368E+04  0.12408819665E+04  0.00000000000E+00 0. -1.
</event>
<event>
 4    1  0.1679763E+006  0.2090145E+02  0.7546771E-02  0.1520676E+00
         21   -1    0    0  504  501  0.00000000000E+00  0.00000000000E+00  0.29837545779E+01  0.29837545779E+01  0.00000000000E+00 0.  1.
         21   -1    0    0  503  502 -0.00000000000E+00 -0.00000000000E+00 -0.15551162124E+04  0.15551162124E+04  0.00000000000E+00 0.  1.
         21    1    1    2  503  501 -0.20266211814E+02 -0.51138457354E+01 -0.15175354341E+04  0.15176793681E+04  0.00000000000E+00 0.  1.
         21    1    1    2  504  502  0.20266211814E+02  0.51138457354E+01 -0.34597023751E+02  0.40420598857E+02  0.00000000000E+00 0.  1.
</event>
<event>
 4    1  0.1679763E+006  0.3827168E+02  0.7546771E-02  0.1358922E+00
         21   -1    0    0  503  501  0.00000000000E+00  0.00000000000E+00  0.39359562193E+01  0.39359562193E+01  0.00000000000E+00 0. -1.
         21   -1    0    0  504  502 -0.00000000000E+00 -0.00000000000E+00 -0.47779095512E+03  0.47779095512E+03  0.00000000000E+00 0. -1.
         21    1    1    2  503  502 -0.35831013535E+02 -0.13448417450E+02 -0.12366362222E+03  0.12945042651E+03  0.00000000000E+00 0. -1.
         21    1    1    2  504  501  0.35831013535E+02  0.13448417450E+02 -0.35019137667E+03  0.35227648482E+03  0.00000000000E+00 0. -1.
</event>
<event>
 4    1  0.1679763E+006  0.2432754E+02  0.7546771E-02  0.1476469E+00
         21   -1    0    0  503  501  0.00000000000E+00  0.00000000000E+00  0.60769047840E+01  0.60769047840E+01  0.00000000000E+00 0.  1.
         21   -1    0    0  504  502 -0.00000000000E+00 -0.00000000000E+00 -0.98960021898E+02  0.98960021898E+02  0.00000000000E+00 0.  1.
         21    1    1    2  503  502 -0.21946942467E+02  0.10495763241E+02 -0.39826332379E+02  0.46668684152E+02  0.00000000000E+00 0.  1.
         21    1    1    2  504  501  0.21946942467E+02 -0.10495763241E+02 -0.53056784735E+02  0.58368242531E+02  0.00000000000E+00 0.  1.
</event>
<event>
 4    1  0.1679763E+006  0.2560033E+02  0.7546771E-02  0.1462198E+00
         21   -1    0    0  504  501  0.00000000000E+00  0.00000000000E+00  0.74676135020E+02  0.74676135020E+02  0.00000000000E+00 0. -1.
         21   -1    0    0  503  502 -0.00000000000E+00 -0.00000000000E+00 -0.88438183570E+01  0.88438183570E+01  0.00000000000E+00 0. -1.
         21    1    1    2  503  501 -0.24821199579E+02  0.62677695388E+01  0.36566155261E+02  0.44636986840E+02  0.00000000000E+00 0. -1.
         21    1    1    2  504  502  0.24821199579E+02 -0.62677695388E+01  0.29266161402E+02  0.38882966537E+02  0.00000000000E+00 0. -1.
</event>
<event>
 4    1  0.1679763E+006  0.2011229E+02  0.7546771E-02  0.1532326E+00
         21   -1    0    0  504  501  0.00000000000E+00  0.00000000000E+00  0.92660896763E+00  0.92660896763E+00  0.00000000000E+00 0. -1.
         21   -1    0    0  503  502 -0.00000000000E+00 -0.00000000000E+00 -0.43922509291E+03  0.43922509291E+03  0.00000000000E+00 0. -1.
         21    1    1    2  503  501 -0.20100096675E+02  0.70028381708E+00 -0.20195042917E+03  0.20294945214E+03  0.00000000000E+00 0. -1.
         21    1    1    2  504  502  0.20100096675E+02 -0.70028381708E+00 -0.23634805477E+03  0.23720224973E+03  0.00000000000E+00 0. -1.
</event>
<event>
 4    1  0.1679763E+006  0.4013395E+02  0.7546771E-02  0.1347703E+00
         21   -1    0    0  504  501  0.00000000000E+00  0.00000000000E+00  0.16682807511E+03  0.16682807511E+03  0.00000000000E+00 0. -1.
         21   -1    0    0  503  502 -0.00000000000E+00 -0.00000000000E+00 -0.30520161366E+02  0.30520161366E+02  0.00000000000E+00 0.  1.
         21    1    1    2  503  501 -0.68374475860E+00  0.40128125707E+02  0.14974080566E+03  0.15502594254E+03  0.00000000000E+00 0. -1.
         21    1    1    2  504  502  0.68374475860E+00 -0.40128125707E+02 -0.13432891911E+02  0.42322293944E+02  0.00000000000E+00 0.  1.
</event>
<event>
 4    1  0.1679763E+006  0.2677637E+02  0.7546771E-02  0.1449868E+00
         21   -1    0    0  503  501  0.00000000000E+00  0.00000000000E+00  0.42518624535E+02  0.42518624535E+02  0.00000000000E+00 0.  1.
         21   -1    0    0  504  502 -0.00000000000E+00 -0.00000000000E+00 -0.25916140129E+02  0.25916140129E+02  0.00000000000E+00 0. -1.
         21    1    1    2  503  502  0.13301706083E+02 -0.23238731931E+02  0.28525431741E+02  0.39123832921E+02  0.00000000000E+00 0.  1.
         21    1    1    2  504  501 -0.13301706083E+02  0.23238731931E+02 -0.11922947336E+02  0.29310931743E+02  0.00000000000E+00 0. -1.
</event>
<event>
 4    1  0.1679763E+006  0.8610581E+02  0.7546771E-02  0.1190340E+00
         21   -1    0    0  503  501  0.00000000000E+00  0.00000000000E+00  0.13365261984E+03  0.13365261984E+03  0.00000000000E+00 0.  1.
         21   -1    0    0  501  502 -0.00000000000E+00 -0.00000000000E+00 -0.12964383934E+03  0.12964383934E+03  0.00000000000E+00 0. -1.
         21    1    1    2  503  504 -0.49683156194E+02  0.70326338455E+02  0.10158012709E+03  0.13316430494E+03  0.00000000000E+00 0.  1.
         21    1    1    2  504  502  0.49683156194E+02 -0.70326338455E+02 -0.97571346594E+02  0.13013215424E+03  0.00000000000E+00 0. -1.
</event>
<event>
 4    1  0.1679763E+006  0.2579281E+02  0.7546771E-02  0.1460126E+00
         21   -1    0    0  504  501  0.00000000000E+00  0.00000000000E+00  0.25948134044E+03  0.25948134044E+03  0.00000000000E+00 0. -1.
         21   -1    0    0  503  502 -0.00000000000E+00 -0.00000000000E+00 -0.54250637760E+01  0.54250637760E+01  0.00000000000E+00 0.  1.
         21    1    1    2  503  501  0.23565483838E+02 -0.10485081712E+02  0.30836824871E+02  0.40201725525E+02  0.00000000000E+00 0.  1.
         21    1    1    2  504  502 -0.23565483838E+02  0.10485081712E+02  0.22321945179E+03  0.22470467869E+03  0.00000000000E+00 0. -1.
</event>
<event>
 4    1  0.1679763E+006  0.2972047E+02  0.7546771E-02  0.1422041E+00
         21   -1    0    0  504  501  0.00000000000E+00  0.00000000000E+00  0.33386372903E+02  0.33386372903E+02  0.00000000000E+00 0.  1.
         21   -1    0    0  503  502 -0.00000000000E+00 -0.00000000000E+00 -0.26789977166E+02  0.26789977166E+02  0.00000000000E+00 0.  1.
         21    1    1    2  503  501  0.17901472680E+02  0.23724325379E+02  0.66521503781E+01  0.30455827742E+02  0.00000000000E+00 0.  1.
         21    1    1    2  504  502 -0.17901472680E+02 -0.23724325379E+02 -0.55754640869E-01  0.29720522327E+02  0.00000000000E+00 0.  1.
</event>
<event>
 4    1  0.1679763E+006  0.2001327E+02  0.7546771E-02  0.1533833E+00
         21   -1    0    0  503  501  0.00000000000E+00  0.00000000000E+00  0.17453713661E+03  0.17453713661E+03  0.00000000000E+00 0.  1.
         21   -1    0    0  504  502 -0.00000000000E+00 -0.00000000000E+00 -0.26528273909E+01  0.26528273909E+01  0.00000000000E+00 0.  1.
         21    1    1    2  503  502  0.15859976972E+02 -0.12206235404E+02  0.53395861905E+02  0.57023233167E+02  0.00000000000E+00 0.  1.
         21    1    1    2  504  501 -0.15859976972E+02  0.12206235404E+02  0.11848844731E+03  0.12016673083E+03  0.00000000000E+00 0.  1.
</event>
<event>
 4    1  0.1679763E+006  0.3466456E+02  0.7546771E-02  0.1382937E+00
         21   -1    0    0  503  501  0.00000000000E+00  0.00000000000E+00  0.30645130499E+02  0.30645130499E+02  0.00000000000E+00 0.  1.
         21   -1    0    0  504  502 -0.00000000000E+00 -0.00000000000E+00 -0.57463965159E+03  0.57463965159E+03  0.00000000000E+00 0.  1.
         21    1    1    2  503  502  0.31937847265E+02 -0.13476122719E+02 -0.56413165509E+03  0.56519567961E+03  0.00000000000E+00 0.  1.
         21    1    1    2  504  501 -0.31937847265E+02  0.13476122719E+02  0.20137134004E+02  0.40089102477E+02  0.00000000000E+00 0.  1.
</event>
<event>
 4    1  0.1679763E+006  0.2424360E+02  0.7546771E-02  0.1477446E+00
         21   -1    0    0  503  501  0.00000000000E+00  0.00000000000E+00  0.25386191159E+02  0.25386191159E+02  0.00000000000E+00 0. -1.
         21   -1    0    0  504  502 -0.00000000000E+00 -0.00000000000E+00 -0.56791911632E+02  0.56791911632E+02  0.00000000000E+00 0. -1.
         21    1    1    2  503  502 -0.13052688082E+02  0.20429870197E+02  0.15920459238E+02  0.29003677091E+02  0.00000000000E+00 0. -1.
         21    1    1    2  504  501  0.13052688082E+02 -0.20429870197E+02 -0.47326179712E+02  0.53174425700E+02  0.00000000000E+00 0. -1.
</event>
<event>
 4    1  0.1679763E+006  0.2659894E+02  0.7546771E-02  0.1451679E+00
         21   -1    0    0  504  501  0.00000000000E+00  0.00000000000E+00  0.23025144714E+02  0.23025144714E+02  0.00000000000E+00 0. -1.
         21   -1    0    0  503  502 -0.00000000000E+00 -0.00000000000E+00 -0.41160251111E+03  0.41160251111E+03  0.00000000000E+00 0. -1.
         21    1    1    2  503  501 -0.14539909981E+02 -0.22273187391E+02  0.14756240318E+02  0.30417930356E+02  0.00000000000E+00 0. -1.
         21    1    1    2  504  502  0.14539909981E+02  0.22273187391E+02 -0.40333360672E+03  0.40420972547E+03  0.00000000000E+00 0. -1.
</event>
<event>
 4    1  0.1679763E+006  0.2593938E+02  0.7546771E-02  0.1458563E+00
         21   -1    0    0  502  501  0.00000000000E+00  0.00000000000E+00  0.39758093047E+02  0.39758093047E+02  0.00000000000E+00 0. -1.
         21   -1    0    0  503  502 -0.00000000000E+00 -0.00000000000E+00 -0.11424992160E+03  0.11424992160E+03  0.00000000000E+00 0.  1.
         21    1    1    2  503  504 -0.25765075217E+02  0.30020889415E+01 -0.10831822536E+03  0.11138083131E+03  0.00000000000E+00 0.  1.
         21    1    1    2  504  501  0.25765075217E+02 -0.30020889415E+01  0.33826396800E+02  0.42627183339E+02  0.00000000000E+00 0. -1.
</event>
<event>
 4    1  0.1679763E+006  0.4882379E+02  0.7546771E-02  0.1303354E+00
         21   -1    0    0  504  501  0.00000000000E+00  0.00000000000E+00  0.26072471215E+02  0.26072471215E+02  0.00000000000E+00 0. -1.
         21   -1    0    0  503  502 -0.00000000000E+00 -0.00000000000E+00 -0.12251043158E+03  0.12251043158E+03  0.00000000000E+00 0. -1.
         21    1    1    2  503  501 -0.28829963306E+02 -0.39402991389E+02 -0.85639299797E+02  0.98579167091E+02  0.00000000000E+00 0. -1.
         21    1    1    2  504  502  0.28829963306E+02  0.39402991389E+02 -0.10798660571E+02  0.50003735708E+02  0.00000000000E+00 0. -1.
</event>
<event>
 4    1  0.1679763E+006  0.2181253E+02  0.7546771E-02  0.1507973E+00
         21   -1    0    0  503  501  0.00000000000E+00  0.00000000000E+00  0.42187600307E+01  0.42187600307E+01  0.00000000000E+00 0. -1.
         21   -1    0    0  504  502 -0.00000000000E+00 -0.00000000000E+00 -0.11299165403E+03  0.11299165403E+03  0.00000000000E+00 0.  1.
         21    1    1    2  503  502 -0.21174591352E+02 -0.52367176813E+01 -0.51842586382E+02  0.56244469006E+02  0.00000000000E+00 0. -1.
         21    1    1    2  504  501  0.21174591352E+02  0.52367176813E+01 -0.56930307615E+02  0.60965945053E+02  0.00000000000E+00 0.  1.
</event>
<event>
 4    1  0.1679763E+006  0.3710603E+02  0.7546771E-02  0.1366333E+00
         21   -1    0    0  503  501  0.00000000000E+00  0.00000000000E+00  0.67160848732E+02  0.67160848732E+02  0.00000000000E+00 0. -1.
         21   -1    0    0  504  502 -0.00000000000E+00 -0.00000000000E+00 -0.21270156965E+02  0.21270156965E+02  0.00000000000E+00 0. -1.
         21    1    1    2  503  502 -0.36193540756E+02 -0.81783265114E+01  0.31354004741E+02  0.48579121341E+02  0.00000000000E+00 0. -1.
         21    1    1    2  504  501  0.36193540756E+02  0.81783265114E+01  0.14536687027E+02  0.39851884356E+02  0.00000000000E+00 0. -1.
</event>
<event>
 4    1  0.1679763E+006  0.2121882E+02  0.7546771E-02  0.1516164E+00
         21   -1    0    0  503  501  0.00000000000E+00  0.00000000000E+00  0.87925010699E+03  0.87925010699E+03  0.00000000000E+00 0.  1.
         21   -1    0    0  504  502 -0.00000000000E+00 -0.00000000000E+00 -0.30352768817E+01  0.30352768817E+01  0.00000000000E+00 0. -1.
         21    1    1    2  503  502  0.15103169451E+00 -0.21218280709E+02  0.84032059630E+03  0.84058845032E+03  0.00000000000E+00 0.  1.
         21    1    1    2  504  501 -0.15103169451E+00  0.21218280709E+02  0.35894233806E+02  0.41696933548E+02  0.00000000000E+00 0. -1.
</event>
<event>
 4    1  0.1679763E+006  0.2950711E+02  0.7546771E-02  0.1423929E+00
         21   -1    0    0  503  501  0.00000000000E+00  0.00000000000E+00  0.27448351839E+02  0.27448351839E+02  0.00000000000E+00 0. -1.
         21   -1    0    0  504  502 -0.00000000000E+00 -0.00000000000E+00 -0.48965824466E+03  0.48965824466E+03  0.00000000000E+00 0.  1.
         21    1    1    2  503  502  0.29166600955E+02  0.44697806274E+01 -0.48114343718E+03  0.48204738013E+03  0.00000000000E+00 0.  1.
         21    1    1    2  504  501 -0.29166600955E+02 -0.44697806274E+01  0.18933544360E+02  0.35059216365E+02  0.00000000000E+00 0. -1.
</event>
<event>
 4    1  0.1679763E+006  0.2409011E+02  0.7546771E-02  0.1479245E+00
         21   -1    0    0  502  501  0.00000000000E+00  0.00000000000E+00  0.27951871569E+02  0.27951871569E+02  0.00000000000E+00 0.  1.
         21   -1    0    0  504  502 -0.00000000000E+00 -0.00000000000E+00 -0.22470711015E+02  0.22470711015E+02  0.00000000000E+00 0.  1.
         21    1    1    2  503  501 -0.28647278088E+01 -0.23919166136E+02  0.96930208267E+01  0.25967052717E+02  0.00000000000E+00 0.  1.
         21    1    1    2  504  503  0.28647278088E+01  0.23919166136E+02 -0.42118602724E+01  0.24455529866E+02  0.00000000000E+00 0.  1.
</event>
<event>
 4    1  0.1679763E+006  0.3091202E+02  0.7546771E-02  0.1411833E+00
         21   -1    0    0  504  501  0.00000000000E+00  0.00000000000E+00  0.48111701778E+03  0.48111701778E+03  0.00000000000E+00 0. -1.
         21   -1    0    0  503  502 -0.00000000000E+00 -0.00000000000E+00 -0.25142526716E+01  0.25142526716E+01  0.00000000000E+00 0. -1.
         21    1    1    2  503  501  0.21477980326E+02  0.22231715100E+02  0.35013060498E+03  0.35149252245E+03  0.00000000000E+00 0. -1.
         21    1    1    2  504  502 -0.21477980326E+02 -0.22231715100E+02  0.12847216013E+03  0.13213874800E+03  0.00000000000E+00 0. -1.
</event>
<event>
 4    1  0.1679763E+006  0.2027286E+02  0.7546771E-02  0.1529905E+00
         21   -1    0    0  503  501  0.00000000000E+00  0.00000000000E+00  0.13360169137E+04  0.13360169137E+04  0.00000000000E+00 0. -1.
         21   -1    0    0  504  502 -0.00000000000E+00 -0.00000000000E+00 -0.32099607285E+00  0.32099607285E+00  0.00000000000E+00 0. -1.
         21    1    1    2  503  502 -0.16422030152E+02 -0.11887214193E+02  0.53146526137E+03  0.53185177727E+03  0.00000000000E+00 0. -1.
         21    1    1    2  504  501  0.16422030152E+02  0.11887214193E+02  0.80423065621E+03  0.80448613246E+03  0.00000000000E+00 0. -1.
</event>
<event>
 4    1  0.1679763E+006  0.3364016E+02  0.7546771E-02  0.1390384E+00
         21   -1    0    0  503  501  0.00000000000E+00  0.00000000000E+00  0.37201182792E+01  0.37201182792E+01  0.00000000000E+00 0.  1.
         21   -1    0    0  504  502 -0.00000000000E+00 -0.00000000000E+00 -0.12347247177E+04  0.12347247177E+04  0.00000000000E+00 0.  1.
         21    1    1    2  503  502 -0.12312435368E+02  0.31305977152E+02 -0.11530605585E+04  0.11535511743E+04  0.00000000000E+00 0.  1.
         21    1    1    2  504  501  0.12312435368E+02 -0.31305977152E+02 -0.77944040916E+02  0.84893661627E+02  0.00000000000E+00 0.  1.
</event>
<event>
 4    1  0.1679763E+006  0.2094714E+02  0.7546771E-02  0.1520021E+00
         21   -1    0    0  504  501  0.00000000000E+00  0.00000000000E+00  0.15506816834E+02  0.15506816834E+02  0.00000000000E+00 0.  1.
         21   -1    0    0  503  502 -0.00000000000E+00 -0.00000000000E+00 -0.58267387480E+02  0.58267387480E+02  0.00000000000E+00 0.  1.
         21    1    1    2  503  501 -0.77191289860E+01  0.19472995052E+02 -0.47835692019E+02  0.52221029477E+02  0.00000000000E+00 0.  1.
         21    1    1    2  504  502  0.77191289860E+01 -0.19472995052E+02  0.50751213740E+01  0.21553174837E+02  0.00000000000E+00 0.  1.
</event>
<event>
 4    1  0.1679763E+006  0.2297204E+02  0.7546771E-02  0.1492850E+00
         21   -1    0    0  503  501  0.00000000000E+00  0.00000000000E+00  0.48125767677E+02  0.48125767677E+02  0.00000000000E+00 0.  1.
         21   -1    0    0  501  502 -0.00000000000E+00 -0.00000000000E+00 -0.50055802762E+02  0.50055802762E+02  0.00000000000E+00 0.  1.
         21    1    1    2  503  504 -0.16220221711E+02 -0.16267111594E+02  0.42416852843E+02  0.48237992465E+02  0.00000000000E+00 0.  1.
         21    1    1    2  504  502  0.16220221711E+02  0.16267111594E+02 -0.44346887928E+02  0.49943577974E+02  0.00000000000E+00 0.  1.
</event>
<event>
 4    1  0.1679763E+006  0.2951284E+02  0.7546771E-02  0.1423878E+00
         21   -1    0    0  502  501  0.00000000000E+00  0.00000000000E+00  0.58277286543E+02  0.58277286543E+02  0.00000000000E+00 0.  1.
         21   -1    0    0  504  502 -0.00000000000E+00 -0.00000000000E+00 -0.61375858074E+02  0.61375858074E+02  0.00000000000E+00 0.  1.
         21    1    1    2  503  501  0.12133437751E+01 -0.29487884840E+02  0.50485574606E+02  0.58479062910E+02  0.00000000000E+00 0.  1.
         21    1    1    2  504  503 -0.12133437751E+01  0.29487884840E+02 -0.53584146137E+02  0.61174081707E+02  0.00000000000E+00 0.  1.
</event>
<event>
 4    1  0.1679763E+006  0.2938152E+02  0.7546771E-02  0.1425048E+00
         21   -1    0    0  504  501  0.00000000000E+00  0.00000000000E+00  0.24742394431E+02  0.24742394431E+02  0.00000000000E+00 0.  1.
         21   -1    0    0  503  502 -0.00000000000E+00 -0.00000000000E+00 -0.37624393860E+02  0.37624393860E+02  0.00000000000E+00 0.  1.
         21    1    1    2  503  501 -0.19335647706E+02 -0.22122531177E+02 -0.14846860586E+02  0.32919643484E+02  0.00000000000E+00 0.  1.
         21    1    1    2  504  502  0.19335647706E+02  0.22122531177E+02  0.19648611567E+01  0.29447144806E+02  0.00000000000E+00 0.  1.
</event>
<event>
 4    1  0.1679763E+006  0.2761873E+02  0.7546771E-02  0.1441490E+00
         21   -1    0    0  502  501  0.00000000000E+00  0.00000000000E+00  0.27745473175E+02  0.27745473175E+02  0.00000000000E+00 0. -1.
         21   -1    0    0  504  502 -0.00000000000E+00 -0.00000000000E+00 -0.33237144570E+02  0.33237144570E+02  0.00000000000E+00 0.  1.
         21    1    1    2  503  501  0.26629743027E+02  0.73246767152E+01  0.99304933891E+01  0.29349766636E+02  0.00000000000E+00 0. -1.
         21    1    1    2  504  503 -0.26629743027E+02 -0.73246767152E+01 -0.15422164784E+02  0.31632851109E+02  0.00000000000E+00 0.  1.
</event>
<event>
 4    1  0.1679763E+006  0.5221955E+02  0.7546771E-02  0.1288826E+00
         21   -1    0    0  503  501  0.00000000000E+00  0.00000000000E+00  0.71951746842E+02  0.71951746842E+02  0.00000000000E+00 0.  1.
         21   -1    0    0  504  502 -0.00000000000E+00 -0.00000000000E+00 -0.37935578514E+02  0.37935578514E+02  0.00000000000E+00 0.  1.
         21    1    1    2  503  502  0.50595479321E+02  0.12922018569E+02  0.15296096604E+02  0.54413708410E+02  0.00000000000E+00 0.  1.
         21    1    1    2  504  501 -0.50595479321E+02 -0.12922018569E+02  0.18720071724E+02  0.55473616945E+02  0.00000000000E+00 0.  1.
</event>
<event>
 4    1  0.1679763E+006  0.2697250E+02  0.7546771E-02  0.1447885E+00
         21   -1    0    0  504  501  0.00000000000E+00  0.00000000000E+00  0.67824369624E+01  0.67824369624E+01  0.00000000000E+00 0.  1.
         21   -1    0    0  503  502 -0.00000000000E+00 -0.00000000000E+00 -0.10730257357E+03  0.10730257357E+03  0.00000000000E+00 0.  1.
         21    1    1    2  503  501 -0.41875770618E+01 -0.26645450828E+02 -0.49187949483E+02  0.56097862935E+02  0.00000000000E+00 0.  1.
         21    1    1    2  504  502  0.41875770618E+01  0.26645450828E+02 -0.51332187120E+02  0.57987147594E+02  0.00000000000E+00 0.  1.
</event>
<event>
 4    1  0.1679763E+006  0.3494958E+02  0.7546771E-02  0.1380918E+00
         21   -1    0    0  503  501  0.00000000000E+00  0.00000000000E+00  0.75777875379E+03  0.75777875379E+03  0.00000000000E+00 0. -1.
         21   -1    0    0  501  502 -0.00000000000E+00 -0.00000000000E+00 -0.34928178452E+01  0.34928178452E+01  0.00000000000E+00 0.  1.
         21    1    1    2  503  504  0.33739189968E+02  0.91181213777E+01  0.65646494888E+03  0.65739463200E+03  0.00000000000E+00 0. -1.
         21    1    1    2  504  502 -0.33739189968E+02 -0.91181213777E+01  0.97820987059E+02  0.10387693963E+03  0.00000000000E+00 0.  1.
</event>
<event>
 4    1  0.1679763E+006  0.2837536E+02  0.7546771E-02  0.1434261E+00
         21   -1    0    0  504  501  0.00000000000E+00  0.00000000000E+00  0.32818442016E+03  0.32818442016E+03  0.00000000000E+00 0.  1.
         21   -1    0    0  503  502 -0.00000000000E+00 -0.00000000000E+00 -0.28779107291E+01  0.28779107291E+01  0.00000000000E+00 0.  1.
         21    1    1    2  503  501  0.83709198426E+01  0.27112524070E+02  0.22622957942E+03  0.22800215758E+03  0.00000000000E+00 0.  1.
         21    1    1    2  504  502 -0.83709198426E+01 -0.27112524070E+02  0.99076930018E+02  0.10306017331E+03  0.00000000000E+00 0.  1.
</event>
<event>
 4    1  0.1679763E+006  0.3029914E+02  0.7546771E-02  0.1417014E+00
         21   -1    0    0  503  501  0.00000000000E+00  0.00000000000E+00  0.42643550224E+03  0.42643550224E+03  0.00000000000E+00 0. -1.
         21   -1    0    0  504  502 -0.00000000000E+00 -0.00000000000E+00 -0.39662694369E+01  0.39662694369E+01  0.00000000000E+00 0. -1.
         21    1    1    2  503  502 -0.67587314055E+01  0.29535700234E+02  0.65720237757E+02  0.72368416381E+02  0.00000000000E+00 0. -1.
         21    1    1    2  504  501  0.67587314055E+01 -0.29535700234E+02  0.35674899504E+03  0.35803335529E+03  0.00000000000E+00 0. -1.
</event>
<event>
 4    1  0.1679763E+006  0.2221472E+02  0.7546771E-02  0.1502602E+00
         21   -1    0    0  503  501  0.00000000000E+00  0.00000000000E+00  0.31193998645E+03  0.31193998645E+03  0.00000000000E+00 0. -1.
         21   -1    0    0  504  502 -0.00000000000E+00 -0.00000000000E+00 -0.19909953012E+01  0.19909953012E+01  0.00000000000E+00 0. -1.
         21    1    1    2  503  502 -0.11105308406E+02 -0.19239692498E+02  0.22611557045E+03  0.22720419196E+03  0.00000000000E+00 0. -1.
         21    1    1    2  504  501  0.11105308406E+02  0.19239692498E+02  0.83833420697E+02  0.86726789794E+02  0.00000000000E+00 0. -1.
</event>
<event>
 4    1  0.1679763E+006  0.2635504E+02  0.7546771E-02  0.1454197E+00
         21   -1    0    0  503  501  0.00000000000E+00  0.00000000000E+00  0.24931456695E+02  0.24931456695E+02  0.00000000000E+00 0. -1.
         21   -1    0    0  504  502 -0.00000000000E+00 -0.00000000000E+00 -0.18304122749E+03  0.18304122749E+03  0.00000000000E+00 0. -1.
         21    1    1    2  503  502 -0.25131998825E+02 -0.79354043814E+01  0.16691318965E+02  0.31195963464E+02  0.00000000000E+00 0. -1.
         21    1    1    2  504  501  0.25131998825E+02  0.79354043814E+01 -0.17480108976E+03  0.17677672072E+03  0.00000000000E+00 0. -1.
</event>
<event>
 4    1  0.1679763E+006  0.3490306E+02  0.7546771E-02  0.1381246E+00
         21   -1    0    0  502  501  0.00000000000E+00  0.00000000000E+00  0.26552436036E+02  0.26552436036E+02  0.00000000000E+00 0.  1.
         21   -1    0    0  504  502 -0.00000000000E+00 -0.00000000000E+00 -0.50292239151E+02  0.50292239151E+02  0.00000000000E+00 0.  1.
         21    1    1    2  503  501  0.33911805682E+02 -0.82591067272E+01 -0.48924840084E+00  0.34906486110E+02  0.00000000000E+00 0.  1.
         21    1    1    2  504  503 -0.33911805682E+02  0.82591067272E+01 -0.23250554715E+02  0.41938189077E+02  0.00000000000E+00 0.  1.
</event>
<event>
 4    1  0.1679763E+006  0.2055870E+02  0.7546771E-02  0.1525660E+00
         21   -1    0    0  504  501  0.00000000000E+00  0.00000000000E+00  0.24805979458E+02  0.24805979458E+02  0.00000000000E+00 0.  1.
         21   -1    0    0  503  502 -0.00000000000E+00 -0.00000000000E+00 -0.92801384077E+02  0.92801384077E+02  0.00000000000E+00 0. -1.
         21    1    1    2  503  501 -0.10496137908E+02  0.17677425882E+02  0.19134170387E+02  0.28085169987E+02  0.00000000000E+00 0.  1.
         21    1    1    2  504  502  0.10496137908E+02 -0.17677425882E+02 -0.87129575007E+02  0.89522193548E+02  0.00000000000E+00 0. -1.
</event>
<event>
 4    1  0.1679763E+006  0.2116946E+02  0.7546771E-02  0.1516859E+00
         21   -1    0    0  504  501  0.00000000000E+00  0.00000000000E+00  0.38753095512E+03  0.38753095512E+03  0.00000000000E+00 0. -1.
         21   -1    0    0  501  502 -0.00000000000E+00 -0.00000000000E+00 -0.20793389975E+03  0.20793389975E+03  0.00000000000E+00 0. -1.
         21    1    1    2  503  502  0.19153028725E+02  0.90170803291E+01 -0.20710483338E+03  0.20818395293E+03  0.00000000000E+00 0. -1.
         21    1    1    2  504  503 -0.19153028725E+02 -0.90170803291E+01  0.38670188875E+03  0.38728090195E+03  0.00000000000E+00 0. -1.
</event>
<event>
 4    1  0.1679763E+006  0.2999726E+02  0.7546771E-02  0.1419620E+00
         21   -1    0    0  503  501  0.00000000000E+00  0.00000000000E+00  0.88832412489E+02  0.88832412489E+02  0.00000000000E+00 0. -1.
         21   -1    0    0  504  502 -0.00000000000E+00 -0.00000000000E+00 -0.39691898015E+02  0.39691898015E+02  0.00000000000E+00 0. -1.
         21    1    1    2  503  502  0.15156845451E+01 -0.29958944702E+02 -0.30888935425E+02  0.43057659005E+02  0.00000000000E+00 0. -1.
         21    1    1    2  504  501 -0.15156845451E+01  0.29958944702E+02  0.80029449899E+02  0.85466651498E+02  0.00000000000E+00 0. -1.
</event>
<event>
 4    1  0.1679763E+006  0.2503245E+02  0.7546771E-02  0.1468441E+00
         21   -1    0    0  504  501  0.00000000000E+00  0.00000000000E+00  0.15743135785E+01  0.15743135785E+01  0.00000000000E+00 0.  1.
         21   -1    0    0  503  502 -0.00000000000E+00 -0.00000000000E+00 -0.45211532423E+03  0.45211532423E+03  0.00000000000E+00 0.  1.
         21    1    1    2  503  501 -0.24969738018E+02 -0.17708497430E+01 -0.14681114637E+03  0.14892997154E+03  0.00000000000E+00 0.  1.
         21    1    1    2  504  502  0.24969738018E+02  0.17708497430E+01 -0.30372986428E+03  0.30475966627E+03  0.00000000000E+00 0.  1.
</event>
<event>
 4    1  0.1679763E+006  0.2929487E+02  0.7546771E-02  0.1425825E+00
         21   -1    0    0  503  501  0.00000000000E+00  0.00000000000E+00  0.10642297627E+03  0.10642297627E+03  0.00000000000E+00 0.  1.
         21   -1    0    0  504  502 -0.00000000000E+00 -0.00000000000E+00 -0.10994783591E+03  0.10994783591E+03  0.00000000000E+00 0. -1.
         21    1    1    2  503  502  0.13712582500E+02 -0.25887346463E+02  0.10238009102E+03  0.10648883821E+03  0.00000000000E+00 0.  1.
         21    1    1    2  504  501 -0.13712582500E+02  0.25887346463E+02 -0.10590495067E+03  0.10988197396E+03  0.00000000000E+00 0. -1.
</event>
<event>
 4    1  0.1679763E+006  0.2761172E+02  0.7546771E-02  0.1441558E+00
         21   -1    0    0  504  501  0.00000000000E+00  0.00000000000E+00  0.12971340397E+03  0.12971340397E+03  0.00000000000E+00 0.  1.
         21   -1    0    0  503  502 -0.00000000000E+00 -0.00000000000E+00 -0.58420336961E+02  0.58420336961E+02  0.00000000000E+00 0.  1.
         21    1    1    2  503  501  0.27552676982E+02 -0.18047731460E+01 -0.53562923166E+02  0.60261048390E+02  0.00000000000E+00 0.  1.
         21    1    1    2  504  502 -0.27552676982E+02  0.18047731460E+01  0.12485599018E+03  0.12787269254E+03  0.00000000000E+00 0.  1.
</event>
<event>
 4    1  0.1679763E+006  0.2334623E+02  0.7546771E-02  0.1488196E+00
         21   -1    0    0  503  501  0.00000000000E+00  0.00000000000E+00  0.24972600077E+03  0.24972600077E+03  0.00000000000E+00 0. -1.
         21   -1    0    0  504  502 -0.00000000000E+00 -0.00000000000E+00 -0.37512811146E+02  0.37512811146E+02  0.00000000000E+00 0. -1.
         21    1    1    2  503  502  0.12382258428E+02 -0.19792076740E+02 -0.33272156289E+02  0.40645824012E+02  0.00000000000E+00 0. -1.
         21    1    1    2  504  501 -0.12382258428E+02  0.19792076740E+02  0.24548534591E+03  0.24659298791E+03  0.00000000000E+00 0. -1.
</event>
<event>
 4    1  0.1679763E+006  0.3206313E+02  0.7546771E-02  0.1402476E+00
         21   -1    0    0  504  501  0.00000000000E+00  0.00000000000E+00  0.53556005836E+02  0.53556005836E+02  0.00000000000E+00 0. -1.
         21   -1    0    0  501  502 -0.00000000000E+00 -0.00000000000E+00 -0.26141602245E+02  0.26141602245E+02  0.00000000000E+00 0. -1.
         21    1    1    2  503  502  0.13838316189E+02  0.28923094591E+02 -0.68334343255E+01  0.32783230780E+02  0.00000000000E+00 0. -1.
         21    1    1    2  504  503 -0.13838316189E+02 -0.28923094591E+02  0.34247837916E+02  0.46914377302E+02  0.00000000000E+00 0. -1.
</event>
<event>
 4    1  0.1679763E+006  0.2219201E+02  0.7546771E-02  0.1502901E+00
         21   -1    0    0  504  501  0.00000000000E+00  0.00000000000E+00  0.74243286624E+02  0.74243286624E+02  0.00000000000E+00 0. -1.
         21   -1    0    0  503  502 -0.00000000000E+00 -0.00000000000E+00 -0.17112057670E+02  0.17112057670E+02  0.00000000000E+00 0.  1.
         21    1    1    2  503  501 -0.77698321762E+01 -0.20787373090E+02  0.64309827543E+02  0.68031162643E+02  0.00000000000E+00 0. -1.
         21    1    1    2  504  502  0.77698321762E+01  0.20787373090E+02 -0.71785985882E+01  0.23324181651E+02  0.00000000000E+00 0.  1.
</event>
<event>
 4    1  0.1679763E+006  0.2471446E+02  0.7546771E-02  0.1472023E+00
         21   -1    0    0  503  501  0.00000000000E+00  0.00000000000E+00  0.47165683706E+02  0.47165683706E+02  0.00000000000E+00 0. -1.
         21   -1    0    0  501  502 -0.00000000000E+00 -0.00000000000E+00 -0.13080843120E+03  0.13080843120E+03  0.00000000000E+00 0.  1.
         21    1    1    2  503  504 -0.24714447595E+02  0.24872079576E-01  0.42645993228E+02  0.49289809058E+02  0.00000000000E+00 0. -1.
         21    1    1    2  504  502  0.24714447595E+02 -0.24872079576E-01 -0.12628874072E+03  0.12868430585E+03  0.00000000000E+00 0.  1.
</event>
<event>
 4    1  0.1679763E+006  0.2156404E+02  0.7546771E-02  0.1511362E+00
         21   -1    0    0  503  501  0.00000000000E+00  0.00000000000E+00  0.17034488952E+01  0.17034488952E+01  0.00000000000E+00 0.  1.
         21   -1    0    0  501  502 -0.00000000000E+00 -0.00000000000E+00 -0.37784628491E+03  0.37784628491E+03  0.00000000000E+00 0. -1.
         21    1    1    2  503  504  0.19871297033E+02  0.83749345306E+01 -0.88094796389E+02  0.90695651081E+02  0.00000000000E+00 0.  1.
         21    1    1    2  504  502 -0.19871297033E+02 -0.83749345306E+01 -0.28804803963E+03  0.28885408273E+03  0.00000000000E+00 0. -1.
</event>
<event>
 4    1  0.1679763E+006  0.2009949E+02  0.7546771E-02  0.1532520E+00
         21   -1    0    0  502  501  0.00000000000E+00  0.00000000000E+00  0.82948094635E+03  0.82948094635E+03  0.00000000000E+00 0. -1.
         21   -1    0    0  504  502 -0.00000000000E+00 -0.00000000000E+00 -0.48184409900E+01  0.48184409900E+01  0.00000000000E+00 0.  1.
         21    1    1    2  503  501 -0.15878404128E+02  0.12323386619E+02  0.80783709414E+03  0.80808709942E+03  0.00000000000E+00 0. -1.
         21    1    1    2  504  503  0.15878404128E+02 -0.12323386619E+02  0.16825411219E+02  0.26212287922E+02  0.00000000000E+00 0.  1.
</event>
<event>
 4    1  0.1679763E+006  0.2248766E+02  0.7546771E-02  0.1499034E+00
         21   -1    0    0  504  501  0.00000000000E+00  0.00000000000E+00  0.23110188423E+02  0.23110188423E+02  0.00000000000E+00 0.  1.
         21   -1    0    0  503  502 -0.00000000000E+00 -0.00000000000E+00 -0.26277595981E+03  0.26277595981E+03  0.00000000000E+00 0.  1.
         21    1    1    2  503  501 -0.19854014408E+02 -0.10559966331E+02  0.17029261680E+02  0.28207986996E+02  0.00000000000E+00 0.  1.
         21    1    1    2  504  502  0.19854014408E+02  0.10559966331E+02 -0.25669503307E+03  0.25767816124E+03  0.00000000000E+00 0.  1.
</event>
<event>
 4    1  0.1679763E+006  0.3577073E+02  0.7546771E-02  0.1375224E+00
         21   -1    0    0  503  501  0.00000000000E+00  0.00000000000E+00  0.80201940861E+02  0.80201940861E+02  0.00000000000E+00 0. -1.
         21   -1    0    0  504  502 -0.00000000000E+00 -0.00000000000E+00 -0.76306230683E+02  0.76306230683E+02  0.00000000000E+00 0. -1.
         21    1    1    2  503  502  0.31669584636E+02  0.16630760275E+02 -0.67646425469E+02  0.76521785506E+02  0.00000000000E+00 0. -1.
         21    1    1    2  504  501 -0.31669584636E+02 -0.16630760275E+02  0.71542135648E+02  0.79986386038E+02  0.00000000000E+00 0. -1.
</event>
<event>
 4    1  0.1679763E+006  0.2248180E+02  0.7546771E-02  0.1499110E+00
         21   -1    0    0  502  501  0.00000000000E+00  0.00000000000E+00  0.13452402258E+02  0.13452402258E+02  0.00000000000E+00 0.  1.
         21   -1    0    0  504  502 -0.00000000000E+00 -0.00000000000E+00 -0.38197472280E+02  0.38197472280E+02  0.00000000000E+00 0.  1.
         21    1    1    2  503  501 -0.23976759991E+01 -0.22353577305E+02 -0.90674118692E+01  0.24241477400E+02  0.00000000000E+00 0.  1.
         21    1    1    2  504  503  0.23976759991E+01  0.22353577305E+02 -0.15677658152E+02  0.27408397138E+02  0.00000000000E+00 0.  1.
</event>
<event>
 4    1  0.1679763E+006  0.3311483E+02  0.7546771E-02  0.1394324E+00
         21   -1    0    0  503  501  0.00000000000E+00  0.00000000000E+00  0.13569540228E+02  0.13569540228E+02  0.00000000000E+00 0. -1.
         21   -1    0    0  504  502 -0.00000000000E+00 -0.00000000000E+00 -0.81433266780E+02  0.81433266780E+02  0.00000000000E+00 0. -1.
         21    1    1    2  503  502  0.32776485954E+02  0.47216446904E+01 -0.29785381601E+02  0.44539431039E+02  0.00000000000E+00 0. -1.
         21    1    1    2  504  501 -0.32776485954E+02 -0.47216446904E+01 -0.38078344950E+02  0.50463375969E+02  0.00000000000E+00 0. -1.
</event>
<event>
 4    1  0.1679763E+006  0.2408161E+02  0.7546771E-02  0.1479345E+00
         21   -1    0    0  503  501  0.00000000000E+00  0.00000000000E+00  0.41760530940E+02  0.41760530940E+02  0.00000000000E+00 0.  1.
         21   -1    0    0  504  502 -0.00000000000E+00 -0.00000000000E+00 -0.13925201261E+02  0.13925201261E+02  0.00000000000E+00 0.  1.
         21    1    1    2  503  502 -0.19635569477E+02 -0.13941606008E+02  0.15378049585E+02  0.28572860827E+02  0.00000000000E+00 0.  1.
         21    1    1    2  504  501  0.19635569477E+02  0.13941606008E+02  0.12457280094E+02  0.27112871373E+02  0.00000000000E+00 0.  1.
</event>
<event>
 4    1  0.1679763E+006  0.2086061E+02  0.7546771E-02  0.1521264E+00
         21   -1    0    0  504  501  0.00000000000E+00  0.00000000000E+00  0.20458284598E+02  0.20458284598E+02  0.00000000000E+00 0. -1.
         21   -1    0    0  503  502 -0.00000000000E+00 -0.00000000000E+00 -0.82330740732E+02  0.82330740732E+02  0.00000000000E+00 0.  1.
         21    1    1    2  503  501 -0.77453410475E+01 -0.19369424383E+02  0.13324014126E+02  0.24752661701E+02  0.00000000000E+00 0. -1.
         21    1    1    2  504  502  0.77453410475E+01  0.19369424383E+02 -0.75196470259E+02  0.78036363628E+02  0.00000000000E+00 0.  1.
</event>
<event>
 4    1  0.1679763E+006  0.2815589E+02  0.7546771E-02  0.1436330E+00
         21   -1    0    0  504  501  0.00000000000E+00  0.00000000000E+00  0.76212018009E+02  0.76212018009E+02  0.00000000000E+00 0. -1.
         21   -1    0    0  503  502 -0.00000000000E+00 -0.00000000000E+00 -0.14538675687E+02  0.14538675687E+02  0.00000000000E+00 0. -1.
         21    1    1    2  503  501  0.21821449155E+02  0.17792647284E+02  0.66327538359E+01  0.28926585765E+02  0.00000000000E+00 0. -1.
         21    1    1    2  504  502 -0.21821449155E+02 -0.17792647284E+02  0.55040588486E+02  0.61824107931E+02  0.00000000000E+00 0. -1.
</event>
<event>
 4    1  0.1679763E+006  0.2958341E+02  0.7546771E-02  0.1423252E+00
         21   -1    0    0  502  501  0.00000000000E+00  0.00000000000E+00  0.23403827161E+03  0.23403827161E+03  0.00000000000E+00 0. -1.
         21   -1    0    0  504  502 -0.00000000000E+00 -0.00000000000E+00 -0.43824776950E+01  0.43824776950E+01  0.00000000000E+00 0. -1.
         21    1    1    2  503  501 -0.23628146271E+02  0.17801375712E+02  0.16049079458E+03  0.16319458759E+03  0.00000000000E+00 0. -1.
         21    1    1    2  504  503  0.23628146271E+02 -0.17801375712E+02  0.69164999333E+02  0.75226161714E+02  0.00000000000E+00 0. -1.
</event>
<event>
 4    1  0.1679763E+006  0.2239730E+02  0.7546771E-02  0.1500208E+00
         21   -1    0    0  504  501  0.00000000000E+00  0.00000000000E+00  0.51062816396E+02  0.51062816396E+02  0.00000000000E+00 0.  1.
         21   -1    0    0  503  502 -0.00000000000E+00 -0.00000000000E+00 -0.45333760644E+02  0.45333760644E+02  0.00000000000E+00 0. -1.
         21    1    1    2  503  501  0.18789746308E+02  0.12189525171E+02  0.45521974653E+02  0.50733512262E+02  0.00000000000E+00 0.  1.
         21    1    1    2  504  502 -0.18789746308E+02 -0.12189525171E+02 -0.39792918901E+02  0.45663064777E+02  0.00000000000E+00 0. -1.
</event>
<event>
 4    1  0.1679763E+006  0.2292521E+02  0.7546771E-02  0.1493439E+00
         21   -1    0    0  504  501  0.00000000000E+00  0.00000000000E+00  0.47458010448E+02  0.47458010448E+02  0.00000000000E+00 0. -1.
         21   -1    0    0  503  502 -0.00000000000E+00 -0.00000000000E+00 -0.23017320047E+02  0.23017320047E+02  0.00000000000E+00 0. -1.
         21    1    1    2  503  501 -0.22011164771E+02 -0.64089016965E+01  0.37602961643E+02  0.44040301087E+02  0.00000000000E+00 0. -1.
         21    1    1    2  504  502  0.22011164771E+02  0.64089016965E+01 -0.13162271242E+02  0.26435029408E+02  0.00000000000E+00 0. -1.
</event>
<event>
 4    1  0.1679763E+006  0.2685774E+02  0.7546771E-02  0.1449042E+00
         21   -1    0    0  502  501  0.00000000000E+00  0.00000000000E+00  0.23892834759E+03  0.23892834759E+03  0.00000000000E+00 0.  1.
         21   -1    0    0  504  502 -0.00000000000E+00 -0.00000000000E+00 -0.50167351030E+01  0.50167351030E+01  0.00000000000E+00 0.  1.
         21    1    1    2  503  501  0.26302792629E+02  0.54315042729E+01  0.19392453539E+03  0.19577554384E+03  0.00000000000E+00 0.  1.
         21    1    1    2  504  503 -0.26302792629E+02 -0.54315042729E+01  0.39987077095E+02  0.48169538853E+02  0.00000000000E+00 0.  1.
</event>
<event>
 4    1  0.1679763E+006  0.2369147E+02  0.7546771E-02  0.1483993E+00
         21   -1    0    0  504  501  0.00000000000E+00  0.00000000000E+00  0.11382937975E+04  0.11382937975E+04  0.00000000000E+00 0. -1.
         21   -1    0    0  503  502 -0.00000000000E+00 -0.00000000000E+00 -0.62817990339E+01  0.62817990339E+01  0.00000000000E+00 0. -1.
         21    1    1    2  503  501  0.23689858666E+02 -0.27662766749E+00  0.16638232058E+02  0.28950245120E+02  0.00000000000E+00 0. -1.
         21    1    1    2  504  502 -0.23689858666E+02  0.27662766749E+00  0.11153737664E+04  0.11156253514E+04  0.00000000000E+00 0. -1.
</event>
<event>
 4    1  0.1679763E+006  0.2468045E+02  0.7546771E-02  0.1472410E+00
         21   -1    0    0  503  501  0.00000000000E+00  0.00000000000E+00  0.76247321344E+00  0.76247321344E+00  0.00000000000E+00 0.  1.
         21   -1    0    0  504  502 -0.00000000000E+00 -0.00000000000E+00 -0.11408268332E+04  0.11408268332E+04  0.00000000000E+00 0.  1.
         21    1    1    2  503  502 -0.23605235481E+02 -0.72053657552E+01 -0.88253177676E+03  0.88287680989E+03  0.00000000000E+00 0.  1.
         21    1    1    2  504  501  0.23605235481E+02  0.72053657552E+01 -0.25753258323E+03  0.25871249654E+03  0.00000000000E+00 0.  1.
</event>
<event>
 4    1  0.1679763E+006  0.2133054E+02  0.7546771E-02  0.1514598E+00
         21   -1    0    0  503  501  0.00000000000E+00  0.00000000000E+00  0.19178200872E+01  0.19178200872E+01  0.00000000000E+00 0. -1.
         21   -1    0    0  504  502 -0.00000000000E+00 -0.00000000000E+00 -0.39629719999E+03  0.39629719999E+03  0.00000000000E+00 0.  1.
         21    1    1    2  503  502 -0.21323180005E+02 -0.56016541207E+00 -0.32332828857E+03  0.32403113119E+03  0.00000000000E+00 0.  1.
         21    1    1    2  504  501  0.21323180005E+02  0.56016541207E+00 -0.71051091330E+02  0.74183888884E+02  0.00000000000E+00 0. -1.
</event>
<event>
 4    1  0.1679763E+006  0.3028588E+02  0.7546771E-02  0.1417128E+00
         21   -1    0    0  504  501  0.00000000000E+00  0.00000000000E+00  0.10592583900E+02  0.10592583900E+02  0.00000000000E+00 0. -1.
         21   -1    0    0  503  502 -0.00000000000E+00 -0.00000000000E+00 -0.14719676118E+03  0.14719676118E+03  0.00000000000E+00 0. -1.
         21    1    1    2  503  501  0.23343082297E+02  0.19295985852E+02 -0.17678677777E+02  0.35068079632E+02  0.00000000000E+00 0. -1.
         21    1    1    2  504  502 -0.23343082297E+02 -0.19295985852E+02 -0.11892549950E+03  0.12272126545E+03  0.00000000000E+00 0. -1.
</event>
<event>
 4    1  0.1679763E+006  0.2528460E+02  0.7546771E-02  0.1465645E+00
         21   -1    0    0  503  501  0.00000000000E+00  0.00000000000E+00  0.29318703236E+02  0.29318703236E+02  0.00000000000E+00 0. -1.
         21   -1    0    0  504  502 -0.00000000000E+00 -0.00000000000E+00 -0.23655692474E+02  0.23655692474E+02  0.00000000000E+00 0. -1.
         21    1    1    2  503  502 -0.14524387673E+02  0.20696696599E+02 -0.45759358642E+01  0.25695335694E+02  0.00000000000E+00 0. -1.
         21    1    1    2  504  501  0.14524387673E+02 -0.20696696599E+02  0.10238946626E+02  0.27279060017E+02  0.00000000000E+00 0. -1.
</event>
<event>
 4    1  0.1679763E+006  0.2124421E+02  0.7546771E-02  0.1515807E+00
         21   -1    0    0  503  501  0.00000000000E+00  0.00000000000E+00  0.64874369187E+01  0.64874369187E+01  0.00000000000E+00 0.  1.
         21   -1    0    0  501  502 -0.00000000000E+00 -0.00000000000E+00 -0.19762240365E+03  0.19762240365E+03  0.00000000000E+00 0. -1.
         21    1    1    2  503  504 -0.17937568565E+02  0.11382453895E+02 -0.13416364787E+02  0.25125991857E+02  0.00000000000E+00 0.  1.
         21    1    1    2  504  502  0.17937568565E+02 -0.11382453895E+02 -0.17771860195E+03  0.17898384871E+03  0.00000000000E+00 0. -1.
</event>
<event>
 4    1  0.1679763E+006  0.2109547E+02  0.7546771E-02  0.1517906E+00
         21   -1    0    0  502  501  0.00000000000E+00  0.00000000000E+00  0.17326083308E+02  0.17326083308E+02  0.00000000000E+00 0. -1.
         21   -1    0    0  504  502 -0.00000000000E+00 -0.00000000000E+00 -0.50906133495E+02  0.50906133495E+02  0.00000000000E+00 0. -1.
         21    1    1    2  503  501  0.61911775494E+01 -0.20166509186E+02  0.72235910230E+01  0.22297960433E+02  0.00000000000E+00 0. -1.
         21    1    1    2  504  503 -0.61911775494E+01  0.20166509186E+02 -0.40803641210E+02  0.45934256369E+02  0.00000000000E+00 0. -1.
</event>
<event>
 4    1  0.1679763E+006  0.2256622E+02  0.7546771E-02  0.1498018E+00
         21   -1    0    0  503  501  0.00000000000E+00  0.00000000000E+00  0.80422574240E+02  0.80422574240E+02  0.00000000000E+00 0.  1.
         21   -1    0    0  501  502 -0.00000000000E+00 -0.00000000000E+00 -0.48224890632E+02  0.48224890632E+02  0.00000000000E+00 0.  1.
         21    1    1    2  503  504 -0.22086386013E+02  0.46288215618E+01  0.76051143200E+02  0.79328499408E+02  0.00000000000E+00 0.  1.
         21    1    1    2  504  502  0.22086386013E+02 -0.46288215618E+01 -0.43853459592E+02  0.49318965464E+02  0.00000000000E+00 0.  1.
</event>
<event>
 4    1  0.1679763E+006  0.3290009E+02  0.7546771E-02  0.1395959E+00
         21   -1    0    0  504  501  0.00000000000E+00  0.00000000000E+00  0.84354048246E+02  0.84354048246E+02  0.00000000000E+00 0. -1.
         21   -1    0    0  501  502 -0.00000000000E+00 -0.00000000000E+00 -0.17161038935E+02  0.17161038935E+02  0.00000000000E+00 0. -1.
         21    1    1    2  503  502  0.11424284509E+02  0.30852898486E+02  0.81027509465E+01  0.33883184538E+02  0.00000000000E+00 0. -1.
         21    1    1    2  504  503 -0.11424284509E+02 -0.30852898486E+02  0.59090258365E+02  0.67631902643E+02  0.00000000000E+00 0. -1.
</event>
<event>
 4    1  0.1679763E+006  0.2885818E+02  0.7546771E-02  0.1429785E+00
         21   -1    0    0  502  501  0.00000000000E+00  0.00000000000E+00  0.80142275657E+02  0.80142275657E+02  0.00000000000E+00 0. -1.
         21   -1    0    0  503  502 -0.00000000000E+00 -0.00000000000E+00 -0.88463652865E+02  0.88463652865E+02  0.00000000000E+00 0. -1.
         21    1    1    2  503  504  0.26057202006E+02  0.12402286645E+02 -0.83357669634E+02  0.88211652162E+02  0.00000000000E+00 0. -1.
         21    1    1    2  504  501 -0.26057202006E+02 -0.12402286645E+02  0.75036292426E+02  0.80394276359E+02  0.00000000000E+00 0. -1.
</event>
<event>
 4    1  0.1679763E+006  0.2390793E+02  0.7546771E-02  0.1481401E+00
         21   -1    0    0  504  501  0.00000000000E+00  0.00000000000E+00  0.15122743238E+03  0.15122743238E+03  0.00000000000E+00 0.  1.
         21   -1    0    0  503  502 -0.00000000000E+00 -0.00000000000E+00 -0.21264117877E+02  0.21264117877E+02  0.00000000000E+00 0.  1.
         21    1    1    2  503  501 -0.10790654697E+02  0.21334263526E+02 -0.13224359745E+02  0.27321652945E+02  0.00000000000E+00 0.  1.
         21    1    1    2  504  502  0.10790654697E+02 -0.21334263526E+02  0.14318767425E+03  0.14516989731E+03  0.00000000000E+00 0.  1.
</event>
<event>
 4    1  0.1679763E+006  0.2864003E+02  0.7546771E-02  0.1431795E+00
         21   -1    0    0  503  501  0.00000000000E+00  0.00000000000E+00  0.30587050643E+03  0.30587050643E+03  0.00000000000E+00 0.  1.
         21   -1    0    0  501  502 -0.00000000000E+00 -0.00000000000E+00 -0.23181794457E+02  0.23181794457E+02  0.00000000000E+00 0. -1.
         21    1    1    2  503  504 -0.20529301258E+02  0.19969950399E+02  0.29606184362E+03  0.29744388777E+03  0.00000000000E+00 0.  1.
         21    1    1    2  504  502  0.20529301258E+02 -0.19969950399E+02 -0.13373131647E+02  0.31608413107E+02  0.00000000000E+00 0. -1.
</event>
<event>
 4    1  0.1679763E+006  0.4683002E+02  0.7546771E-02  0.1312534E+00
         21   -1    0    0  502  501  0.00000000000E+00  0.00000000000E+00  0.78844903305E+02  0.78844903305E+02  0.00000000000E+00 0. -1.
         21   -1    0    0  503  502 -0.00000000000E+00 -0.00000000000E+00 -0.70720167592E+02  0.70720167592E+02  0.00000000000E+00 0. -1.
         21    1    1    2  503  504 -0.25955365710E+02  0.38979092768E+02 -0.54186119206E+02  0.71618337015E+02  0.00000000000E+00 0. -1.
         21    1    1    2  504  501  0.25955365710E+02 -0.38979092768E+02  0.62310854919E+02  0.77946733882E+02  0.00000000000E+00 0. -1.
</event>
<event>
 4    1  0.1679763E+006  0.2625129E+02  0.7546771E-02  0.1455278E+00
         21   -1    0    0  502  501  0.00000000000E+00  0.00000000000E+00  0.13422472758E+03  0.13422472758E+03  0.00000000000E+00 0. -1.
         21   -1    0    0  504  502 -0.00000000000E+00 -0.00000000000E+00 -0.58436190589E+01  0.58436190589E+01  0.00000000000E+00 0. -1.
         21    1    1    2  503  501  0.75055711598E+01  0.25155447801E+02  0.88593102411E+02  0.92400584128E+02  0.00000000000E+00 0. -1.
         21    1    1    2  504  503 -0.75055711598E+01 -0.25155447801E+02  0.39788006111E+02  0.47667762511E+02  0.00000000000E+00 0. -1.
</event>
<event>
 4    1  0.1679763E+006  0.2004237E+02  0.7546771E-02  0.1533389E+00
         21   -1    0    0  504  501  0.00000000000E+00  0.00000000000E+00  0.33377540579E+03  0.33377540579E+03  0.00000000000E+00 0.  1.
         21   -1    0    0  503  502 -0.00000000000E+00 -0.00000000000E+00 -0.12794575730E+01  0.12794575730E+01  0.00000000000E+00 0.  1.
         21    1    1    2  503  501 -0.12869706553E+02  0.15364480174E+02  0.12542764163E+03  0.12701885640E+03  0.00000000000E+00 0.  1.
         21    1    1    2  504  502  0.12869706553E+02 -0.15364480174E+02  0.20706830659E+03  0.20803600696E+03  0.00000000000E+00 0.  1.
</event>
<event>
 4    1  0.1679763E+006  0.2381745E+02  0.7546771E-02  0.1482481E+00
         21   -1    0    0  504  501  0.00000000000E+00  0.00000000000E+00  0.49897514451E+03  0.49897514451E+03  0.00000000000E+00 0. -1.
         21   -1    0    0  503  502 -0.00000000000E+00 -0.00000000000E+00 -0.26538835367E+01  0.26538835367E+01  0.00000000000E+00 0.  1.
         21    1    1    2  503  501  0.79598157760E+00 -0.23804141087E+02  0.43779026996E+03  0.43843767081E+03  0.00000000000E+00 0. -1.
         21    1    1    2  504  502 -0.79598157760E+00  0.23804141087E+02  0.58530991013E+02  0.63191357229E+02  0.00000000000E+00 0.  1.
</event>
<event>
 4    1  0.1679763E+006  0.4075031E+02  0.7546771E-02  0.1344144E+00
         21   -1    0    0  503  501  0.00000000000E+00  0.00000000000E+00  0.11252387405E+03  0.11252387405E+03  0.00000000000E+00 0. -1.
         21   -1    0    0  504  502 -0.00000000000E+00 -0.00000000000E+00 -0.18923372145E+02  0.18923372145E+02  0.00000000000E+00 0.  1.
         21    1    1    2  503  502  0.21428134866E+02 -0.34661549954E+02  0.15963589459E+02  0.43765559490E+02  0.00000000000E+00 0.  1.
         21    1    1    2  504  501 -0.21428134866E+02  0.34661549954E+02  0.77636912442E+02  0.87681686700E+02  0.00000000000E+00 0. -1.
</event>
<event>
 4    1  0.1679763E+006  0.2354898E+02  0.7546771E-02  0.1485717E+00
         21   -1    0    0  502  501  0.00000000000E+00  0.00000000000E+00  0.10678427710E+03  0.10678427710E+03  0.00000000000E+00 0.  1.
         21   -1    0    0  503  502 -0.00000000000E+00 -0.00000000000E+00 -0.71519988292E+01  0.71519988292E+01  0.00000000000E+00 0. -1.
         21    1    1    2  503  504 -0.50659425365E+01 -0.22997628552E+02  0.20002805414E+02  0.30897684658E+02  0.00000000000E+00 0. -1.
         21    1    1    2  504  501  0.50659425365E+01  0.22997628552E+02  0.79629472858E+02  0.83038591272E+02  0.00000000000E+00 0.  1.
</event>
<event>
 4    1  0.1679763E+006  0.2564402E+02  0.7546771E-02  0.1461726E+00
         21   -1    0    0  504  501  0.00000000000E+00  0.00000000000E+00  0.35724600687E+01  0.35724600687E+01  0.00000000000E+00 0.  1.
         21   -1    0    0  503  502 -0.00000000000E+00 -0.00000000000E+00 -0.38822550245E+03  0.38822550245E+03  0.00000000000E+00 0.  1.
         21    1    1    2  503  501  0.27004983847E+00  0.25642600516E+02 -0.33438292558E+03  0.33536481152E+03  0.00000000000E+00 0.  1.
         21    1    1    2  504  502 -0.27004983847E+00 -0.25642600516E+02 -0.50270116803E+02  0.56433150998E+02  0.00000000000E+00 0.  1.
</event>
<event>
 4    1  0.1679763E+006  0.2007044E+02  0.7546771E-02  0.1532962E+00
         21   -1    0    0  502  501  0.00000000000E+00  0.00000000000E+00  0.39417117334E+02  0.39417117334E+02  0.00000000000E+00 0. -1.
         21   -1    0    0  503  502 -0.00000000000E+00 -0.00000000000E+00 -0.64129508192E+02  0.64129508192E+02  0.00000000000E+00 0.  1.
         21    1    1    2  503  504 -0.85506529891E+01 -0.18157889928E+02 -0.59825378738E+02  0.63102286601E+02  0.00000000000E+00 0.  1.
         21    1    1    2  504  501  0.85506529891E+01  0.18157889928E+02  0.35112987880E+02  0.40444338925E+02  0.00000000000E+00 0. -1.
</event>
<event>
 4    1  0.1679763E+006  0.2076276E+02  0.7546771E-02  0.1522679E+00
         21   -1    0    0  503  501  0.00000000000E+00  0.00000000000E+00  0.23647109058E+02  0.23647109058E+02  0.00000000000E+00 0.  1.
         21   -1    0    0  504  502 -0.00000000000E+00 -0.00000000000E+00 -0.18310086475E+02  0.18310086475E+02  0.00000000000E+00 0.  1.
         21    1    1    2  503  502 -0.70830450542E+01 -0.19517241754E+02  0.40539409846E+01  0.21154826646E+02  0.00000000000E+00 0.  1.
         21    1    1    2  504  501  0.70830450542E+01  0.19517241754E+02  0.12830815985E+01  0.20802368887E+02  0.00000000000E+00 0.  1.
</event>
<event>
 4    1  0.1679763E+006  0.2167288E+02  0.7546771E-02  0.1509871E+00
         21   -1    0    0  504  501  0.00000000000E+00  0.00000000000E+00  0.48565198089E+03  0.48565198089E+03  0.00000000000E+00 0.  1.
         21   -1    0    0  501  502 -0.00000000000E+00 -0.00000000000E+00 -0.38499234881E+01  0.38499234881E+01  0.00000000000E+00 0.  1.
         21    1    1    2  503  502 -0.61944120521E+01 -0.20768802238E+02  0.29113108797E+02  0.36294448486E+02  0.00000000000E+00 0.  1.
         21    1    1    2  504  503  0.61944120521E+01  0.20768802238E+02  0.45268894861E+03  0.45320745590E+03  0.00000000000E+00 0.  1.
</event>
<event>
 4    1  0.1679763E+006  0.3056296E+02  0.7546771E-02  0.1414766E+00
         21   -1    0    0  502  501  0.00000000000E+00  0.00000000000E+00  0.50864281888E+01  0.50864281888E+01  0.00000000000E+00 0.  1.
         21   -1    0    0  504  502 -0.00000000000E+00 -0.00000000000E+00 -0.36804607852E+03  0.36804607852E+03  0.00000000000E+00 0. -1.
         21    1    1    2  503  501  0.22791766899E+00 -0.30562113986E+02 -0.49421962364E+02  0.58108735330E+02  0.00000000000E+00 0.  1.
         21    1    1    2  504  503 -0.22791766899E+00  0.30562113986E+02 -0.31353768797E+03  0.31502377138E+03  0.00000000000E+00 0. -1.
</event>
<event>
 4    1  0.1679763E+006  0.2292454E+02  0.7546771E-02  0.1493448E+00
         21   -1    0    0  502  501  0.00000000000E+00  0.00000000000E+00  0.13780858626E+02  0.13780858626E+02  0.00000000000E+00 0.  1.
         21   -1    0    0  504  502 -0.00000000000E+00 -0.00000000000E+00 -0.11884488515E+03  0.11884488515E+03  0.00000000000E+00 0.  1.
         21    1    1    2  503  501  0.35513364518E+01  0.22647791512E+02  0.21155345954E+01  0.23021944696E+02  0.00000000000E+00 0.  1.
         21    1    1    2  504  503 -0.35513364518E+01 -0.22647791512E+02 -0.10717956112E+03  0.10960379908E+03  0.00000000000E+00 0.  1.
</event>
<event>
 4    1  0.1679763E+006  0.4804544E+02  0.7546771E-02  0.1306877E+00
         21   -1    0    0  503  501  0.00000000000E+00  0.00000000000E+00  0.39611146085E+02  0.39611146085E+02  0.00000000000E+00 0.  1.
         21   -1    0    0  504  502 -0.00000000000E+00 -0.00000000000E+00 -0.18980301091E+03  0.18980301091E+03  0.00000000000E+00 0.  1.
         21    1    1    2  503  502 -0.44625347287E+02 -0.17802886217E+02 -0.17058348470E+03  0.17722045489E+03  0.00000000000E+00 0.  1.
         21    1    1    2  504  501  0.44625347287E+02  0.17802886217E+02  0.20391619878E+02  0.52193702104E+02  0.00000000000E+00 0.  1.
</event>
<event>
 4    1  0.1679763E+006  0.2128871E+02  0.7546771E-02  0.1515182E+00
         21   -1    0    0  504  501  0.00000000000E+00  0.00000000000E+00  0.28444415330E+03  0.28444415330E+03  0.00000000000E+00 0.  1.
         21   -1    0    0  503  502 -0.00000000000E+00 -0.00000000000E+00 -0.40107707042E+01  0.40107707042E+01  0.00000000000E+00 0. -1.
         21    1    1    2  503  501 -0.10000898131E+02 -0.18793384525E+02  0.25218967889E+03  0.25308663221E+03  0.00000000000E+00 0.  1.
         21    1    1    2  504  502  0.10000898131E+02  0.18793384525E+02  0.28243703706E+02  0.35368291793E+02  0.00000000000E+00 0. -1.
</event>
<event>
 4    1  0.1679763E+006  0.4096055E+02  0.7546771E-02  0.1342947E+00
         21   -1    0    0  503  501  0.00000000000E+00  0.00000000000E+00  0.15605679956E+03  0.15605679956E+03  0.00000000000E+00 0.  1.
         21   -1    0    0  504  502 -0.00000000000E+00 -0.00000000000E+00 -0.11279315890E+02  0.11279315890E+02  0.00000000000E+00 0.  1.
         21    1    1    2  503  502 -0.28074635091E+02 -0.29825858178E+02  0.90496486213E+02  0.99334691667E+02  0.00000000000E+00 0.  1.
         21    1    1    2  504  501  0.28074635091E+02  0.29825858178E+02  0.54280997457E+02  0.68001423783E+02  0.00000000000E+00 0.  1.
</event>
<event>
 4    1  0.1679763E+006  0.2465847E+02  0.7546771E-02  0.1472660E+00
         21   -1    0    0  503  501  0.00000000000E+00  0.00000000000E+00  0.49999492070E+01  0.49999492070E+01  0.00000000000E+00 0.  1.
         21   -1    0    0  504  502 -0.00000000000E+00 -0.00000000000E+00 -0.20756944065E+03  0.20756944065E+03  0.00000000000E+00 0.  1.
         21    1    1    2  503  502 -0.14260965915E+02  0.20116291911E+02 -0.16968182685E+03  0.17146417326E+03  0.00000000000E+00 0.  1.
         21    1    1    2  504  501  0.14260965915E+02 -0.20116291911E+02 -0.32887664599E+02  0.41105216601E+02  0.00000000000E+00 0.  1.
</event>
<event>
 4    1  0.1679763E+006  0.2723784E+02  0.7546771E-02  0.1445234E+00
         21   -1    0    0  504  501  0.00000000000E+00  0.00000000000E+00  0.19838320508E+02  0.19838320508E+02  0.00000000000E+00 0. -1.
         21   -1    0    0  503  502 -0.00000000000E+00 -0.00000000000E+00 -0.87147750016E+02  0.87147750016E+02  0.00000000000E+00 0.  1.
         21    1    1    2  503  501  0.22027283363E+02  0.16021811919E+02 -0.74072047348E+02  0.78921276395E+02  0.00000000000E+00 0.  1.
         21    1    1    2  504  502 -0.22027283363E+02 -0.16021811919E+02  0.67626178395E+01  0.28064794130E+02  0.00000000000E+00 0. -1.
</event>
<event>
 4    1  0.1679763E+006  0.2151393E+02  0.7546771E-02  0.1512052E+00
         21   -1    0    0  504  501  0.00000000000E+00  0.00000000000E+00  0.90126312151E+02  0.90126312151E+02  0.00000000000E+00 0. -1.
         21   -1    0    0  503  502 -0.00000000000E+00 -0.00000000000E+00 -0.16164557524E+02  0.16164557524E+02  0.00000000000E+00 0.  1.
         21    1    1    2  503  501  0.59026321751E+01 -0.20688353318E+02  0.80879620404E+02  0.83692066687E+02  0.00000000000E+00 0. -1.
         21    1    1    2  504  502 -0.59026321751E+01  0.20688353318E+02 -0.69178657765E+01  0.22598802988E+02  0.00000000000E+00 0.  1.
</event>
<event>
 4    1  0.1679763E+006  0.2148968E+02  0.7546771E-02  0.1512387E+00
         21   -1    0    0  503  501  0.00000000000E+00  0.00000000000E+00  0.53222848315E+01  0.53222848315E+01  0.00000000000E+00 0.  1.
         21   -1    0    0  501  502 -0.00000000000E+00 -0.00000000000E+00 -0.90122842061E+03  0.90122842061E+03  0.00000000000E+00 0. -1.
         21    1    1    2  503  504 -0.15162387582E+02 -0.15228532318E+02 -0.17050038025E+02  0.27431915544E+02  0.00000000000E+00 0.  1.
         21    1    1    2  504  502  0.15162387582E+02  0.15228532318E+02 -0.87885609775E+03  0.87911878990E+03  0.00000000000E+00 0. -1.
</event>
<event>
 4    1  0.1679763E+006  0.2099678E+02  0.7546771E-02  0.1519311E+00
         21   -1    0    0  502  501  0.00000000000E+00  0.00000000000E+00  0.27119234818E+02  0.27119234818E+02  0.00000000000E+00 0. -1.
         21   -1    0    0  503  502 -0.00000000000E+00 -0.00000000000E+00 -0.25529238804E+03  0.25529238804E+03  0.00000000000E+00 0. -1.
         21    1    1    2  503  504  0.16225658081E+02 -0.13326393808E+02 -0.25072258366E+03  0.25160023591E+03  0.00000000000E+00 0. -1.
         21    1    1    2  504  501 -0.16225658081E+02  0.13326393808E+02  0.22549430443E+02  0.30811386944E+02  0.00000000000E+00 0. -1.
</event>
<event>
 4    1  0.1679763E+006  0.5959935E+02  0.7546771E-02  0.1261200E+00
         21   -1    0    0  504  501  0.00000000000E+00  0.00000000000E+00  0.47034999985E+02  0.47034999985E+02  0.00000000000E+00 0.  1.
         21   -1    0    0  503  502 -0.00000000000E+00 -0.00000000000E+00 -0.76615130894E+02  0.76615130894E+02  0.00000000000E+00 0.  1.
         21    1    1    2  503  501 -0.59170420462E+02 -0.71374846854E+01 -0.73983723893E+01  0.60056791949E+02  0.00000000000E+00 0.  1.
         21    1    1    2  504  502  0.59170420462E+02  0.71374846854E+01 -0.22181758519E+02  0.63593338930E+02  0.00000000000E+00 0.  1.
</event>
<event>
 4    1  0.1679763E+006  0.2339841E+02  0.7546771E-02  0.1487555E+00
         21   -1    0    0  504  501  0.00000000000E+00  0.00000000000E+00  0.69120089497E+01  0.69120089497E+01  0.00000000000E+00 0.  1.
         21   -1    0    0  503  502 -0.00000000000E+00 -0.00000000000E+00 -0.10317684209E+03  0.10317684209E+03  0.00000000000E+00 0. -1.
         21    1    1    2  503  501  0.21002637444E+02 -0.10313825375E+02 -0.21601846461E+02  0.31845337869E+02  0.00000000000E+00 0.  1.
         21    1    1    2  504  502 -0.21002637444E+02  0.10313825375E+02 -0.74662986680E+02  0.78243513171E+02  0.00000000000E+00 0. -1.
</event>
<event>
 4    1  0.1679763E+006  0.2419065E+02  0.7546771E-02  0.1478065E+00
         21   -1    0    0  504  501  0.00000000000E+00  0.00000000000E+00  0.58170152094E+02  0.58170152094E+02  0.00000000000E+00 0. -1.
         21   -1    0    0  501  502 -0.00000000000E+00 -0.00000000000E+00 -0.13764610989E+03  0.13764610989E+03  0.00000000000E+00 0. -1.
         21    1    1    2  503  502  0.35559863943E+00  0.24188039031E+02 -0.13400040332E+03  0.13616642675E+03  0.00000000000E+00 0. -1.
         21    1    1    2  504  503 -0.35559863943E+00 -0.24188039031E+02  0.54524445532E+02  0.59649835231E+02  0.00000000000E+00 0. -1.
</event>
<event>
 4    1  0.1679763E+006  0.6176333E+02  0.7546771E-02  0.1253956E+00
         21   -1    0    0  504  501  0.00000000000E+00  0.00000000000E+00  0.34758438602E+02  0.34758438602E+02  0.00000000000E+00 0.  1.
         21   -1    0    0  503  502 -0.00000000000E+00 -0.00000000000E+00 -0.20635630847E+03  0.20635630847E+03  0.00000000000E+00 0. -1.
         21    1    1    2  503  501 -0.32543009950E+02  0.52494390546E+02 -0.33111592326E+01  0.61852019457E+02  0.00000000000E+00 0.  1.
         21    1    1    2  504  502  0.32543009950E+02 -0.52494390546E+02 -0.16828671064E+03  0.17926272762E+03  0.00000000000E+00 0. -1.
</event>
<event>
 4    1  0.1679763E+006  0.2069522E+02  0.7546771E-02  0.1523661E+00
         21   -1    0    0  504  501  0.00000000000E+00  0.00000000000E+00  0.13020546855E+02  0.13020546855E+02  0.00000000000E+00 0. -1.
         21   -1    0    0  501  502 -0.00000000000E+00 -0.00000000000E+00 -0.11444024933E+04  0.11444024933E+04  0.00000000000E+00 0. -1.
         21    1    1    2  503  502  0.19436832591E+02 -0.71064651242E+01 -0.11360248994E+04  0.11362133885E+04  0.00000000000E+00 0. -1.
         21    1    1    2  504  503 -0.19436832591E+02  0.71064651242E+01  0.46429529642E+01  0.21209651575E+02  0.00000000000E+00 0. -1.
</event>
<event>
 4    1  0.1679763E+006  0.2555768E+02  0.7546771E-02  0.1462660E+00
         21   -1    0    0  503  501  0.00000000000E+00  0.00000000000E+00  0.62427930352E+02  0.62427930352E+02  0.00000000000E+00 0. -1.
         21   -1    0    0  504  502 -0.00000000000E+00 -0.00000000000E+00 -0.13317626839E+02  0.13317626839E+02  0.00000000000E+00 0. -1.
         21    1    1    2  503  502 -0.24017694828E+02 -0.87375890115E+01  0.70214274298E+01  0.26504632986E+02  0.00000000000E+00 0. -1.
         21    1    1    2  504  501  0.24017694828E+02  0.87375890115E+01  0.42088876083E+02  0.49240924205E+02  0.00000000000E+00 0. -1.
</event>
<event>
 4    1  0.1679763E+006  0.2058992E+02  0.7546771E-02  0.1525201E+00
         21   -1    0    0  502  501  0.00000000000E+00  0.00000000000E+00  0.79360231294E+01  0.79360231294E+01  0.00000000000E+00 0. -1.
         21   -1    0    0  504  502 -0.00000000000E+00 -0.00000000000E+00 -0.11650858626E+03  0.11650858626E+03  0.00000000000E+00 0. -1.
         21    1    1    2  503  501  0.17573696165E+02  0.10728942248E+02 -0.84993670435E+01  0.22275193350E+02  0.00000000000E+00 0. -1.
         21    1    1    2  504  503 -0.17573696165E+02 -0.10728942248E+02 -0.10007319609E+03  0.10216941604E+03  0.00000000000E+00 0. -1.
</event>
<event>
 4    1  0.1679763E+006  0.2681882E+02  0.7546771E-02  0.1449437E+00
         21   -1    0    0  503  501  0.00000000000E+00  0.00000000000E+00  0.37628856106E+03  0.37628856106E+03  0.00000000000E+00 0. -1.
         21   -1    0    0  504  502 -0.00000000000E+00 -0.00000000000E+00 -0.16080595928E+02  0.16080595928E+02  0.00000000000E+00 0. -1.
         21    1    1    2  503  502 -0.75686197206E+00  0.26808133642E+02  0.36426001704E+03  0.36524595669E+03  0.00000000000E+00 0. -1.
         21    1    1    2  504  501  0.75686197206E+00 -0.26808133642E+02 -0.40520519072E+01  0.27123200292E+02  0.00000000000E+00 0. -1.
</event>
<event>
 4    1  0.1679763E+006  0.2416641E+02  0.7546771E-02  0.1478349E+00
         21   -1    0    0  503  501  0.00000000000E+00  0.00000000000E+00  0.19388102242E+03  0.19388102242E+03  0.00000000000E+00 0. -1.
         21   -1    0    0  504  502 -0.00000000000E+00 -0.00000000000E+00 -0.32883422087E+01  0.32883422087E+01  0.00000000000E+00 0.  1.
         21    1    1    2  503  502 -0.24161136351E+02 -0.50493109281E+00  0.66729727770E+02  0.70970923859E+02  0.00000000000E+00 0.  1.
         21    1    1    2  504  501  0.24161136351E+02  0.50493109281E+00  0.12386295244E+03  0.12619844077E+03  0.00000000000E+00 0. -1.
</event>
<event>
 4    1  0.1679763E+006  0.2536717E+02  0.7546771E-02  0.1464738E+00
         21   -1    0    0  504  501  0.00000000000E+00  0.00000000000E+00  0.10176118067E+03  0.10176118067E+03  0.00000000000E+00 0. -1.
         21   -1    0    0  503  502 -0.00000000000E+00 -0.00000000000E+00 -0.85680287351E+01  0.85680287351E+01  0.00000000000E+00 0. -1.
         21    1    1    2  503  501 -0.13744615066E+02  0.21320854426E+02  0.18362309754E+02  0.31315614257E+02  0.00000000000E+00 0. -1.
         21    1    1    2  504  502  0.13744615066E+02 -0.21320854426E+02  0.74830842182E+02  0.79013595149E+02  0.00000000000E+00 0. -1.
</event>
<event>
 4    1  0.1679763E+006  0.2235172E+02  0.7546771E-02  0.1500803E+00
         21   -1    0    0  504  501  0.00000000000E+00  0.00000000000E+00  0.17253902679E+03  0.17253902679E+03  0.00000000000E+00 0.  1.
         21   -1    0    0  503  502 -0.00000000000E+00 -0.00000000000E+00 -0.23000702208E+03  0.23000702208E+03  0.00000000000E+00 0. -1.
         21    1    1    2  503  501 -0.18876627710E+02  0.11969640054E+02  0.17126809470E+03  0.17272046671E+03  0.00000000000E+00 0.  1.
         21    1    1    2  504  502  0.18876627710E+02 -0.11969640054E+02 -0.22873608999E+03  0.22982558217E+03  0.00000000000E+00 0. -1.
</event>
<event>
 4    1  0.1679763E+006  0.2101787E+02  0.7546771E-02  0.1519010E+00
         21   -1    0    0  504  501  0.00000000000E+00  0.00000000000E+00  0.53591882389E+02  0.53591882389E+02  0.00000000000E+00 0. -1.
         21   -1    0    0  503  502 -0.00000000000E+00 -0.00000000000E+00 -0.16563168113E+02  0.16563168113E+02  0.00000000000E+00 0. -1.
         21    1    1    2  503  501 -0.59433631733E+01 -0.20160039709E+02  0.43375824566E+02  0.48199719125E+02  0.00000000000E+00 0. -1.
         21    1    1    2  504  502  0.59433631733E+01  0.20160039709E+02 -0.63471102897E+01  0.21955331378E+02  0.00000000000E+00 0. -1.
</event>
<event>
 4    1  0.1679763E+006  0.2081779E+02  0.7546771E-02  0.1521882E+00
         21   -1    0    0  504  501  0.00000000000E+00  0.00000000000E+00  0.25435993242E+01  0.25435993242E+01  0.00000000000E+00 0.  1.
         21   -1    0    0  503  502 -0.00000000000E+00 -0.00000000000E+00 -0.83140497066E+03  0.83140497066E+03  0.00000000000E+00 0. -1.
         21    1    1    2  503  501 -0.20797138740E+02  0.92694794943E+00 -0.42628729958E+02  0.47440371311E+02  0.00000000000E+00 0.  1.
         21    1    1    2  504  502  0.20797138740E+02 -0.92694794943E+00 -0.78623264138E+03  0.78650819868E+03  0.00000000000E+00 0. -1.
</event>
<event>
 4    1  0.1679763E+006  0.2158829E+02  0.7546771E-02  0.1511029E+00
         21   -1    0    0  504  501  0.00000000000E+00  0.00000000000E+00  0.77037319869E+02  0.77037319869E+02  0.00000000000E+00 0. -1.
         21   -1    0    0  503  502 -0.00000000000E+00 -0.00000000000E+00 -0.67131353389E+01  0.67131353389E+01  0.00000000000E+00 0. -1.
         21    1    1    2  503  501 -0.18788576391E+02 -0.10632192293E+02  0.48326085613E+02  0.52928864209E+02  0.00000000000E+00 0. -1.
         21    1    1    2  504  502  0.18788576391E+02  0.10632192293E+02  0.21998098917E+02  0.30821590999E+02  0.00000000000E+00 0. -1.
</event>
<event>
 4    1  0.1679763E+006  0.2281008E+02  0.7546771E-02  0.1494897E+00
         21   -1    0    0  503  501  0.00000000000E+00  0.00000000000E+00  0.14520490871E+04  0.14520490871E+04  0.00000000000E+00 0. -1.
         21   -1    0    0  501  502 -0.00000000000E+00 -0.00000000000E+00 -0.38003778731E+01  0.38003778731E+01  0.00000000000E+00 0. -1.
         21    1    1    2  503  504 -0.20886652863E+02  0.91677437611E+01  0.14168832342E+04  0.14170668295E+04  0.00000000000E+00 0. -1.
         21    1    1    2  504  502  0.20886652863E+02 -0.91677437611E+01  0.31365475005E+02  0.38782635493E+02  0.00000000000E+00 0. -1.
</event>
<event>
 4    1  0.1679763E+006  0.3124252E+02  0.7546771E-02  0.1409098E+00
         21   -1    0    0  503  501  0.00000000000E+00  0.00000000000E+00  0.68177154481E+02  0.68177154481E+02  0.00000000000E+00 0. -1.
         21   -1    0    0  501  502 -0.00000000000E+00 -0.00000000000E+00 -0.17914053432E+02  0.17914053432E+02  0.00000000000E+00 0.  1.
         21    1    1    2  503  504 -0.24792746061E+02 -0.19010918459E+02  0.44420238999E+02  0.54307024505E+02  0.00000000000E+00 0. -1.
         21    1    1    2  504  502  0.24792746061E+02  0.19010918459E+02  0.58428620506E+01  0.31784183407E+02  0.00000000000E+00 0.  1.
</event>
<event>
 4    1  0.1679763E+006  0.2128759E+02  0.7546771E-02  0.1515198E+00
         21   -1    0    0  502  501  0.00000000000E+00  0.00000000000E+00  0.51606065633E+02  0.51606065633E+02  0.00000000000E+00 0.  1.
         21   -1    0    0  504  502 -0.00000000000E+00 -0.00000000000E+00 -0.20771099259E+02  0.20771099259E+02  0.00000000000E+00 0.  1.
         21    1    1    2  503  501  0.93820823021E+01  0.19108581312E+02  0.42912262756E+02  0.47902230041E+02  0.00000000000E+00 0.  1.
         21    1    1    2  504  503 -0.93820823021E+01 -0.19108581312E+02 -0.12077296382E+02  0.24474934852E+02  0.00000000000E+00 0.  1.
</event>
<event>
 4    1  0.1679763E+006  0.2724009E+02  0.7546771E-02  0.1445211E+00
         21   -1    0    0  504  501  0.00000000000E+00  0.00000000000E+00  0.28367494132E+02  0.28367494132E+02  0.00000000000E+00 0.  1.
         21   -1    0    0  501  502 -0.00000000000E+00 -0.00000000000E+00 -0.43473145328E+03  0.43473145328E+03  0.00000000000E+00 0.  1.
         21    1    1    2  503  502 -0.24357090052E+02 -0.12196501414E+02 -0.42765730492E+03  0.42852397008E+03  0.00000000000E+00 0.  1.
         21    1    1    2  504  503  0.24357090052E+02  0.12196501414E+02  0.21293345779E+02  0.34574977325E+02  0.00000000000E+00 0.  1.
</event>
<event>
 4    1  0.1679763E+006  0.2064513E+02  0.7546771E-02  0.1524392E+00
         21   -1    0    0  503  501  0.00000000000E+00  0.00000000000E+00  0.74115132712E+02  0.74115132712E+02  0.00000000000E+00 0.  1.
         21   -1    0    0  501  502 -0.00000000000E+00 -0.00000000000E+00 -0.57509794816E+01  0.57509794816E+01  0.00000000000E+00 0.  1.
         21    1    1    2  503  504 -0.36164926821E+01  0.20325905898E+02  0.34403777068E+02  0.40122828245E+02  0.00000000000E+00 0.  1.
         21    1    1    2  504  502  0.36164926821E+01 -0.20325905898E+02  0.33960376162E+02  0.39743283948E+02  0.00000000000E+00 0.  1.
</event>
<event>
 4    1  0.1679763E+006  0.2151329E+02  0.7546771E-02  0.1512061E+00
         21   -1    0    0  503  501  0.00000000000E+00  0.00000000000E+00  0.89543816508E+02  0.89543816508E+02  0.00000000000E+00 0.  1.
         21   -1    0    0  501  502 -0.00000000000E+00 -0.00000000000E+00 -0.72544621136E+01  0.72544621136E+01  0.00000000000E+00 0.  1.
         21    1    1    2  503  504  0.18437758208E+02 -0.11084699090E+02  0.67096726205E+02  0.70461281205E+02  0.00000000000E+00 0.  1.
         21    1    1    2  504  502 -0.18437758208E+02  0.11084699090E+02  0.15192628190E+02  0.26336997417E+02  0.00000000000E+00 0.  1.
</event>
<event>
 4    1  0.1679763E+006  0.2868488E+02  0.7546771E-02  0.1431380E+00
         21   -1    0    0  504  501  0.00000000000E+00  0.00000000000E+00  0.30833802402E+01  0.30833802402E+01  0.00000000000E+00 0. -1.
         21   -1    0    0  503  502 -0.00000000000E+00 -0.00000000000E+00 -0.26773058315E+03  0.26773058315E+03  0.00000000000E+00 0.  1.
         21    1    1    2  503  501 -0.25103306673E+02 -0.13879706291E+02 -0.14005737823E+03  0.14296465105E+03  0.00000000000E+00 0.  1.
         21    1    1    2  504  502  0.25103306673E+02  0.13879706291E+02 -0.12458982468E+03  0.12784931234E+03  0.00000000000E+00 0. -1.
</event>
<event>
 4    1  0.1679763E+006  0.2662300E+02  0.7546771E-02  0.1451432E+00
         21   -1    0    0  502  501  0.00000000000E+00  0.00000000000E+00  0.31908578612E+03  0.31908578612E+03  0.00000000000E+00 0. -1.
         21   -1    0    0  504  502 -0.00000000000E+00 -0.00000000000E+00 -0.99644210051E+01  0.99644210051E+01  0.00000000000E+00 0.  1.
         21    1    1    2  503  501 -0.26514721337E+02  0.23986513424E+01  0.29959282893E+03  0.30077341492E+03  0.00000000000E+00 0. -1.
         21    1    1    2  504  503  0.26514721337E+02 -0.23986513424E+01  0.95285361907E+01  0.28276792212E+02  0.00000000000E+00 0.  1.
</event>
<event>
 4    1  0.1679763E+006  0.2795167E+02  0.7546771E-02  0.1438276E+00
         21   -1    0    0  504  501  0.00000000000E+00  0.00000000000E+00  0.15511504898E+03  0.15511504898E+03  0.00000000000E+00 0.  1.
         21   -1    0    0  503  502 -0.00000000000E+00 -0.00000000000E+00 -0.54026372451E+02  0.54026372451E+02  0.00000000000E+00 0.  1.
         21    1    1    2  503  501 -0.15004495762E+02 -0.23583070807E+02  0.15012124219E+03  0.15270128840E+03  0.00000000000E+00 0.  1.
         21    1    1    2  504  502  0.15004495762E+02  0.23583070807E+02 -0.49032565659E+02  0.56440133034E+02  0.00000000000E+00 0.  1.
</event>
<event>
 4    1  0.1679763E+006  0.2103031E+02  0.7546771E-02  0.1518832E+00
         21   -1    0    0  503  501  0.00000000000E+00  0.00000000000E+00  0.10219678461E+02  0.10219678461E+02  0.00000000000E+00 0. -1.
         21   -1    0    0  504  502 -0.00000000000E+00 -0.00000000000E+00 -0.98659138550E+02  0.98659138550E+02  0.00000000000E+00 0. -1.
         21    1    1    2  503  502 -0.20897029502E+02 -0.23638857364E+01 -0.85007582279E+02  0.87570330836E+02  0.00000000000E+00 0. -1.
         21    1    1    2  504  501  0.20897029502E+02  0.23638857364E+01 -0.34318778111E+01  0.21308486175E+02  0.00000000000E+00 0. -1.
</event>
<event>
 4    1  0.1679763E+006  0.2437158E+02  0.7546771E-02  0.1475958E+00
         21   -1    0    0  504  501  0.00000000000E+00  0.00000000000E+00  0.25293765484E+02  0.25293765484E+02  0.00000000000E+00 0. -1.
         21   -1    0    0  503  502 -0.00000000000E+00 -0.00000000000E+00 -0.23525305690E+02  0.23525305690E+02  0.00000000000E+00 0. -1.
         21    1    1    2  503  501 -0.16701693373E+01 -0.24314281435E+02 -0.15076935417E+00  0.24372042974E+02  0.00000000000E+00 0. -1.
         21    1    1    2  504  502  0.16701693373E+01  0.24314281435E+02  0.19192291481E+01  0.24447028200E+02  0.00000000000E+00 0. -1.
</event>
<event>
 4    1  0.1679763E+006  0.3314453E+02  0.7546771E-02  0.1394099E+00
         21   -1    0    0  504  501  0.00000000000E+00  0.00000000000E+00  0.43281518657E+01  0.43281518657E+01  0.00000000000E+00 0.  1.
         21   -1    0    0  503  502 -0.00000000000E+00 -0.00000000000E+00 -0.19214950616E+04  0.19214950616E+04  0.00000000000E+00 0. -1.
         21    1    1    2  503  501  0.98898841409E+01 -0.31634633603E+02 -0.61520643093E+02  0.69880965778E+02  0.00000000000E+00 0.  1.
         21    1    1    2  504  502 -0.98898841409E+01  0.31634633603E+02 -0.18556462667E+04  0.18559422477E+04  0.00000000000E+00 0. -1.
</event>
<event>
 4    1  0.1679763E+006  0.2185302E+02  0.7546771E-02  0.1507426E+00
         21   -1    0    0  504  501  0.00000000000E+00  0.00000000000E+00  0.84890813130E+01  0.84890813130E+01  0.00000000000E+00 0.  1.
         21   -1    0    0  503  502 -0.00000000000E+00 -0.00000000000E+00 -0.36788560325E+03  0.36788560325E+03  0.00000000000E+00 0. -1.
         21    1    1    2  503  501 -0.13536238287E+02  0.17155900325E+02 -0.35290067804E+03  0.35357664406E+03  0.00000000000E+00 0. -1.
         21    1    1    2  504  502  0.13536238287E+02 -0.17155900325E+02 -0.64958438976E+01  0.22798040505E+02  0.00000000000E+00 0.  1.
</event>
<event>
 4    1  0.1679763E+006  0.4095754E+02  0.7546771E-02  0.1342964E+00
         21   -1    0    0  504  501  0.00000000000E+00  0.00000000000E+00  0.22109183962E+01  0.22109183962E+01  0.00000000000E+00 0. -1.
         21   -1    0    0  503  502 -0.00000000000E+00 -0.00000000000E+00 -0.98629169937E+03  0.98629169937E+03  0.00000000000E+00 0. -1.
         21    1    1    2  503  501  0.39545451021E+02 -0.10661954674E+02 -0.25463977774E+03  0.25791265262E+03  0.00000000000E+00 0. -1.
         21    1    1    2  504  502 -0.39545451021E+02  0.10661954674E+02 -0.72944100324E+03  0.73058996515E+03  0.00000000000E+00 0. -1.
</event>
<event>
 4    1  0.1679763E+006  0.2010946E+02  0.7546771E-02  0.1532369E+00
         21   -1    0    0  503  501  0.00000000000E+00  0.00000000000E+00  0.55586038796E+01  0.55586038796E+01  0.00000000000E+00 0.  1.
         21   -1    0    0  504  502 -0.00000000000E+00 -0.00000000000E+00 -0.28667962333E+03  0.28667962333E+03  0.00000000000E+00 0.  1.
         21    1    1    2  503  502 -0.83653069899E+01 -0.18286932488E+02 -0.26678503492E+03  0.26754185676E+03  0.00000000000E+00 0.  1.
         21    1    1    2  504  501  0.83653069899E+01  0.18286932488E+02 -0.14335984524E+02  0.24696370444E+02  0.00000000000E+00 0.  1.
</event>
<event>
 4    1  0.1679763E+006  0.2096758E+02  0.7546771E-02  0.1519728E+00
         21   -1    0    0  502  501  0.00000000000E+00  0.00000000000E+00  0.64243019655E+02  0.64243019655E+02  0.00000000000E+00 0.  1.
         21   -1    0    0  503  502 -0.00000000000E+00 -0.00000000000E+00 -0.85260195173E+01  0.85260195173E+01  0.00000000000E+00 0.  1.
         21    1    1    2  503  504  0.61279544612E+01  0.20052119430E+02  0.11694859696E+02  0.24008520630E+02  0.00000000000E+00 0.  1.
         21    1    1    2  504  501 -0.61279544612E+01 -0.20052119430E+02  0.44022140442E+02  0.48760518543E+02  0.00000000000E+00 0.  1.
</event>
<event>
 4    1  0.1679763E+006  0.2511551E+02  0.7546771E-02  0.1467515E+00
         21   -1    0    0  503  501  0.00000000000E+00  0.00000000000E+00  0.32235178960E+03  0.32235178960E+03  0.00000000000E+00 0. -1.
         21   -1    0    0  504  502 -0.00000000000E+00 -0.00000000000E+00 -0.99342578433E+01  0.99342578433E+01  0.00000000000E+00 0.  1.
         21    1    1    2  503  502 -0.24708284424E+02 -0.45043967670E+01  0.30509197881E+03  0.30612400174E+03  0.00000000000E+00 0. -1.
         21    1    1    2  504  501  0.24708284424E+02  0.45043967670E+01  0.73255529525E+01  0.26162045705E+02  0.00000000000E+00 0.  1.
</event>
<event>
 4    1  0.1679763E+006  0.1619232E+03  0.7546771E-02  0.1085988E+00
         21   -1    0    0  504  501  0.00000000000E+00  0.00000000000E+00  0.68342584183E+03  0.68342584183E+03  0.00000000000E+00 0. -1.
         21   -1    0    0  503  502 -0.00000000000E+00 -0.00000000000E+00 -0.91184220062E+02  0.91184220062E+02  0.00000000000E+00 0. -1.
         21    1    1    2  503  501  0.13719167209E+03  0.86009055262E+02  0.13446121113E+01  0.16192875118E+03  0.00000000000E+00 0. -1.
         21    1    1    2  504  502 -0.13719167209E+03 -0.86009055262E+02  0.59089700966E+03  0.61268131072E+03  0.00000000000E+00 0. -1.
</event>
<event>
 4    1  0.1679763E+006  0.3152551E+02  0.7546771E-02  0.1406787E+00
         21   -1    0    0  502  501  0.00000000000E+00  0.00000000000E+00  0.18591357915E+03  0.18591357915E+03  0.00000000000E+00 0.  1.
         21   -1    0    0  503  502 -0.00000000000E+00 -0.00000000000E+00 -0.53562361556E+01  0.53562361556E+01  0.00000000000E+00 0. -1.
         21    1    1    2  503  504 -0.23917537421E+02 -0.20537988960E+02  0.86058111664E+02  0.91650729238E+02  0.00000000000E+00 0. -1.
         21    1    1    2  504  501  0.23917537421E+02  0.20537988960E+02  0.94499231335E+02  0.99619086072E+02  0.00000000000E+00 0.  1.
</event>
<event>
 4    1  0.1679763E+006  0.3046340E+02  0.7546771E-02  0.1415611E+00
         21   -1    0    0  504  501  0.00000000000E+00  0.00000000000E+00  0.14838824135E+03  0.14838824135E+03  0.00000000000E+00 0.  1.
         21   -1    0    0  503  502 -0.00000000000E+00 -0.00000000000E+00 -0.63055638366E+01  0.63055638366E+01  0.00000000000E+00 0.  1.
         21    1    1    2  503  501 -0.50383331554E+01 -0.30043867366E+02  0.78036380335E+02  0.83771686285E+02  0.00000000000E+00 0.  1.
         21    1    1    2  504  502  0.50383331554E+01  0.30043867366E+02  0.64046297183E+02  0.70922118906E+02  0.00000000000E+00 0.  1.
</event>
<event>
 4    1  0.1679763E+006  0.3051066E+02  0.7546771E-02  0.1415210E+00
         21   -1    0    0  504  501  0.00000000000E+00  0.00000000000E+00  0.32880516076E+01  0.32880516076E+01  0.00000000000E+00 0.  1.
         21   -1    0    0  503  502 -0.00000000000E+00 -0.00000000000E+00 -0.28322894900E+03  0.28322894900E+03  0.00000000000E+00 0.  1.
         21    1    1    2  503  501 -0.78876572612E+01 -0.29473467318E+02 -0.14282976603E+03  0.14605219093E+03  0.00000000000E+00 0.  1.
         21    1    1    2  504  502  0.78876572612E+01  0.29473467318E+02 -0.13711113137E+03  0.14046480968E+03  0.00000000000E+00 0.  1.
</event>
<event>
 4    1  0.1679763E+006  0.3592339E+02  0.7546771E-02  0.1374185E+00
         21   -1    0    0  504  501  0.00000000000E+00  0.00000000000E+00  0.32564413786E+03  0.32564413786E+03  0.00000000000E+00 0.  1.
         21   -1    0    0  501  502 -0.00000000000E+00 -0.00000000000E+00 -0.38773181104E+03  0.38773181104E+03  0.00000000000E+00 0.  1.
         21    1    1    2  503  502 -0.13780712087E+02 -0.33175023461E+02 -0.38590433176E+03  0.38757275895E+03  0.00000000000E+00 0.  1.
         21    1    1    2  504  503  0.13780712087E+02  0.33175023461E+02  0.32381665858E+03  0.32580318995E+03  0.00000000000E+00 0.  1.
</event>
<event>
 4    1  0.1679763E+006  0.2122361E+02  0.7546771E-02  0.1516096E+00
         21   -1    0    0  503  501  0.00000000000E+00  0.00000000000E+00  0.25132666618E+02  0.25132666618E+02  0.00000000000E+00 0. -1.
         21   -1    0    0  504  502 -0.00000000000E+00 -0.00000000000E+00 -0.68395103261E+02  0.68395103261E+02  0.00000000000E+00 0. -1.
         21    1    1    2  503  502 -0.16295788788E+02  0.13597382186E+02  0.18540989953E+02  0.28181728886E+02  0.00000000000E+00 0. -1.
         21    1    1    2  504  501  0.16295788788E+02 -0.13597382186E+02 -0.61803426596E+02  0.65346040993E+02  0.00000000000E+00 0. -1.
</event>
<event>
 4    1  0.1679763E+006  0.2772809E+02  0.7546771E-02  0.1440428E+00
         21   -1    0    0  503  501  0.00000000000E+00  0.00000000000E+00  0.82871513801E+01  0.82871513801E+01  0.00000000000E+00 0.  1.
         21   -1    0    0  504  502 -0.00000000000E+00 -0.00000000000E+00 -0.10571103554E+03  0.10571103554E+03  0.00000000000E+00 0.  1.
         21    1    1    2  503  502  0.19669071633E+02  0.19544172356E+02 -0.68650559989E+02  0.74038817108E+02  0.00000000000E+00 0.  1.
         21    1    1    2  504  501 -0.19669071633E+02 -0.19544172356E+02 -0.28773324173E+02  0.39959369814E+02  0.00000000000E+00 0.  1.
</event>
<event>
 4    1  0.1679763E+006  0.2080563E+02  0.7546771E-02  0.1522058E+00
         21   -1    0    0  503  501  0.00000000000E+00  0.00000000000E+00  0.16447743294E+02  0.16447743294E+02  0.00000000000E+00 0. -1.
         21   -1    0    0  504  502 -0.00000000000E+00 -0.00000000000E+00 -0.97975475522E+02  0.97975475522E+02  0.00000000000E+00 0. -1.
         21    1    1    2  503  502 -0.20754903660E+02  0.14519161806E+01 -0.89691677411E+02  0.92073183302E+02  0.00000000000E+00 0. -1.
         21    1    1    2  504  501  0.20754903660E+02 -0.14519161806E+01  0.81639451826E+01  0.22350035514E+02  0.00000000000E+00 0. -1.
</event>
<event>
 4    1  0.1679763E+006  0.3598825E+02  0.7546771E-02  0.1373746E+00
         21   -1    0    0  503  501  0.00000000000E+00  0.00000000000E+00  0.14510039673E+03  0.14510039673E+03  0.00000000000E+00 0.  1.
         21   -1    0    0  504  502 -0.00000000000E+00 -0.00000000000E+00 -0.19261185134E+02  0.19261185134E+02  0.00000000000E+00 0.  1.
         21    1    1    2  503  502 -0.35541084972E+02 -0.56555931868E+01  0.12311865560E+03  0.12827064283E+03  0.00000000000E+00 0.  1.
         21    1    1    2  504  501  0.35541084972E+02  0.56555931868E+01  0.27205559945E+01  0.36090939032E+02  0.00000000000E+00 0.  1.
</event>
<event>
 4    1  0.1679763E+006  0.2446147E+02  0.7546771E-02  0.1474919E+00
         21   -1    0    0  503  501  0.00000000000E+00  0.00000000000E+00  0.34306641731E+03  0.34306641731E+03  0.00000000000E+00 0.  1.
         21   -1    0    0  501  502 -0.00000000000E+00 -0.00000000000E+00 -0.34855246679E+01  0.34855246679E+01  0.00000000000E+00 0. -1.
         21    1    1    2  503  504  0.18315299694E+02 -0.16214602779E+02  0.29226583480E+03  0.29328771153E+03  0.00000000000E+00 0.  1.
         21    1    1    2  504  502 -0.18315299694E+02  0.16214602779E+02  0.47315057848E+02  0.53264230449E+02  0.00000000000E+00 0. -1.
</event>
<event>
 4    1  0.1679763E+006  0.3665728E+02  0.7546771E-02  0.1369272E+00
         21   -1    0    0  503  501  0.00000000000E+00  0.00000000000E+00  0.26800904028E+03  0.26800904028E+03  0.00000000000E+00 0.  1.
         21   -1    0    0  501  502 -0.00000000000E+00 -0.00000000000E+00 -0.71547467864E+01  0.71547467864E+01  0.00000000000E+00 0.  1.
         21    1    1    2  503  504 -0.99215324128E+01 -0.35289086560E+02  0.20568681070E+03  0.20892778784E+03  0.00000000000E+00 0.  1.
         21    1    1    2  504  502  0.99215324128E+01  0.35289086560E+02  0.55167482788E+02  0.66235999221E+02  0.00000000000E+00 0.  1.
</event>
<event>
 4    1  0.1679763E+006  0.2439347E+02  0.7546771E-02  0.1475704E+00
         21   -1    0    0  502  501  0.00000000000E+00  0.00000000000E+00  0.14148645203E+02  0.14148645203E+02  0.00000000000E+00 0. -1.
         21   -1    0    0  503  502 -0.00000000000E+00 -0.00000000000E+00 -0.17072582145E+03  0.17072582145E+03  0.00000000000E+00 0.  1.
         21    1    1    2  503  504 -0.82439075689E+01  0.22958205885E+02 -0.15853673078E+03  0.16040241967E+03  0.00000000000E+00 0.  1.
         21    1    1    2  504  501  0.82439075689E+01 -0.22958205885E+02  0.19595545351E+01  0.24472046981E+02  0.00000000000E+00 0. -1.
</event>
<event>
 4    1  0.1679763E+006  0.2246807E+02  0.7546771E-02  0.1499288E+00
         21   -1    0    0  504  501  0.00000000000E+00  0.00000000000E+00  0.94943898144E+01  0.94943898144E+01  0.00000000000E+00 0. -1.
         21   -1    0    0  501  502 -0.00000000000E+00 -0.00000000000E+00 -0.43966501981E+03  0.43966501981E+03  0.00000000000E+00 0. -1.
         21    1    1    2  503  502  0.21623811802E+02  0.61012256261E+01 -0.42564811620E+03  0.42624069845E+03  0.00000000000E+00 0. -1.
         21    1    1    2  504  503 -0.21623811802E+02 -0.61012256261E+01 -0.45225137992E+01  0.22918711177E+02  0.00000000000E+00 0. -1.
</event>
<event>
 4    1  0.1679763E+006  0.2104373E+02  0.7546771E-02  0.1518641E+00
         21   -1    0    0  504  501  0.00000000000E+00  0.00000000000E+00  0.43037686100E+03  0.43037686100E+03  0.00000000000E+00 0.  1.
         21   -1    0    0  501  502 -0.00000000000E+00 -0.00000000000E+00 -0.15044355057E+01  0.15044355057E+01  0.00000000000E+00 0.  1.
         21    1    1    2  503  502  0.12125266404E+02 -0.17199319874E+02  0.93037609858E+02  0.95387816505E+02  0.00000000000E+00 0.  1.
         21    1    1    2  504  503 -0.12125266404E+02  0.17199319874E+02  0.33583481564E+03  0.33649348000E+03  0.00000000000E+00 0.  1.
</event>
<event>
 4    1  0.1679763E+006  0.2893374E+02  0.7546771E-02  0.1429094E+00
         21   -1    0    0  503  501  0.00000000000E+00  0.00000000000E+00  0.80362328780E+02  0.80362328780E+02  0.00000000000E+00 0. -1.
         21   -1    0    0  504  502 -0.00000000000E+00 -0.00000000000E+00 -0.41256837382E+02  0.41256837382E+02  0.00000000000E+00 0. -1.
         21    1    1    2  503  502 -0.16002608744E+02 -0.24105560383E+02  0.72127556700E+02  0.77714515784E+02  0.00000000000E+00 0. -1.
         21    1    1    2  504  501  0.16002608744E+02  0.24105560383E+02 -0.33022065303E+02  0.43904650378E+02  0.00000000000E+00 0. -1.
</event>
<event>
 4    1  0.1679763E+006  0.2397953E+02  0.7546771E-02  0.1480551E+00
         21   -1    0    0  504  501  0.00000000000E+00  0.00000000000E+00  0.23476730972E+03  0.23476730972E+03  0.00000000000E+00 0. -1.
         21   -1    0    0  503  502 -0.00000000000E+00 -0.00000000000E+00 -0.67221647239E+01  0.67221647239E+01  0.00000000000E+00 0. -1.
         21    1    1    2  503  501  0.20813357669E+02  0.11908911981E+02  0.21028851617E+03  0.21165131248E+03  0.00000000000E+00 0. -1.
         21    1    1    2  504  502 -0.20813357669E+02 -0.11908911981E+02  0.17756628825E+02  0.29838161962E+02  0.00000000000E+00 0. -1.
</event>
<event>
 4    1  0.1679763E+006  0.2533103E+02  0.7546771E-02  0.1465134E+00
         21   -1    0    0  504  501  0.00000000000E+00  0.00000000000E+00  0.83920256536E+01  0.83920256536E+01  0.00000000000E+00 0.  1.
         21   -1    0    0  503  502 -0.00000000000E+00 -0.00000000000E+00 -0.78926279486E+02  0.78926279486E+02  0.00000000000E+00 0.  1.
         21    1    1    2  503  501 -0.25331023667E+02  0.16957838146E-01 -0.42983525135E+02  0.49892328875E+02  0.00000000000E+00 0.  1.
         21    1    1    2  504  502  0.25331023667E+02 -0.16957838146E-01 -0.27550728697E+02  0.37425976264E+02  0.00000000000E+00 0.  1.
</event>
<event>
 4    1  0.1679763E+006  0.3410675E+02  0.7546771E-02  0.1386954E+00
         21   -1    0    0  504  501  0.00000000000E+00  0.00000000000E+00  0.46075294828E+03  0.46075294828E+03  0.00000000000E+00 0. -1.
         21   -1    0    0  503  502 -0.00000000000E+00 -0.00000000000E+00 -0.16676233106E+02  0.16676233106E+02  0.00000000000E+00 0.  1.
         21    1    1    2  503  501  0.14947736009E+02 -0.30656732959E+02  0.44194153009E+03  0.44325566675E+03  0.00000000000E+00 0. -1.
         21    1    1    2  504  502 -0.14947736009E+02  0.30656732959E+02  0.21351850884E+01  0.34173514640E+02  0.00000000000E+00 0.  1.
</event>
<event>
 4    1  0.1679763E+006  0.2524559E+02  0.7546771E-02  0.1466075E+00
         21   -1    0    0  504  501  0.00000000000E+00  0.00000000000E+00  0.72574271775E+02  0.72574271775E+02  0.00000000000E+00 0. -1.
         21   -1    0    0  503  502 -0.00000000000E+00 -0.00000000000E+00 -0.57442255105E+03  0.57442255105E+03  0.00000000000E+00 0.  1.
         21    1    1    2  503  501  0.70775730133E+01  0.24233200746E+02  0.70091889280E+02  0.74499751685E+02  0.00000000000E+00 0. -1.
         21    1    1    2  504  502 -0.70775730133E+01 -0.24233200746E+02 -0.57194016856E+03  0.57249707114E+03  0.00000000000E+00 0.  1.
</event>
<event>
 4    1  0.1679763E+006  0.2454584E+02  0.7546771E-02  0.1473949E+00
         21   -1    0    0  503  501  0.00000000000E+00  0.00000000000E+00  0.27903291322E+03  0.27903291322E+03  0.00000000000E+00 0. -1.
         21   -1    0    0  504  502 -0.00000000000E+00 -0.00000000000E+00 -0.38736108234E+02  0.38736108234E+02  0.00000000000E+00 0. -1.
         21    1    1    2  503  502 -0.32485972326E+01 -0.24329914798E+02 -0.34244327300E+02  0.42132791152E+02  0.00000000000E+00 0. -1.
         21    1    1    2  504  501  0.32485972326E+01  0.24329914798E+02  0.27454113229E+03  0.27563623031E+03  0.00000000000E+00 0. -1.
</event>
<event>
 4    1  0.1679763E+006  0.2111476E+02  0.7546771E-02  0.1517633E+00
         21   -1    0    0  504  501  0.00000000000E+00  0.00000000000E+00  0.16030365041E+02  0.16030365041E+02  0.00000000000E+00 0.  1.
         21   -1    0    0  503  502 -0.00000000000E+00 -0.00000000000E+00 -0.35328604613E+02  0.35328604613E+02  0.00000000000E+00 0.  1.
         21    1    1    2  503  501 -0.17506707124E+02  0.11804580978E+02 -0.21494264758E+02  0.30130322665E+02  0.00000000000E+00 0.  1.
         21    1    1    2  504  502  0.17506707124E+02 -0.11804580978E+02  0.21960251860E+01  0.21228646990E+02  0.00000000000E+00 0.  1.
</event>
<event>
 4    1  0.1679763E+006  0.3090786E+02  0.7546771E-02  0.1411868E+00
         21   -1    0    0  504  501  0.00000000000E+00  0.00000000000E+00  0.57731052713E+02  0.57731052713E+02  0.00000000000E+00 0.  1.
         21   -1    0    0  503  502 -0.00000000000E+00 -0.00000000000E+00 -0.21313753908E+02  0.21313753908E+02  0.00000000000E+00 0. -1.
         21    1    1    2  503  501 -0.23576334113E+00  0.30906955976E+02 -0.48134309218E+00  0.30911603052E+02  0.00000000000E+00 0. -1.
         21    1    1    2  504  502  0.23576334113E+00 -0.30906955976E+02  0.36898641897E+02  0.48133203570E+02  0.00000000000E+00 0.  1.
</event>
<event>
 4    1  0.1679763E+006  0.2338424E+02  0.7546771E-02  0.1487729E+00
         21   -1    0    0  504  501  0.00000000000E+00  0.00000000000E+00  0.31009060846E+02  0.31009060846E+02  0.00000000000E+00 0. -1.
         21   -1    0    0  503  502 -0.00000000000E+00 -0.00000000000E+00 -0.56199348203E+03  0.56199348203E+03  0.00000000000E+00 0. -1.
         21    1    1    2  503  501 -0.15122742031E+02  0.17836074819E+02  0.26320160576E+02  0.35207580778E+02  0.00000000000E+00 0. -1.
         21    1    1    2  504  502  0.15122742031E+02 -0.17836074819E+02 -0.55730458176E+03  0.55779496210E+03  0.00000000000E+00 0. -1.
</event>
<event>
 4    1  0.1679763E+006  0.2208061E+02  0.7546771E-02  0.1504377E+00
         21   -1    0    0  503  501  0.00000000000E+00  0.00000000000E+00  0.14221382878E+02  0.14221382878E+02  0.00000000000E+00 0. -1.
         21   -1    0    0  501  502 -0.00000000000E+00 -0.00000000000E+00 -0.88599342132E+02  0.88599342132E+02  0.00000000000E+00 0. -1.
         21    1    1    2  503  504  0.21334836713E+02  0.56901870108E+01  0.30641975209E+01  0.22292213714E+02  0.00000000000E+00 0. -1.
         21    1    1    2  504  502 -0.21334836713E+02 -0.56901870108E+01 -0.77442156775E+02  0.80528511297E+02  0.00000000000E+00 0. -1.
</event>
<event>
 4    1  0.1679763E+006  0.2086408E+02  0.7546771E-02  0.1521214E+00
         21   -1    0    0  503  501  0.00000000000E+00  0.00000000000E+00  0.18237803063E+02  0.18237803063E+02  0.00000000000E+00 0.  1.
         21   -1    0    0  504  502 -0.00000000000E+00 -0.00000000000E+00 -0.28107218919E+02  0.28107218919E+02  0.00000000000E+00 0. -1.
         21    1    1    2  503  502  0.20489075750E+02  0.39379579836E+01 -0.13933400211E+02  0.25088829778E+02  0.00000000000E+00 0. -1.
         21    1    1    2  504  501 -0.20489075750E+02 -0.39379579836E+01  0.40639843553E+01  0.21256192204E+02  0.00000000000E+00 0.  1.
</event>
<event>
 4    1  0.1679763E+006  0.2112751E+02  0.7546771E-02  0.1517452E+00
         21   -1    0    0  504  501  0.00000000000E+00  0.00000000000E+00  0.57723764028E+02  0.57723764028E+02  0.00000000000E+00 0.  1.
         21   -1    0    0  501  502 -0.00000000000E+00 -0.00000000000E+00 -0.46864098369E+02  0.46864098369E+02  0.00000000000E+00 0.  1.
         21    1    1    2  503  502 -0.10387664817E+02 -0.18397507176E+02 -0.42355295397E+02  0.47332260656E+02  0.00000000000E+00 0.  1.
         21    1    1    2  504  503  0.10387664817E+02  0.18397507176E+02  0.53214961055E+02  0.57255601741E+02  0.00000000000E+00 0.  1.
</event>
<event>
 4    1  0.1679763E+006  0.2130003E+02  0.7546771E-02  0.1515024E+00
         21   -1    0    0  504  501  0.00000000000E+00  0.00000000000E+00  0.10271232220E+03  0.10271232220E+03  0.00000000000E+00 0. -1.
         21   -1    0    0  503  502 -0.00000000000E+00 -0.00000000000E+00 -0.95992770762E+01  0.95992770762E+01  0.00000000000E+00 0. -1.
         21    1    1    2  503  501  0.19534634987E+02 -0.84905390023E+01  0.52963324895E+01  0.21948629900E+02  0.00000000000E+00 0. -1.
         21    1    1    2  504  502 -0.19534634987E+02  0.84905390023E+01  0.87816712636E+02  0.90362969378E+02  0.00000000000E+00 0. -1.
</event>
<event>
 4    1  0.1679763E+006  0.2068724E+02  0.7546771E-02  0.1523777E+00
         21   -1    0    0  504  501  0.00000000000E+00  0.00000000000E+00  0.33958101572E+01  0.33958101572E+01  0.00000000000E+00 0. -1.
         21   -1    0    0  503  502 -0.00000000000E+00 -0.00000000000E+00 -0.19913340402E+03  0.19913340402E+03  0.00000000000E+00 0. -1.
         21    1    1    2  503  501  0.59198716172E+01  0.19822136644E+02 -0.15922590700E+03  0.16056416612E+03  0.00000000000E+00 0. -1.
         21    1    1    2  504  502 -0.59198716172E+01 -0.19822136644E+02 -0.36511686864E+02  0.41965048061E+02  0.00000000000E+00 0. -1.
</event>
<event>
 4    1  0.1679763E+006  0.2589709E+02  0.7546771E-02  0.1459013E+00
         21   -1    0    0  503  501  0.00000000000E+00  0.00000000000E+00  0.11514368740E+02  0.11514368740E+02  0.00000000000E+00 0.  1.
         21   -1    0    0  504  502 -0.00000000000E+00 -0.00000000000E+00 -0.11719609634E+03  0.11719609634E+03  0.00000000000E+00 0.  1.
         21    1    1    2  503  502 -0.16266111187E+02 -0.20151250581E+02 -0.71981270036E+01  0.26878844943E+02  0.00000000000E+00 0.  1.
         21    1    1    2  504  501  0.16266111187E+02  0.20151250581E+02 -0.98483600596E+02  0.10183162014E+03  0.00000000000E+00 0.  1.
</event>
<event>
 4    1  0.1679763E+006  0.2049355E+02  0.7546771E-02  0.1526620E+00
         21   -1    0    0  503  501  0.00000000000E+00  0.00000000000E+00  0.79068280263E+02  0.79068280263E+02  0.00000000000E+00 0.  1.
         21   -1    0    0  501  502 -0.00000000000E+00 -0.00000000000E+00 -0.63859632803E+01  0.63859632803E+01  0.00000000000E+00 0.  1.
         21    1    1    2  503  504 -0.19856940619E+02  0.50682714629E+01  0.53865821521E+02  0.57632561929E+02  0.00000000000E+00 0.  1.
         21    1    1    2  504  502  0.19856940619E+02 -0.50682714629E+01  0.18816495462E+02  0.27821681614E+02  0.00000000000E+00 0.  1.
</event>
<event>
 4    1  0.1679763E+006  0.2013329E+02  0.7546771E-02  0.1532008E+00
         21   -1    0    0  503  501  0.00000000000E+00  0.00000000000E+00  0.35539980858E+02  0.35539980858E+02  0.00000000000E+00 0.  1.
         21   -1    0    0  504  502 -0.00000000000E+00 -0.00000000000E+00 -0.46535721484E+02  0.46535721484E+02  0.00000000000E+00 0.  1.
         21    1    1    2  503  502 -0.14040539693E+02  0.14429575472E+02  0.30158091157E+02  0.36260996475E+02  0.00000000000E+00 0.  1.
         21    1    1    2  504  501  0.14040539693E+02 -0.14429575472E+02 -0.41153831783E+02  0.45814705866E+02  0.00000000000E+00 0.  1.
</event>
<event>
 4    1  0.1679763E+006  0.2157832E+02  0.7546771E-02  0.1511166E+00
         21   -1    0    0  503  501  0.00000000000E+00  0.00000000000E+00  0.17999099630E+03  0.17999099630E+03  0.00000000000E+00 0.  1.
         21   -1    0    0  501  502 -0.00000000000E+00 -0.00000000000E+00 -0.72691701246E+01  0.72691701246E+01  0.00000000000E+00 0. -1.
         21    1    1    2  503  504 -0.19821994667E+02 -0.85271693410E+01  0.16150586983E+03  0.16294100184E+03  0.00000000000E+00 0.  1.
         21    1    1    2  504  502  0.19821994667E+02  0.85271693410E+01  0.11215956345E+02  0.24319164589E+02  0.00000000000E+00 0. -1.
</event>
<event>
 4    1  0.1679763E+006  0.2120085E+02  0.7546771E-02  0.1516416E+00
         21   -1    0    0  502  501  0.00000000000E+00  0.00000000000E+00  0.72688735596E+03  0.72688735596E+03  0.00000000000E+00 0.  1.
         21   -1    0    0  504  502 -0.00000000000E+00 -0.00000000000E+00 -0.16577639787E+02  0.16577639787E+02  0.00000000000E+00 0.  1.
         21    1    1    2  503  501 -0.20828940954E+02  0.39536288047E+01  0.71988853453E+03  0.72020065128E+03  0.00000000000E+00 0.  1.
         21    1    1    2  504  503  0.20828940954E+02 -0.39536288047E+01 -0.95788183600E+01  0.23264344460E+02  0.00000000000E+00 0.  1.
</event>
<event>
 4    1  0.1679763E+006  0.3278875E+02  0.7546771E-02  0.1396813E+00
         21   -1    0    0  503  501  0.00000000000E+00  0.00000000000E+00  0.57324984031E+02  0.57324984031E+02  0.00000000000E+00 0.  1.
         21   -1    0    0  504  502 -0.00000000000E+00 -0.00000000000E+00 -0.41276990509E+02  0.41276990509E+02  0.00000000000E+00 0.  1.
         21    1    1    2  503  502  0.31332662673E+02  0.96626310239E+01  0.44441459066E+02  0.55228122115E+02  0.00000000000E+00 0.  1.
         21    1    1    2  504  501 -0.31332662673E+02 -0.96626310239E+01 -0.28393465544E+02  0.43373852424E+02  0.00000000000E+00 0.  1.
</event>
<event>
 4    1  0.1679763E+006  0.2333846E+02  0.7546771E-02  0.1488291E+00
         21   -1    0    0  504  501  0.00000000000E+00  0.00000000000E+00  0.66839611411E+02  0.66839611411E+02  0.00000000000E+00 0. -1.
         21   -1    0    0  503  502 -0.00000000000E+00 -0.00000000000E+00 -0.17428411341E+02  0.17428411341E+02  0.00000000000E+00 0. -1.
         21    1    1    2  503  501  0.18404791813E+02  0.14350866871E+02 -0.60384733468E+01  0.24106988654E+02  0.00000000000E+00 0. -1.
         21    1    1    2  504  502 -0.18404791813E+02 -0.14350866871E+02  0.55449673417E+02  0.60161034097E+02  0.00000000000E+00 0. -1.
</event>
<event>
 4    1  0.1679763E+006  0.2988417E+02  0.7546771E-02  0.1420606E+00
         21   -1    0    0  503  501  0.00000000000E+00  0.00000000000E+00  0.11595911335E+02  0.11595911335E+02  0.00000000000E+00 0.  1.
         21   -1    0    0  504  502 -0.00000000000E+00 -0.00000000000E+00 -0.78270447713E+02  0.78270447713E+02  0.00000000000E+00 0.  1.
         21    1    1    2  503  502 -0.29416573495E+02  0.52658024612E+01 -0.27647396028E+02  0.40711693392E+02  0.00000000000E+00 0.  1.
         21    1    1    2  504  501  0.29416573495E+02 -0.52658024612E+01 -0.39027140350E+02  0.49154665655E+02  0.00000000000E+00 0.  1.
</event>
<event>
 4    1  0.1679763E+006  0.2066387E+02  0.7546771E-02  0.1524118E+00
         21   -1    0    0  503  501  0.00000000000E+00  0.00000000000E+00  0.11134145462E+03  0.11134145462E+03  0.00000000000E+00 0.  1.
         21   -1    0    0  504  502 -0.00000000000E+00 -0.00000000000E+00 -0.41866539058E+02  0.41866539058E+02  0.00000000000E+00 0.  1.
         21    1    1    2  503  502 -0.62616246882E+01  0.19692323377E+02  0.10774870964E+03  0.10971225990E+03  0.00000000000E+00 0.  1.
         21    1    1    2  504  501  0.62616246882E+01 -0.19692323377E+02 -0.38273794077E+02  0.43495733776E+02  0.00000000000E+00 0.  1.
</event>
<event>
 4    1  0.1679763E+006  0.2317219E+02  0.7546771E-02  0.1490347E+00
         21   -1    0    0  503  501  0.00000000000E+00  0.00000000000E+00  0.22788510902E+02  0.22788510902E+02  0.00000000000E+00 0.  1.
         21   -1    0    0  504  502 -0.00000000000E+00 -0.00000000000E+00 -0.26201566840E+02  0.26201566840E+02  0.00000000000E+00 0.  1.
         21    1    1    2  503  502 -0.14473244568E+02  0.18096282873E+02  0.60676455978E+01  0.23953425335E+02  0.00000000000E+00 0.  1.
         21    1    1    2  504  501  0.14473244568E+02 -0.18096282873E+02 -0.94807015364E+01  0.25036652408E+02  0.00000000000E+00 0.  1.
</event>
<event>
 4    1  0.1679763E+006  0.2963890E+02  0.7546771E-02  0.1422761E+00
         21   -1    0    0  504  501  0.00000000000E+00  0.00000000000E+00  0.12748888976E+03  0.12748888976E+03  0.00000000000E+00 0. -1.
         21   -1    0    0  503  502 -0.00000000000E+00 -0.00000000000E+00 -0.55262595640E+02  0.55262595640E+02  0.00000000000E+00 0. -1.
         21    1    1    2  503  501 -0.18142664143E+02  0.23437321000E+02 -0.49376329555E+02  0.57588941631E+02  0.00000000000E+00 0. -1.
         21    1    1    2  504  502  0.18142664143E+02 -0.23437321000E+02  0.12160262368E+03  0.12516254377E+03  0.00000000000E+00 0. -1.
</event>
<event>
 4    1  0.1679763E+006  0.2408330E+02  0.7546771E-02  0.1479325E+00
         21   -1    0    0  504  501  0.00000000000E+00  0.00000000000E+00  0.65765512556E+02  0.65765512556E+02  0.00000000000E+00 0. -1.
         21   -1    0    0  503  502 -0.00000000000E+00 -0.00000000000E+00 -0.51084880519E+02  0.51084880519E+02  0.00000000000E+00 0.  1.
         21    1    1    2  503  501  0.93737432142E+01  0.22184193153E+02 -0.45802851148E+02  0.51748494287E+02  0.00000000000E+00 0.  1.
         21    1    1    2  504  502 -0.93737432142E+01 -0.22184193153E+02  0.60483483185E+02  0.65101898788E+02  0.00000000000E+00 0. -1.
</event>
<event>
 4    1  0.1679763E+006  0.3838440E+02  0.7546771E-02  0.1358222E+00
         21   -1    0    0  503  501  0.00000000000E+00  0.00000000000E+00  0.67259633788E+01  0.67259633788E+01  0.00000000000E+00 0.  1.
         21   -1    0    0  504  502 -0.00000000000E+00 -0.00000000000E+00 -0.23532579322E+03  0.23532579322E+03  0.00000000000E+00 0.  1.
         21    1    1    2  503  502  0.37942260375E+02  0.58091922593E+01 -0.14612254536E+03  0.15107997915E+03  0.00000000000E+00 0.  1.
         21    1    1    2  504  501 -0.37942260375E+02 -0.58091922593E+01 -0.82477284482E+02  0.90971777451E+02  0.00000000000E+00 0.  1.
</event>
<event>
 4    1  0.1679763E+006  0.2556599E+02  0.7546771E-02  0.1462570E+00
         21   -1    0    0  504  501  0.00000000000E+00  0.00000000000E+00  0.10571544656E+03  0.10571544656E+03  0.00000000000E+00 0.  1.
         21   -1    0    0  501  502 -0.00000000000E+00 -0.00000000000E+00 -0.10047999917E+03  0.10047999917E+03  0.00000000000E+00 0.  1.
         21    1    1    2  503  502  0.92583349161E+01  0.23830717228E+02 -0.97257693488E+02  0.10056181577E+03  0.00000000000E+00 0.  1.
         21    1    1    2  504  503 -0.92583349161E+01 -0.23830717228E+02  0.10249314089E+03  0.10563362996E+03  0.00000000000E+00 0.  1.
</event>
<event>
 4    1  0.1679763E+006  0.5853412E+02  0.7546771E-02  0.1264896E+00
         21   -1    0    0  504  501  0.00000000000E+00  0.00000000000E+00  0.40481049872E+02  0.40481049872E+02  0.00000000000E+00 0. -1.
         21   -1    0    0  503  502 -0.00000000000E+00 -0.00000000000E+00 -0.15050815701E+03  0.15050815701E+03  0.00000000000E+00 0.  1.
         21    1    1    2  503  501  0.78974180062E+00  0.58528793865E+02  0.81610439486E+01  0.59100304921E+02  0.00000000000E+00 0. -1.
         21    1    1    2  504  502 -0.78974180062E+00 -0.58528793865E+02 -0.11818815109E+03  0.13188890197E+03  0.00000000000E+00 0.  1.
</event>
<event>
 4    1  0.1679763E+006  0.3619480E+02  0.7546771E-02  0.1372352E+00
         21   -1    0    0  504  501  0.00000000000E+00  0.00000000000E+00  0.36296490409E+02  0.36296490409E+02  0.00000000000E+00 0. -1.
         21   -1    0    0  503  502 -0.00000000000E+00 -0.00000000000E+00 -0.76462473151E+02  0.76462473151E+02  0.00000000000E+00 0. -1.
         21    1    1    2  503  501  0.33542582747E+02 -0.13599958629E+02  0.20882795440E+02  0.41787018049E+02  0.00000000000E+00 0. -1.
         21    1    1    2  504  502 -0.33542582747E+02  0.13599958629E+02 -0.61048778182E+02  0.70971945511E+02  0.00000000000E+00 0. -1.
</event>
<event>
 4    1  0.1679763E+006  0.4413500E+02  0.7546771E-02  0.1325822E+00
         21   -1    0    0  502  501  0.00000000000E+00  0.00000000000E+00  0.90236361610E+03  0.90236361610E+03  0.00000000000E+00 0.  1.
         21   -1    0    0  504  502 -0.00000000000E+00 -0.00000000000E+00 -0.10135756427E+02  0.10135756427E+02  0.00000000000E+00 0.  1.
         21    1    1    2  503  501 -0.43574117698E+02  0.70138980566E+01  0.85087324178E+03  0.85201711959E+03  0.00000000000E+00 0.  1.
         21    1    1    2  504  503  0.43574117698E+02 -0.70138980566E+01  0.41354617893E+02  0.60482252936E+02  0.00000000000E+00 0.  1.
</event>
<event>
 4    1  0.1679763E+006  0.2364777E+02  0.7546771E-02  0.1484520E+00
         21   -1    0    0  504  501  0.00000000000E+00  0.00000000000E+00  0.26660504971E+02  0.26660504971E+02  0.00000000000E+00 0.  1.
         21   -1    0    0  503  502 -0.00000000000E+00 -0.00000000000E+00 -0.55321635103E+02  0.55321635103E+02  0.00000000000E+00 0. -1.
         21    1    1    2  503  501 -0.20992209881E+02  0.10887793818E+02  0.17967819790E+02  0.29699486156E+02  0.00000000000E+00 0.  1.
         21    1    1    2  504  502  0.20992209881E+02 -0.10887793818E+02 -0.46628949922E+02  0.52282653918E+02  0.00000000000E+00 0. -1.
</event>
<event>
 4    1  0.1679763E+006  0.2397252E+02  0.7546771E-02  0.1480634E+00
         21   -1    0    0  503  501  0.00000000000E+00  0.00000000000E+00  0.11557520010E+03  0.11557520010E+03  0.00000000000E+00 0.  1.
         21   -1    0    0  504  502 -0.00000000000E+00 -0.00000000000E+00 -0.80699321303E+02  0.80699321303E+02  0.00000000000E+00 0. -1.
         21    1    1    2  503  502 -0.20206003531E+02  0.12899576747E+02  0.11250372719E+03  0.11502943228E+03  0.00000000000E+00 0.  1.
         21    1    1    2  504  501  0.20206003531E+02 -0.12899576747E+02 -0.77627848398E+02  0.81245089118E+02  0.00000000000E+00 0. -1.
</event>
<event>
 4    1  0.1679763E+006  0.2280900E+02  0.7546771E-02  0.1494911E+00
         21   -1    0    0  502  501  0.00000000000E+00  0.00000000000E+00  0.13387274476E+03  0.13387274476E+03  0.00000000000E+00 0. -1.
         21   -1    0    0  503  502 -0.00000000000E+00 -0.00000000000E+00 -0.31590705080E+02  0.31590705080E+02  0.00000000000E+00 0.  1.
         21    1    1    2  503  504 -0.21128319245E+02 -0.85932805787E+01 -0.26335118179E+02  0.34839471792E+02  0.00000000000E+00 0.  1.
         21    1    1    2  504  501  0.21128319245E+02  0.85932805787E+01  0.12861715786E+03  0.13062397805E+03  0.00000000000E+00 0. -1.
</event>
<event>
 4    1  0.1679763E+006  0.3947818E+02  0.7546771E-02  0.1351571E+00
         21   -1    0    0  504  501  0.00000000000E+00  0.00000000000E+00  0.12063041247E+03  0.12063041247E+03  0.00000000000E+00 0.  1.
         21   -1    0    0  503  502 -0.00000000000E+00 -0.00000000000E+00 -0.13640904632E+02  0.13640904632E+02  0.00000000000E+00 0.  1.
         21    1    1    2  503  501  0.17985924823E+02  0.35143036133E+02  0.68930109431E+02  0.79434793803E+02  0.00000000000E+00 0.  1.
         21    1    1    2  504  502 -0.17985924823E+02 -0.35143036133E+02  0.38059398408E+02  0.54836523300E+02  0.00000000000E+00 0.  1.
</event>
<event>
 4    1  0.1679763E+006  0.2266341E+02  0.7546771E-02  0.1496769E+00
         21   -1    0    0  503  501  0.00000000000E+00  0.00000000000E+00  0.29834378654E+02  0.29834378654E+02  0.00000000000E+00 0.  1.
         21   -1    0    0  504  502 -0.00000000000E+00 -0.00000000000E+00 -0.19170576739E+02  0.19170576739E+02  0.00000000000E+00 0.  1.
         21    1    1    2  503  502 -0.17650247392E+02  0.14216150537E+02  0.13155618581E+02  0.26204970318E+02  0.00000000000E+00 0.  1.
         21    1    1    2  504  501  0.17650247392E+02 -0.14216150537E+02 -0.24918166666E+01  0.22799985075E+02  0.00000000000E+00 0.  1.
</event>
<event>
 4    1  0.1679763E+006  0.2149289E+02  0.7546771E-02  0.1512343E+00
         21   -1    0    0  503  501  0.00000000000E+00  0.00000000000E+00  0.10190313743E+03  0.10190313743E+03  0.00000000000E+00 0. -1.
         21   -1    0    0  501  502 -0.00000000000E+00 -0.00000000000E+00 -0.60786421210E+01  0.60786421210E+01  0.00000000000E+00 0. -1.
         21    1    1    2  503  504  0.13414708380E+01 -0.21450989896E+02  0.75135964434E+02  0.78149585175E+02  0.00000000000E+00 0. -1.
         21    1    1    2  504  502 -0.13414708380E+01  0.21450989896E+02  0.20688530874E+02  0.29832194376E+02  0.00000000000E+00 0. -1.
</event>
<event>
 4    1  0.1679763E+006  0.2978566E+02  0.7546771E-02  0.1421468E+00
         21   -1    0    0  502  501  0.00000000000E+00  0.00000000000E+00  0.65056697586E+01  0.65056697586E+01  0.00000000000E+00 0. -1.
         21   -1    0    0  504  502 -0.00000000000E+00 -0.00000000000E+00 -0.38247762920E+03  0.38247762920E+03  0.00000000000E+00 0.  1.
         21    1    1    2  503  501 -0.28562638204E+02 -0.84475686063E+01 -0.31973457819E+02  0.43697685539E+02  0.00000000000E+00 0. -1.
         21    1    1    2  504  503  0.28562638204E+02  0.84475686063E+01 -0.34399850162E+03  0.34528561342E+03  0.00000000000E+00 0.  1.
</event>
<event>
 4    1  0.1679763E+006  0.4082425E+02  0.7546771E-02  0.1343722E+00
         21   -1    0    0  502  501  0.00000000000E+00  0.00000000000E+00  0.89720016876E+02  0.89720016876E+02  0.00000000000E+00 0.  1.
         21   -1    0    0  504  502 -0.00000000000E+00 -0.00000000000E+00 -0.23444923220E+02  0.23444923220E+02  0.00000000000E+00 0.  1.
         21    1    1    2  503  501  0.23339737178E+02 -0.33494413820E+02  0.58923540510E+02  0.71684047841E+02  0.00000000000E+00 0.  1.
         21    1    1    2  504  503 -0.23339737178E+02  0.33494413820E+02  0.73515531460E+01  0.41480892256E+02  0.00000000000E+00 0.  1.
</event>
<event>
 4    1  0.1679763E+006  0.4430102E+02  0.7546771E-02  0.1324972E+00
         21   -1    0    0  504  501  0.00000000000E+00  0.00000000000E+00  0.23349213546E+03  0.23349213546E+03  0.00000000000E+00 0.  1.
         21   -1    0    0  503  502 -0.00000000000E+00 -0.00000000000E+00 -0.19071746018E+02  0.19071746018E+02  0.00000000000E+00 0. -1.
         21    1    1    2  503  501 -0.44300329821E+02 -0.24641276765E+00  0.12770374957E+02  0.46104906659E+02  0.00000000000E+00 0.  1.
         21    1    1    2  504  502  0.44300329821E+02  0.24641276765E+00  0.20165001449E+03  0.20645897482E+03  0.00000000000E+00 0. -1.
</event>
<event>
 4    1  0.1679763E+006  0.2154760E+02  0.7546771E-02  0.1511588E+00
         21   -1    0    0  503  501  0.00000000000E+00  0.00000000000E+00  0.73049525848E+01  0.73049525848E+01  0.00000000000E+00 0.  1.
         21   -1    0    0  504  502 -0.00000000000E+00 -0.00000000000E+00 -0.74283312011E+03  0.74283312011E+03  0.00000000000E+00 0.  1.
         21    1    1    2  503  502 -0.18866486855E+02  0.10409354812E+02 -0.72642822916E+03  0.72674773554E+03  0.00000000000E+00 0.  1.
         21    1    1    2  504  501  0.18866486855E+02 -0.10409354812E+02 -0.90999383640E+01  0.23390337152E+02  0.00000000000E+00 0.  1.
</event>
<event>
 4    1  0.1679763E+006  0.3182760E+02  0.7546771E-02  0.1404352E+00
         21   -1    0    0  504  501  0.00000000000E+00  0.00000000000E+00  0.76746430478E+01  0.76746430478E+01  0.00000000000E+00 0. -1.
         21   -1    0    0  503  502 -0.00000000000E+00 -0.00000000000E+00 -0.13363254658E+03  0.13363254658E+03  0.00000000000E+00 0. -1.
         21    1    1    2  503  501 -0.31812427185E+02 -0.98274746426E+00 -0.55152064255E+02  0.63676891472E+02  0.00000000000E+00 0. -1.
         21    1    1    2  504  502  0.31812427185E+02  0.98274746426E+00 -0.70805839273E+02  0.77630298152E+02  0.00000000000E+00 0. -1.
</event>
<event>
 4    1  0.1679763E+006  0.3899420E+02  0.7546771E-02  0.1354483E+00
         21   -1    0    0  503  501  0.00000000000E+00  0.00000000000E+00  0.51593631344E+02  0.51593631344E+02  0.00000000000E+00 0. -1.
         21   -1    0    0  504  502 -0.00000000000E+00 -0.00000000000E+00 -0.58764110912E+02  0.58764110912E+02  0.00000000000E+00 0.  1.
         21    1    1    2  503  502  0.26542300810E+02  0.28566656929E+02 -0.42543084134E+02  0.57710151863E+02  0.00000000000E+00 0.  1.
         21    1    1    2  504  501 -0.26542300810E+02 -0.28566656929E+02  0.35372604567E+02  0.52647590393E+02  0.00000000000E+00 0. -1.
</event>
<event>
 4    1  0.1679763E+006  0.2853441E+02  0.7546771E-02  0.1432775E+00
         21   -1    0    0  503  501  0.00000000000E+00  0.00000000000E+00  0.35412452717E+02  0.35412452717E+02  0.00000000000E+00 0.  1.
         21   -1    0    0  501  502 -0.00000000000E+00 -0.00000000000E+00 -0.40461231188E+02  0.40461231188E+02  0.00000000000E+00 0.  1.
         21    1    1    2  503  504 -0.21574589454E+02 -0.18674833669E+02  0.22402913711E+02  0.36278132055E+02  0.00000000000E+00 0.  1.
         21    1    1    2  504  502  0.21574589454E+02  0.18674833669E+02 -0.27451692182E+02  0.39595551850E+02  0.00000000000E+00 0.  1.
</event>
<event>
 4    1  0.1679763E+006  0.2228453E+02  0.7546771E-02  0.1501683E+00
         21   -1    0    0  504  501  0.00000000000E+00  0.00000000000E+00  0.22792163540E+01  0.22792163540E+01  0.00000000000E+00 0. -1.
         21   -1    0    0  501  502 -0.00000000000E+00 -0.00000000000E+00 -0.32119731030E+03  0.32119731030E+03  0.00000000000E+00 0. -1.
         21    1    1    2  503  502  0.12459152458E+02 -0.18476200387E+02 -0.25118852953E+03  0.25217509359E+03  0.00000000000E+00 0. -1.
         21    1    1    2  504  503 -0.12459152458E+02  0.18476200387E+02 -0.67729564418E+02  0.71301433063E+02  0.00000000000E+00 0. -1.
</event>
<event>
 4    1  0.1679763E+006  0.2253238E+02  0.7546771E-02  0.1498455E+00
         21   -1    0    0  504  501  0.00000000000E+00  0.00000000000E+00  0.61999190753E+03  0.61999190753E+03  0.00000000000E+00 0.  1.
         21   -1    0    0  503  502 -0.00000000000E+00 -0.00000000000E+00 -0.52544432295E+01  0.52544432295E+01  0.00000000000E+00 0.  1.
         21    1    1    2  503  501 -0.20826164805E+02 -0.86011099656E+01  0.20137623833E+02  0.30219730753E+02  0.00000000000E+00 0.  1.
         21    1    1    2  504  502  0.20826164805E+02  0.86011099656E+01  0.59459984046E+03  0.59502662000E+03  0.00000000000E+00 0.  1.
</event>
<event>
 4    1  0.1679763E+006  0.2608376E+02  0.7546771E-02  0.1457035E+00
         21   -1    0    0  502  501  0.00000000000E+00  0.00000000000E+00  0.69451125752E+02  0.69451125752E+02  0.00000000000E+00 0.  1.
         21   -1    0    0  503  502 -0.00000000000E+00 -0.00000000000E+00 -0.48180208900E+02  0.48180208900E+02  0.00000000000E+00 0. -1.
         21    1    1    2  503  504 -0.51947263571E+01 -0.25561252196E+02 -0.41861409439E+02  0.49322818208E+02  0.00000000000E+00 0. -1.
         21    1    1    2  504  501  0.51947263571E+01  0.25561252196E+02  0.63132326292E+02  0.68308516444E+02  0.00000000000E+00 0.  1.
</event>
<event>
 4    1  0.1679763E+006  0.2699421E+02  0.7546771E-02  0.1447666E+00
         21   -1    0    0  504  501  0.00000000000E+00  0.00000000000E+00  0.26402733259E+01  0.26402733259E+01  0.00000000000E+00 0. -1.
         21   -1    0    0  503  502 -0.00000000000E+00 -0.00000000000E+00 -0.33662432476E+03  0.33662432476E+03  0.00000000000E+00 0. -1.
         21    1    1    2  503  501 -0.62468925935E+01 -0.26261453051E+02 -0.94997903259E+02  0.98758742434E+02  0.00000000000E+00 0. -1.
         21    1    1    2  504  502  0.62468925935E+01  0.26261453051E+02 -0.23898614817E+03  0.24050585565E+03  0.00000000000E+00 0. -1.
</event>
<event>
 4    1  0.1679763E+006  0.2138937E+02  0.7546771E-02  0.1513778E+00
         21   -1    0    0  502  501  0.00000000000E+00  0.00000000000E+00  0.13185485979E+02  0.13185485979E+02  0.00000000000E+00 0.  1.
         21   -1    0    0  503  502 -0.00000000000E+00 -0.00000000000E+00 -0.90433082743E+02  0.90433082743E+02  0.00000000000E+00 0. -1.
         21    1    1    2  503  504  0.93979075914E+01 -0.19214173902E+02 -0.79297123933E+02  0.82131230417E+02  0.00000000000E+00 0. -1.
         21    1    1    2  504  501 -0.93979075914E+01  0.19214173902E+02  0.20495271689E+01  0.21487338305E+02  0.00000000000E+00 0.  1.
</event>
<event>
 4    1  0.1679763E+006  0.2797423E+02  0.7546771E-02  0.1438060E+00
         21   -1    0    0  503  501  0.00000000000E+00  0.00000000000E+00  0.20266973680E+03  0.20266973680E+03  0.00000000000E+00 0.  1.
         21   -1    0    0  504  502 -0.00000000000E+00 -0.00000000000E+00 -0.44729183289E+01  0.44729183289E+01  0.00000000000E+00 0.  1.
         21    1    1    2  503  502 -0.13695019038E+02  0.24392703551E+02  0.13739885132E+03  0.14021769459E+03  0.00000000000E+00 0.  1.
         21    1    1    2  504  501  0.13695019038E+02 -0.24392703551E+02  0.60797967152E+02  0.66924960537E+02  0.00000000000E+00 0.  1.
</event>
<event>
 4    1  0.1679763E+006  0.3076777E+02  0.7546771E-02  0.1413039E+00
         21   -1    0    0  503  501  0.00000000000E+00  0.00000000000E+00  0.11188811287E+02  0.11188811287E+02  0.00000000000E+00 0.  1.
         21   -1    0    0  504  502 -0.00000000000E+00 -0.00000000000E+00 -0.12110807345E+03  0.12110807345E+03  0.00000000000E+00 0.  1.
         21    1    1    2  503  502  0.22539729250E+02  0.20943171524E+02 -0.18644825136E+02  0.35976177291E+02  0.00000000000E+00 0.  1.
         21    1    1    2  504  501 -0.22539729250E+02 -0.20943171524E+02 -0.91274437032E+02  0.96320707450E+02  0.00000000000E+00 0.  1.
</event>
<event>
 4    1  0.1679763E+006  0.2034979E+02  0.7546771E-02  0.1528754E+00
         21   -1    0    0  504  501  0.00000000000E+00  0.00000000000E+00  0.77066747284E+02  0.77066747284E+02  0.00000000000E+00 0. -1.
         21   -1    0    0  503  502 -0.00000000000E+00 -0.00000000000E+00 -0.55140598176E+01  0.55140598176E+01  0.00000000000E+00 0. -1.
         21    1    1    2  503  501 -0.44251934364E+01  0.19862818121E+02  0.29182633154E+02  0.35577239331E+02  0.00000000000E+00 0. -1.
         21    1    1    2  504  502  0.44251934364E+01 -0.19862818121E+02  0.42370054312E+02  0.47003567770E+02  0.00000000000E+00 0. -1.
</event>
<event>
 4    1  0.1679763E+006  0.2347522E+02  0.7546771E-02  0.1486616E+00
         21   -1    0    0  503  501  0.00000000000E+00  0.00000000000E+00  0.11480350824E+02  0.11480350824E+02  0.00000000000E+00 0. -1.
         21   -1    0    0  504  502 -0.00000000000E+00 -0.00000000000E+00 -0.83437272957E+02  0.83437272957E+02  0.00000000000E+00 0. -1.
         21    1    1    2  503  502  0.21949548544E+02  0.83248489243E+01 -0.50504847213E+01  0.24012354879E+02  0.00000000000E+00 0. -1.
         21    1    1    2  504  501 -0.21949548544E+02 -0.83248489243E+01 -0.66906437412E+02  0.70905268902E+02  0.00000000000E+00 0. -1.
</event>
<event>
 4    1  0.1679763E+006  0.2762004E+02  0.7546771E-02  0.1441477E+00
         21   -1    0    0  502  501  0.00000000000E+00  0.00000000000E+00  0.94131954380E+01  0.94131954380E+01  0.00000000000E+00 0.  1.
         21   -1    0    0  504  502 -0.00000000000E+00 -0.00000000000E+00 -0.17947414979E+03  0.17947414979E+03  0.00000000000E+00 0. -1.
         21    1    1    2  503  501 -0.20943019480E+02 -0.18007118340E+02 -0.15088180922E+02  0.31472521020E+02  0.00000000000E+00 0.  1.
         21    1    1    2  504  503  0.20943019480E+02  0.18007118340E+02 -0.15497277343E+03  0.15741482421E+03  0.00000000000E+00 0. -1.
</event>
<event>
 4    1  0.1679763E+006  0.2144710E+02  0.7546771E-02  0.1512976E+00
         21   -1    0    0  502  501  0.00000000000E+00  0.00000000000E+00  0.99060824795E+02  0.99060824795E+02  0.00000000000E+00 0.  1.
         21   -1    0    0  503  502 -0.00000000000E+00 -0.00000000000E+00 -0.54849322636E+01  0.54849322636E+01  0.00000000000E+00 0.  1.
         21    1    1    2  503  504 -0.19687341384E+02  0.85080264539E+01  0.26312703671E+02  0.33946079293E+02  0.00000000000E+00 0.  1.
         21    1    1    2  504  501  0.19687341384E+02 -0.85080264539E+01  0.67263188860E+02  0.70599677765E+02  0.00000000000E+00 0.  1.
</event>
<event>
 4    1  0.1679763E+006  0.2229485E+02  0.7546771E-02  0.1501548E+00
         21   -1    0    0  503  501  0.00000000000E+00  0.00000000000E+00  0.31386687799E+03  0.31386687799E+03  0.00000000000E+00 0. -1.
         21   -1    0    0  504  502 -0.00000000000E+00 -0.00000000000E+00 -0.12633624624E+02  0.12633624624E+02  0.00000000000E+00 0. -1.
         21    1    1    2  503  502  0.17749656952E+02  0.13491101678E+02  0.30329242862E+03  0.30411076502E+03  0.00000000000E+00 0. -1.
         21    1    1    2  504  501 -0.17749656952E+02 -0.13491101678E+02 -0.20591752566E+01  0.22389737585E+02  0.00000000000E+00 0. -1.
</event>
<event>
 4    1  0.1679763E+006  0.2056041E+02  0.7546771E-02  0.1525635E+00
         21   -1    0    0  503  501  0.00000000000E+00  0.00000000000E+00  0.49151338663E+03  0.49151338663E+03  0.00000000000E+00 0.  1.
         21   -1    0    0  504  502 -0.00000000000E+00 -0.00000000000E+00 -0.86077216057E+00  0.86077216057E+00  0.00000000000E+00 0.  1.
         21    1    1    2  503  502 -0.38220577326E+01 -0.20202034927E+02  0.25241426125E+03  0.25325025098E+03  0.00000000000E+00 0.  1.
         21    1    1    2  504  501  0.38220577326E+01  0.20202034927E+02  0.23823835322E+03  0.23912390781E+03  0.00000000000E+00 0.  1.
</event>
<event>
 4    1  0.1679763E+006  0.2440304E+02  0.7546771E-02  0.1475594E+00
         21   -1    0    0  503  501  0.00000000000E+00  0.00000000000E+00  0.70466365360E+01  0.70466365360E+01  0.00000000000E+00 0. -1.
         21   -1    0    0  501  502 -0.00000000000E+00 -0.00000000000E+00 -0.43095656269E+03  0.43095656269E+03  0.00000000000E+00 0.  1.
         21    1    1    2  503  504 -0.24206296856E+02  0.30924748447E+01 -0.15596810703E+02  0.28961503971E+02  0.00000000000E+00 0. -1.
         21    1    1    2  504  502  0.24206296856E+02 -0.30924748447E+01 -0.40831311545E+03  0.40904169526E+03  0.00000000000E+00 0.  1.
</event>
<event>
 4    1  0.1679763E+006  0.2353499E+02  0.7546771E-02  0.1485887E+00
         21   -1    0    0  503  501  0.00000000000E+00  0.00000000000E+00  0.45520949113E+01  0.45520949113E+01  0.00000000000E+00 0.  1.
         21   -1    0    0  501  502 -0.00000000000E+00 -0.00000000000E+00 -0.37687294658E+03  0.37687294658E+03  0.00000000000E+00 0. -1.
         21    1    1    2  503  504 -0.18712481534E+02 -0.14273707106E+02 -0.29226564098E+02  0.37524495049E+02  0.00000000000E+00 0.  1.
         21    1    1    2  504  502  0.18712481534E+02  0.14273707106E+02 -0.34309428757E+03  0.34390054644E+03  0.00000000000E+00 0. -1.
</event>
<event>
 4    1  0.1679763E+006  0.2299181E+02  0.7546771E-02  0.1492601E+00
         21   -1    0    0  502  501  0.00000000000E+00  0.00000000000E+00  0.14746855114E+03  0.14746855114E+03  0.00000000000E+00 0. -1.
         21   -1    0    0  504  502 -0.00000000000E+00 -0.00000000000E+00 -0.14578186595E+03  0.14578186595E+03  0.00000000000E+00 0.  1.
         21    1    1    2  503  501 -0.12986351608E+02 -0.18973081100E+02  0.14565463759E+03  0.14745811808E+03  0.00000000000E+00 0. -1.
         21    1    1    2  504  503  0.12986351608E+02  0.18973081100E+02 -0.14396795240E+03  0.14579229901E+03  0.00000000000E+00 0.  1.
</event>
<event>
 4    1  0.1679763E+006  0.2232423E+02  0.7546771E-02  0.1501163E+00
         21   -1    0    0  503  501  0.00000000000E+00  0.00000000000E+00  0.16316837789E+03  0.16316837789E+03  0.00000000000E+00 0.  1.
         21   -1    0    0  504  502 -0.00000000000E+00 -0.00000000000E+00 -0.92469120013E+02  0.92469120013E+02  0.00000000000E+00 0. -1.
         21    1    1    2  503  502  0.17807902223E+02 -0.13462902930E+02  0.16103966904E+03  0.16257966091E+03  0.00000000000E+00 0.  1.
         21    1    1    2  504  501 -0.17807902223E+02  0.13462902930E+02 -0.90340411162E+02  0.93057836993E+02  0.00000000000E+00 0. -1.
</event>
<event>
 4    1  0.1679763E+006  0.2001251E+02  0.7546771E-02  0.1533844E+00
         21   -1    0    0  503  501  0.00000000000E+00  0.00000000000E+00  0.41076598403E+01  0.41076598403E+01  0.00000000000E+00 0. -1.
         21   -1    0    0  504  502 -0.00000000000E+00 -0.00000000000E+00 -0.98863609315E+02  0.98863609315E+02  0.00000000000E+00 0. -1.
         21    1    1    2  503  502  0.13546634959E+02  0.14730554765E+02 -0.41333365281E+02  0.45923280021E+02  0.00000000000E+00 0. -1.
         21    1    1    2  504  501 -0.13546634959E+02 -0.14730554765E+02 -0.53422584193E+02  0.57047989135E+02  0.00000000000E+00 0. -1.
</event>
<event>
 4    1  0.1679763E+006  0.2764473E+02  0.7546771E-02  0.1441237E+00
         21   -1    0    0  502  501  0.00000000000E+00  0.00000000000E+00  0.26226514807E+03  0.26226514807E+03  0.00000000000E+00 0.  1.
         21   -1    0    0  504  502 -0.00000000000E+00 -0.00000000000E+00 -0.22885076768E+02  0.22885076768E+02  0.00000000000E+00 0.  1.
         21    1    1    2  503  501  0.26293682703E+02 -0.85365796038E+01  0.25287913390E+03  0.25438570578E+03  0.00000000000E+00 0.  1.
         21    1    1    2  504  503 -0.26293682703E+02  0.85365796038E+01 -0.13499062606E+02  0.30764519054E+02  0.00000000000E+00 0.  1.
</event>
<event>
 4    1  0.1679763E+006  0.2755629E+02  0.7546771E-02  0.1442099E+00
         21   -1    0    0  502  501  0.00000000000E+00  0.00000000000E+00  0.51788869145E+01  0.51788869145E+01  0.00000000000E+00 0.  1.
         21   -1    0    0  503  502 -0.00000000000E+00 -0.00000000000E+00 -0.73952482276E+03  0.73952482276E+03  0.00000000000E+00 0. -1.
         21    1    1    2  503  504  0.26105911315E+02  0.88221680878E+01 -0.70057493676E+03  0.70111667451E+03  0.00000000000E+00 0. -1.
         21    1    1    2  504  501 -0.26105911315E+02 -0.88221680878E+01 -0.33770999078E+02  0.43587035161E+02  0.00000000000E+00 0.  1.
</event>
<event>
 4    1  0.1679763E+006  0.2370838E+02  0.7546771E-02  0.1483790E+00
         21   -1    0    0  503  501  0.00000000000E+00  0.00000000000E+00  0.19352185558E+03  0.19352185558E+03  0.00000000000E+00 0.  1.
         21   -1    0    0  504  502 -0.00000000000E+00 -0.00000000000E+00 -0.68084423731E+03  0.68084423731E+03  0.00000000000E+00 0.  1.
         21    1    1    2  503  502 -0.22333791111E+02 -0.79554340724E+01  0.19258833668E+03  0.19404214640E+03  0.00000000000E+00 0.  1.
         21    1    1    2  504  501  0.22333791111E+02  0.79554340724E+01 -0.67991071841E+03  0.68032394649E+03  0.00000000000E+00 0.  1.
</event>
<event>
 4    1  0.1679763E+006  0.2098885E+02  0.7546771E-02  0.1519424E+00
         21   -1    0    0  502  501  0.00000000000E+00  0.00000000000E+00  0.17923774654E+02  0.17923774654E+02  0.00000000000E+00 0. -1.
         21   -1    0    0  504  502 -0.00000000000E+00 -0.00000000000E+00 -0.45821807955E+03  0.45821807955E+03  0.00000000000E+00 0. -1.
         21    1    1    2  503  501  0.11274544790E+02 -0.17703573107E+02  0.11450910880E+02  0.23909312432E+02  0.00000000000E+00 0. -1.
         21    1    1    2  504  503 -0.11274544790E+02  0.17703573107E+02 -0.45174521578E+03  0.45223254177E+03  0.00000000000E+00 0. -1.
</event>
<event>
 4    1  0.1679763E+006  0.2476764E+02  0.7546771E-02  0.1471420E+00
         21   -1    0    0  504  501  0.00000000000E+00  0.00000000000E+00  0.68750737187E+02  0.68750737187E+02  0.00000000000E+00 0. -1.
         21   -1    0    0  503  502 -0.00000000000E+00 -0.00000000000E+00 -0.17578525956E+02  0.17578525956E+02  0.00000000000E+00 0. -1.
         21    1    1    2  503  501  0.28104427883E+01  0.24607671341E+02 -0.47034780442E+01  0.25210291216E+02  0.00000000000E+00 0. -1.
         21    1    1    2  504  502 -0.28104427883E+01 -0.24607671341E+02  0.55875689275E+02  0.61118971927E+02  0.00000000000E+00 0. -1.
</event>
<event>
 4    1  0.1679763E+006  0.2134786E+02  0.7546771E-02  0.1514356E+00
         21   -1    0    0  502  501  0.00000000000E+00  0.00000000000E+00  0.49257994817E+02  0.49257994817E+02  0.00000000000E+00 0.  1.
         21   -1    0    0  504  502 -0.00000000000E+00 -0.00000000000E+00 -0.14574001271E+02  0.14574001271E+02  0.00000000000E+00 0. -1.
         21    1    1    2  503  501 -0.21108003985E+02  0.31911372881E+01  0.36628773155E+02  0.42395733420E+02  0.00000000000E+00 0.  1.
         21    1    1    2  504  503  0.21108003985E+02 -0.31911372881E+01 -0.19447796088E+01  0.21436262668E+02  0.00000000000E+00 0. -1.
</event>
<event>
 4    1  0.1679763E+006  0.2074514E+02  0.7546771E-02  0.1522935E+00
         21   -1    0    0  503  501  0.00000000000E+00  0.00000000000E+00  0.28704697134E+01  0.28704697134E+01  0.00000000000E+00 0. -1.
         21   -1    0    0  504  502 -0.00000000000E+00 -0.00000000000E+00 -0.23256820648E+03  0.23256820648E+03  0.00000000000E+00 0. -1.
         21    1    1    2  503  502 -0.19448900275E+02  0.72180980959E+01 -0.18502205418E+03  0.18618142011E+03  0.00000000000E+00 0. -1.
         21    1    1    2  504  501  0.19448900275E+02 -0.72180980959E+01 -0.44675682582E+02  0.49257256076E+02  0.00000000000E+00 0. -1.
</event>
<event>
 4    1  0.1679763E+006  0.4915901E+02  0.7546771E-02  0.1301860E+00
         21   -1    0    0  504  501  0.00000000000E+00  0.00000000000E+00  0.35899343454E+01  0.35899343454E+01  0.00000000000E+00 0. -1.
         21   -1    0    0  501  502 -0.00000000000E+00 -0.00000000000E+00 -0.18327112512E+04  0.18327112512E+04  0.00000000000E+00 0.  1.
         21    1    1    2  503  502 -0.49101045159E+02 -0.23865752847E+01 -0.16448777154E+04  0.16456121375E+04  0.00000000000E+00 0.  1.
         21    1    1    2  504  503  0.49101045159E+02  0.23865752847E+01 -0.18424360140E+03  0.19068904802E+03  0.00000000000E+00 0. -1.
</event>
<event>
 4    1  0.1679763E+006  0.3363170E+02  0.7546771E-02  0.1390446E+00
         21   -1    0    0  503  501  0.00000000000E+00  0.00000000000E+00  0.31665007868E+03  0.31665007868E+03  0.00000000000E+00 0. -1.
         21   -1    0    0  501  502 -0.00000000000E+00 -0.00000000000E+00 -0.43914212392E+01  0.43914212392E+01  0.00000000000E+00 0. -1.
         21    1    1    2  503  504 -0.28753602345E+01  0.33508562904E+02  0.22546674815E+03  0.22796128182E+03  0.00000000000E+00 0. -1.
         21    1    1    2  504  502  0.28753602345E+01 -0.33508562904E+02  0.86791909284E+02  0.93080218100E+02  0.00000000000E+00 0. -1.
</event>
<event>
 4    1  0.1679763E+006  0.2308304E+02  0.7546771E-02  0.1491458E+00
         21   -1    0    0  502  501  0.00000000000E+00  0.00000000000E+00  0.94218230367E+02  0.94218230367E+02  0.00000000000E+00 0. -1.
         21   -1    0    0  504  502 -0.00000000000E+00 -0.00000000000E+00 -0.45410019314E+02  0.45410019314E+02  0.00000000000E+00 0. -1.
         21    1    1    2  503  501 -0.21304214464E+02 -0.88857742828E+01  0.89726506337E+02  0.92648111033E+02  0.00000000000E+00 0. -1.
         21    1    1    2  504  503  0.21304214464E+02  0.88857742828E+01 -0.40918295284E+02  0.46980138649E+02  0.00000000000E+00 0. -1.
</event>
<event>
 4    1  0.1679763E+006  0.2109066E+02  0.7546771E-02  0.1517974E+00
         21   -1    0    0  502  501  0.00000000000E+00  0.00000000000E+00  0.25257637131E+03  0.25257637131E+03  0.00000000000E+00 0.  1.
         21   -1    0    0  503  502 -0.00000000000E+00 -0.00000000000E+00 -0.95572417875E+02  0.95572417875E+02  0.00000000000E+00 0. -1.
         21    1    1    2  503  504  0.18225949814E+02  0.10612751158E+02 -0.93961125319E+02  0.96299059211E+02  0.00000000000E+00 0. -1.
         21    1    1    2  504  501 -0.18225949814E+02 -0.10612751158E+02  0.25096507875E+03  0.25184972997E+03  0.00000000000E+00 0.  1.
</event>
<event>
 4    1  0.1679763E+006  0.2116806E+02  0.7546771E-02  0.1516879E+00
         21   -1    0    0  503  501  0.00000000000E+00  0.00000000000E+00  0.33778479827E+03  0.33778479827E+03  0.00000000000E+00 0. -1.
         21   -1    0    0  501  502 -0.00000000000E+00 -0.00000000000E+00 -0.24401457455E+01  0.24401457455E+01  0.00000000000E+00 0.  1.
         21    1    1    2  503  504  0.20341789304E+02  0.58564710704E+01  0.28259165500E+03  0.28338336247E+03  0.00000000000E+00 0. -1.
         21    1    1    2  504  502 -0.20341789304E+02 -0.58564710704E+01  0.52752997522E+02  0.56841581550E+02  0.00000000000E+00 0.  1.
</event>
<event>
 4    1  0.1679763E+006  0.2405646E+02  0.7546771E-02  0.1479642E+00
         21   -1    0    0  504  501  0.00000000000E+00  0.00000000000E+00  0.12230004001E+04  0.12230004001E+04  0.00000000000E+00 0. -1.
         21   -1    0    0  501  502 -0.00000000000E+00 -0.00000000000E+00 -0.54687434059E+01  0.54687434059E+01  0.00000000000E+00 0. -1.
         21    1    1    2  503  502  0.22728543253E+02  0.78820376195E+01  0.21706182334E+02  0.32401721358E+02  0.00000000000E+00 0. -1.
         21    1    1    2  504  503 -0.22728543253E+02 -0.78820376195E+01  0.11958254744E+04  0.11960674222E+04  0.00000000000E+00 0. -1.
</event>
<event>
 4    1  0.1679763E+006  0.2707484E+02  0.7546771E-02  0.1446858E+00
         21   -1    0    0  503  501  0.00000000000E+00  0.00000000000E+00  0.48331577751E+02  0.48331577751E+02  0.00000000000E+00 0.  1.
         21   -1    0    0  504  502 -0.00000000000E+00 -0.00000000000E+00 -0.94399023092E+02  0.94399023092E+02  0.00000000000E+00 0. -1.
         21    1    1    2  503  502  0.25288308600E+02 -0.96720352671E+01  0.42347587657E+02  0.50262958512E+02  0.00000000000E+00 0.  1.
         21    1    1    2  504  501 -0.25288308600E+02  0.96720352671E+01 -0.88415032998E+02  0.92467642330E+02  0.00000000000E+00 0. -1.
</event>
<event>
 4    1  0.1679763E+006  0.2943609E+02  0.7546771E-02  0.1424561E+00
         21   -1    0    0  503  501  0.00000000000E+00  0.00000000000E+00  0.87269272469E+03  0.87269272469E+03  0.00000000000E+00 0.  1.
         21   -1    0    0  501  502 -0.00000000000E+00 -0.00000000000E+00 -0.14093992087E+03  0.14093992087E+03  0.00000000000E+00 0.  1.
         21    1    1    2  503  504 -0.28351461684E+02  0.79169416593E+01  0.87090437542E+03  0.87140169525E+03  0.00000000000E+00 0.  1.
         21    1    1    2  504  502  0.28351461684E+02 -0.79169416593E+01 -0.13915157161E+03  0.14223095031E+03  0.00000000000E+00 0.  1.
</event>
<event>
 4    1  0.1679763E+006  0.2623873E+02  0.7546771E-02  0.1455409E+00
         21   -1    0    0  503  501  0.00000000000E+00  0.00000000000E+00  0.44170700706E+02  0.44170700706E+02  0.00000000000E+00 0.  1.
         21   -1    0    0  501  502 -0.00000000000E+00 -0.00000000000E+00 -0.16855585520E+02  0.16855585520E+02  0.00000000000E+00 0.  1.
         21    1    1    2  503  504  0.23950859199E+02  0.10715758236E+02  0.22029823613E+02  0.34260535013E+02  0.00000000000E+00 0.  1.
         21    1    1    2  504  502 -0.23950859199E+02 -0.10715758236E+02  0.52852915722E+01  0.26765751212E+02  0.00000000000E+00 0.  1.
</event>
<event>
 4    1  0.1679763E+006  0.2427226E+02  0.7546771E-02  0.1477112E+00
         21   -1    0    0  502  501  0.00000000000E+00  0.00000000000E+00  0.14396310795E+03  0.14396310795E+03  0.00000000000E+00 0. -1.
         21   -1    0    0  504  502 -0.00000000000E+00 -0.00000000000E+00 -0.20622362055E+02  0.20622362055E+02  0.00000000000E+00 0.  1.
         21    1    1    2  503  501 -0.14421935486E+02 -0.19523074525E+02  0.13534692824E+03  0.13750612221E+03  0.00000000000E+00 0. -1.
         21    1    1    2  504  503  0.14421935486E+02  0.19523074525E+02 -0.12006182348E+02  0.27079347789E+02  0.00000000000E+00 0.  1.
</event>
<event>
 4    1  0.1679763E+006  0.2442113E+02  0.7546771E-02  0.1475384E+00
         21   -1    0    0  504  501  0.00000000000E+00  0.00000000000E+00  0.12345980949E+04  0.12345980949E+04  0.00000000000E+00 0.  1.
         21   -1    0    0  503  502 -0.00000000000E+00 -0.00000000000E+00 -0.56751653533E+01  0.56751653533E+01  0.00000000000E+00 0.  1.
         21    1    1    2  503  501  0.22791827927E+02  0.87706504773E+01  0.12076184425E+04  0.12078653461E+04  0.00000000000E+00 0.  1.
         21    1    1    2  504  502 -0.22791827927E+02 -0.87706504773E+01  0.21304487089E+02  0.32407914159E+02  0.00000000000E+00 0.  1.
</event>
<event>
 4    1  0.1679763E+006  0.4049580E+02  0.7546771E-02  0.1345605E+00
         21   -1    0    0  504  501  0.00000000000E+00  0.00000000000E+00  0.10227998830E+02  0.10227998830E+02  0.00000000000E+00 0. -1.
         21   -1    0    0  501  502 -0.00000000000E+00 -0.00000000000E+00 -0.95498666633E+03  0.95498666633E+03  0.00000000000E+00 0. -1.
         21    1    1    2  503  502  0.38697832556E+02 -0.11932624194E+02 -0.91261331871E+03  0.91351134599E+03  0.00000000000E+00 0. -1.
         21    1    1    2  504  503 -0.38697832556E+02  0.11932624194E+02 -0.32145348797E+02  0.51703319177E+02  0.00000000000E+00 0. -1.
</event>
<event>
 4    1  0.1679763E+006  0.2302932E+02  0.7546771E-02  0.1492130E+00
         21   -1    0    0  503  501  0.00000000000E+00  0.00000000000E+00  0.29896892944E+01  0.29896892944E+01  0.00000000000E+00 0. -1.
         21   -1    0    0  501  502 -0.00000000000E+00 -0.00000000000E+00 -0.24137812126E+03  0.24137812126E+03  0.00000000000E+00 0. -1.
         21    1    1    2  503  504  0.13289174279E+02 -0.18808170505E+02 -0.56286322579E+02  0.60815290349E+02  0.00000000000E+00 0. -1.
         21    1    1    2  504  502 -0.13289174279E+02  0.18808170505E+02 -0.18210210939E+03  0.18355252020E+03  0.00000000000E+00 0. -1.
</event>
<event>
 4    1  0.1679763E+006  0.2139099E+02  0.7546771E-02  0.1513755E+00
         21   -1    0    0  503  501  0.00000000000E+00  0.00000000000E+00  0.12137064631E+03  0.12137064631E+03  0.00000000000E+00 0.  1.
         21   -1    0    0  501  502 -0.00000000000E+00 -0.00000000000E+00 -0.63076476338E+03  0.63076476338E+03  0.00000000000E+00 0.  1.
         21    1    1    2  503  504  0.68351356302E+01 -0.20269568869E+02  0.12024509015E+03  0.12213294480E+03  0.00000000000E+00 0.  1.
         21    1    1    2  504  502 -0.68351356302E+01  0.20269568869E+02 -0.62963920722E+03  0.63000246489E+03  0.00000000000E+00 0.  1.
</event>
<event>
 4    1  0.1679763E+006  0.2144268E+02  0.7546771E-02  0.1513037E+00
         21   -1    0    0  504  501  0.00000000000E+00  0.00000000000E+00  0.19333034277E+04  0.19333034277E+04  0.00000000000E+00 0. -1.
         21   -1    0    0  501  502 -0.00000000000E+00 -0.00000000000E+00 -0.36677438543E+00  0.36677438543E+00  0.00000000000E+00 0.  1.
         21    1    1    2  503  502 -0.91600360616E+01  0.19387688466E+02  0.39319488910E+03  0.39377913802E+03  0.00000000000E+00 0.  1.
         21    1    1    2  504  503  0.91600360616E+01 -0.19387688466E+02  0.15397417642E+04  0.15398910641E+04  0.00000000000E+00 0. -1.
</event>
<event>
 4    1  0.1679763E+006  0.2652961E+02  0.7546771E-02  0.1452391E+00
         21   -1    0    0  503  501  0.00000000000E+00  0.00000000000E+00  0.10522603446E+01  0.10522603446E+01  0.00000000000E+00 0.  1.
         21   -1    0    0  504  502 -0.00000000000E+00 -0.00000000000E+00 -0.83693481773E+03  0.83693481773E+03  0.00000000000E+00 0.  1.
         21    1    1    2  503  502 -0.17443004205E+02  0.19989042169E+02 -0.23017989983E+03  0.23170370409E+03  0.00000000000E+00 0.  1.
         21    1    1    2  504  501  0.17443004205E+02 -0.19989042169E+02 -0.60570265755E+03  0.60628337398E+03  0.00000000000E+00 0.  1.
</event>
<event>
 4    1  0.1679763E+006  0.3790112E+02  0.7546771E-02  0.1361244E+00
         21   -1    0    0  502  501  0.00000000000E+00  0.00000000000E+00  0.17987990280E+02  0.17987990280E+02  0.00000000000E+00 0. -1.
         21   -1    0    0  504  502 -0.00000000000E+00 -0.00000000000E+00 -0.10597644891E+03  0.10597644891E+03  0.00000000000E+00 0.  1.
         21    1    1    2  503  501  0.23082283713E+02  0.30061652121E+02 -0.13223938969E+02  0.40141839912E+02  0.00000000000E+00 0. -1.
         21    1    1    2  504  503 -0.23082283713E+02 -0.30061652121E+02 -0.74764519659E+02  0.83822599277E+02  0.00000000000E+00 0.  1.
</event>
<event>
 4    1  0.1679763E+006  0.2306757E+02  0.7546771E-02  0.1491651E+00
         21   -1    0    0  504  501  0.00000000000E+00  0.00000000000E+00  0.39777096023E+01  0.39777096023E+01  0.00000000000E+00 0.  1.
         21   -1    0    0  503  502 -0.00000000000E+00 -0.00000000000E+00 -0.13426197750E+03  0.13426197750E+03  0.00000000000E+00 0.  1.
         21    1    1    2  503  501  0.70819123713E+01  0.21953566450E+02 -0.69310835028E+02  0.73048644169E+02  0.00000000000E+00 0.  1.
         21    1    1    2  504  502 -0.70819123713E+01 -0.21953566450E+02 -0.60973432866E+02  0.65191042929E+02  0.00000000000E+00 0.  1.
</event>
<event>
 4    1  0.1679763E+006  0.2016096E+02  0.7546771E-02  0.1531589E+00
         21   -1    0    0  503  501  0.00000000000E+00  0.00000000000E+00  0.49779114985E+02  0.49779114985E+02  0.00000000000E+00 0. -1.
         21   -1    0    0  504  502 -0.00000000000E+00 -0.00000000000E+00 -0.11257483448E+02  0.11257483448E+02  0.00000000000E+00 0. -1.
         21    1    1    2  503  502  0.11009032547E+02  0.16889808440E+02  0.35255218772E+02  0.40612742796E+02  0.00000000000E+00 0. -1.
         21    1    1    2  504  501 -0.11009032547E+02 -0.16889808440E+02  0.32664127657E+01  0.20423855638E+02  0.00000000000E+00 0. -1.
</event>
<event>
 4    1  0.1679763E+006  0.2158893E+02  0.7546771E-02  0.1511020E+00
         21   -1    0    0  504  501  0.00000000000E+00  0.00000000000E+00  0.45559462817E+02  0.45559462817E+02  0.00000000000E+00 0.  1.
         21   -1    0    0  503  502 -0.00000000000E+00 -0.00000000000E+00 -0.48687199046E+02  0.48687199046E+02  0.00000000000E+00 0. -1.
         21    1    1    2  503  501 -0.49583813398E+01 -0.21011819117E+02 -0.43444798632E+02  0.48513221046E+02  0.00000000000E+00 0. -1.
         21    1    1    2  504  502  0.49583813398E+01  0.21011819117E+02  0.40317062403E+02  0.45733440817E+02  0.00000000000E+00 0.  1.
</event>
<event>
 4    1  0.1679763E+006  0.5278795E+02  0.7546771E-02  0.1286517E+00
         21   -1    0    0  503  501  0.00000000000E+00  0.00000000000E+00  0.15754695576E+03  0.15754695576E+03  0.00000000000E+00 0. -1.
         21   -1    0    0  504  502 -0.00000000000E+00 -0.00000000000E+00 -0.18048684171E+02  0.18048684171E+02  0.00000000000E+00 0. -1.
         21    1    1    2  503  502  0.45354308299E+02  0.27010258004E+02  0.82174093386E+02  0.97668566809E+02  0.00000000000E+00 0. -1.
         21    1    1    2  504  501 -0.45354308299E+02 -0.27010258004E+02  0.57324178203E+02  0.77927073122E+02  0.00000000000E+00 0. -1.
</event>
<event>
 4    1  0.1679763E+006  0.2557052E+02  0.7546771E-02  0.1462521E+00
         21   -1    0    0  503  501  0.00000000000E+00  0.00000000000E+00  0.37107645446E+01  0.37107645446E+01  0.00000000000E+00 0. -1.
         21   -1    0    0  504  502 -0.00000000000E+00 -0.00000000000E+00 -0.17657284520E+03  0.17657284520E+03  0.00000000000E+00 0. -1.
         21    1    1    2  503  502  0.98996595149E+00 -0.25551350150E+02 -0.90550980633E+02  0.94092144309E+02  0.00000000000E+00 0. -1.
         21    1    1    2  504  501 -0.98996595149E+00  0.25551350150E+02 -0.82311100023E+02  0.86191465436E+02  0.00000000000E+00 0. -1.
</event>
<event>
 4    1  0.1679763E+006  0.2027871E+02  0.7546771E-02  0.1529817E+00
         21   -1    0    0  504  501  0.00000000000E+00  0.00000000000E+00  0.76945482994E+01  0.76945482994E+01  0.00000000000E+00 0.  1.
         21   -1    0    0  503  502 -0.00000000000E+00 -0.00000000000E+00 -0.10615184803E+03  0.10615184803E+03  0.00000000000E+00 0.  1.
         21    1    1    2  503  501 -0.20028585413E+02 -0.31751827554E+01 -0.89339689235E+02  0.91612259506E+02  0.00000000000E+00 0.  1.
         21    1    1    2  504  502  0.20028585413E+02  0.31751827554E+01 -0.91176104978E+01  0.22234136826E+02  0.00000000000E+00 0.  1.
</event>
<event>
 4    1  0.1679763E+006  0.2264614E+02  0.7546771E-02  0.1496990E+00
         21   -1    0    0  503  501  0.00000000000E+00  0.00000000000E+00  0.30297974981E+02  0.30297974981E+02  0.00000000000E+00 0. -1.
         21   -1    0    0  504  502 -0.00000000000E+00 -0.00000000000E+00 -0.41370796433E+03  0.41370796433E+03  0.00000000000E+00 0.  1.
         21    1    1    2  503  502  0.21725698174E+02  0.63907613320E+01 -0.40911892460E+03  0.40974521627E+03  0.00000000000E+00 0.  1.
         21    1    1    2  504  501 -0.21725698174E+02 -0.63907613320E+01  0.25708935250E+02  0.34260723040E+02  0.00000000000E+00 0. -1.
</event>
<event>
 4    1  0.1679763E+006  0.3230963E+02  0.7546771E-02  0.1400533E+00
         21   -1    0    0  503  501  0.00000000000E+00  0.00000000000E+00  0.15424845099E+01  0.15424845099E+01  0.00000000000E+00 0.  1.
         21   -1    0    0  504  502 -0.00000000000E+00 -0.00000000000E+00 -0.11876906415E+04  0.11876906415E+04  0.00000000000E+00 0.  1.
         21    1    1    2  503  502  0.21366541519E+02 -0.24235991674E+02 -0.20307763979E+03  0.20563180729E+03  0.00000000000E+00 0.  1.
         21    1    1    2  504  501 -0.21366541519E+02  0.24235991674E+02 -0.98307051718E+03  0.98360131869E+03  0.00000000000E+00 0.  1.
</event>
<event>
 4    1  0.1679763E+006  0.2429417E+02  0.7546771E-02  0.1476857E+00
         21   -1    0    0  502  501  0.00000000000E+00  0.00000000000E+00  0.16171032875E+03  0.16171032875E+03  0.00000000000E+00 0. -1.
         21   -1    0    0  503  502 -0.00000000000E+00 -0.00000000000E+00 -0.60254526021E+01  0.60254526021E+01  0.00000000000E+00 0. -1.
         21    1    1    2  503  504 -0.49928680389E+01  0.23775575476E+02  0.25180794952E+02  0.34989700697E+02  0.00000000000E+00 0. -1.
         21    1    1    2  504  501  0.49928680389E+01 -0.23775575476E+02  0.13050408119E+03  0.13274608065E+03  0.00000000000E+00 0. -1.
</event>
<event>
 4    1  0.1679763E+006  0.5853458E+02  0.7546771E-02  0.1264895E+00
         21   -1    0    0  504  501  0.00000000000E+00  0.00000000000E+00  0.62745932167E+02  0.62745932167E+02  0.00000000000E+00 0.  1.
         21   -1    0    0  501  502 -0.00000000000E+00 -0.00000000000E+00 -0.86269672641E+02  0.86269672641E+02  0.00000000000E+00 0.  1.
         21    1    1    2  503  502 -0.14202269341E+02  0.56785497909E+02 -0.56901095764E+02  0.81633522075E+02  0.00000000000E+00 0.  1.
         21    1    1    2  504  503  0.14202269341E+02 -0.56785497909E+02  0.33377355290E+02  0.67382082733E+02  0.00000000000E+00 0.  1.
</event>
<event>
 4    1  0.1679763E+006  0.2127144E+02  0.7546771E-02  0.1515424E+00
         21   -1    0    0  504  501  0.00000000000E+00  0.00000000000E+00  0.52959547434E+01  0.52959547434E+01  0.00000000000E+00 0.  1.
         21   -1    0    0  503  502 -0.00000000000E+00 -0.00000000000E+00 -0.20230808246E+03  0.20230808246E+03  0.00000000000E+00 0.  1.
         21    1    1    2  503  501  0.10771476079E+02  0.18342562889E+02 -0.19610719943E+02  0.28931896705E+02  0.00000000000E+00 0.  1.
         21    1    1    2  504  502 -0.10771476079E+02 -0.18342562889E+02 -0.17740140778E+03  0.17867214050E+03  0.00000000000E+00 0.  1.
</event>
<event>
 4    1  0.1679763E+006  0.2175459E+02  0.7546771E-02  0.1508758E+00
         21   -1    0    0  504  501  0.00000000000E+00  0.00000000000E+00  0.42476172030E+03  0.42476172030E+03  0.00000000000E+00 0.  1.
         21   -1    0    0  503  502 -0.00000000000E+00 -0.00000000000E+00 -0.55635145178E+01  0.55635145178E+01  0.00000000000E+00 0.  1.
         21    1    1    2  503  501 -0.19760307120E+02  0.90990245529E+01  0.17183793376E+02  0.27722639486E+02  0.00000000000E+00 0.  1.
         21    1    1    2  504  502  0.19760307120E+02 -0.90990245529E+01  0.40201441241E+03  0.40260259534E+03  0.00000000000E+00 0.  1.
</event>
<event>
 4    1  0.1679763E+006  0.3601042E+02  0.7546771E-02  0.1373595E+00
         21   -1    0    0  503  501  0.00000000000E+00  0.00000000000E+00  0.23736021538E+02  0.23736021538E+02  0.00000000000E+00 0.  1.
         21   -1    0    0  504  502 -0.00000000000E+00 -0.00000000000E+00 -0.73777364597E+02  0.73777364597E+02  0.00000000000E+00 0.  1.
         21    1    1    2  503  502  0.68324956669E+01 -0.35356294033E+02 -0.49857863183E+02  0.61502496259E+02  0.00000000000E+00 0.  1.
         21    1    1    2  504  501 -0.68324956669E+01  0.35356294033E+02 -0.18347987622E+00  0.36010889876E+02  0.00000000000E+00 0.  1.
</event>
<event>
 4    1  0.1679763E+006  0.2104044E+02  0.7546771E-02  0.1518688E+00
         21   -1    0    0  504  501  0.00000000000E+00  0.00000000000E+00  0.58170310498E+02  0.58170310498E+02  0.00000000000E+00 0.  1.
         21   -1    0    0  503  502 -0.00000000000E+00 -0.00000000000E+00 -0.21229382285E+03  0.21229382285E+03  0.00000000000E+00 0. -1.
         21    1    1    2  503  501 -0.19414578271E+02 -0.81101456227E+01  0.55724254639E+02  0.59564191143E+02  0.00000000000E+00 0.  1.
         21    1    1    2  504  502  0.19414578271E+02  0.81101456227E+01 -0.20984776699E+03  0.21089994221E+03  0.00000000000E+00 0. -1.
</event>
<event>
 4    1  0.1679763E+006  0.2610407E+02  0.7546771E-02  0.1456822E+00
         21   -1    0    0  504  501  0.00000000000E+00  0.00000000000E+00  0.14171290068E+02  0.14171290068E+02  0.00000000000E+00 0.  1.
         21   -1    0    0  501  502 -0.00000000000E+00 -0.00000000000E+00 -0.62885747775E+02  0.62885747775E+02  0.00000000000E+00 0.  1.
         21    1    1    2  503  502  0.25568473559E+02 -0.52607422231E+01 -0.43049084228E+02  0.50345266925E+02  0.00000000000E+00 0.  1.
         21    1    1    2  504  503 -0.25568473559E+02  0.52607422231E+01 -0.56653734791E+01  0.26711770918E+02  0.00000000000E+00 0.  1.
</event>
<event>
 4    1  0.1679763E+006  0.2004684E+02  0.7546771E-02  0.1533321E+00
         21   -1    0    0  504  501  0.00000000000E+00  0.00000000000E+00  0.23469739671E+02  0.23469739671E+02  0.00000000000E+00 0. -1.
         21   -1    0    0  503  502 -0.00000000000E+00 -0.00000000000E+00 -0.68016275539E+02  0.68016275539E+02  0.00000000000E+00 0. -1.
         21    1    1    2  503  501 -0.73152683934E+01  0.18664478655E+02 -0.61841609372E+02  0.65009695930E+02  0.00000000000E+00 0. -1.
         21    1    1    2  504  502  0.73152683934E+01 -0.18664478655E+02  0.17295073504E+02  0.26476319280E+02  0.00000000000E+00 0. -1.
</event>
<event>
 4    1  0.1679763E+006  0.2160637E+02  0.7546771E-02  0.1510781E+00
         21   -1    0    0  504  501  0.00000000000E+00  0.00000000000E+00  0.21267733335E+03  0.21267733335E+03  0.00000000000E+00 0. -1.
         21   -1    0    0  503  502 -0.00000000000E+00 -0.00000000000E+00 -0.24002574677E+01  0.24002574677E+01  0.00000000000E+00 0. -1.
         21    1    1    2  503  501  0.21093243585E+02  0.46808623884E+01  0.13658289355E+03  0.13828131547E+03  0.00000000000E+00 0. -1.
         21    1    1    2  504  502 -0.21093243585E+02 -0.46808623884E+01  0.73694182331E+02  0.76796275347E+02  0.00000000000E+00 0. -1.
</event>
<event>
 4    1  0.1679763E+006  0.4099064E+02  0.7546771E-02  0.1342776E+00
         21   -1    0    0  502  501  0.00000000000E+00  0.00000000000E+00  0.12180063031E+04  0.12180063031E+04  0.00000000000E+00 0.  1.
         21   -1    0    0  503  502 -0.00000000000E+00 -0.00000000000E+00 -0.34881728209E+02  0.34881728209E+02  0.00000000000E+00 0. -1.
         21    1    1    2  503  504 -0.89827696357E+01  0.39994282752E+02 -0.22369543165E+02  0.46697208317E+02  0.00000000000E+00 0. -1.
         21    1    1    2  504  501  0.89827696357E+01 -0.39994282752E+02  0.12054941180E+04  0.12061908230E+04  0.00000000000E+00 0.  1.
</event>
<event>
 4    1  0.1679763E+006  0.2503981E+02  0.7546771E-02  0.1468358E+00
         21   -1    0    0  503  501  0.00000000000E+00  0.00000000000E+00  0.37321645414E+03  0.37321645414E+03  0.00000000000E+00 0.  1.
         21   -1    0    0  504  502 -0.00000000000E+00 -0.00000000000E+00 -0.18030661084E+01  0.18030661084E+01  0.00000000000E+00 0.  1.
         21    1    1    2  503  502 -0.24719972376E+02 -0.39893762828E+01  0.23470054546E+03  0.23603249395E+03  0.00000000000E+00 0.  1.
         21    1    1    2  504  501  0.24719972376E+02  0.39893762828E+01  0.13671284257E+03  0.13898702630E+03  0.00000000000E+00 0.  1.
</event>
<event>
 4    1  0.1679763E+006  0.2215923E+02  0.7546771E-02  0.1503334E+00
         21   -1    0    0  504  501  0.00000000000E+00  0.00000000000E+00  0.35577022594E+03  0.35577022594E+03  0.00000000000E+00 0.  1.
         21   -1    0    0  503  502 -0.00000000000E+00 -0.00000000000E+00 -0.27320289259E+03  0.27320289259E+03  0.00000000000E+00 0.  1.
         21    1    1    2  503  501  0.18305026600E+02 -0.12488295790E+02 -0.27240750992E+03  0.27330730504E+03  0.00000000000E+00 0.  1.
         21    1    1    2  504  502 -0.18305026600E+02  0.12488295790E+02  0.35497484327E+03  0.35566581349E+03  0.00000000000E+00 0.  1.
</event>
<event>
 4    1  0.1679763E+006  0.2403910E+02  0.7546771E-02  0.1479847E+00
         21   -1    0    0  502  501  0.00000000000E+00  0.00000000000E+00  0.50044527717E+03  0.50044527717E+03  0.00000000000E+00 0. -1.
         21   -1    0    0  504  502 -0.00000000000E+00 -0.00000000000E+00 -0.17506737860E+02  0.17506737860E+02  0.00000000000E+00 0. -1.
         21    1    1    2  503  501 -0.23783785550E+02 -0.34942638526E+01  0.49175868440E+03  0.49234589673E+03  0.00000000000E+00 0. -1.
         21    1    1    2  504  503  0.23783785550E+02  0.34942638526E+01 -0.88201450973E+01  0.25606118302E+02  0.00000000000E+00 0. -1.
</event>
<event>
 4    1  0.1679763E+006  0.2081256E+02  0.7546771E-02  0.1521958E+00
         21   -1    0    0  504  501  0.00000000000E+00  0.00000000000E+00  0.76357426818E+02  0.76357426818E+02  0.00000000000E+00 0.  1.
         21   -1    0    0  503  502 -0.00000000000E+00 -0.00000000000E+00 -0.14254899547E+02  0.14254899547E+02  0.00000000000E+00 0.  1.
         21    1    1    2  503  501  0.20224933605E+02  0.49106594748E+01 -0.41024556696E+01  0.21213030390E+02  0.00000000000E+00 0.  1.
         21    1    1    2  504  502 -0.20224933605E+02 -0.49106594748E+01  0.66204982940E+02  0.69399295976E+02  0.00000000000E+00 0.  1.
</event>
<event>
 4    1  0.1679763E+006  0.2724978E+02  0.7546771E-02  0.1445115E+00
         21   -1    0    0  502  501  0.00000000000E+00  0.00000000000E+00  0.11895672291E+03  0.11895672291E+03  0.00000000000E+00 0.  1.
         21   -1    0    0  503  502 -0.00000000000E+00 -0.00000000000E+00 -0.12638781950E+02  0.12638781950E+02  0.00000000000E+00 0.  1.
         21    1    1    2  503  504  0.31579801490E+01  0.27066170820E+02  0.63496023286E+01  0.27979776469E+02  0.00000000000E+00 0.  1.
         21    1    1    2  504  501 -0.31579801490E+01 -0.27066170820E+02  0.99968338632E+02  0.10361572839E+03  0.00000000000E+00 0.  1.
</event>
<event>
 4    1  0.1679763E+006  0.2158913E+02  0.7546771E-02  0.1511017E+00
         21   -1    0    0  504  501  0.00000000000E+00  0.00000000000E+00  0.18776203081E+02  0.18776203081E+02  0.00000000000E+00 0. -1.
         21   -1    0    0  503  502 -0.00000000000E+00 -0.00000000000E+00 -0.13217966208E+03  0.13217966208E+03  0.00000000000E+00 0. -1.
         21    1    1    2  503  501  0.97704633435E+01 -0.19251715018E+02  0.11320557548E+02  0.24377151356E+02  0.00000000000E+00 0. -1.
         21    1    1    2  504  502 -0.97704633435E+01  0.19251715018E+02 -0.12472401655E+03  0.12657871381E+03  0.00000000000E+00 0. -1.
</event>
<event>
 4    1  0.1679763E+006  0.2305554E+02  0.7546771E-02  0.1491802E+00
         21   -1    0    0  504  501  0.00000000000E+00  0.00000000000E+00  0.25508011288E+02  0.25508011288E+02  0.00000000000E+00 0. -1.
         21   -1    0    0  503  502 -0.00000000000E+00 -0.00000000000E+00 -0.21058740780E+02  0.21058740780E+02  0.00000000000E+00 0. -1.
         21    1    1    2  503  501  0.17919159028E+02  0.14507294318E+02 -0.15452912709E+00  0.23056056210E+02  0.00000000000E+00 0. -1.
         21    1    1    2  504  502 -0.17919159028E+02 -0.14507294318E+02  0.46037996346E+01  0.23510695859E+02  0.00000000000E+00 0. -1.
</event>
<event>
 4    1  0.1679763E+006  0.3248582E+02  0.7546771E-02  0.1399156E+00
         21   -1    0    0  503  501  0.00000000000E+00  0.00000000000E+00  0.53233856498E+02  0.53233856498E+02  0.00000000000E+00 0. -1.
         21   -1    0    0  504  502 -0.00000000000E+00 -0.00000000000E+00 -0.37347858267E+02  0.37347858267E+02  0.00000000000E+00 0. -1.
         21    1    1    2  503  502  0.20951100878E+02 -0.24827003722E+02  0.38966279806E+02  0.50731644007E+02  0.00000000000E+00 0. -1.
         21    1    1    2  504  501 -0.20951100878E+02  0.24827003722E+02 -0.23080281575E+02  0.39850070757E+02  0.00000000000E+00 0. -1.
</event>
<event>
 4    1  0.1679763E+006  0.2284220E+02  0.7546771E-02  0.1494489E+00
         21   -1    0    0  504  501  0.00000000000E+00  0.00000000000E+00  0.34416160453E+03  0.34416160453E+03  0.00000000000E+00 0. -1.
         21   -1    0    0  503  502 -0.00000000000E+00 -0.00000000000E+00 -0.27530424324E+01  0.27530424324E+01  0.00000000000E+00 0.  1.
         21    1    1    2  503  501  0.12745811027E+02 -0.18955481971E+02  0.54433707677E+02  0.59032148250E+02  0.00000000000E+00 0.  1.
         21    1    1    2  504  502 -0.12745811027E+02  0.18955481971E+02  0.28697485442E+03  0.28788249871E+03  0.00000000000E+00 0. -1.
</event>
<event>
 4    1  0.1679763E+006  0.2162080E+02  0.7546771E-02  0.1510583E+00
         21   -1    0    0  502  501  0.00000000000E+00  0.00000000000E+00  0.19171354080E+03  0.19171354080E+03  0.00000000000E+00 0. -1.
         21   -1    0    0  503  502 -0.00000000000E+00 -0.00000000000E+00 -0.53468551762E+01  0.53468551762E+01  0.00000000000E+00 0. -1.
         21    1    1    2  503  504  0.19014998116E+02  0.10290240019E+02  0.20512999014E+02  0.29803394463E+02  0.00000000000E+00 0. -1.
         21    1    1    2  504  501 -0.19014998116E+02 -0.10290240019E+02  0.16585368661E+03  0.16725700151E+03  0.00000000000E+00 0. -1.
</event>
<event>
 4    1  0.1679763E+006  0.2590823E+02  0.7546771E-02  0.1458894E+00
         21   -1    0    0  503  501  0.00000000000E+00  0.00000000000E+00  0.42403350785E+03  0.42403350785E+03  0.00000000000E+00 0.  1.
         21   -1    0    0  504  502 -0.00000000000E+00 -0.00000000000E+00 -0.38213817348E+01  0.38213817348E+01  0.00000000000E+00 0.  1.
         21    1    1    2  503  502 -0.27501874573E+01 -0.25761853559E+02  0.37383494402E+03  0.37473163997E+03  0.00000000000E+00 0.  1.
         21    1    1    2  504  501  0.27501874573E+01  0.25761853559E+02  0.46377182102E+02  0.53123249614E+02  0.00000000000E+00 0.  1.
</event>
<event>
 4    1  0.1679763E+006  0.2455750E+02  0.7546771E-02  0.1473815E+00
         21   -1    0    0  504  501  0.00000000000E+00  0.00000000000E+00  0.10392444032E+03  0.10392444032E+03  0.00000000000E+00 0.  1.
         21   -1    0    0  501  502 -0.00000000000E+00 -0.00000000000E+00 -0.58894323726E+01  0.58894323726E+01  0.00000000000E+00 0.  1.
         21    1    1    2  503  502 -0.10185393294E+02 -0.22345666187E+02  0.42364941293E+02  0.48967941397E+02  0.00000000000E+00 0.  1.
         21    1    1    2  504  503  0.10185393294E+02  0.22345666187E+02  0.55670066653E+02  0.60845931294E+02  0.00000000000E+00 0.  1.
</event>
<event>
 4    1  0.1679763E+006  0.3403195E+02  0.7546771E-02  0.1387500E+00
         21   -1    0    0  503  501  0.00000000000E+00  0.00000000000E+00  0.59987220506E+03  0.59987220506E+03  0.00000000000E+00 0.  1.
         21   -1    0    0  504  502 -0.00000000000E+00 -0.00000000000E+00 -0.27466853216E+01  0.27466853216E+01  0.00000000000E+00 0. -1.
         21    1    1    2  503  502 -0.22269592312E+02  0.25734007041E+02  0.13433400423E+03  0.13857777077E+03  0.00000000000E+00 0. -1.
         21    1    1    2  504  501  0.22269592312E+02 -0.25734007041E+02  0.46279151552E+03  0.46404111961E+03  0.00000000000E+00 0.  1.
</event>
<event>
 4    1  0.1679763E+006  0.2878572E+02  0.7546771E-02  0.1430450E+00
         21   -1    0    0  504  501  0.00000000000E+00  0.00000000000E+00  0.15683452013E+03  0.15683452013E+03  0.00000000000E+00 0. -1.
         21   -1    0    0  503  502 -0.00000000000E+00 -0.00000000000E+00 -0.90380388953E+01  0.90380388953E+01  0.00000000000E+00 0. -1.
         21    1    1    2  503  501 -0.10244660153E+02  0.26901019371E+02  0.12735370702E+03  0.13056639919E+03  0.00000000000E+00 0. -1.
         21    1    1    2  504  502  0.10244660153E+02 -0.26901019371E+02  0.20442774211E+02  0.35306159835E+02  0.00000000000E+00 0. -1.
</event>
<event>
 4    1  0.1679763E+006  0.2451802E+02  0.7546771E-02  0.1474268E+00
         21   -1    0    0  503  501  0.00000000000E+00  0.00000000000E+00  0.12642415509E+02  0.12642415509E+02  0.00000000000E+00 0.  1.
         21   -1    0    0  504  502 -0.00000000000E+00 -0.00000000000E+00 -0.50134182632E+02  0.50134182632E+02  0.00000000000E+00 0.  1.
         21    1    1    2  503  502  0.21298488618E+02  0.12145273214E+02 -0.11618130470E+02  0.27131425220E+02  0.00000000000E+00 0.  1.
         21    1    1    2  504  501 -0.21298488618E+02 -0.12145273214E+02 -0.25873636653E+02  0.35645172920E+02  0.00000000000E+00 0.  1.
</event>
<event>
 4    1  0.1679763E+006  0.2664010E+02  0.7546771E-02  0.1451257E+00
         21   -1    0    0  502  501  0.00000000000E+00  0.00000000000E+00  0.14652013462E+02  0.14652013462E+02  0.00000000000E+00 0. -1.
         21   -1    0    0  503  502 -0.00000000000E+00 -0.00000000000E+00 -0.85893718241E+02  0.85893718241E+02  0.00000000000E+00 0. -1.
         21    1    1    2  503  504 -0.58460509452E+01 -0.25990743363E+02 -0.68819438931E+02  0.73795733122E+02  0.00000000000E+00 0. -1.
         21    1    1    2  504  501  0.58460509452E+01  0.25990743363E+02 -0.24222658471E+01  0.26749998581E+02  0.00000000000E+00 0. -1.
</event>
<event>
 4    1  0.1679763E+006  0.3565789E+02  0.7546771E-02  0.1375996E+00
         21   -1    0    0  503  501  0.00000000000E+00  0.00000000000E+00  0.39808120538E+02  0.39808120538E+02  0.00000000000E+00 0.  1.
         21   -1    0    0  504  502 -0.00000000000E+00 -0.00000000000E+00 -0.31311085523E+03  0.31311085523E+03  0.00000000000E+00 0. -1.
         21    1    1    2  503  502  0.34595372508E+02  0.86397641334E+01 -0.30386852326E+03  0.30595353365E+03  0.00000000000E+00 0. -1.
         21    1    1    2  504  501 -0.34595372508E+02 -0.86397641334E+01  0.30565788565E+02  0.46965442123E+02  0.00000000000E+00 0.  1.
</event>
<event>
 4    1  0.1679763E+006  0.2513271E+02  0.7546771E-02  0.1467324E+00
         21   -1    0    0  503  501  0.00000000000E+00  0.00000000000E+00  0.49979097917E+01  0.49979097917E+01  0.00000000000E+00 0.  1.
         21   -1    0    0  504  502 -0.00000000000E+00 -0.00000000000E+00 -0.33783997924E+03  0.33783997924E+03  0.00000000000E+00 0.  1.
         21    1    1    2  503  502 -0.25129798033E+02 -0.38269401997E+00 -0.30804132292E+02  0.39756103559E+02  0.00000000000E+00 0.  1.
         21    1    1    2  504  501  0.25129798033E+02  0.38269401997E+00 -0.30203793716E+03  0.30308178548E+03  0.00000000000E+00 0.  1.
</event>
<event>
 4    1  0.1679763E+006  0.2600503E+02  0.7546771E-02  0.1457867E+00
         21   -1    0    0  503  501  0.00000000000E+00  0.00000000000E+00  0.15680775101E+02  0.15680775101E+02  0.00000000000E+00 0. -1.
         21   -1    0    0  504  502 -0.00000000000E+00 -0.00000000000E+00 -0.53481398240E+02  0.53481398240E+02  0.00000000000E+00 0. -1.
         21    1    1    2  503  502 -0.17086631370E+02  0.19603789650E+02 -0.34116435444E+02  0.42897467380E+02  0.00000000000E+00 0. -1.
         21    1    1    2  504  501  0.17086631370E+02 -0.19603789650E+02 -0.36841876953E+01  0.26264705961E+02  0.00000000000E+00 0. -1.
</event>
<event>
 4    1  0.1679763E+006  0.2557318E+02  0.7546771E-02  0.1462492E+00
         21   -1    0    0  504  501  0.00000000000E+00  0.00000000000E+00  0.14291260216E+02  0.14291260216E+02  0.00000000000E+00 0. -1.
         21   -1    0    0  501  502 -0.00000000000E+00 -0.00000000000E+00 -0.17173641946E+03  0.17173641946E+03  0.00000000000E+00 0. -1.
         21    1    1    2  503  502  0.24644553055E+02 -0.68288709004E+01 -0.15838594718E+03  0.16043720185E+03  0.00000000000E+00 0. -1.
         21    1    1    2  504  503 -0.24644553055E+02  0.68288709004E+01  0.94078794440E+00  0.25590477819E+02  0.00000000000E+00 0. -1.
</event>
<event>
 4    1  0.1679763E+006  0.5803688E+02  0.7546771E-02  0.1266652E+00
         21   -1    0    0  503  501  0.00000000000E+00  0.00000000000E+00  0.18207390814E+03  0.18207390814E+03  0.00000000000E+00 0.  1.
         21   -1    0    0  504  502 -0.00000000000E+00 -0.00000000000E+00 -0.28539836440E+02  0.28539836440E+02  0.00000000000E+00 0.  1.
         21    1    1    2  503  502  0.49363444936E+02  0.30520976290E+02  0.13922742705E+03  0.15083950455E+03  0.00000000000E+00 0.  1.
         21    1    1    2  504  501 -0.49363444936E+02 -0.30520976290E+02  0.14306644643E+02  0.59774240025E+02  0.00000000000E+00 0.  1.
</event>
<event>
 4    1  0.1679763E+006  0.3114765E+02  0.7546771E-02  0.1409879E+00
         21   -1    0    0  504  501  0.00000000000E+00  0.00000000000E+00  0.21075411767E+01  0.21075411767E+01  0.00000000000E+00 0. -1.
         21   -1    0    0  503  502 -0.00000000000E+00 -0.00000000000E+00 -0.73242984373E+03  0.73242984373E+03  0.00000000000E+00 0. -1.
         21    1    1    2  503  501  0.26916668382E+02  0.15673838305E+02 -0.58901293818E+03  0.58983592429E+03  0.00000000000E+00 0. -1.
         21    1    1    2  504  502 -0.26916668382E+02 -0.15673838305E+02 -0.14130936437E+03  0.14470146061E+03  0.00000000000E+00 0. -1.
</event>
<event>
 4    1  0.1679763E+006  0.2738042E+02  0.7546771E-02  0.1443824E+00
         21   -1    0    0  504  501  0.00000000000E+00  0.00000000000E+00  0.57264468536E+01  0.57264468536E+01  0.00000000000E+00 0.  1.
         21   -1    0    0  503  502 -0.00000000000E+00 -0.00000000000E+00 -0.15176846036E+03  0.15176846036E+03  0.00000000000E+00 0.  1.
         21    1    1    2  503  501  0.23282449457E+02  0.14408846482E+02 -0.43832121525E+02  0.51681158917E+02  0.00000000000E+00 0.  1.
         21    1    1    2  504  502 -0.23282449457E+02 -0.14408846482E+02 -0.10220989199E+03  0.10581374830E+03  0.00000000000E+00 0.  1.
</event>
<event>
 4    1  0.1679763E+006  0.2015029E+02  0.7546771E-02  0.1531751E+00
         21   -1    0    0  504  501  0.00000000000E+00  0.00000000000E+00  0.78553081727E+01  0.78553081727E+01  0.00000000000E+00 0.  1.
         21   -1    0    0  503  502 -0.00000000000E+00 -0.00000000000E+00 -0.70707143019E+02  0.70707143019E+02  0.00000000000E+00 0. -1.
         21    1    1    2  503  501 -0.18455548047E+02  0.80886980176E+01 -0.11053826759E+02  0.22983067144E+02  0.00000000000E+00 0.  1.
         21    1    1    2  504  502  0.18455548047E+02 -0.80886980176E+01 -0.51798008088E+02  0.55579384048E+02  0.00000000000E+00 0. -1.
</event>
<event>
 4    1  0.1679763E+006  0.2525785E+02  0.7546771E-02  0.1465939E+00
         21   -1    0    0  502  501  0.00000000000E+00  0.00000000000E+00  0.23967589668E+02  0.23967589668E+02  0.00000000000E+00 0.  1.
         21   -1    0    0  503  502 -0.00000000000E+00 -0.00000000000E+00 -0.11526175375E+03  0.11526175375E+03  0.00000000000E+00 0.  1.
         21    1    1    2  503  504 -0.12107503103E+02 -0.22166810501E+02 -0.10669674601E+03  0.10964558691E+03  0.00000000000E+00 0.  1.
         21    1    1    2  504  501  0.12107503103E+02  0.22166810501E+02  0.15402581929E+02  0.29583756510E+02  0.00000000000E+00 0.  1.
</event>
<event>
 4    1  0.1679763E+006  0.3462899E+02  0.7546771E-02  0.1383190E+00
         21   -1    0    0  503  501  0.00000000000E+00  0.00000000000E+00  0.25315845629E+01  0.25315845629E+01  0.00000000000E+00 0.  1.
         21   -1    0    0  504  502 -0.00000000000E+00 -0.00000000000E+00 -0.63181369018E+03  0.63181369018E+03  0.00000000000E+00 0.  1.
         21    1    1    2  503  502  0.27873931243E+02 -0.20547764559E+02 -0.47331671189E+03  0.47458179108E+03  0.00000000000E+00 0.  1.
         21    1    1    2  504  501 -0.27873931243E+02  0.20547764559E+02 -0.15596539372E+03  0.15976348366E+03  0.00000000000E+00 0.  1.
</event>
<event>
 4    1  0.1679763E+006  0.2967075E+02  0.7546771E-02  0.1422480E+00
         21   -1    0    0  503  501  0.00000000000E+00  0.00000000000E+00  0.49697726438E+02  0.49697726438E+02  0.00000000000E+00 0.  1.
         21   -1    0    0  504  502 -0.00000000000E+00 -0.00000000000E+00 -0.43333636775E+03  0.43333636775E+03  0.00000000000E+00 0.  1.
         21    1    1    2  503  502 -0.17009568895E+02  0.24311063717E+02  0.44709788244E+02  0.53659280818E+02  0.00000000000E+00 0.  1.
         21    1    1    2  504  501  0.17009568895E+02 -0.24311063717E+02 -0.42834842956E+03  0.42937481337E+03  0.00000000000E+00 0.  1.
</event>
<event>
 4    1  0.1679763E+006  0.2322385E+02  0.7546771E-02  0.1489706E+00
         21   -1    0    0  502  501  0.00000000000E+00  0.00000000000E+00  0.23943326731E+03  0.23943326731E+03  0.00000000000E+00 0.  1.
         21   -1    0    0  503  502 -0.00000000000E+00 -0.00000000000E+00 -0.12998965683E+02  0.12998965683E+02  0.00000000000E+00 0.  1.
         21    1    1    2  503  504  0.17982516148E+02  0.14696131806E+02 -0.15430340487E+01  0.23275053838E+02  0.00000000000E+00 0.  1.
         21    1    1    2  504  501 -0.17982516148E+02 -0.14696131806E+02  0.22797733568E+03  0.22915717916E+03  0.00000000000E+00 0.  1.
</event>
<event>
 4    1  0.1679763E+006  0.7264847E+02  0.7546771E-02  0.1222027E+00
         21   -1    0    0  503  501  0.00000000000E+00  0.00000000000E+00  0.27840263762E+02  0.27840263762E+02  0.00000000000E+00 0. -1.
         21   -1    0    0  504  502 -0.00000000000E+00 -0.00000000000E+00 -0.18958213860E+03  0.18958213860E+03  0.00000000000E+00 0. -1.
         21    1    1    2  503  502  0.64124732739E+02  0.34144088457E+02 -0.81567380917E+02  0.10922928982E+03  0.00000000000E+00 0. -1.
         21    1    1    2  504  501 -0.64124732739E+02 -0.34144088457E+02 -0.80174493922E+02  0.10819311254E+03  0.00000000000E+00 0. -1.
</event>
<event>
 4    1  0.1679763E+006  0.2035085E+02  0.7546771E-02  0.1528738E+00
         21   -1    0    0  504  501  0.00000000000E+00  0.00000000000E+00  0.81180079825E+02  0.81180079825E+02  0.00000000000E+00 0.  1.
         21   -1    0    0  501  502 -0.00000000000E+00 -0.00000000000E+00 -0.41284089876E+03  0.41284089876E+03  0.00000000000E+00 0. -1.
         21    1    1    2  503  502  0.18951784626E+02 -0.74153118216E+01 -0.41130993055E+03  0.41181308376E+03  0.00000000000E+00 0. -1.
         21    1    1    2  504  503 -0.18951784626E+02  0.74153118216E+01  0.79649111615E+02  0.82207894821E+02  0.00000000000E+00 0.  1.
</event>
<event>
 4    1  0.1679763E+006  0.2052170E+02  0.7546771E-02  0.1526204E+00
         21   -1    0    0  503  501  0.00000000000E+00  0.00000000000E+00  0.17643238149E+03  0.17643238149E+03  0.00000000000E+00 0. -1.
         21   -1    0    0  504  502 -0.00000000000E+00 -0.00000000000E+00 -0.29276398626E+01  0.29276398626E+01  0.00000000000E+00 0. -1.
         21    1    1    2  503  502 -0.34132493341E+01 -0.20235860496E+02  0.12529128263E+03  0.12696080428E+03  0.00000000000E+00 0. -1.
         21    1    1    2  504  501  0.34132493341E+01  0.20235860496E+02  0.48213458997E+02  0.52399217069E+02  0.00000000000E+00 0. -1.
</event>
<event>
 4    1  0.1679763E+006  0.2575754E+02  0.7546771E-02  0.1460504E+00
         21   -1    0    0  504  501  0.00000000000E+00  0.00000000000E+00  0.92081599133E+03  0.92081599133E+03  0.00000000000E+00 0. -1.
         21   -1    0    0  501  502 -0.00000000000E+00 -0.00000000000E+00 -0.28124641755E+01  0.28124641755E+01  0.00000000000E+00 0. -1.
         21    1    1    2  503  502  0.25264615925E+02  0.50150065545E+01  0.60710691666E+02  0.65948761862E+02  0.00000000000E+00 0. -1.
         21    1    1    2  504  503 -0.25264615925E+02 -0.50150065545E+01  0.85729283549E+03  0.85767969365E+03  0.00000000000E+00 0. -1.
</event>
<event>
 4    1  0.1679763E+006  0.2092431E+02  0.7546771E-02  0.1520348E+00
         21   -1    0    0  503  501  0.00000000000E+00  0.00000000000E+00  0.29918289513E+02  0.29918289513E+02  0.00000000000E+00 0. -1.
         21   -1    0    0  504  502 -0.00000000000E+00 -0.00000000000E+00 -0.52920682753E+03  0.52920682753E+03  0.00000000000E+00 0. -1.
         21    1    1    2  503  502  0.11231207921E+02 -0.17654655352E+02  0.26025837803E+02  0.33394177940E+02  0.00000000000E+00 0. -1.
         21    1    1    2  504  501 -0.11231207921E+02  0.17654655352E+02 -0.52531437582E+03  0.52573093911E+03  0.00000000000E+00 0. -1.
</event>
<event>
 4    1  0.1679763E+006  0.2367304E+02  0.7546771E-02  0.1484215E+00
         21   -1    0    0  503  501  0.00000000000E+00  0.00000000000E+00  0.25450732548E+02  0.25450732548E+02  0.00000000000E+00 0.  1.
         21   -1    0    0  504  502 -0.00000000000E+00 -0.00000000000E+00 -0.78265854292E+02  0.78265854292E+02  0.00000000000E+00 0.  1.
         21    1    1    2  503  502  0.23463388772E+02  0.31435950270E+01  0.17554615523E+02  0.29471636000E+02  0.00000000000E+00 0.  1.
         21    1    1    2  504  501 -0.23463388772E+02 -0.31435950270E+01 -0.70369737266E+02  0.74244950840E+02  0.00000000000E+00 0.  1.
</event>
<event>
 4    1  0.1679763E+006  0.2350728E+02  0.7546771E-02  0.1486225E+00
         21   -1    0    0  503  501  0.00000000000E+00  0.00000000000E+00  0.26861697350E+03  0.26861697350E+03  0.00000000000E+00 0.  1.
         21   -1    0    0  504  502 -0.00000000000E+00 -0.00000000000E+00 -0.38223062571E+01  0.38223062571E+01  0.00000000000E+00 0.  1.
         21    1    1    2  503  502 -0.20352987888E+02  0.11762152135E+02  0.22496629496E+03  0.22619112761E+03  0.00000000000E+00 0.  1.
         21    1    1    2  504  501  0.20352987888E+02 -0.11762152135E+02  0.39828372279E+02  0.46248152149E+02  0.00000000000E+00 0.  1.
</event>
<event>
 4    1  0.1679763E+006  0.3575148E+02  0.7546771E-02  0.1375356E+00
         21   -1    0    0  504  501  0.00000000000E+00  0.00000000000E+00  0.97064509868E+01  0.97064509868E+01  0.00000000000E+00 0.  1.
         21   -1    0    0  503  502 -0.00000000000E+00 -0.00000000000E+00 -0.15586256576E+03  0.15586256576E+03  0.00000000000E+00 0.  1.
         21    1    1    2  503  501  0.33481886127E+02  0.12535228397E+02 -0.10568483667E+03  0.11156815564E+03  0.00000000000E+00 0.  1.
         21    1    1    2  504  502 -0.33481886127E+02 -0.12535228397E+02 -0.40471278101E+02  0.54000861111E+02  0.00000000000E+00 0.  1.
</event>
<event>
 4    1  0.1679763E+006  0.2433560E+02  0.7546771E-02  0.1476375E+00
         21   -1    0    0  504  501  0.00000000000E+00  0.00000000000E+00  0.31797376467E+03  0.31797376467E+03  0.00000000000E+00 0. -1.
         21   -1    0    0  503  502 -0.00000000000E+00 -0.00000000000E+00 -0.94868240896E+01  0.94868240896E+01  0.00000000000E+00 0.  1.
         21    1    1    2  503  501 -0.95588671721E+01 -0.22379670556E+02  0.30102442221E+03  0.30200649722E+03  0.00000000000E+00 0. -1.
         21    1    1    2  504  502  0.95588671721E+01  0.22379670556E+02  0.74625183737E+01  0.25454091544E+02  0.00000000000E+00 0.  1.
</event>
<event>
 4    1  0.1679763E+006  0.3811043E+02  0.7546771E-02  0.1359929E+00
         21   -1    0    0  502  501  0.00000000000E+00  0.00000000000E+00  0.49300569565E+01  0.49300569565E+01  0.00000000000E+00 0.  1.
         21   -1    0    0  503  502 -0.00000000000E+00 -0.00000000000E+00 -0.40510634376E+03  0.40510634376E+03  0.00000000000E+00 0.  1.
         21    1    1    2  503  504 -0.21878226781E+02  0.31204940383E+02 -0.30716543601E+03  0.30952061352E+03  0.00000000000E+00 0.  1.
         21    1    1    2  504  501  0.21878226781E+02 -0.31204940383E+02 -0.93010850789E+02  0.10051578720E+03  0.00000000000E+00 0.  1.
</event>
<event>
 4    1  0.1679763E+006  0.2044212E+02  0.7546771E-02  0.1527381E+00
         21   -1    0    0  504  501  0.00000000000E+00  0.00000000000E+00  0.24789319919E+03  0.24789319919E+03  0.00000000000E+00 0. -1.
         21   -1    0    0  503  502 -0.00000000000E+00 -0.00000000000E+00 -0.65532422934E+02  0.65532422934E+02  0.00000000000E+00 0. -1.
         21    1    1    2  503  501 -0.14883478262E+02 -0.14012933817E+02  0.24586446226E+03  0.24671281694E+03  0.00000000000E+00 0. -1.
         21    1    1    2  504  502  0.14883478262E+02  0.14012933817E+02 -0.63503686005E+02  0.66712805184E+02  0.00000000000E+00 0. -1.
</event>
<event>
 4    1  0.1679763E+006  0.2812065E+02  0.7546771E-02  0.1436664E+00
         21   -1    0    0  502  501  0.00000000000E+00  0.00000000000E+00  0.37940361831E+01  0.37940361831E+01  0.00000000000E+00 0.  1.
         21   -1    0    0  504  502 -0.00000000000E+00 -0.00000000000E+00 -0.43805221824E+03  0.43805221824E+03  0.00000000000E+00 0. -1.
         21    1    1    2  503  501  0.24881685850E+02 -0.13102400741E+02 -0.57176926746E+02  0.63717910732E+02  0.00000000000E+00 0.  1.
         21    1    1    2  504  503 -0.24881685850E+02  0.13102400741E+02 -0.37708125532E+03  0.37812834370E+03  0.00000000000E+00 0. -1.
</event>
<event>
 4    1  0.1679763E+006  0.3035001E+02  0.7546771E-02  0.1416579E+00
         21   -1    0    0  503  501  0.00000000000E+00  0.00000000000E+00  0.17861921008E+02  0.17861921008E+02  0.00000000000E+00 0.  1.
         21   -1    0    0  501  502 -0.00000000000E+00 -0.00000000000E+00 -0.12411505560E+03  0.12411505560E+03  0.00000000000E+00 0. -1.
         21    1    1    2  503  504  0.27953235773E+02  0.11821143766E+02  0.11462489836E+01  0.30371643302E+02  0.00000000000E+00 0.  1.
         21    1    1    2  504  502 -0.27953235773E+02 -0.11821143766E+02 -0.10739938357E+03  0.11160533331E+03  0.00000000000E+00 0. -1.
</event>
<event>
 4    1  0.1679763E+006  0.2066570E+02  0.7546771E-02  0.1524092E+00
         21   -1    0    0  503  501  0.00000000000E+00  0.00000000000E+00  0.35545446955E+02  0.35545446955E+02  0.00000000000E+00 0. -1.
         21   -1    0    0  504  502 -0.00000000000E+00 -0.00000000000E+00 -0.86070496517E+02  0.86070496517E+02  0.00000000000E+00 0. -1.
         21    1    1    2  503  502  0.18850094929E+02  0.84702455517E+01  0.31141828431E+02  0.37374919619E+02  0.00000000000E+00 0. -1.
         21    1    1    2  504  501 -0.18850094929E+02 -0.84702455517E+01 -0.81666877993E+02  0.84241023852E+02  0.00000000000E+00 0. -1.
</event>
<event>
 4    1  0.1679763E+006  0.3033624E+02  0.7546771E-02  0.1416697E+00
         21   -1    0    0  504  501  0.00000000000E+00  0.00000000000E+00  0.10118870378E+03  0.10118870378E+03  0.00000000000E+00 0. -1.
         21   -1    0    0  501  502 -0.00000000000E+00 -0.00000000000E+00 -0.11881096983E+03  0.11881096983E+03  0.00000000000E+00 0. -1.
         21    1    1    2  503  502  0.29644655289E+02 -0.64406536490E+01 -0.11451701549E+03  0.11846701838E+03  0.00000000000E+00 0. -1.
         21    1    1    2  504  503 -0.29644655289E+02  0.64406536490E+01  0.96894749449E+02  0.10153265523E+03  0.00000000000E+00 0. -1.
</event>
<event>
 4    1  0.1679763E+006  0.2726296E+02  0.7546771E-02  0.1444984E+00
         21   -1    0    0  502  501  0.00000000000E+00  0.00000000000E+00  0.36285095217E+01  0.36285095217E+01  0.00000000000E+00 0. -1.
         21   -1    0    0  503  502 -0.00000000000E+00 -0.00000000000E+00 -0.55280948164E+03  0.55280948164E+03  0.00000000000E+00 0.  1.
         21    1    1    2  503  504 -0.19787417255E+02 -0.18754388569E+02 -0.49532423573E+03  0.49607395363E+03  0.00000000000E+00 0.  1.
         21    1    1    2  504  501  0.19787417255E+02  0.18754388569E+02 -0.53856736385E+02  0.60364037524E+02  0.00000000000E+00 0. -1.
</event>
<event>
 4    1  0.1679763E+006  0.5708357E+02  0.7546771E-02  0.1270077E+00
         21   -1    0    0  504  501  0.00000000000E+00  0.00000000000E+00  0.20832995967E+02  0.20832995967E+02  0.00000000000E+00 0. -1.
         21   -1    0    0  501  502 -0.00000000000E+00 -0.00000000000E+00 -0.26623784971E+03  0.26623784971E+03  0.00000000000E+00 0. -1.
         21    1    1    2  503  502 -0.45411342301E+02 -0.34588205927E+02 -0.21489080079E+03  0.22234340616E+03  0.00000000000E+00 0. -1.
         21    1    1    2  504  503  0.45411342301E+02  0.34588205927E+02 -0.30514052954E+02  0.64727439517E+02  0.00000000000E+00 0. -1.
</event>
<event>
 4    1  0.1679763E+006  0.2763438E+02  0.7546771E-02  0.1441338E+00
         21   -1    0    0  504  501  0.00000000000E+00  0.00000000000E+00  0.15274024863E+03  0.15274024863E+03  0.00000000000E+00 0. -1.
         21   -1    0    0  503  502 -0.00000000000E+00 -0.00000000000E+00 -0.35057428393E+02  0.35057428393E+02  0.00000000000E+00 0. -1.
         21    1    1    2  503  501 -0.20029266709E+02  0.19039096967E+02 -0.28104290903E+02  0.39414590007E+02  0.00000000000E+00 0. -1.
         21    1    1    2  504  502  0.20029266709E+02 -0.19039096967E+02  0.14578711114E+03  0.14838308702E+03  0.00000000000E+00 0. -1.
</event>
<event>
 4    1  0.1679763E+006  0.3154181E+02  0.7546771E-02  0.1406655E+00
         21   -1    0    0  502  501  0.00000000000E+00  0.00000000000E+00  0.78352416367E+02  0.78352416367E+02  0.00000000000E+00 0.  1.
         21   -1    0    0  504  502 -0.00000000000E+00 -0.00000000000E+00 -0.11584508511E+03  0.11584508511E+03  0.00000000000E+00 0.  1.
         21    1    1    2  503  501 -0.25753558171E+02  0.18210988768E+02  0.72876601832E+02  0.79409602473E+02  0.00000000000E+00 0.  1.
         21    1    1    2  504  503  0.25753558171E+02 -0.18210988768E+02 -0.11036927057E+03  0.11478789900E+03  0.00000000000E+00 0.  1.
</event>
<event>
 4    1  0.1679763E+006  0.2566903E+02  0.7546771E-02  0.1461456E+00
         21   -1    0    0  504  501  0.00000000000E+00  0.00000000000E+00  0.40239446958E+03  0.40239446958E+03  0.00000000000E+00 0.  1.
         21   -1    0    0  501  502 -0.00000000000E+00 -0.00000000000E+00 -0.28617329070E+01  0.28617329070E+01  0.00000000000E+00 0. -1.
         21    1    1    2  503  502 -0.16062399595E+02  0.20022453958E+02  0.67232561717E+02  0.71966080193E+02  0.00000000000E+00 0. -1.
         21    1    1    2  504  503  0.16062399595E+02 -0.20022453958E+02  0.33230017496E+03  0.33329012230E+03  0.00000000000E+00 0.  1.
</event>
<event>
 4    1  0.1679763E+006  0.2423369E+02  0.7546771E-02  0.1477562E+00
         21   -1    0    0  503  501  0.00000000000E+00  0.00000000000E+00  0.12535026845E+03  0.12535026845E+03  0.00000000000E+00 0.  1.
         21   -1    0    0  504  502 -0.00000000000E+00 -0.00000000000E+00 -0.78966042910E+01  0.78966042910E+01  0.00000000000E+00 0.  1.
         21    1    1    2  503  502  0.73187299296E+01 -0.23102120827E+02  0.10121468011E+03  0.10407537300E+03  0.00000000000E+00 0.  1.
         21    1    1    2  504  501 -0.73187299296E+01  0.23102120827E+02  0.16238984050E+02  0.29171499746E+02  0.00000000000E+00 0.  1.
</event>
<event>
 4    1  0.1679763E+006  0.2418415E+02  0.7546771E-02  0.1478141E+00
         21   -1    0    0  502  501  0.00000000000E+00  0.00000000000E+00  0.87746417260E+02  0.87746417260E+02  0.00000000000E+00 0.  1.
         21   -1    0    0  503  502 -0.00000000000E+00 -0.00000000000E+00 -0.18091280326E+02  0.18091280326E+02  0.00000000000E+00 0.  1.
         21    1    1    2  503  504 -0.24096929200E+02  0.20520872404E+01 -0.72275460364E+01  0.25241047534E+02  0.00000000000E+00 0.  1.
         21    1    1    2  504  501  0.24096929200E+02 -0.20520872404E+01  0.76882682970E+02  0.80596650052E+02  0.00000000000E+00 0.  1.
</event>
<event>
 4    1  0.1679763E+006  0.2835002E+02  0.7546771E-02  0.1434499E+00
         21   -1    0    0  502  501  0.00000000000E+00  0.00000000000E+00  0.10658999829E+02  0.10658999829E+02  0.00000000000E+00 0.  1.
         21   -1    0    0  504  502 -0.00000000000E+00 -0.00000000000E+00 -0.82718518378E+02  0.82718518378E+02  0.00000000000E+00 0. -1.
         21    1    1    2  503  501  0.22230304487E+02 -0.17593670387E+02 -0.22145431857E+02  0.35974210588E+02  0.00000000000E+00 0.  1.
         21    1    1    2  504  503 -0.22230304487E+02  0.17593670387E+02 -0.49914086692E+02  0.57403307619E+02  0.00000000000E+00 0. -1.
</event>
<event>
 4    1  0.1679763E+006  0.3104813E+02  0.7546771E-02  0.1410702E+00
         21   -1    0    0  504  501  0.00000000000E+00  0.00000000000E+00  0.10750036639E+03  0.10750036639E+03  0.00000000000E+00 0. -1.
         21   -1    0    0  501  502 -0.00000000000E+00 -0.00000000000E+00 -0.15416101605E+03  0.15416101605E+03  0.00000000000E+00 0.  1.
         21    1    1    2  503  502 -0.29879883144E+02  0.84367494298E+01 -0.15029891296E+03  0.15347230824E+03  0.00000000000E+00 0.  1.
         21    1    1    2  504  503  0.29879883144E+02 -0.84367494298E+01  0.10363826330E+03  0.10818907421E+03  0.00000000000E+00 0. -1.
</event>
<event>
 4    1  0.1679763E+006  0.2257820E+02  0.7546771E-02  0.1497864E+00
         21   -1    0    0  503  501  0.00000000000E+00  0.00000000000E+00  0.99238697180E+01  0.99238697180E+01  0.00000000000E+00 0. -1.
         21   -1    0    0  504  502 -0.00000000000E+00 -0.00000000000E+00 -0.10826187922E+03  0.10826187922E+03  0.00000000000E+00 0. -1.
         21    1    1    2  503  502 -0.22544850843E+02  0.12266443434E+01 -0.63311268605E+01  0.23449053781E+02  0.00000000000E+00 0. -1.
         21    1    1    2  504  501  0.22544850843E+02 -0.12266443434E+01 -0.92006882637E+02  0.94736695152E+02  0.00000000000E+00 0. -1.
</event>
<event>
 4    1  0.1679763E+006  0.2566377E+02  0.7546771E-02  0.1461513E+00
         21   -1    0    0  503  501  0.00000000000E+00  0.00000000000E+00  0.99675840637E+02  0.99675840637E+02  0.00000000000E+00 0. -1.
         21   -1    0    0  504  502 -0.00000000000E+00 -0.00000000000E+00 -0.68832353921E+01  0.68832353921E+01  0.00000000000E+00 0. -1.
         21    1    1    2  503  502 -0.28662842922E+01  0.25503205382E+02  0.57055997759E+02  0.62562096757E+02  0.00000000000E+00 0. -1.
         21    1    1    2  504  501  0.28662842922E+01 -0.25503205382E+02  0.35736607486E+02  0.43996979271E+02  0.00000000000E+00 0. -1.
</event>
<event>
 4    1  0.1679763E+006  0.2214502E+02  0.7546771E-02  0.1503523E+00
         21   -1    0    0  502  501  0.00000000000E+00  0.00000000000E+00  0.53832175774E+02  0.53832175774E+02  0.00000000000E+00 0. -1.
         21   -1    0    0  504  502 -0.00000000000E+00 -0.00000000000E+00 -0.95605139170E+02  0.95605139170E+02  0.00000000000E+00 0.  1.
         21    1    1    2  503  501  0.70561627246E+01 -0.20990773054E+02  0.50183256875E+02  0.54852176405E+02  0.00000000000E+00 0. -1.
         21    1    1    2  504  503 -0.70561627246E+01  0.20990773054E+02 -0.91956220271E+02  0.94585138538E+02  0.00000000000E+00 0.  1.
</event>
<event>
 4    1  0.1679763E+006  0.2252384E+02  0.7546771E-02  0.1498565E+00
         21   -1    0    0  503  501  0.00000000000E+00  0.00000000000E+00  0.28903182114E+01  0.28903182114E+01  0.00000000000E+00 0.  1.
         21   -1    0    0  504  502 -0.00000000000E+00 -0.00000000000E+00 -0.18870523897E+03  0.18870523897E+03  0.00000000000E+00 0.  1.
         21    1    1    2  503  502  0.71419474443E+01  0.21361549495E+02 -0.67589745921E+02  0.71243925803E+02  0.00000000000E+00 0.  1.
         21    1    1    2  504  501 -0.71419474443E+01 -0.21361549495E+02 -0.11822517484E+03  0.12035163138E+03  0.00000000000E+00 0.  1.
</event>
<event>
 4    1  0.1679763E+006  0.2780815E+02  0.7546771E-02  0.1439655E+00
         21   -1    0    0  504  501  0.00000000000E+00  0.00000000000E+00  0.21149308640E+02  0.21149308640E+02  0.00000000000E+00 0. -1.
         21   -1    0    0  501  502 -0.00000000000E+00 -0.00000000000E+00 -0.99403150471E+02  0.99403150471E+02  0.00000000000E+00 0.  1.
         21    1    1    2  503  502 -0.25940500500E+02 -0.10019160985E+02 -0.87051997721E+02  0.91385685204E+02  0.00000000000E+00 0.  1.
         21    1    1    2  504  503  0.25940500500E+02  0.10019160985E+02  0.87981558899E+01  0.29166773906E+02  0.00000000000E+00 0. -1.
</event>
<event>
 4    1  0.1679763E+006  0.2208323E+02  0.7546771E-02  0.1504342E+00
         21   -1    0    0  502  501  0.00000000000E+00  0.00000000000E+00  0.22424270524E+02  0.22424270524E+02  0.00000000000E+00 0. -1.
         21   -1    0    0  503  502 -0.00000000000E+00 -0.00000000000E+00 -0.25234627272E+03  0.25234627272E+03  0.00000000000E+00 0. -1.
         21    1    1    2  503  504  0.51616625784E+00 -0.22077194869E+02 -0.24629293684E+03  0.24728097319E+03  0.00000000000E+00 0. -1.
         21    1    1    2  504  501 -0.51616625784E+00  0.22077194869E+02  0.16370934646E+02  0.27489570060E+02  0.00000000000E+00 0. -1.
</event>
<event>
 4    1  0.1679763E+006  0.2506145E+02  0.7546771E-02  0.1468117E+00
         21   -1    0    0  504  501  0.00000000000E+00  0.00000000000E+00  0.90810703527E+02  0.90810703527E+02  0.00000000000E+00 0. -1.
         21   -1    0    0  503  502 -0.00000000000E+00 -0.00000000000E+00 -0.18210664895E+02  0.18210664895E+02  0.00000000000E+00 0.  1.
         21    1    1    2  503  501 -0.95925028670E+01  0.23152974922E+02  0.79228859416E+02  0.83098065702E+02  0.00000000000E+00 0. -1.
         21    1    1    2  504  502  0.95925028670E+01 -0.23152974922E+02 -0.66288207840E+01  0.25923302721E+02  0.00000000000E+00 0.  1.
</event>
<event>
 4    1  0.1679763E+006  0.2132894E+02  0.7546771E-02  0.1514620E+00
         21   -1    0    0  502  501  0.00000000000E+00  0.00000000000E+00  0.41697203403E+03  0.41697203403E+03  0.00000000000E+00 0.  1.
         21   -1    0    0  504  502 -0.00000000000E+00 -0.00000000000E+00 -0.34940745370E+02  0.34940745370E+02  0.00000000000E+00 0.  1.
         21    1    1    2  503  501 -0.16247688104E+02  0.13817968813E+02  0.41341633804E+03  0.41396617276E+03  0.00000000000E+00 0.  1.
         21    1    1    2  504  503  0.16247688104E+02 -0.13817968813E+02 -0.31385049380E+02  0.37946606639E+02  0.00000000000E+00 0.  1.
</event>
<event>
 4    1  0.1679763E+006  0.3641510E+02  0.7546771E-02  0.1370878E+00
         21   -1    0    0  502  501  0.00000000000E+00  0.00000000000E+00  0.88395562494E+03  0.88395562494E+03  0.00000000000E+00 0.  1.
         21   -1    0    0  503  502 -0.00000000000E+00 -0.00000000000E+00 -0.74228857563E+02  0.74228857563E+02  0.00000000000E+00 0. -1.
         21    1    1    2  503  504 -0.48531132979E+01 -0.36090261342E+02 -0.69362992871E+02  0.78340822388E+02  0.00000000000E+00 0. -1.
         21    1    1    2  504  501  0.48531132979E+01  0.36090261342E+02  0.87908976025E+03  0.87984366011E+03  0.00000000000E+00 0.  1.
</event>
<event>
 4    1  0.1679763E+006  0.2477114E+02  0.7546771E-02  0.1471380E+00
         21   -1    0    0  502  501  0.00000000000E+00  0.00000000000E+00  0.15041100952E+02  0.15041100952E+02  0.00000000000E+00 0. -1.
         21   -1    0    0  504  502 -0.00000000000E+00 -0.00000000000E+00 -0.50292985244E+02  0.50292985244E+02  0.00000000000E+00 0. -1.
         21    1    1    2  503  501 -0.43824306156E+01 -0.24380395718E+02 -0.34301317791E+01  0.25007502824E+02  0.00000000000E+00 0. -1.
         21    1    1    2  504  503  0.43824306156E+01  0.24380395718E+02 -0.31821752513E+02  0.40326583372E+02  0.00000000000E+00 0. -1.
</event>
<event>
 4    1  0.1679763E+006  0.2240546E+02  0.7546771E-02  0.1500102E+00
         21   -1    0    0  504  501  0.00000000000E+00  0.00000000000E+00  0.55090660827E+01  0.55090660827E+01  0.00000000000E+00 0. -1.
         21   -1    0    0  501  502 -0.00000000000E+00 -0.00000000000E+00 -0.27084515693E+03  0.27084515693E+03  0.00000000000E+00 0. -1.
         21    1    1    2  503  502  0.76969951680E+01 -0.21041888434E+02 -0.24522592597E+03  0.24624735445E+03  0.00000000000E+00 0. -1.
         21    1    1    2  504  503 -0.76969951680E+01  0.21041888434E+02 -0.20110164875E+02  0.30106868565E+02  0.00000000000E+00 0. -1.
</event>
<event>
 4    1  0.1679763E+006  0.3676246E+02  0.7546771E-02  0.1368579E+00
         21   -1    0    0  503  501  0.00000000000E+00  0.00000000000E+00  0.71527533480E+03  0.71527533480E+03  0.00000000000E+00 0.  1.
         21   -1    0    0  501  502 -0.00000000000E+00 -0.00000000000E+00 -0.29013934399E+01  0.29013934399E+01  0.00000000000E+00 0.  1.
         21    1    1    2  503  504  0.34097385401E+02 -0.13742149148E+02  0.56825525745E+03  0.56944316308E+03  0.00000000000E+00 0.  1.
         21    1    1    2  504  502 -0.34097385401E+02  0.13742149148E+02  0.14411868391E+03  0.14873356516E+03  0.00000000000E+00 0.  1.
</event>
<event>
 4    1  0.1679763E+006  0.2120328E+02  0.7546771E-02  0.1516382E+00
         21   -1    0    0  503  501  0.00000000000E+00  0.00000000000E+00  0.36042707248E+00  0.36042707248E+00  0.00000000000E+00 0.  1.
         21   -1    0    0  504  502 -0.00000000000E+00 -0.00000000000E+00 -0.12498875940E+04  0.12498875940E+04  0.00000000000E+00 0.  1.
         21    1    1    2  503  502  0.18668877467E+02 -0.10052461945E+02 -0.59660063703E+03  0.59697730198E+03  0.00000000000E+00 0.  1.
         21    1    1    2  504  501 -0.18668877467E+02  0.10052461945E+02 -0.65292652986E+03  0.65327071905E+03  0.00000000000E+00 0.  1.
</event>
<event>
 4    1  0.1679763E+006  0.2341269E+02  0.7546771E-02  0.1487380E+00
         21   -1    0    0  504  501  0.00000000000E+00  0.00000000000E+00  0.82477882663E+00  0.82477882663E+00  0.00000000000E+00 0. -1.
         21   -1    0    0  503  502 -0.00000000000E+00 -0.00000000000E+00 -0.77385676089E+03  0.77385676089E+03  0.00000000000E+00 0.  1.
         21    1    1    2  503  501  0.24687608437E+01 -0.23282163810E+02 -0.53205278597E+03  0.53256766799E+03  0.00000000000E+00 0.  1.
         21    1    1    2  504  502 -0.24687608437E+01  0.23282163810E+02 -0.24097919609E+03  0.24211387173E+03  0.00000000000E+00 0. -1.
</event>
<event>
 4    1  0.1679763E+006  0.2001132E+02  0.7546771E-02  0.1533863E+00
         21   -1    0    0  504  501  0.00000000000E+00  0.00000000000E+00  0.21783811621E+03  0.21783811621E+03  0.00000000000E+00 0.  1.
         21   -1    0    0  501  502 -0.00000000000E+00 -0.00000000000E+00 -0.15406873641E+02  0.15406873641E+02  0.00000000000E+00 0.  1.
         21    1    1    2  503  502  0.95617542512E+01 -0.17579134207E+02 -0.82284072515E+01  0.21637000479E+02  0.00000000000E+00 0.  1.
         21    1    1    2  504  503 -0.95617542512E+01  0.17579134207E+02  0.21065964982E+03  0.21160798938E+03  0.00000000000E+00 0.  1.
</event>
<event>
 4    1  0.1679763E+006  0.2425305E+02  0.7546771E-02  0.1477336E+00
         21   -1    0    0  503  501  0.00000000000E+00  0.00000000000E+00  0.17733256280E+03  0.17733256280E+03  0.00000000000E+00 0.  1.
         21   -1    0    0  504  502 -0.00000000000E+00 -0.00000000000E+00 -0.76565857254E+02  0.76565857254E+02  0.00000000000E+00 0.  1.
         21    1    1    2  503  502  0.13864938170E+02 -0.19899098158E+02  0.17455226594E+03  0.17622912405E+03  0.00000000000E+00 0.  1.
         21    1    1    2  504  501 -0.13864938170E+02  0.19899098158E+02 -0.73785560399E+02  0.77669296001E+02  0.00000000000E+00 0.  1.
</event>
<event>
 4    1  0.1679763E+006  0.3166788E+02  0.7546771E-02  0.1405636E+00
         21   -1    0    0  504  501  0.00000000000E+00  0.00000000000E+00  0.13924379445E+02  0.13924379445E+02  0.00000000000E+00 0.  1.
         21   -1    0    0  501  502 -0.00000000000E+00 -0.00000000000E+00 -0.10548457825E+03  0.10548457825E+03  0.00000000000E+00 0. -1.
         21    1    1    2  503  502  0.20227416832E+02 -0.24366089482E+02 -0.79407660023E+02  0.85489362957E+02  0.00000000000E+00 0. -1.
         21    1    1    2  504  503 -0.20227416832E+02  0.24366089482E+02 -0.12152538780E+02  0.33919594737E+02  0.00000000000E+00 0.  1.
</event>
<event>
 4    1  0.1679763E+006  0.2512013E+02  0.7546771E-02  0.1467464E+00
         21   -1    0    0  502  501  0.00000000000E+00  0.00000000000E+00  0.44724829264E+01  0.44724829264E+01  0.00000000000E+00 0.  1.
         21   -1    0    0  503  502 -0.00000000000E+00 -0.00000000000E+00 -0.30412488141E+03  0.30412488141E+03  0.00000000000E+00 0.  1.
         21    1    1    2  503  504 -0.12234559356E+02 -0.21939378248E+02 -0.26279982291E+03  0.26399766605E+03  0.00000000000E+00 0.  1.
         21    1    1    2  504  501  0.12234559356E+02  0.21939378248E+02 -0.36852575578E+02  0.44599698287E+02  0.00000000000E+00 0.  1.
</event>
<event>
 4    1  0.1679763E+006  0.3093294E+02  0.7546771E-02  0.1411659E+00
         21   -1    0    0  503  501  0.00000000000E+00  0.00000000000E+00  0.20165795769E+01  0.20165795769E+01  0.00000000000E+00 0.  1.
         21   -1    0    0  504  502 -0.00000000000E+00 -0.00000000000E+00 -0.12214883686E+04  0.12214883686E+04  0.00000000000E+00 0.  1.
         21    1    1    2  503  502 -0.17930504948E+02  0.25206027592E+02 -0.13133619913E+03  0.13492977446E+03  0.00000000000E+00 0.  1.
         21    1    1    2  504  501  0.17930504948E+02 -0.25206027592E+02 -0.10881355899E+04  0.10885751738E+04  0.00000000000E+00 0.  1.
</event>
<event>
 4    1  0.1679763E+006  0.2635835E+02  0.7546771E-02  0.1454162E+00
         21   -1    0    0  504  501  0.00000000000E+00  0.00000000000E+00  0.80958402844E+00  0.80958402844E+00  0.00000000000E+00 0.  1.
         21   -1    0    0  503  502 -0.00000000000E+00 -0.00000000000E+00 -0.14844236913E+04  0.14844236913E+04  0.00000000000E+00 0.  1.
         21    1    1    2  503  501  0.24431832667E+02  0.98918349515E+01 -0.12241544933E+04  0.12244382330E+04  0.00000000000E+00 0.  1.
         21    1    1    2  504  502 -0.24431832667E+02 -0.98918349515E+01 -0.25945961394E+03  0.26079504234E+03  0.00000000000E+00 0.  1.
</event>
<event>
 4    1  0.1679763E+006  0.3291949E+02  0.7546771E-02  0.1395811E+00
         21   -1    0    0  504  501  0.00000000000E+00  0.00000000000E+00  0.20969817279E+03  0.20969817279E+03  0.00000000000E+00 0. -1.
         21   -1    0    0  503  502 -0.00000000000E+00 -0.00000000000E+00 -0.51695594568E+01  0.51695594568E+01  0.00000000000E+00 0. -1.
         21    1    1    2  503  501 -0.31285848266E+02 -0.10241523108E+02  0.10420592872E+03  0.10928206018E+03  0.00000000000E+00 0. -1.
         21    1    1    2  504  502  0.31285848266E+02  0.10241523108E+02  0.10032268461E+03  0.10558567206E+03  0.00000000000E+00 0. -1.
</event>
<event>
 4    1  0.1679763E+006  0.2636115E+02  0.7546771E-02  0.1454133E+00
         21   -1    0    0  504  501  0.00000000000E+00  0.00000000000E+00  0.63460245930E+03  0.63460245930E+03  0.00000000000E+00 0. -1.
         21   -1    0    0  503  502 -0.00000000000E+00 -0.00000000000E+00 -0.75546381120E+02  0.75546381120E+02  0.00000000000E+00 0. -1.
         21    1    1    2  503  501  0.24690407800E+02  0.92354781779E+01  0.63201969306E+03  0.63256920785E+03  0.00000000000E+00 0. -1.
         21    1    1    2  504  502 -0.24690407800E+02 -0.92354781779E+01 -0.72963614880E+02  0.77579632578E+02  0.00000000000E+00 0. -1.
</event>
<event>
 4    1  0.1679763E+006  0.3114281E+02  0.7546771E-02  0.1409919E+00
         21   -1    0    0  502  501  0.00000000000E+00  0.00000000000E+00  0.22400491641E+04  0.22400491641E+04  0.00000000000E+00 0.  1.
         21   -1    0    0  503  502 -0.00000000000E+00 -0.00000000000E+00 -0.93464477957E+00  0.93464477957E+00  0.00000000000E+00 0.  1.
         21    1    1    2  503  504  0.27343848757E+02  0.14905984538E+02  0.29864546263E+03  0.30026486106E+03  0.00000000000E+00 0.  1.
         21    1    1    2  504  501 -0.27343848757E+02 -0.14905984538E+02  0.19404690567E+04  0.19407189478E+04  0.00000000000E+00 0.  1.
</event>
<event>
 4    1  0.1679763E+006  0.3317577E+02  0.7546771E-02  0.1393862E+00
         21   -1    0    0  504  501  0.00000000000E+00  0.00000000000E+00  0.88732382488E+02  0.88732382488E+02  0.00000000000E+00 0. -1.
         21   -1    0    0  503  502 -0.00000000000E+00 -0.00000000000E+00 -0.13584800310E+02  0.13584800310E+02  0.00000000000E+00 0.  1.
         21    1    1    2  503  501 -0.10190456066E+02  0.31571924108E+02  0.52656866027E+02  0.62236462998E+02  0.00000000000E+00 0. -1.
         21    1    1    2  504  502  0.10190456066E+02 -0.31571924108E+02  0.22490716151E+02  0.40080719800E+02  0.00000000000E+00 0.  1.
</event>
<event>
 4    1  0.1679763E+006  0.2067969E+02  0.7546771E-02  0.1523887E+00
         21   -1    0    0  504  501  0.00000000000E+00  0.00000000000E+00  0.14543460780E+03  0.14543460780E+03  0.00000000000E+00 0. -1.
         21   -1    0    0  503  502 -0.00000000000E+00 -0.00000000000E+00 -0.93361331267E+03  0.93361331267E+03  0.00000000000E+00 0.  1.
         21    1    1    2  503  501  0.57331520708E+01  0.19869089110E+02 -0.93276300418E+03  0.93299221417E+03  0.00000000000E+00 0.  1.
         21    1    1    2  504  502 -0.57331520708E+01 -0.19869089110E+02  0.14458429932E+03  0.14605570630E+03  0.00000000000E+00 0. -1.
</event>
<event>
 4    1  0.1679763E+006  0.2028432E+02  0.7546771E-02  0.1529733E+00
         21   -1    0    0  502  501  0.00000000000E+00  0.00000000000E+00  0.90251837939E+01  0.90251837939E+01  0.00000000000E+00 0. -1.
         21   -1    0    0  504  502 -0.00000000000E+00 -0.00000000000E+00 -0.47701411992E+02  0.47701411992E+02  0.00000000000E+00 0. -1.
         21    1    1    2  503  501 -0.19288264387E+02 -0.62782646374E+01 -0.13370132193E+02  0.24294324127E+02  0.00000000000E+00 0. -1.
         21    1    1    2  504  503  0.19288264387E+02  0.62782646374E+01 -0.25306096004E+02  0.32432271658E+02  0.00000000000E+00 0. -1.
</event>
<event>
 4    1  0.1679763E+006  0.2247564E+02  0.7546771E-02  0.1499190E+00
         21   -1    0    0  503  501  0.00000000000E+00  0.00000000000E+00  0.18265932156E+02  0.18265932156E+02  0.00000000000E+00 0. -1.
         21   -1    0    0  501  502 -0.00000000000E+00 -0.00000000000E+00 -0.38166726508E+02  0.38166726508E+02  0.00000000000E+00 0. -1.
         21    1    1    2  503  504  0.27328683168E+01  0.22308876837E+02  0.48571644409E+01  0.22994490674E+02  0.00000000000E+00 0. -1.
         21    1    1    2  504  502 -0.27328683168E+01 -0.22308876837E+02 -0.24757958793E+02  0.33438167990E+02  0.00000000000E+00 0. -1.
</event>
<event>
 4    1  0.1679763E+006  0.2166523E+02  0.7546771E-02  0.1509975E+00
         21   -1    0    0  502  501  0.00000000000E+00  0.00000000000E+00  0.43327621551E+02  0.43327621551E+02  0.00000000000E+00 0.  1.
         21   -1    0    0  504  502 -0.00000000000E+00 -0.00000000000E+00 -0.10512520573E+03  0.10512520573E+03  0.00000000000E+00 0.  1.
         21    1    1    2  503  501  0.10797850629E+02 -0.18782670286E+02  0.39399082271E+02  0.44962984388E+02  0.00000000000E+00 0.  1.
         21    1    1    2  504  503 -0.10797850629E+02  0.18782670286E+02 -0.10119666645E+03  0.10348984289E+03  0.00000000000E+00 0.  1.
</event>
<event>
 4    1  0.1679763E+006  0.6345751E+02  0.7546771E-02  0.1248517E+00
         21   -1    0    0  504  501  0.00000000000E+00  0.00000000000E+00  0.22136115572E+02  0.22136115572E+02  0.00000000000E+00 0. -1.
         21   -1    0    0  503  502 -0.00000000000E+00 -0.00000000000E+00 -0.23238741302E+03  0.23238741302E+03  0.00000000000E+00 0. -1.
         21    1    1    2  503  501  0.63235018903E+02 -0.53092247793E+01 -0.45815957057E+02  0.78268495606E+02  0.00000000000E+00 0. -1.
         21    1    1    2  504  502 -0.63235018903E+02  0.53092247793E+01 -0.16443534039E+03  0.17625503298E+03  0.00000000000E+00 0. -1.
</event>
<event>
 4    1  0.1679763E+006  0.2304408E+02  0.7546771E-02  0.1491945E+00
         21   -1    0    0  504  501  0.00000000000E+00  0.00000000000E+00  0.22078922825E+01  0.22078922825E+01  0.00000000000E+00 0.  1.
         21   -1    0    0  503  502 -0.00000000000E+00 -0.00000000000E+00 -0.33998960090E+03  0.33998960090E+03  0.00000000000E+00 0.  1.
         21    1    1    2  503  501  0.18691539870E+02 -0.13477982920E+02 -0.26143983133E+03  0.26245345320E+03  0.00000000000E+00 0.  1.
         21    1    1    2  504  502 -0.18691539870E+02  0.13477982920E+02 -0.76341877287E+02  0.79744039990E+02  0.00000000000E+00 0.  1.
</event>
<event>
 4    1  0.1679763E+006  0.2302213E+02  0.7546771E-02  0.1492221E+00
         21   -1    0    0  503  501  0.00000000000E+00  0.00000000000E+00  0.10428748721E+03  0.10428748721E+03  0.00000000000E+00 0. -1.
         21   -1    0    0  504  502 -0.00000000000E+00 -0.00000000000E+00 -0.13666605398E+02  0.13666605398E+02  0.00000000000E+00 0. -1.
         21    1    1    2  503  502  0.18242634052E+02 -0.14043666468E+02 -0.14313946808E+01  0.23066580929E+02  0.00000000000E+00 0. -1.
         21    1    1    2  504  501 -0.18242634052E+02  0.14043666468E+02  0.92052276497E+02  0.94887511683E+02  0.00000000000E+00 0. -1.
</event>
<event>
 4    1  0.1679763E+006  0.2279094E+02  0.7546771E-02  0.1495140E+00
         21   -1    0    0  502  501  0.00000000000E+00  0.00000000000E+00  0.63280012135E+03  0.63280012135E+03  0.00000000000E+00 0. -1.
         21   -1    0    0  504  502 -0.00000000000E+00 -0.00000000000E+00 -0.10596676344E+01  0.10596676344E+01  0.00000000000E+00 0.  1.
         21    1    1    2  503  501  0.22466697013E+02 -0.38307004098E+01  0.46633054266E+03  0.46688714028E+03  0.00000000000E+00 0. -1.
         21    1    1    2  504  503 -0.22466697013E+02  0.38307004098E+01  0.16540991106E+03  0.16697264871E+03  0.00000000000E+00 0.  1.
</event>
<event>
 4    1  0.1679763E+006  0.4666239E+02  0.7546771E-02  0.1313330E+00
         21   -1    0    0  503  501  0.00000000000E+00  0.00000000000E+00  0.51965353296E+03  0.51965353296E+03  0.00000000000E+00 0.  1.
         21   -1    0    0  501  502 -0.00000000000E+00 -0.00000000000E+00 -0.14357297927E+02  0.14357297927E+02  0.00000000000E+00 0.  1.
         21    1    1    2  503  504  0.40848468572E+02 -0.22556181933E+02  0.47733889034E+03  0.47961421472E+03  0.00000000000E+00 0.  1.
         21    1    1    2  504  502 -0.40848468572E+02  0.22556181933E+02  0.27957344685E+02  0.54396616162E+02  0.00000000000E+00 0.  1.
</event>
<event>
 4    1  0.1679763E+006  0.2100884E+02  0.7546771E-02  0.1519139E+00
         21   -1    0    0  504  501  0.00000000000E+00  0.00000000000E+00  0.25706315561E+03  0.25706315561E+03  0.00000000000E+00 0. -1.
         21   -1    0    0  503  502 -0.00000000000E+00 -0.00000000000E+00 -0.11474214210E+02  0.11474214210E+02  0.00000000000E+00 0.  1.
         21    1    1    2  503  501  0.16820039005E+02 -0.12587989162E+02  0.24661045653E+03  0.24750371402E+03  0.00000000000E+00 0. -1.
         21    1    1    2  504  502 -0.16820039005E+02  0.12587989162E+02 -0.10215151292E+01  0.21033655802E+02  0.00000000000E+00 0.  1.
</event>
<event>
 4    1  0.1679763E+006  0.2601306E+02  0.7546771E-02  0.1457782E+00
         21   -1    0    0  503  501  0.00000000000E+00  0.00000000000E+00  0.99597782361E+01  0.99597782361E+01  0.00000000000E+00 0.  1.
         21   -1    0    0  504  502 -0.00000000000E+00 -0.00000000000E+00 -0.40741218075E+03  0.40741218075E+03  0.00000000000E+00 0. -1.
         21    1    1    2  503  502 -0.25722211275E+02  0.38790919654E+01 -0.38921856934E+03  0.39008688035E+03  0.00000000000E+00 0. -1.
         21    1    1    2  504  501  0.25722211275E+02 -0.38790919654E+01 -0.82338331812E+01  0.27285078637E+02  0.00000000000E+00 0.  1.
</event>
<event>
 4    1  0.1679763E+006  0.2616371E+02  0.7546771E-02  0.1456195E+00
         21   -1    0    0  504  501  0.00000000000E+00  0.00000000000E+00  0.45509480562E+03  0.45509480562E+03  0.00000000000E+00 0.  1.
         21   -1    0    0  503  502 -0.00000000000E+00 -0.00000000000E+00 -0.21974868782E+01  0.21974868782E+01  0.00000000000E+00 0.  1.
         21    1    1    2  503  501 -0.26156389154E+02  0.61885922155E+00  0.98018560979E+02  0.10145037199E+03  0.00000000000E+00 0.  1.
         21    1    1    2  504  502  0.26156389154E+02 -0.61885922155E+00  0.35487875776E+03  0.35584192051E+03  0.00000000000E+00 0.  1.
</event>
<event>
 4    1  0.1679763E+006  0.2276457E+02  0.7546771E-02  0.1495476E+00
         21   -1    0    0  503  501  0.00000000000E+00  0.00000000000E+00  0.38956762723E+03  0.38956762723E+03  0.00000000000E+00 0. -1.
         21   -1    0    0  504  502 -0.00000000000E+00 -0.00000000000E+00 -0.13362375556E+01  0.13362375556E+01  0.00000000000E+00 0. -1.
         21    1    1    2  503  502  0.68376793575E+01 -0.21713398550E+02  0.20719018771E+03  0.20843703946E+03  0.00000000000E+00 0. -1.
         21    1    1    2  504  501 -0.68376793575E+01  0.21713398550E+02  0.18104120196E+03  0.18246682532E+03  0.00000000000E+00 0. -1.
</event>
<event>
 4    1  0.1679763E+006  0.2463150E+02  0.7546771E-02  0.1472968E+00
         21   -1    0    0  504  501  0.00000000000E+00  0.00000000000E+00  0.39174140238E+01  0.39174140238E+01  0.00000000000E+00 0.  1.
         21   -1    0    0  503  502 -0.00000000000E+00 -0.00000000000E+00 -0.28646081936E+03  0.28646081936E+03  0.00000000000E+00 0.  1.
         21    1    1    2  503  501 -0.31156723886E+01  0.24433650923E+02 -0.42869350231E+02  0.49441803174E+02  0.00000000000E+00 0.  1.
         21    1    1    2  504  502  0.31156723886E+01 -0.24433650923E+02 -0.23967405511E+03  0.24093643021E+03  0.00000000000E+00 0.  1.
</event>
<event>
 4    1  0.1679763E+006  0.2202783E+02  0.7546771E-02  0.1505080E+00
         21   -1    0    0  502  501  0.00000000000E+00  0.00000000000E+00  0.36132290425E+02  0.36132290425E+02  0.00000000000E+00 0. -1.
         21   -1    0    0  503  502 -0.00000000000E+00 -0.00000000000E+00 -0.13592434722E+02  0.13592434722E+02  0.00000000000E+00 0. -1.
         21    1    1    2  503  504  0.20014490786E+02 -0.92002970600E+01  0.13995076005E+02  0.26097652381E+02  0.00000000000E+00 0. -1.
         21    1    1    2  504  501 -0.20014490786E+02  0.92002970600E+01  0.85447796981E+01  0.23627072766E+02  0.00000000000E+00 0. -1.
</event>
<event>
 4    1  0.1679763E+006  0.2143177E+02  0.7546771E-02  0.1513189E+00
         21   -1    0    0  504  501  0.00000000000E+00  0.00000000000E+00  0.96143687438E+00  0.96143687438E+00  0.00000000000E+00 0.  1.
         21   -1    0    0  503  502 -0.00000000000E+00 -0.00000000000E+00 -0.49009472605E+03  0.49009472605E+03  0.00000000000E+00 0.  1.
         21    1    1    2  503  501  0.19134486089E+02 -0.96536076001E+01 -0.20558973425E+03  0.20670379660E+03  0.00000000000E+00 0.  1.
         21    1    1    2  504  502 -0.19134486089E+02  0.96536076001E+01 -0.28354355492E+03  0.28435236633E+03  0.00000000000E+00 0.  1.
</event>
<event>
 4    1  0.1679763E+006  0.2176937E+02  0.7546771E-02  0.1508558E+00
         21   -1    0    0  503  501  0.00000000000E+00  0.00000000000E+00  0.55752126893E+02  0.55752126893E+02  0.00000000000E+00 0.  1.
         21   -1    0    0  504  502 -0.00000000000E+00 -0.00000000000E+00 -0.12399870563E+02  0.12399870563E+02  0.00000000000E+00 0.  1.
         21    1    1    2  503  502 -0.86870680127E+01  0.19960972283E+02  0.40785774214E+02  0.46231860695E+02  0.00000000000E+00 0.  1.
         21    1    1    2  504  501  0.86870680127E+01 -0.19960972283E+02  0.25664821162E+01  0.21920136760E+02  0.00000000000E+00 0.  1.
</event>
<event>
 4    1  0.1679763E+006  0.3015021E+02  0.7546771E-02  0.1418295E+00
         21   -1    0    0  504  501  0.00000000000E+00  0.00000000000E+00  0.33696983236E+02  0.33696983236E+02  0.00000000000E+00 0.  1.
         21   -1    0    0  503  502 -0.00000000000E+00 -0.00000000000E+00 -0.61718459533E+02  0.61718459533E+02  0.00000000000E+00 0. -1.
         21    1    1    2  503  501 -0.30149425701E+02 -0.21801450918E+00  0.21782968197E+02  0.37195874824E+02  0.00000000000E+00 0.  1.
         21    1    1    2  504  502  0.30149425701E+02  0.21801450918E+00 -0.49804444494E+02  0.58219567946E+02  0.00000000000E+00 0. -1.
</event>
<event>
 4    1  0.1679763E+006  0.2819627E+02  0.7546771E-02  0.1435948E+00
         21   -1    0    0  502  501  0.00000000000E+00  0.00000000000E+00  0.56884544535E+02  0.56884544535E+02  0.00000000000E+00 0.  1.
         21   -1    0    0  503  502 -0.00000000000E+00 -0.00000000000E+00 -0.11457318308E+03  0.11457318308E+03  0.00000000000E+00 0.  1.
         21    1    1    2  503  504  0.28078939506E+02 -0.25695492209E+01 -0.10917437528E+03  0.11275670111E+03  0.00000000000E+00 0.  1.
         21    1    1    2  504  501 -0.28078939506E+02  0.25695492209E+01  0.51485736730E+02  0.58701026512E+02  0.00000000000E+00 0.  1.
</event>
<event>
 4    1  0.1679763E+006  0.2158721E+02  0.7546771E-02  0.1511044E+00
         21   -1    0    0  504  501  0.00000000000E+00  0.00000000000E+00  0.18724252692E+02  0.18724252692E+02  0.00000000000E+00 0. -1.
         21   -1    0    0  503  502 -0.00000000000E+00 -0.00000000000E+00 -0.25783298790E+02  0.25783298790E+02  0.00000000000E+00 0. -1.
         21    1    1    2  503  501  0.15845834190E+02 -0.14660058941E+02 -0.76765489746E+01  0.22911507883E+02  0.00000000000E+00 0. -1.
         21    1    1    2  504  502 -0.15845834190E+02  0.14660058941E+02  0.61750287699E+00  0.21596043599E+02  0.00000000000E+00 0. -1.
</event>
<event>
 4    1  0.1679763E+006  0.2004975E+02  0.7546771E-02  0.1533276E+00
         21   -1    0    0  504  501  0.00000000000E+00  0.00000000000E+00  0.21308874622E+02  0.21308874622E+02  0.00000000000E+00 0. -1.
         21   -1    0    0  501  502 -0.00000000000E+00 -0.00000000000E+00 -0.20665610348E+03  0.20665610348E+03  0.00000000000E+00 0. -1.
         21    1    1    2  503  502 -0.19326808771E+02 -0.53354549693E+01 -0.20132905757E+03  0.20232494172E+03  0.00000000000E+00 0. -1.
         21    1    1    2  504  503  0.19326808771E+02  0.53354549693E+01  0.15981828713E+02  0.25640036389E+02  0.00000000000E+00 0. -1.
</event>
<event>
 4    1  0.1679763E+006  0.2658953E+02  0.7546771E-02  0.1451775E+00
         21   -1    0    0  504  501  0.00000000000E+00  0.00000000000E+00  0.21188070100E+03  0.21188070100E+03  0.00000000000E+00 0.  1.
         21   -1    0    0  501  502 -0.00000000000E+00 -0.00000000000E+00 -0.61698954126E+01  0.61698954126E+01  0.00000000000E+00 0. -1.
         21    1    1    2  503  502 -0.20599510975E+02 -0.16812592448E+02  0.28976722434E+02  0.39327516579E+02  0.00000000000E+00 0. -1.
         21    1    1    2  504  503  0.20599510975E+02  0.16812592448E+02  0.17673408315E+03  0.17872307983E+03  0.00000000000E+00 0.  1.
</event>
<event>
 4    1  0.1679763E+006  0.3532027E+02  0.7546771E-02  0.1378325E+00
         21   -1    0    0  502  501  0.00000000000E+00  0.00000000000E+00  0.96297571387E+02  0.96297571387E+02  0.00000000000E+00 0.  1.
         21   -1    0    0  504  502 -0.00000000000E+00 -0.00000000000E+00 -0.12959157317E+02  0.12959157317E+02  0.00000000000E+00 0.  1.
         21    1    1    2  503  501  0.18352799223E+02  0.30177746127E+02  0.42663936405E+02  0.55387120075E+02  0.00000000000E+00 0.  1.
         21    1    1    2  504  503 -0.18352799223E+02 -0.30177746127E+02  0.40674477664E+02  0.53869608629E+02  0.00000000000E+00 0.  1.
</event>
<event>
 4    1  0.1679763E+006  0.2087793E+02  0.7546771E-02  0.1521015E+00
         21   -1    0    0  503  501  0.00000000000E+00  0.00000000000E+00  0.85338533464E+02  0.85338533464E+02  0.00000000000E+00 0. -1.
         21   -1    0    0  501  502 -0.00000000000E+00 -0.00000000000E+00 -0.97009793939E+02  0.97009793939E+02  0.00000000000E+00 0.  1.
         21    1    1    2  503  504 -0.85908078027E+01  0.19028555057E+02  0.82905832463E+02  0.85494239236E+02  0.00000000000E+00 0. -1.
         21    1    1    2  504  502  0.85908078027E+01 -0.19028555057E+02 -0.94577092937E+02  0.96854088167E+02  0.00000000000E+00 0.  1.
</event>
<event>
 4    1  0.1679763E+006  0.2009795E+02  0.7546771E-02  0.1532544E+00
         21   -1    0    0  504  501  0.00000000000E+00  0.00000000000E+00  0.11180522416E+03  0.11180522416E+03  0.00000000000E+00 0. -1.
         21   -1    0    0  503  502 -0.00000000000E+00 -0.00000000000E+00 -0.76174841577E+01  0.76174841577E+01  0.00000000000E+00 0. -1.
         21    1    1    2  503  501  0.62554453959E+01  0.19099662430E+02  0.87990091565E+01  0.21939696083E+02  0.00000000000E+00 0. -1.
         21    1    1    2  504  502 -0.62554453959E+01 -0.19099662430E+02  0.95388730847E+02  0.97483012236E+02  0.00000000000E+00 0. -1.
</event>
<event>
 4    1  0.1679763E+006  0.3173217E+02  0.7546771E-02  0.1405118E+00
         21   -1    0    0  504  501  0.00000000000E+00  0.00000000000E+00  0.40138155255E+03  0.40138155255E+03  0.00000000000E+00 0.  1.
         21   -1    0    0  503  502 -0.00000000000E+00 -0.00000000000E+00 -0.35543451949E+02  0.35543451949E+02  0.00000000000E+00 0. -1.
         21    1    1    2  503  501  0.31368235230E+02  0.47921351988E+01  0.39353093530E+03  0.39480821645E+03  0.00000000000E+00 0.  1.
         21    1    1    2  504  502 -0.31368235230E+02 -0.47921351988E+01 -0.27692834702E+02  0.42116788043E+02  0.00000000000E+00 0. -1.
</event>
<event>
 4    1  0.1679763E+006  0.2726126E+02  0.7546771E-02  0.1445001E+00
         21   -1    0    0  504  501  0.00000000000E+00  0.00000000000E+00  0.61918719702E+02  0.61918719702E+02  0.00000000000E+00 0. -1.
         21   -1    0    0  503  502 -0.00000000000E+00 -0.00000000000E+00 -0.13013561683E+02  0.13013561683E+02  0.00000000000E+00 0. -1.
         21    1    1    2  503  501 -0.26622904384E+02  0.58649004800E+01  0.34895963684E+02  0.44282099961E+02  0.00000000000E+00 0. -1.
         21    1    1    2  504  502  0.26622904384E+02 -0.58649004800E+01  0.14009194335E+02  0.30650181425E+02  0.00000000000E+00 0. -1.
</event>
<event>
 4    1  0.1679763E+006  0.2076652E+02  0.7546771E-02  0.1522625E+00
         21   -1    0    0  504  501  0.00000000000E+00  0.00000000000E+00  0.47387726694E+01  0.47387726694E+01  0.00000000000E+00 0. -1.
         21   -1    0    0  503  502 -0.00000000000E+00 -0.00000000000E+00 -0.80019396517E+03  0.80019396517E+03  0.00000000000E+00 0. -1.
         21    1    1    2  503  501  0.11268574639E+02  0.17443266877E+02 -0.18837562617E+02  0.28037512356E+02  0.00000000000E+00 0. -1.
         21    1    1    2  504  502 -0.11268574639E+02 -0.17443266877E+02 -0.77661762988E+03  0.77689522549E+03  0.00000000000E+00 0. -1.
</event>
<event>
 4    1  0.1679763E+006  0.2106143E+02  0.7546771E-02  0.1518389E+00
         21   -1    0    0  503  501  0.00000000000E+00  0.00000000000E+00  0.28850875242E+02  0.28850875242E+02  0.00000000000E+00 0.  1.
         21   -1    0    0  504  502 -0.00000000000E+00 -0.00000000000E+00 -0.45048175822E+02  0.45048175822E+02  0.00000000000E+00 0.  1.
         21    1    1    2  503  502 -0.10975786590E+02 -0.17975429329E+02 -0.38086949397E+02  0.43522404175E+02  0.00000000000E+00 0.  1.
         21    1    1    2  504  501  0.10975786590E+02  0.17975429329E+02  0.21889648818E+02  0.30376646889E+02  0.00000000000E+00 0.  1.
</event>
<event>
 4    1  0.1679763E+006  0.2485895E+02  0.7546771E-02  0.1470388E+00
         21   -1    0    0  503  501  0.00000000000E+00  0.00000000000E+00  0.11398666988E+03  0.11398666988E+03  0.00000000000E+00 0. -1.
         21   -1    0    0  504  502 -0.00000000000E+00 -0.00000000000E+00 -0.69361400379E+02  0.69361400379E+02  0.00000000000E+00 0. -1.
         21    1    1    2  503  502 -0.22606606033E+02 -0.10339676603E+02  0.11033108793E+03  0.11309693415E+03  0.00000000000E+00 0. -1.
         21    1    1    2  504  501  0.22606606033E+02  0.10339676603E+02 -0.65705818435E+02  0.70251136110E+02  0.00000000000E+00 0. -1.
</event>
<event>
 4    1  0.1679763E+006  0.2196564E+02  0.7546771E-02  0.1505912E+00
         21   -1    0    0  504  501  0.00000000000E+00  0.00000000000E+00  0.77939738312E+02  0.77939738312E+02  0.00000000000E+00 0. -1.
         21   -1    0    0  503  502 -0.00000000000E+00 -0.00000000000E+00 -0.77668759281E+01  0.77668759281E+01  0.00000000000E+00 0. -1.
         21    1    1    2  503  501 -0.18341202780E+02 -0.12086753874E+02  0.15780752777E+02  0.27046654079E+02  0.00000000000E+00 0. -1.
         21    1    1    2  504  502  0.18341202780E+02  0.12086753874E+02  0.54392109607E+02  0.58659960161E+02  0.00000000000E+00 0. -1.
</event>
<event>
 4    1  0.1679763E+006  0.2836094E+02  0.7546771E-02  0.1434396E+00
         21   -1    0    0  504  501  0.00000000000E+00  0.00000000000E+00  0.14075148767E+02  0.14075148767E+02  0.00000000000E+00 0.  1.
         21   -1    0    0  503  502 -0.00000000000E+00 -0.00000000000E+00 -0.57986962381E+03  0.57986962381E+03  0.00000000000E+00 0.  1.
         21    1    1    2  503  501  0.42482437114E+01 -0.28040963019E+02 -0.56485679061E+03  0.56556833105E+03  0.00000000000E+00 0.  1.
         21    1    1    2  504  502 -0.42482437114E+01  0.28040963019E+02 -0.93768442819E+00  0.28376441528E+02  0.00000000000E+00 0.  1.
</event>
<event>
 4    1  0.1679763E+006  0.2778593E+02  0.7546771E-02  0.1439869E+00
         21   -1    0    0  503  501  0.00000000000E+00  0.00000000000E+00  0.46221121137E+01  0.46221121137E+01  0.00000000000E+00 0. -1.
         21   -1    0    0  504  502 -0.00000000000E+00 -0.00000000000E+00 -0.16761956049E+03  0.16761956049E+03  0.00000000000E+00 0. -1.
         21    1    1    2  503  502  0.90949407677E+01  0.26255281409E+02 -0.76415970527E+02  0.81310874433E+02  0.00000000000E+00 0. -1.
         21    1    1    2  504  501 -0.90949407677E+01 -0.26255281409E+02 -0.86581477844E+02  0.90930798166E+02  0.00000000000E+00 0. -1.
</event>
<event>
 4    1  0.1679763E+006  0.2518246E+02  0.7546771E-02  0.1466773E+00
         21   -1    0    0  503  501  0.00000000000E+00  0.00000000000E+00  0.41623111006E+02  0.41623111006E+02  0.00000000000E+00 0. -1.
         21   -1    0    0  504  502 -0.00000000000E+00 -0.00000000000E+00 -0.15262040418E+02  0.15262040418E+02  0.00000000000E+00 0. -1.
         21    1    1    2  503  502 -0.20854201194E+02  0.14115893983E+02  0.14362716883E+02  0.28990408873E+02  0.00000000000E+00 0. -1.
         21    1    1    2  504  501  0.20854201194E+02 -0.14115893983E+02  0.11998353705E+02  0.27894742551E+02  0.00000000000E+00 0. -1.
</event>
<event>
 4    1  0.1679763E+006  0.2059541E+02  0.7546771E-02  0.1525120E+00
         21   -1    0    0  504  501  0.00000000000E+00  0.00000000000E+00  0.50626672835E+02  0.50626672835E+02  0.00000000000E+00 0.  1.
         21   -1    0    0  503  502 -0.00000000000E+00 -0.00000000000E+00 -0.40145625803E+02  0.40145625803E+02  0.00000000000E+00 0. -1.
         21    1    1    2  503  501  0.43544403728E+01  0.20129822676E+02  0.45613782998E+02  0.50047858209E+02  0.00000000000E+00 0.  1.
         21    1    1    2  504  502 -0.43544403728E+01 -0.20129822676E+02 -0.35132735965E+02  0.40724440430E+02  0.00000000000E+00 0. -1.
</event>
<event>
 4    1  0.1679763E+006  0.2006190E+02  0.7546771E-02  0.1533092E+00
         21   -1    0    0  503  501  0.00000000000E+00  0.00000000000E+00  0.70141385727E+02  0.70141385727E+02  0.00000000000E+00 0.  1.
         21   -1    0    0  501  502 -0.00000000000E+00 -0.00000000000E+00 -0.33376928763E+02  0.33376928763E+02  0.00000000000E+00 0.  1.
         21    1    1    2  503  504  0.32832177116E+01  0.19791422178E+02  0.65482525532E+02  0.68486794789E+02  0.00000000000E+00 0.  1.
         21    1    1    2  504  502 -0.32832177116E+01 -0.19791422178E+02 -0.28718068568E+02  0.35031519702E+02  0.00000000000E+00 0.  1.
</event>
<event>
 4    1  0.1679763E+006  0.2457864E+02  0.7546771E-02  0.1473573E+00
         21   -1    0    0  504  501  0.00000000000E+00  0.00000000000E+00  0.54282643087E+01  0.54282643087E+01  0.00000000000E+00 0. -1.
         21   -1    0    0  501  502 -0.00000000000E+00 -0.00000000000E+00 -0.17630814988E+03  0.17630814988E+03  0.00000000000E+00 0. -1.
         21    1    1    2  503  502 -0.20681063088E+02 -0.13281676599E+02 -0.14062156219E+03  0.14275339946E+03  0.00000000000E+00 0. -1.
         21    1    1    2  504  503  0.20681063088E+02  0.13281676599E+02 -0.30258323382E+02  0.38983014733E+02  0.00000000000E+00 0. -1.
</event>
<event>
 4    1  0.1679763E+006  0.4489747E+02  0.7546771E-02  0.1321953E+00
         21   -1    0    0  503  501  0.00000000000E+00  0.00000000000E+00  0.29795097075E+02  0.29795097075E+02  0.00000000000E+00 0.  1.
         21   -1    0    0  504  502 -0.00000000000E+00 -0.00000000000E+00 -0.99153682376E+02  0.99153682376E+02  0.00000000000E+00 0. -1.
         21    1    1    2  503  502 -0.37427854045E+02 -0.24797946239E+02  0.16603073600E+01  0.44928153942E+02  0.00000000000E+00 0.  1.
         21    1    1    2  504  501  0.37427854045E+02  0.24797946239E+02 -0.71018892661E+02  0.84020625509E+02  0.00000000000E+00 0. -1.
</event>
<event>
 4    1  0.1679763E+006  0.2376121E+02  0.7546771E-02  0.1483155E+00
         21   -1    0    0  504  501  0.00000000000E+00  0.00000000000E+00  0.90639384671E+02  0.90639384671E+02  0.00000000000E+00 0. -1.
         21   -1    0    0  503  502 -0.00000000000E+00 -0.00000000000E+00 -0.37054813709E+02  0.37054813709E+02  0.00000000000E+00 0. -1.
         21    1    1    2  503  501  0.93593985509E+01 -0.21840251090E+02  0.85026196498E+02  0.88283911331E+02  0.00000000000E+00 0. -1.
         21    1    1    2  504  502 -0.93593985509E+01  0.21840251090E+02 -0.31441625537E+02  0.39410287049E+02  0.00000000000E+00 0. -1.
</event>
<event>
 4    1  0.1679763E+006  0.3529916E+02  0.7546771E-02  0.1378472E+00
         21   -1    0    0  504  501  0.00000000000E+00  0.00000000000E+00  0.17271870018E+03  0.17271870018E+03  0.00000000000E+00 0.  1.
         21   -1    0    0  501  502 -0.00000000000E+00 -0.00000000000E+00 -0.70365080270E+02  0.70365080270E+02  0.00000000000E+00 0.  1.
         21    1    1    2  503  502 -0.14123714786E+02  0.32350450767E+02 -0.63966052659E+02  0.73059474929E+02  0.00000000000E+00 0.  1.
         21    1    1    2  504  503  0.14123714786E+02 -0.32350450767E+02  0.16631967257E+03  0.17002430552E+03  0.00000000000E+00 0.  1.
</event>
<event>
 4    1  0.1679763E+006  0.2432165E+02  0.7546771E-02  0.1476537E+00
         21   -1    0    0  502  501  0.00000000000E+00  0.00000000000E+00  0.22750946139E+02  0.22750946139E+02  0.00000000000E+00 0.  1.
         21   -1    0    0  503  502 -0.00000000000E+00 -0.00000000000E+00 -0.39396756686E+03  0.39396756686E+03  0.00000000000E+00 0. -1.
         21    1    1    2  503  504  0.15602888852E+02  0.18657231614E+02 -0.38697464824E+03  0.38773821170E+03  0.00000000000E+00 0. -1.
         21    1    1    2  504  501 -0.15602888852E+02 -0.18657231614E+02  0.15758027520E+02  0.28980301298E+02  0.00000000000E+00 0.  1.
</event>
<event>
 4    1  0.1679763E+006  0.6125955E+02  0.7546771E-02  0.1255612E+00
         21   -1    0    0  504  501  0.00000000000E+00  0.00000000000E+00  0.18427715458E+02  0.18427715458E+02  0.00000000000E+00 0.  1.
         21   -1    0    0  503  502 -0.00000000000E+00 -0.00000000000E+00 -0.27397237003E+03  0.27397237003E+03  0.00000000000E+00 0. -1.
         21    1    1    2  503  501  0.26231014745E+02 -0.55359432359E+02 -0.20184411464E+03  0.21093548659E+03  0.00000000000E+00 0. -1.
         21    1    1    2  504  502 -0.26231014745E+02  0.55359432359E+02 -0.53700539932E+02  0.81464598904E+02  0.00000000000E+00 0.  1.
</event>
<event>
 4    1  0.1679763E+006  0.2083372E+02  0.7546771E-02  0.1521652E+00
         21   -1    0    0  502  501  0.00000000000E+00  0.00000000000E+00  0.15667164323E+03  0.15667164323E+03  0.00000000000E+00 0. -1.
         21   -1    0    0  504  502 -0.00000000000E+00 -0.00000000000E+00 -0.67648143336E+01  0.67648143336E+01  0.00000000000E+00 0.  1.
         21    1    1    2  503  501 -0.20546453290E+02 -0.34477502648E+01  0.13774729899E+03  0.13931389774E+03  0.00000000000E+00 0. -1.
         21    1    1    2  504  503  0.20546453290E+02  0.34477502648E+01  0.12159529899E+02  0.24122559816E+02  0.00000000000E+00 0.  1.
</event>
<event>
 4    1  0.1679763E+006  0.2824452E+02  0.7546771E-02  0.1435492E+00
         21   -1    0    0  503  501  0.00000000000E+00  0.00000000000E+00  0.26405608421E+03  0.26405608421E+03  0.00000000000E+00 0.  1.
         21   -1    0    0  504  502 -0.00000000000E+00 -0.00000000000E+00 -0.58355492466E+01  0.58355492466E+01  0.00000000000E+00 0.  1.
         21    1    1    2  503  502 -0.19776859999E+02 -0.20165034592E+02  0.22282577819E+03  0.22460872699E+03  0.00000000000E+00 0.  1.
         21    1    1    2  504  501  0.19776859999E+02  0.20165034592E+02  0.35394756774E+02  0.45282906473E+02  0.00000000000E+00 0.  1.
</event>
<event>
 4    1  0.1679763E+006  0.2584643E+02  0.7546771E-02  0.1459553E+00
         21   -1    0    0  503  501  0.00000000000E+00  0.00000000000E+00  0.66931005641E+02  0.66931005641E+02  0.00000000000E+00 0. -1.
         21   -1    0    0  501  502 -0.00000000000E+00 -0.00000000000E+00 -0.18126235018E+02  0.18126235018E+02  0.00000000000E+00 0.  1.
         21    1    1    2  503  504  0.22067487768E+02 -0.13456000849E+02  0.52911219412E+02  0.58886629339E+02  0.00000000000E+00 0. -1.
         21    1    1    2  504  502 -0.22067487768E+02  0.13456000849E+02 -0.41064487889E+01  0.26170611320E+02  0.00000000000E+00 0.  1.
</event>
<event>
 4    1  0.1679763E+006  0.2006041E+02  0.7546771E-02  0.1533114E+00
         21   -1    0    0  503  501  0.00000000000E+00  0.00000000000E+00  0.48577679004E+01  0.48577679004E+01  0.00000000000E+00 0.  1.
         21   -1    0    0  504  502 -0.00000000000E+00 -0.00000000000E+00 -0.20029614223E+03  0.20029614223E+03  0.00000000000E+00 0.  1.
         21    1    1    2  503  502  0.63533911427E+00 -0.20050342559E+02 -0.19168414044E+02  0.27746134676E+02  0.00000000000E+00 0.  1.
         21    1    1    2  504  501 -0.63533911427E+00  0.20050342559E+02 -0.17626996028E+03  0.17740777545E+03  0.00000000000E+00 0.  1.
</event>
<event>
 4    1  0.1679763E+006  0.2143886E+02  0.7546771E-02  0.1513090E+00
         21   -1    0    0  502  501  0.00000000000E+00  0.00000000000E+00  0.41509989358E+01  0.41509989358E+01  0.00000000000E+00 0. -1.
         21   -1    0    0  503  502 -0.00000000000E+00 -0.00000000000E+00 -0.72553500807E+03  0.72553500807E+03  0.00000000000E+00 0. -1.
         21    1    1    2  503  504 -0.11581020035E+02 -0.18041753822E+02 -0.69654314560E+03  0.69687300033E+03  0.00000000000E+00 0. -1.
         21    1    1    2  504  501  0.11581020035E+02  0.18041753822E+02 -0.24840863535E+02  0.32813006677E+02  0.00000000000E+00 0. -1.
</event>
<event>
 4    1  0.1679763E+006  0.2480567E+02  0.7546771E-02  0.1470989E+00
         21   -1    0    0  504  501  0.00000000000E+00  0.00000000000E+00  0.97412988508E+01  0.97412988508E+01  0.00000000000E+00 0. -1.
         21   -1    0    0  503  502 -0.00000000000E+00 -0.00000000000E+00 -0.81642081680E+02  0.81642081680E+02  0.00000000000E+00 0. -1.
         21    1    1    2  503  501  0.22444886915E+02 -0.10561654827E+02 -0.14214274205E+02  0.28589632605E+02  0.00000000000E+00 0. -1.
         21    1    1    2  504  502 -0.22444886915E+02  0.10561654827E+02 -0.57686508625E+02  0.62793747926E+02  0.00000000000E+00 0. -1.
</event>
<event>
 4    1  0.1679763E+006  0.2402245E+02  0.7546771E-02  0.1480043E+00
         21   -1    0    0  504  501  0.00000000000E+00  0.00000000000E+00  0.10083890790E+02  0.10083890790E+02  0.00000000000E+00 0. -1.
         21   -1    0    0  503  502 -0.00000000000E+00 -0.00000000000E+00 -0.11554198223E+03  0.11554198223E+03  0.00000000000E+00 0. -1.
         21    1    1    2  503  501 -0.19040901667E+02  0.14646572290E+02 -0.97352851429E+02  0.10027290610E+03  0.00000000000E+00 0. -1.
         21    1    1    2  504  502  0.19040901667E+02 -0.14646572290E+02 -0.81052400128E+01  0.25352966923E+02  0.00000000000E+00 0. -1.
</event>
<event>
 4    1  0.1679763E+006  0.2178986E+02  0.7546771E-02  0.1508280E+00
         21   -1    0    0  504  501  0.00000000000E+00  0.00000000000E+00  0.31822581757E+01  0.31822581757E+01  0.00000000000E+00 0.  1.
         21   -1    0    0  501  502 -0.00000000000E+00 -0.00000000000E+00 -0.49359300124E+03  0.49359300124E+03  0.00000000000E+00 0.  1.
         21    1    1    2  503  502 -0.37508030942E+01 -0.21464611773E+02 -0.45268315623E+03  0.45320727930E+03  0.00000000000E+00 0.  1.
         21    1    1    2  504  503  0.37508030942E+01  0.21464611773E+02 -0.37727586833E+02  0.43567980108E+02  0.00000000000E+00 0.  1.
</event>
<event>
 4    1  0.1679763E+006  0.2109884E+02  0.7546771E-02  0.1517858E+00
         21   -1    0    0  504  501  0.00000000000E+00  0.00000000000E+00  0.19713194139E+02  0.19713194139E+02  0.00000000000E+00 0. -1.
         21   -1    0    0  503  502 -0.00000000000E+00 -0.00000000000E+00 -0.12185435994E+03  0.12185435994E+03  0.00000000000E+00 0.  1.
         21    1    1    2  503  501 -0.17935539561E+02  0.11112050348E+02  0.12818639678E+02  0.24687623731E+02  0.00000000000E+00 0. -1.
         21    1    1    2  504  502  0.17935539561E+02 -0.11112050348E+02 -0.11495980548E+03  0.11687993035E+03  0.00000000000E+00 0.  1.
</event>
<event>
 4    1  0.1679763E+006  0.2099162E+02  0.7546771E-02  0.1519384E+00
         21   -1    0    0  503  501  0.00000000000E+00  0.00000000000E+00  0.10625083583E+01  0.10625083583E+01  0.00000000000E+00 0.  1.
         21   -1    0    0  504  502 -0.00000000000E+00 -0.00000000000E+00 -0.51353835766E+03  0.51353835766E+03  0.00000000000E+00 0.  1.
         21    1    1    2  503  502  0.20961723419E+02 -0.11198729399E+01 -0.36910404237E+03  0.36970047614E+03  0.00000000000E+00 0.  1.
         21    1    1    2  504  501 -0.20961723419E+02  0.11198729399E+01 -0.14337180693E+03  0.14490038987E+03  0.00000000000E+00 0.  1.
</event>
<event>
 4    1  0.1679763E+006  0.4422088E+02  0.7546771E-02  0.1325382E+00
         21   -1    0    0  503  501  0.00000000000E+00  0.00000000000E+00  0.81478925139E+02  0.81478925139E+02  0.00000000000E+00 0.  1.
         21   -1    0    0  504  502 -0.00000000000E+00 -0.00000000000E+00 -0.38077428310E+02  0.38077428310E+02  0.00000000000E+00 0. -1.
         21    1    1    2  503  502  0.43276574967E+02  0.90897697457E+01  0.58048043993E+02  0.72973017386E+02  0.00000000000E+00 0.  1.
         21    1    1    2  504  501 -0.43276574967E+02 -0.90897697457E+01 -0.14646547164E+02  0.46583336063E+02  0.00000000000E+00 0. -1.
</event>
<event>
 4    1  0.1679763E+006  0.2335745E+02  0.7546771E-02  0.1488058E+00
         21   -1    0    0  503  501  0.00000000000E+00  0.00000000000E+00  0.16975329916E+04  0.16975329916E+04  0.00000000000E+00 0.  1.
         21   -1    0    0  504  502 -0.00000000000E+00 -0.00000000000E+00 -0.38498568682E+01  0.38498568682E+01  0.00000000000E+00 0. -1.
         21    1    1    2  503  502  0.22910799141E+02  0.45459783367E+01  0.32432188319E+02  0.39967705407E+02  0.00000000000E+00 0. -1.
         21    1    1    2  504  501 -0.22910799141E+02 -0.45459783367E+01  0.16612509464E+04  0.16614151430E+04  0.00000000000E+00 0.  1.
</event>
<event>
 4    1  0.1679763E+006  0.3829136E+02  0.7546771E-02  0.1358800E+00
         21   -1    0    0  504  501  0.00000000000E+00  0.00000000000E+00  0.37434748572E+03  0.37434748572E+03  0.00000000000E+00 0. -1.
         21   -1    0    0  503  502 -0.00000000000E+00 -0.00000000000E+00 -0.39177958975E+01  0.39177958975E+01  0.00000000000E+00 0. -1.
         21    1    1    2  503  501  0.16403751955E+02  0.34599789264E+02  0.18829328519E+03  0.19214731261E+03  0.00000000000E+00 0. -1.
         21    1    1    2  504  502 -0.16403751955E+02 -0.34599789264E+02  0.18213640463E+03  0.18611796901E+03  0.00000000000E+00 0. -1.
</event>
<event>
 4    1  0.1679763E+006  0.2277716E+02  0.7546771E-02  0.1495315E+00
         21   -1    0    0  503  501  0.00000000000E+00  0.00000000000E+00  0.34578883020E+01  0.34578883020E+01  0.00000000000E+00 0.  1.
         21   -1    0    0  504  502 -0.00000000000E+00 -0.00000000000E+00 -0.18392836145E+03  0.18392836145E+03  0.00000000000E+00 0. -1.
         21    1    1    2  503  502  0.19775383083E+02 -0.11301919934E+02 -0.13045598481E+03  0.13242946478E+03  0.00000000000E+00 0. -1.
         21    1    1    2  504  501 -0.19775383083E+02  0.11301919934E+02 -0.50014488338E+02  0.54956784968E+02  0.00000000000E+00 0.  1.
</event>
<event>
 4    1  0.1679763E+006  0.2791421E+02  0.7546771E-02  0.1438635E+00
         21   -1    0    0  503  501  0.00000000000E+00  0.00000000000E+00  0.20970983694E+02  0.20970983694E+02  0.00000000000E+00 0.  1.
         21   -1    0    0  504  502 -0.00000000000E+00 -0.00000000000E+00 -0.38430314261E+02  0.38430314261E+02  0.00000000000E+00 0.  1.
         21    1    1    2  503  502 -0.27644633574E+02 -0.38700489372E+01 -0.14137522241E+02  0.31290135496E+02  0.00000000000E+00 0.  1.
         21    1    1    2  504  501  0.27644633574E+02  0.38700489372E+01 -0.33218083264E+01  0.28111162459E+02  0.00000000000E+00 0.  1.
</event>
<event>
 4    1  0.1679763E+006  0.2257263E+02  0.7546771E-02  0.1497936E+00
         21   -1    0    0  502  501  0.00000000000E+00  0.00000000000E+00  0.93861741133E+02  0.93861741133E+02  0.00000000000E+00 0. -1.
         21   -1    0    0  503  502 -0.00000000000E+00 -0.00000000000E+00 -0.60545309475E+01  0.60545309475E+01  0.00000000000E+00 0.  1.
         21    1    1    2  503  504  0.18594185743E+00 -0.22571860200E+02  0.27838543089E+02  0.35840032486E+02  0.00000000000E+00 0. -1.
         21    1    1    2  504  501 -0.18594185743E+00  0.22571860200E+02  0.59968667096E+02  0.64076239595E+02  0.00000000000E+00 0.  1.
</event>
<event>
 4    1  0.1679763E+006  0.2577802E+02  0.7546771E-02  0.1460285E+00
         21   -1    0    0  504  501  0.00000000000E+00  0.00000000000E+00  0.26897949604E+03  0.26897949604E+03  0.00000000000E+00 0.  1.
         21   -1    0    0  503  502 -0.00000000000E+00 -0.00000000000E+00 -0.91228523750E+01  0.91228523750E+01  0.00000000000E+00 0.  1.
         21    1    1    2  503  501 -0.80995503415E+01  0.24472505736E+02  0.24866855057E+03  0.25000110859E+03  0.00000000000E+00 0.  1.
         21    1    1    2  504  502  0.80995503415E+01 -0.24472505736E+02  0.11188093096E+02  0.28101239828E+02  0.00000000000E+00 0.  1.
</event>
<event>
 4    1  0.1679763E+006  0.2608244E+02  0.7546771E-02  0.1457049E+00
         21   -1    0    0  503  501  0.00000000000E+00  0.00000000000E+00  0.12033780935E+02  0.12033780935E+02  0.00000000000E+00 0. -1.
         21   -1    0    0  501  502 -0.00000000000E+00 -0.00000000000E+00 -0.60815191645E+02  0.60815191645E+02  0.00000000000E+00 0. -1.
         21    1    1    2  503  504 -0.22404264014E+02 -0.13354493848E+02 -0.14724148967E+02  0.29951529423E+02  0.00000000000E+00 0. -1.
         21    1    1    2  504  502  0.22404264014E+02  0.13354493848E+02 -0.34057261743E+02  0.42897443157E+02  0.00000000000E+00 0. -1.
</event>
<event>
 4    1  0.1679763E+006  0.2432748E+02  0.7546771E-02  0.1476469E+00
         21   -1    0    0  503  501  0.00000000000E+00  0.00000000000E+00  0.90531630735E+02  0.90531630735E+02  0.00000000000E+00 0. -1.
         21   -1    0    0  501  502 -0.00000000000E+00 -0.00000000000E+00 -0.13579159732E+02  0.13579159732E+02  0.00000000000E+00 0.  1.
         21    1    1    2  503  504  0.57728034567E+00 -0.24320631788E+02  0.75962748511E+02  0.79763184142E+02  0.00000000000E+00 0. -1.
         21    1    1    2  504  502 -0.57728034567E+00  0.24320631788E+02  0.98972249207E+00  0.24347606325E+02  0.00000000000E+00 0.  1.
</event>
<event>
 4    1  0.1679763E+006  0.2325234E+02  0.7546771E-02  0.1489354E+00
         21   -1    0    0  504  501  0.00000000000E+00  0.00000000000E+00  0.11553273499E+04  0.11553273499E+04  0.00000000000E+00 0. -1.
         21   -1    0    0  503  502 -0.00000000000E+00 -0.00000000000E+00 -0.54247322680E+00  0.54247322680E+00  0.00000000000E+00 0. -1.
         21    1    1    2  503  501 -0.21068567777E+02  0.98380163136E+01  0.79155600721E+03  0.79189745780E+03  0.00000000000E+00 0. -1.
         21    1    1    2  504  502  0.21068567777E+02 -0.98380163136E+01  0.36322886948E+03  0.36397236535E+03  0.00000000000E+00 0. -1.
</event>
<event>
 4    1  0.1679763E+006  0.2280930E+02  0.7546771E-02  0.1494907E+00
         21   -1    0    0  504  501  0.00000000000E+00  0.00000000000E+00  0.71102585355E+02  0.71102585355E+02  0.00000000000E+00 0.  1.
         21   -1    0    0  503  502 -0.00000000000E+00 -0.00000000000E+00 -0.31920673696E+02  0.31920673696E+02  0.00000000000E+00 0.  1.
         21    1    1    2  503  501  0.85389603432E+01 -0.21150653648E+02 -0.25632989983E+02  0.34312012021E+02  0.00000000000E+00 0.  1.
         21    1    1    2  504  502 -0.85389603432E+01  0.21150653648E+02  0.64814901642E+02  0.68711247029E+02  0.00000000000E+00 0.  1.
</event>
<event>
 4    1  0.1679763E+006  0.2069318E+02  0.7546771E-02  0.1523691E+00
         21   -1    0    0  503  501  0.00000000000E+00  0.00000000000E+00  0.31447403814E+02  0.31447403814E+02  0.00000000000E+00 0.  1.
         21   -1    0    0  501  502 -0.00000000000E+00 -0.00000000000E+00 -0.60251824331E+02  0.60251824331E+02  0.00000000000E+00 0. -1.
         21    1    1    2  503  504  0.15866315652E+02  0.13284120049E+02  0.25935148360E+02  0.33178905020E+02  0.00000000000E+00 0.  1.
         21    1    1    2  504  502 -0.15866315652E+02 -0.13284120049E+02 -0.54739568877E+02  0.58520323126E+02  0.00000000000E+00 0. -1.
</event>
<event>
 4    1  0.1679763E+006  0.2466285E+02  0.7546771E-02  0.1472611E+00
         21   -1    0    0  502  501  0.00000000000E+00  0.00000000000E+00  0.87671726658E+00  0.87671726658E+00  0.00000000000E+00 0.  1.
         21   -1    0    0  503  502 -0.00000000000E+00 -0.00000000000E+00 -0.12619314029E+04  0.12619314029E+04  0.00000000000E+00 0. -1.
         21    1    1    2  503  504  0.69519914386E+00  0.24653048791E+02 -0.10541882523E+04  0.10544767078E+04  0.00000000000E+00 0. -1.
         21    1    1    2  504  501 -0.69519914386E+00 -0.24653048791E+02 -0.20686643332E+03  0.20833141230E+03  0.00000000000E+00 0.  1.
</event>
<event>
 4    1  0.1679763E+006  0.3109193E+02  0.7546771E-02  0.1410339E+00
         21   -1    0    0  503  501  0.00000000000E+00  0.00000000000E+00  0.20128628206E+03  0.20128628206E+03  0.00000000000E+00 0. -1.
         21   -1    0    0  501  502 -0.00000000000E+00 -0.00000000000E+00 -0.35814422750E+02  0.35814422750E+02  0.00000000000E+00 0. -1.
         21    1    1    2  503  504 -0.26934419780E+02 -0.15532067200E+02  0.19305158514E+03  0.19553931218E+03  0.00000000000E+00 0. -1.
         21    1    1    2  504  502  0.26934419780E+02  0.15532067200E+02 -0.27579725835E+02  0.41561392632E+02  0.00000000000E+00 0. -1.
</event>
<event>
 4    1  0.1679763E+006  0.2116832E+02  0.7546771E-02  0.1516875E+00
         21   -1    0    0  504  501  0.00000000000E+00  0.00000000000E+00  0.90456071572E+01  0.90456071572E+01  0.00000000000E+00 0. -1.
         21   -1    0    0  503  502 -0.00000000000E+00 -0.00000000000E+00 -0.11174342375E+04  0.11174342375E+04  0.00000000000E+00 0.  1.
         21    1    1    2  503  501  0.73372298882E+01  0.19856050563E+02 -0.11048080649E+04  0.11050108406E+04  0.00000000000E+00 0.  1.
         21    1    1    2  504  502 -0.73372298882E+01 -0.19856050563E+02 -0.35805655053E+01  0.21469004069E+02  0.00000000000E+00 0. -1.
</event>
<event>
 4    1  0.1679763E+006  0.2759129E+02  0.7546771E-02  0.1441757E+00
         21   -1    0    0  504  501  0.00000000000E+00  0.00000000000E+00  0.15239999761E+02  0.15239999761E+02  0.00000000000E+00 0. -1.
         21   -1    0    0  501  502 -0.00000000000E+00 -0.00000000000E+00 -0.13577600590E+03  0.13577600590E+03  0.00000000000E+00 0.  1.
         21    1    1    2  503  502  0.13785320387E+02  0.23900716815E+02 -0.12030017522E+03  0.12342370712E+03  0.00000000000E+00 0.  1.
         21    1    1    2  504  503 -0.13785320387E+02 -0.23900716815E+02 -0.23583092292E+00  0.27592298539E+02  0.00000000000E+00 0. -1.
</event>
<event>
 4    1  0.1679763E+006  0.2058920E+02  0.7546771E-02  0.1525212E+00
         21   -1    0    0  503  501  0.00000000000E+00  0.00000000000E+00  0.50440950940E+03  0.50440950940E+03  0.00000000000E+00 0. -1.
         21   -1    0    0  504  502 -0.00000000000E+00 -0.00000000000E+00 -0.19452131034E+01  0.19452131034E+01  0.00000000000E+00 0. -1.
         21    1    1    2  503  502  0.10297822802E+02 -0.17828905533E+02  0.44203377350E+03  0.44251301895E+03  0.00000000000E+00 0. -1.
         21    1    1    2  504  501 -0.10297822802E+02  0.17828905533E+02  0.60430522804E+02  0.63841703559E+02  0.00000000000E+00 0. -1.
</event>
<event>
 4    1  0.1679763E+006  0.2678060E+02  0.7546771E-02  0.1449825E+00
         21   -1    0    0  504  501  0.00000000000E+00  0.00000000000E+00  0.17407405097E+03  0.17407405097E+03  0.00000000000E+00 0.  1.
         21   -1    0    0  503  502 -0.00000000000E+00 -0.00000000000E+00 -0.24138166729E+03  0.24138166729E+03  0.00000000000E+00 0. -1.
         21    1    1    2  503  501 -0.25710247894E+02  0.74955926577E+01  0.17229359038E+03  0.17436250183E+03  0.00000000000E+00 0.  1.
         21    1    1    2  504  502  0.25710247894E+02 -0.74955926577E+01 -0.23960120670E+03  0.24109321643E+03  0.00000000000E+00 0. -1.
</event>
<event>
 4    1  0.1679763E+006  0.3766745E+02  0.7546771E-02  0.1362725E+00
         21   -1    0    0  503  501  0.00000000000E+00  0.00000000000E+00  0.40297647091E+02  0.40297647091E+02  0.00000000000E+00 0.  1.
         21   -1    0    0  504  502 -0.00000000000E+00 -0.00000000000E+00 -0.46866712030E+02  0.46866712030E+02  0.00000000000E+00 0.  1.
         21    1    1    2  503  502  0.34207590085E+02 -0.15769505564E+02  0.18451731714E+02  0.41944045208E+02  0.00000000000E+00 0.  1.
         21    1    1    2  504  501 -0.34207590085E+02  0.15769505564E+02 -0.25020796653E+02  0.45220313912E+02  0.00000000000E+00 0.  1.
</event>
<event>
 4    1  0.1679763E+006  0.2016082E+02  0.7546771E-02  0.1531591E+00
         21   -1    0    0  503  501  0.00000000000E+00  0.00000000000E+00  0.37870300950E+02  0.37870300950E+02  0.00000000000E+00 0. -1.
         21   -1    0    0  504  502 -0.00000000000E+00 -0.00000000000E+00 -0.28654955927E+02  0.28654955927E+02  0.00000000000E+00 0. -1.
         21    1    1    2  503  502 -0.20028561684E+02  0.23055411803E+01 -0.21698059910E+02  0.29618653026E+02  0.00000000000E+00 0. -1.
         21    1    1    2  504  501  0.20028561684E+02 -0.23055411803E+01  0.30913404933E+02  0.36906603851E+02  0.00000000000E+00 0. -1.
</event>
<event>
 4    1  0.1679763E+006  0.9218324E+02  0.7546771E-02  0.1178089E+00
         21   -1    0    0  504  501  0.00000000000E+00  0.00000000000E+00  0.64593346257E+03  0.64593346257E+03  0.00000000000E+00 0.  1.
         21   -1    0    0  503  502 -0.00000000000E+00 -0.00000000000E+00 -0.10681960498E+03  0.10681960498E+03  0.00000000000E+00 0. -1.
         21    1    1    2  503  501  0.38399744793E+02  0.83804593729E+02  0.62199517265E+03  0.62878911022E+03  0.00000000000E+00 0.  1.
         21    1    1    2  504  502 -0.38399744793E+02 -0.83804593729E+02 -0.82881315059E+02  0.12396395733E+03  0.00000000000E+00 0. -1.
</event>
<event>
 4    1  0.1679763E+006  0.3159927E+02  0.7546771E-02  0.1406190E+00
         21   -1    0    0  504  501  0.00000000000E+00  0.00000000000E+00  0.88133255381E+02  0.88133255381E+02  0.00000000000E+00 0.  1.
         21   -1    0    0  501  502 -0.00000000000E+00 -0.00000000000E+00 -0.51819289157E+03  0.51819289157E+03  0.00000000000E+00 0.  1.
         21    1    1    2  503  502 -0.71559764819E+01  0.30778336011E+02 -0.51486044876E+03  0.51582923110E+03  0.00000000000E+00 0.  1.
         21    1    1    2  504  503  0.71559764819E+01 -0.30778336011E+02  0.84800812564E+02  0.90496915851E+02  0.00000000000E+00 0.  1.
</event>
<event>
 4    1  0.1679763E+006  0.2071966E+02  0.7546771E-02  0.1523305E+00
         21   -1    0    0  504  501  0.00000000000E+00  0.00000000000E+00  0.11872179109E+04  0.11872179109E+04  0.00000000000E+00 0. -1.
         21   -1    0    0  503  502 -0.00000000000E+00 -0.00000000000E+00 -0.12242650696E+02  0.12242650696E+02  0.00000000000E+00 0. -1.
         21    1    1    2  503  501 -0.93532978452E+01  0.18488383141E+02  0.11782945487E+04  0.11784767066E+04  0.00000000000E+00 0. -1.
         21    1    1    2  504  502  0.93532978452E+01 -0.18488383141E+02 -0.33192885538E+01  0.20983854942E+02  0.00000000000E+00 0. -1.
</event>
<event>
 4    1  0.1679763E+006  0.2029356E+02  0.7546771E-02  0.1529594E+00
         21   -1    0    0  502  501  0.00000000000E+00  0.00000000000E+00  0.75589568497E+01  0.75589568497E+01  0.00000000000E+00 0. -1.
         21   -1    0    0  504  502 -0.00000000000E+00 -0.00000000000E+00 -0.83795887079E+02  0.83795887079E+02  0.00000000000E+00 0. -1.
         21    1    1    2  503  501  0.20239139534E+02 -0.14851574280E+01 -0.11102182477E+02  0.23131945820E+02  0.00000000000E+00 0. -1.
         21    1    1    2  504  503 -0.20239139534E+02  0.14851574280E+01 -0.65134747753E+02  0.68222898109E+02  0.00000000000E+00 0. -1.
</event>
<event>
 4    1  0.1679763E+006  0.4071055E+02  0.7546771E-02  0.1344372E+00
         21   -1    0    0  504  501  0.00000000000E+00  0.00000000000E+00  0.84723997089E+02  0.84723997089E+02  0.00000000000E+00 0. -1.
         21   -1    0    0  503  502 -0.00000000000E+00 -0.00000000000E+00 -0.20093341374E+02  0.20093341374E+02  0.00000000000E+00 0. -1.
         21    1    1    2  503  501 -0.10945323242E+02  0.39211595052E+02  0.23790850488E+02  0.47152453322E+02  0.00000000000E+00 0. -1.
         21    1    1    2  504  502  0.10945323242E+02 -0.39211595052E+02  0.40839805227E+02  0.57664885142E+02  0.00000000000E+00 0. -1.
</event>
<event>
 4    1  0.1679763E+006  0.2516017E+02  0.7546771E-02  0.1467019E+00
         21   -1    0    0  504  501  0.00000000000E+00  0.00000000000E+00  0.36155154462E+01  0.36155154462E+01  0.00000000000E+00 0.  1.
         21   -1    0    0  503  502 -0.00000000000E+00 -0.00000000000E+00 -0.43542988387E+03  0.43542988387E+03  0.00000000000E+00 0.  1.
         21    1    1    2  503  501  0.23621866265E+02  0.86626655148E+01 -0.46164089198E+02  0.52575255312E+02  0.00000000000E+00 0.  1.
         21    1    1    2  504  502 -0.23621866265E+02 -0.86626655148E+01 -0.38565027922E+03  0.38647014400E+03  0.00000000000E+00 0.  1.
</event>
<event>
 4    1  0.1679763E+006  0.4336337E+02  0.7546771E-02  0.1329829E+00
         21   -1    0    0  502  501  0.00000000000E+00  0.00000000000E+00  0.13679714506E+02  0.13679714506E+02  0.00000000000E+00 0.  1.
         21   -1    0    0  503  502 -0.00000000000E+00 -0.00000000000E+00 -0.14245409059E+03  0.14245409059E+03  0.00000000000E+00 0.  1.
         21    1    1    2  503  504  0.18634444214E+02 -0.39155327632E+02 -0.49766851908E+02  0.66008497498E+02  0.00000000000E+00 0.  1.
         21    1    1    2  504  501 -0.18634444214E+02  0.39155327632E+02 -0.79007524178E+02  0.90125307599E+02  0.00000000000E+00 0.  1.
</event>
<event>
 4    1  0.1679763E+006  0.5865301E+02  0.7546771E-02  0.1264479E+00
         21   -1    0    0  503  501  0.00000000000E+00  0.00000000000E+00  0.28929576548E+03  0.28929576548E+03  0.00000000000E+00 0.  1.
         21   -1    0    0  501  502 -0.00000000000E+00 -0.00000000000E+00 -0.33370537571E+02  0.33370537571E+02  0.00000000000E+00 0.  1.
         21    1    1    2  503  504 -0.28247563257E+02  0.51402828538E+02  0.25739677115E+03  0.26399483595E+03  0.00000000000E+00 0.  1.
         21    1    1    2  504  502  0.28247563257E+02 -0.51402828538E+02 -0.14715432428E+01  0.58671467096E+02  0.00000000000E+00 0.  1.
</event>
<event>
 4    1  0.1679763E+006  0.2283944E+02  0.7546771E-02  0.1494524E+00
         21   -1    0    0  503  501  0.00000000000E+00  0.00000000000E+00  0.15936126250E+02  0.15936126250E+02  0.00000000000E+00 0. -1.
         21   -1    0    0  504  502 -0.00000000000E+00 -0.00000000000E+00 -0.39880044567E+02  0.39880044567E+02  0.00000000000E+00 0.  1.
         21    1    1    2  503  502 -0.22350283773E+02  0.47015887888E+01 -0.23786312063E+02  0.32976184792E+02  0.00000000000E+00 0.  1.
         21    1    1    2  504  501  0.22350283773E+02 -0.47015887888E+01 -0.15760625480E+00  0.22839986025E+02  0.00000000000E+00 0. -1.
</event>
<event>
 4    1  0.1679763E+006  0.2380457E+02  0.7546771E-02  0.1482635E+00
         21   -1    0    0  504  501  0.00000000000E+00  0.00000000000E+00  0.24955622637E+01  0.24955622637E+01  0.00000000000E+00 0. -1.
         21   -1    0    0  503  502 -0.00000000000E+00 -0.00000000000E+00 -0.24086274946E+03  0.24086274946E+03  0.00000000000E+00 0. -1.
         21    1    1    2  503  501 -0.21258361676E+02  0.10711652589E+02 -0.14830545415E+03  0.15020374554E+03  0.00000000000E+00 0. -1.
         21    1    1    2  504  502  0.21258361676E+02 -0.10711652589E+02 -0.90061733042E+02  0.93154566183E+02  0.00000000000E+00 0. -1.
</event>
<event>
 4    1  0.1679763E+006  0.2377146E+02  0.7546771E-02  0.1483032E+00
         21   -1    0    0  503  501  0.00000000000E+00  0.00000000000E+00  0.10511034947E+03  0.10511034947E+03  0.00000000000E+00 0.  1.
         21   -1    0    0  504  502 -0.00000000000E+00 -0.00000000000E+00 -0.63410319085E+01  0.63410319085E+01  0.00000000000E+00 0. -1.
         21    1    1    2  503  502  0.11364703198E+02 -0.20878834704E+02  0.71123035243E+02  0.74990455123E+02  0.00000000000E+00 0.  1.
         21    1    1    2  504  501 -0.11364703198E+02  0.20878834704E+02  0.27646282317E+02  0.36460926254E+02  0.00000000000E+00 0. -1.
</event>
<event>
 4    1  0.1679763E+006  0.2145018E+02  0.7546771E-02  0.1512934E+00
         21   -1    0    0  503  501  0.00000000000E+00  0.00000000000E+00  0.28668562529E+01  0.28668562529E+01  0.00000000000E+00 0. -1.
         21   -1    0    0  504  502 -0.00000000000E+00 -0.00000000000E+00 -0.20834666238E+03  0.20834666238E+03  0.00000000000E+00 0. -1.
         21    1    1    2  503  502 -0.12944497035E+02  0.17104098651E+02 -0.15335222899E+03  0.15484513661E+03  0.00000000000E+00 0. -1.
         21    1    1    2  504  501  0.12944497035E+02 -0.17104098651E+02 -0.52127577128E+02  0.56368382018E+02  0.00000000000E+00 0. -1.
</event>
<event>
 4    1  0.1679763E+006  0.2300053E+02  0.7546771E-02  0.1492491E+00
         21   -1    0    0  502  501  0.00000000000E+00  0.00000000000E+00  0.93776257553E+03  0.93776257553E+03  0.00000000000E+00 0. -1.
         21   -1    0    0  503  502 -0.00000000000E+00 -0.00000000000E+00 -0.82483764461E+00  0.82483764461E+00  0.00000000000E+00 0. -1.
         21    1    1    2  503  504 -0.14593428259E+02 -0.17777975407E+02  0.20463330900E+03  0.20592186797E+03  0.00000000000E+00 0. -1.
         21    1    1    2  504  501  0.14593428259E+02  0.17777975407E+02  0.73230442889E+03  0.73266554521E+03  0.00000000000E+00 0. -1.
</event>
<event>
 4    1  0.1679763E+006  0.2696190E+02  0.7546771E-02  0.1447991E+00
         21   -1    0    0  502  501  0.00000000000E+00  0.00000000000E+00  0.87160154920E+02  0.87160154920E+02  0.00000000000E+00 0.  1.
         21   -1    0    0  504  502 -0.00000000000E+00 -0.00000000000E+00 -0.12533007428E+02  0.12533007428E+02  0.00000000000E+00 0.  1.
         21    1    1    2  503  501 -0.25583790463E+02 -0.85096151940E+01  0.66144181129E+02  0.71428261791E+02  0.00000000000E+00 0.  1.
         21    1    1    2  504  503  0.25583790463E+02  0.85096151940E+01  0.84829663626E+01  0.28264900557E+02  0.00000000000E+00 0.  1.
</event>
<event>
 4    1  0.1679763E+006  0.2170293E+02  0.7546771E-02  0.1509461E+00
         21   -1    0    0  503  501  0.00000000000E+00  0.00000000000E+00  0.71388212024E+02  0.71388212024E+02  0.00000000000E+00 0. -1.
         21   -1    0    0  504  502 -0.00000000000E+00 -0.00000000000E+00 -0.14054591529E+03  0.14054591529E+03  0.00000000000E+00 0. -1.
         21    1    1    2  503  502  0.14550283473E+02 -0.16102988164E+02  0.68870987842E+02  0.72209625004E+02  0.00000000000E+00 0. -1.
         21    1    1    2  504  501 -0.14550283473E+02  0.16102988164E+02 -0.13802869111E+03  0.13972450231E+03  0.00000000000E+00 0. -1.
</event>
<event>
 4    1  0.1679763E+006  0.2019010E+02  0.7546771E-02  0.1531149E+00
         21   -1    0    0  504  501  0.00000000000E+00  0.00000000000E+00  0.13244904798E+01  0.13244904798E+01  0.00000000000E+00 0.  1.
         21   -1    0    0  503  502 -0.00000000000E+00 -0.00000000000E+00 -0.79952734085E+03  0.79952734085E+03  0.00000000000E+00 0.  1.
         21    1    1    2  503  501  0.19268131175E+02  0.60315089105E+01 -0.85064708022E+02  0.87427939068E+02  0.00000000000E+00 0.  1.
         21    1    1    2  504  502 -0.19268131175E+02 -0.60315089105E+01 -0.71313814235E+03  0.71342389226E+03  0.00000000000E+00 0.  1.
</event>
<event>
 4    1  0.1679763E+006  0.2364320E+02  0.7546771E-02  0.1484576E+00
         21   -1    0    0  503  501  0.00000000000E+00  0.00000000000E+00  0.11357462540E+02  0.11357462540E+02  0.00000000000E+00 0. -1.
         21   -1    0    0  504  502 -0.00000000000E+00 -0.00000000000E+00 -0.88235820685E+02  0.88235820685E+02  0.00000000000E+00 0.  1.
         21    1    1    2  503  502  0.21157723190E+02  0.10552329866E+02 -0.53257219722E+01  0.24235598418E+02  0.00000000000E+00 0. -1.
         21    1    1    2  504  501 -0.21157723190E+02 -0.10552329866E+02 -0.71552636172E+02  0.75357684806E+02  0.00000000000E+00 0.  1.
</event>
<event>
 4    1  0.1679763E+006  0.2084811E+02  0.7546771E-02  0.1521445E+00
         21   -1    0    0  502  501  0.00000000000E+00  0.00000000000E+00  0.79267834882E+02  0.79267834882E+02  0.00000000000E+00 0. -1.
         21   -1    0    0  503  502 -0.00000000000E+00 -0.00000000000E+00 -0.53935934411E+02  0.53935934411E+02  0.00000000000E+00 0. -1.
         21    1    1    2  503  504  0.19004040449E+01 -0.20761311934E+02 -0.50459782968E+02  0.54597008214E+02  0.00000000000E+00 0. -1.
         21    1    1    2  504  501 -0.19004040449E+01  0.20761311934E+02  0.75791683439E+02  0.78606761079E+02  0.00000000000E+00 0. -1.
</event>
<event>
 4    1  0.1679763E+006  0.2980242E+02  0.7546771E-02  0.1421321E+00
         21   -1    0    0  503  501  0.00000000000E+00  0.00000000000E+00  0.28892810660E+02  0.28892810660E+02  0.00000000000E+00 0. -1.
         21   -1    0    0  504  502 -0.00000000000E+00 -0.00000000000E+00 -0.28616159764E+03  0.28616159764E+03  0.00000000000E+00 0. -1.
         21    1    1    2  503  502 -0.29352615072E+01 -0.29657524118E+02 -0.27746015862E+03  0.27905613077E+03  0.00000000000E+00 0. -1.
         21    1    1    2  504  501  0.29352615072E+01  0.29657524118E+02  0.20191371637E+02  0.35998277535E+02  0.00000000000E+00 0. -1.
</event>
<event>
 4    1  0.1679763E+006  0.2090238E+02  0.7546771E-02  0.1520663E+00
         21   -1    0    0  503  501  0.00000000000E+00  0.00000000000E+00  0.46160423824E+02  0.46160423824E+02  0.00000000000E+00 0.  1.
         21   -1    0    0  504  502 -0.00000000000E+00 -0.00000000000E+00 -0.60731381988E+02  0.60731381988E+02  0.00000000000E+00 0.  1.
         21    1    1    2  503  502  0.22489354830E-01 -0.20902363747E+02  0.41819336910E+02  0.46752179154E+02  0.00000000000E+00 0.  1.
         21    1    1    2  504  501 -0.22489354830E-01  0.20902363747E+02 -0.56390295074E+02  0.60139626658E+02  0.00000000000E+00 0.  1.
</event>
<event>
 4    1  0.1679763E+006  0.2537906E+02  0.7546771E-02  0.1464607E+00
         21   -1    0    0  504  501  0.00000000000E+00  0.00000000000E+00  0.22156163777E+02  0.22156163777E+02  0.00000000000E+00 0. -1.
         21   -1    0    0  503  502 -0.00000000000E+00 -0.00000000000E+00 -0.36298367678E+02  0.36298367678E+02  0.00000000000E+00 0.  1.
         21    1    1    2  503  501 -0.19277699970E+02  0.16506568134E+02 -0.20113034263E+02  0.32382567146E+02  0.00000000000E+00 0.  1.
         21    1    1    2  504  502  0.19277699970E+02 -0.16506568134E+02  0.59708303614E+01  0.26071964309E+02  0.00000000000E+00 0. -1.
</event>
<event>
 4    1  0.1679763E+006  0.3901056E+02  0.7546771E-02  0.1354383E+00
         21   -1    0    0  503  501  0.00000000000E+00  0.00000000000E+00  0.70580943265E+03  0.70580943265E+03  0.00000000000E+00 0. -1.
         21   -1    0    0  501  502 -0.00000000000E+00 -0.00000000000E+00 -0.25771329733E+02  0.25771329733E+02  0.00000000000E+00 0. -1.
         21    1    1    2  503  504 -0.18058250007E+02  0.34579228984E+02  0.69017345561E+03  0.69127506992E+03  0.00000000000E+00 0. -1.
         21    1    1    2  504  502  0.18058250007E+02 -0.34579228984E+02 -0.10135352692E+02  0.40305692459E+02  0.00000000000E+00 0. -1.
</event>
<event>
 4    1  0.1679763E+006  0.2432428E+02  0.7546771E-02  0.1476506E+00
         21   -1    0    0  502  501  0.00000000000E+00  0.00000000000E+00  0.12061397049E+02  0.12061397049E+02  0.00000000000E+00 0. -1.
         21   -1    0    0  503  502 -0.00000000000E+00 -0.00000000000E+00 -0.10768989207E+03  0.10768989207E+03  0.00000000000E+00 0.  1.
         21    1    1    2  503  504  0.23892732189E+02  0.45615937745E+01 -0.91995814614E+02  0.95157241951E+02  0.00000000000E+00 0.  1.
         21    1    1    2  504  501 -0.23892732189E+02 -0.45615937745E+01 -0.36326804078E+01  0.24594047169E+02  0.00000000000E+00 0. -1.
</event>
<event>
 4    1  0.1679763E+006  0.2262401E+02  0.7546771E-02  0.1497274E+00
         21   -1    0    0  503  501  0.00000000000E+00  0.00000000000E+00  0.48345741538E+02  0.48345741538E+02  0.00000000000E+00 0. -1.
         21   -1    0    0  504  502 -0.00000000000E+00 -0.00000000000E+00 -0.13836466773E+02  0.13836466773E+02  0.00000000000E+00 0. -1.
         21    1    1    2  503  502  0.10612862658E+02 -0.19980314624E+02  0.21879937410E+01  0.22729565392E+02  0.00000000000E+00 0. -1.
         21    1    1    2  504  501 -0.10612862658E+02  0.19980314624E+02  0.32321281024E+02  0.39452642919E+02  0.00000000000E+00 0. -1.
</event>
<event>
 4    1  0.1679763E+006  0.2110852E+02  0.7546771E-02  0.1517721E+00
         21   -1    0    0  503  501  0.00000000000E+00  0.00000000000E+00  0.90933722474E+02  0.90933722474E+02  0.00000000000E+00 0. -1.
         21   -1    0    0  504  502 -0.00000000000E+00 -0.00000000000E+00 -0.65942585635E+01  0.65942585635E+01  0.00000000000E+00 0. -1.
         21    1    1    2  503  502  0.21091481387E+02  0.84790527637E+00  0.66887778415E+02  0.70139464154E+02  0.00000000000E+00 0. -1.
         21    1    1    2  504  501 -0.21091481387E+02 -0.84790527637E+00  0.17451685495E+02  0.27388516884E+02  0.00000000000E+00 0. -1.
</event>
<event>
 4    1  0.1679763E+006  0.2879594E+02  0.7546771E-02  0.1430356E+00
         21   -1    0    0  504  501  0.00000000000E+00  0.00000000000E+00  0.16602988763E+01  0.16602988763E+01  0.00000000000E+00 0. -1.
         21   -1    0    0  503  502 -0.00000000000E+00 -0.00000000000E+00 -0.58457105709E+03  0.58457105709E+03  0.00000000000E+00 0. -1.
         21    1    1    2  503  501  0.13506409735E+02 -0.25431931904E+02 -0.17959275511E+03  0.18188667888E+03  0.00000000000E+00 0. -1.
         21    1    1    2  504  502 -0.13506409735E+02  0.25431931904E+02 -0.40331800310E+03  0.40434467709E+03  0.00000000000E+00 0. -1.
</event>
<event>
 4    1  0.1679763E+006  0.2078647E+02  0.7546771E-02  0.1522335E+00
         21   -1    0    0  502  501  0.00000000000E+00  0.00000000000E+00  0.13459426450E+02  0.13459426450E+02  0.00000000000E+00 0. -1.
         21   -1    0    0  504  502 -0.00000000000E+00 -0.00000000000E+00 -0.14917271231E+03  0.14917271231E+03  0.00000000000E+00 0.  1.
         21    1    1    2  503  501 -0.12435406606E+02 -0.16656474115E+02  0.41803220601E+01  0.21202654549E+02  0.00000000000E+00 0. -1.
         21    1    1    2  504  503  0.12435406606E+02  0.16656474115E+02 -0.13989360792E+03  0.14142948421E+03  0.00000000000E+00 0.  1.
</event>
<event>
 4    1  0.1679763E+006  0.2187857E+02  0.7546771E-02  0.1507081E+00
         21   -1    0    0  504  501  0.00000000000E+00  0.00000000000E+00  0.20341242327E+01  0.20341242327E+01  0.00000000000E+00 0. -1.
         21   -1    0    0  501  502 -0.00000000000E+00 -0.00000000000E+00 -0.42875798330E+03  0.42875798330E+03  0.00000000000E+00 0. -1.
         21    1    1    2  503  502  0.45727887213E+01 -0.21395360650E+02 -0.35803961438E+03  0.35870745367E+03  0.00000000000E+00 0. -1.
         21    1    1    2  504  503 -0.45727887213E+01  0.21395360650E+02 -0.68684244688E+02  0.72084653862E+02  0.00000000000E+00 0. -1.
</event>
<event>
 4    1  0.1679763E+006  0.2417012E+02  0.7546771E-02  0.1478305E+00
         21   -1    0    0  504  501  0.00000000000E+00  0.00000000000E+00  0.12945186181E+02  0.12945186181E+02  0.00000000000E+00 0. -1.
         21   -1    0    0  501  502 -0.00000000000E+00 -0.00000000000E+00 -0.57067484492E+02  0.57067484492E+02  0.00000000000E+00 0.  1.
         21    1    1    2  503  502  0.16269120811E+01 -0.24115306957E+02 -0.38072896724E+02  0.45097010294E+02  0.00000000000E+00 0.  1.
         21    1    1    2  504  503 -0.16269120811E+01  0.24115306957E+02 -0.60494015871E+01  0.24915660378E+02  0.00000000000E+00 0. -1.
</event>
<event>
 4    1  0.1679763E+006  0.2390978E+02  0.7546771E-02  0.1481379E+00
         21   -1    0    0  503  501  0.00000000000E+00  0.00000000000E+00  0.75246899280E+01  0.75246899280E+01  0.00000000000E+00 0. -1.
         21   -1    0    0  501  502 -0.00000000000E+00 -0.00000000000E+00 -0.18201000757E+03  0.18201000757E+03  0.00000000000E+00 0. -1.
         21    1    1    2  503  504  0.14736523952E+02  0.18828497139E+02 -0.14909289977E+02  0.28177373375E+02  0.00000000000E+00 0. -1.
         21    1    1    2  504  502 -0.14736523952E+02 -0.18828497139E+02 -0.15957602766E+03  0.16135732412E+03  0.00000000000E+00 0. -1.
</event>
<event>
 4    1  0.1679763E+006  0.2199592E+02  0.7546771E-02  0.1505507E+00
         21   -1    0    0  504  501  0.00000000000E+00  0.00000000000E+00  0.48195059954E+01  0.48195059954E+01  0.00000000000E+00 0. -1.
         21   -1    0    0  503  502 -0.00000000000E+00 -0.00000000000E+00 -0.19828610069E+03  0.19828610069E+03  0.00000000000E+00 0. -1.
         21    1    1    2  503  501 -0.41880948987E+01 -0.21593526480E+02 -0.25376897033E+02  0.33582844247E+02  0.00000000000E+00 0. -1.
         21    1    1    2  504  502  0.41880948987E+01  0.21593526480E+02 -0.16808969766E+03  0.16952276244E+03  0.00000000000E+00 0. -1.
</event>
<event>
 4    1  0.1679763E+006  0.2094251E+02  0.7546771E-02  0.1520087E+00
         21   -1    0    0  503  501  0.00000000000E+00  0.00000000000E+00  0.23498600861E+02  0.23498600861E+02  0.00000000000E+00 0. -1.
         21   -1    0    0  504  502 -0.00000000000E+00 -0.00000000000E+00 -0.36499438350E+02  0.36499438350E+02  0.00000000000E+00 0. -1.
         21    1    1    2  503  502 -0.19851810220E+02  0.66703951967E+01  0.14469673671E+02  0.25455058382E+02  0.00000000000E+00 0. -1.
         21    1    1    2  504  501  0.19851810220E+02 -0.66703951967E+01 -0.27470511160E+02  0.34542980829E+02  0.00000000000E+00 0. -1.
</event>
<event>
 4    1  0.1679763E+006  0.2115169E+02  0.7546771E-02  0.1517110E+00
         21   -1    0    0  503  501  0.00000000000E+00  0.00000000000E+00  0.62618854803E+01  0.62618854803E+01  0.00000000000E+00 0. -1.
         21   -1    0    0  504  502 -0.00000000000E+00 -0.00000000000E+00 -0.10872818421E+03  0.10872818421E+03  0.00000000000E+00 0.  1.
         21    1    1    2  503  502 -0.24232608179E+01  0.21012418435E+02 -0.84900055096E+02  0.87495218594E+02  0.00000000000E+00 0.  1.
         21    1    1    2  504  501  0.24232608179E+01 -0.21012418435E+02 -0.17566243637E+02  0.27494851100E+02  0.00000000000E+00 0. -1.
</event>
<event>
 4    1  0.1679763E+006  0.2471914E+02  0.7546771E-02  0.1471970E+00
         21   -1    0    0  502  501  0.00000000000E+00  0.00000000000E+00  0.37984540321E+01  0.37984540321E+01  0.00000000000E+00 0.  1.
         21   -1    0    0  503  502 -0.00000000000E+00 -0.00000000000E+00 -0.21772852849E+03  0.21772852849E+03  0.00000000000E+00 0.  1.
         21    1    1    2  503  504  0.21931057369E+02  0.11404591150E+02 -0.16357048285E+03  0.16542774506E+03  0.00000000000E+00 0.  1.
         21    1    1    2  504  501 -0.21931057369E+02 -0.11404591150E+02 -0.50359591607E+02  0.56099237459E+02  0.00000000000E+00 0.  1.
</event>
<event>
 4    1  0.1679763E+006  0.2381731E+02  0.7546771E-02  0.1482482E+00
         21   -1    0    0  504  501  0.00000000000E+00  0.00000000000E+00  0.12111212459E+02  0.12111212459E+02  0.00000000000E+00 0.  1.
         21   -1    0    0  501  502 -0.00000000000E+00 -0.00000000000E+00 -0.84049193229E+02  0.84049193229E+02  0.00000000000E+00 0.  1.
         21    1    1    2  503  502 -0.22844202894E+02 -0.67384345152E+01 -0.67960647104E+02  0.72013288082E+02  0.00000000000E+00 0.  1.
         21    1    1    2  504  503  0.22844202894E+02  0.67384345152E+01 -0.39773336656E+01  0.24147117606E+02  0.00000000000E+00 0.  1.
</event>
<event>
 4    1  0.1679763E+006  0.2155229E+02  0.7546771E-02  0.1511524E+00
         21   -1    0    0  504  501  0.00000000000E+00  0.00000000000E+00  0.95489242733E+01  0.95489242733E+01  0.00000000000E+00 0.  1.
         21   -1    0    0  503  502 -0.00000000000E+00 -0.00000000000E+00 -0.49115790443E+02  0.49115790443E+02  0.00000000000E+00 0.  1.
         21    1    1    2  503  501  0.21487344117E+02  0.16718922633E+01 -0.22657199293E+02  0.31270590989E+02  0.00000000000E+00 0.  1.
         21    1    1    2  504  502 -0.21487344117E+02 -0.16718922633E+01 -0.16909666877E+02  0.27394123728E+02  0.00000000000E+00 0.  1.
</event>
<event>
 4    1  0.1679763E+006  0.2207678E+02  0.7546771E-02  0.1504428E+00
         21   -1    0    0  504  501  0.00000000000E+00  0.00000000000E+00  0.22958095499E+02  0.22958095499E+02  0.00000000000E+00 0.  1.
         21   -1    0    0  501  502 -0.00000000000E+00 -0.00000000000E+00 -0.73251300479E+02  0.73251300479E+02  0.00000000000E+00 0.  1.
         21    1    1    2  503  502 -0.20586754321E+02  0.79730641778E+01 -0.65685633491E+02  0.69296368253E+02  0.00000000000E+00 0.  1.
         21    1    1    2  504  503  0.20586754321E+02 -0.79730641778E+01  0.15392428511E+02  0.26913027725E+02  0.00000000000E+00 0.  1.
</event>
<event>
 4    1  0.1679763E+006  0.2020757E+02  0.7546771E-02  0.1530886E+00
         21   -1    0    0  504  501  0.00000000000E+00  0.00000000000E+00  0.11590818442E+03  0.11590818442E+03  0.00000000000E+00 0. -1.
         21   -1    0    0  503  502 -0.00000000000E+00 -0.00000000000E+00 -0.39799398775E+01  0.39799398775E+01  0.00000000000E+00 0.  1.
         21    1    1    2  503  501  0.10263179005E+02 -0.17407266939E+02  0.76275169308E+02  0.78906572847E+02  0.00000000000E+00 0. -1.
         21    1    1    2  504  502 -0.10263179005E+02  0.17407266939E+02  0.35653075236E+02  0.40981551452E+02  0.00000000000E+00 0.  1.
</event>
<event>
 4    1  0.1679763E+006  0.4901424E+02  0.7546771E-02  0.1302504E+00
         21   -1    0    0  504  501  0.00000000000E+00  0.00000000000E+00  0.13636275816E+03  0.13636275816E+03  0.00000000000E+00 0.  1.
         21   -1    0    0  501  502 -0.00000000000E+00 -0.00000000000E+00 -0.36650579293E+02  0.36650579293E+02  0.00000000000E+00 0. -1.
         21    1    1    2  503  502 -0.40348220988E+02 -0.27828351706E+02 -0.12483162460E+02  0.50578903118E+02  0.00000000000E+00 0. -1.
         21    1    1    2  504  503  0.40348220988E+02  0.27828351706E+02  0.11219534133E+03  0.12243443434E+03  0.00000000000E+00 0.  1.
</event>
<event>
 4    1  0.1679763E+006  0.2854208E+02  0.7546771E-02  0.1432704E+00
         21   -1    0    0  504  501  0.00000000000E+00  0.00000000000E+00  0.24113574847E+03  0.24113574847E+03  0.00000000000E+00 0.  1.
         21   -1    0    0  501  502 -0.00000000000E+00 -0.00000000000E+00 -0.36953998683E+02  0.36953998683E+02  0.00000000000E+00 0.  1.
         21    1    1    2  503  502  0.22669884802E+02 -0.17341479685E+02 -0.30445842366E+02  0.41732480300E+02  0.00000000000E+00 0.  1.
         21    1    1    2  504  503 -0.22669884802E+02  0.17341479685E+02  0.23462759216E+03  0.23635726686E+03  0.00000000000E+00 0.  1.
</event>
<event>
 4    1  0.1679763E+006  0.2278270E+02  0.7546771E-02  0.1495245E+00
         21   -1    0    0  503  501  0.00000000000E+00  0.00000000000E+00  0.45602737090E+03  0.45602737090E+03  0.00000000000E+00 0.  1.
         21   -1    0    0  504  502 -0.00000000000E+00 -0.00000000000E+00 -0.57906462419E+01  0.57906462419E+01  0.00000000000E+00 0.  1.
         21    1    1    2  503  502  0.22141868400E+02 -0.53655600961E+01  0.18143350200E+02  0.29124435237E+02  0.00000000000E+00 0.  1.
         21    1    1    2  504  501 -0.22141868400E+02  0.53655600961E+01  0.43209337446E+03  0.43269358190E+03  0.00000000000E+00 0.  1.
</event>
<event>
 4    1  0.1679763E+006  0.2320528E+02  0.7546771E-02  0.1489936E+00
         21   -1    0    0  504  501  0.00000000000E+00  0.00000000000E+00  0.20410873290E+02  0.20410873290E+02  0.00000000000E+00 0. -1.
         21   -1    0    0  503  502 -0.00000000000E+00 -0.00000000000E+00 -0.60333310251E+02  0.60333310251E+02  0.00000000000E+00 0. -1.
         21    1    1    2  503  501 -0.23022168900E+02 -0.29093868578E+01  0.10323904095E+02  0.25398184749E+02  0.00000000000E+00 0. -1.
         21    1    1    2  504  502  0.23022168900E+02  0.29093868578E+01 -0.50246341056E+02  0.55345998792E+02  0.00000000000E+00 0. -1.
</event>
<event>
 4    1  0.1679763E+006  0.2752441E+02  0.7546771E-02  0.1442410E+00
         21   -1    0    0  503  501  0.00000000000E+00  0.00000000000E+00  0.33341637284E+01  0.33341637284E+01  0.00000000000E+00 0. -1.
         21   -1    0    0  504  502 -0.00000000000E+00 -0.00000000000E+00 -0.23628739052E+03  0.23628739052E+03  0.00000000000E+00 0. -1.
         21    1    1    2  503  502  0.72036330358E+01  0.26565028783E+02 -0.13994510412E+03  0.14262617309E+03  0.00000000000E+00 0. -1.
         21    1    1    2  504  501 -0.72036330358E+01 -0.26565028783E+02 -0.93008122672E+02  0.96995381159E+02  0.00000000000E+00 0. -1.
</event>
<event>
 4    1  0.1679763E+006  0.2261628E+02  0.7546771E-02  0.1497374E+00
         21   -1    0    0  503  501  0.00000000000E+00  0.00000000000E+00  0.47233046327E+02  0.47233046327E+02  0.00000000000E+00 0. -1.
         21   -1    0    0  501  502 -0.00000000000E+00 -0.00000000000E+00 -0.20392769496E+02  0.20392769496E+02  0.00000000000E+00 0. -1.
         21    1    1    2  503  504  0.21971530229E+02 -0.53617340300E+01  0.36575646584E+02  0.43003188898E+02  0.00000000000E+00 0. -1.
         21    1    1    2  504  502 -0.21971530229E+02  0.53617340300E+01 -0.97353697526E+01  0.24622626924E+02  0.00000000000E+00 0. -1.
</event>
<event>
 4    1  0.1679763E+006  0.2051762E+02  0.7546771E-02  0.1526265E+00
         21   -1    0    0  504  501  0.00000000000E+00  0.00000000000E+00  0.70444337852E+02  0.70444337852E+02  0.00000000000E+00 0.  1.
         21   -1    0    0  501  502 -0.00000000000E+00 -0.00000000000E+00 -0.60284639180E+01  0.60284639180E+01  0.00000000000E+00 0.  1.
         21    1    1    2  503  502  0.25607660731E+01 -0.20357194319E+02  0.28639732991E+02  0.35230770489E+02  0.00000000000E+00 0.  1.
         21    1    1    2  504  503 -0.25607660731E+01  0.20357194319E+02  0.35776140943E+02  0.41242031282E+02  0.00000000000E+00 0.  1.
</event>
<event>
 4    1  0.1679763E+006  0.2695538E+02  0.7546771E-02  0.1448057E+00
         21   -1    0    0  503  501  0.00000000000E+00  0.00000000000E+00  0.42892983010E+03  0.42892983010E+03  0.00000000000E+00 0. -1.
         21   -1    0    0  504  502 -0.00000000000E+00 -0.00000000000E+00 -0.28310636201E+01  0.28310636201E+01  0.00000000000E+00 0. -1.
         21    1    1    2  503  502 -0.16450410461E+01  0.26905140831E+02  0.34986550437E+03  0.35090235667E+03  0.00000000000E+00 0. -1.
         21    1    1    2  504  501  0.16450410461E+01 -0.26905140831E+02  0.76233262110E+02  0.80858537057E+02  0.00000000000E+00 0. -1.
</event>
<event>
 4    1  0.1679763E+006  0.2285302E+02  0.7546771E-02  0.1494352E+00
         21   -1    0    0  504  501  0.00000000000E+00  0.00000000000E+00  0.44264090496E+01  0.44264090496E+01  0.00000000000E+00 0.  1.
         21   -1    0    0  503  502 -0.00000000000E+00 -0.00000000000E+00 -0.18853777180E+03  0.18853777180E+03  0.00000000000E+00 0.  1.
         21    1    1    2  503  501 -0.11167429901E+02 -0.19938629447E+02 -0.15107541089E+03  0.15279411052E+03  0.00000000000E+00 0.  1.
         21    1    1    2  504  502  0.11167429901E+02  0.19938629447E+02 -0.33035951864E+02  0.40170070330E+02  0.00000000000E+00 0.  1.
</event>
<event>
 4    1  0.1679763E+006  0.2655132E+02  0.7546771E-02  0.1452168E+00
         21   -1    0    0  503  501  0.00000000000E+00  0.00000000000E+00  0.61226721160E+01  0.61226721160E+01  0.00000000000E+00 0.  1.
         21   -1    0    0  501  502 -0.00000000000E+00 -0.00000000000E+00 -0.36590515399E+03  0.36590515399E+03  0.00000000000E+00 0.  1.
         21    1    1    2  503  504 -0.14209668073E+02 -0.22428958269E+02 -0.25900866311E+02  0.37092151615E+02  0.00000000000E+00 0.  1.
         21    1    1    2  504  502  0.14209668073E+02  0.22428958269E+02 -0.33388161557E+03  0.33493567450E+03  0.00000000000E+00 0.  1.
</event>
<event>
 4    1  0.1679763E+006  0.2121766E+02  0.7546771E-02  0.1516180E+00
         21   -1    0    0  502  501  0.00000000000E+00  0.00000000000E+00  0.15669239922E+03  0.15669239922E+03  0.00000000000E+00 0. -1.
         21   -1    0    0  504  502 -0.00000000000E+00 -0.00000000000E+00 -0.22512251419E+02  0.22512251419E+02  0.00000000000E+00 0. -1.
         21    1    1    2  503  501  0.69382402389E+01  0.20051186236E+02  0.15077966281E+03  0.15226521587E+03  0.00000000000E+00 0. -1.
         21    1    1    2  504  503 -0.69382402389E+01 -0.20051186236E+02 -0.16599515009E+02  0.26939434768E+02  0.00000000000E+00 0. -1.
</event>
<event>
 4    1  0.1679763E+006  0.2678527E+02  0.7546771E-02  0.1449777E+00
         21   -1    0    0  503  501  0.00000000000E+00  0.00000000000E+00  0.44941516145E+02  0.44941516145E+02  0.00000000000E+00 0. -1.
         21   -1    0    0  504  502 -0.00000000000E+00 -0.00000000000E+00 -0.38069827945E+02  0.38069827945E+02  0.00000000000E+00 0.  1.
         21    1    1    2  503  502  0.22558036652E+02  0.14442494528E+02 -0.28191989526E+02  0.38887516496E+02  0.00000000000E+00 0.  1.
         21    1    1    2  504  501 -0.22558036652E+02 -0.14442494528E+02  0.35063677726E+02  0.44123827593E+02  0.00000000000E+00 0. -1.
</event>
<event>
 4    1  0.1679763E+006  0.3939194E+02  0.7546771E-02  0.1352086E+00
         21   -1    0    0  503  501  0.00000000000E+00  0.00000000000E+00  0.69072491122E+03  0.69072491122E+03  0.00000000000E+00 0.  1.
         21   -1    0    0  504  502 -0.00000000000E+00 -0.00000000000E+00 -0.11749741724E+02  0.11749741724E+02  0.00000000000E+00 0.  1.
         21    1    1    2  503  502  0.38762702065E+02  0.70126651861E+01  0.23607660112E+02  0.45924352585E+02  0.00000000000E+00 0.  1.
         21    1    1    2  504  501 -0.38762702065E+02 -0.70126651861E+01  0.65536750938E+03  0.65655030036E+03  0.00000000000E+00 0.  1.
</event>
<event>
 4    1  0.1679763E+006  0.3913616E+02  0.7546771E-02  0.1353624E+00
         21   -1    0    0  504  501  0.00000000000E+00  0.00000000000E+00  0.83032116994E+01  0.83032116994E+01  0.00000000000E+00 0.  1.
         21   -1    0    0  503  502 -0.00000000000E+00 -0.00000000000E+00 -0.35104196693E+03  0.35104196693E+03  0.00000000000E+00 0. -1.
         21    1    1    2  503  501  0.10556607292E+02  0.37685506317E+02 -0.47600412256E+02  0.61623360756E+02  0.00000000000E+00 0.  1.
         21    1    1    2  504  502 -0.10556607292E+02 -0.37685506317E+02 -0.29513834297E+03  0.29772181787E+03  0.00000000000E+00 0. -1.
</event>
<event>
 4    1  0.1679763E+006  0.3709447E+02  0.7546771E-02  0.1366408E+00
         21   -1    0    0  503  501  0.00000000000E+00  0.00000000000E+00  0.42651925670E+03  0.42651925670E+03  0.00000000000E+00 0. -1.
         21   -1    0    0  504  502 -0.00000000000E+00 -0.00000000000E+00 -0.38432681104E+02  0.38432681104E+02  0.00000000000E+00 0.  1.
         21    1    1    2  503  502 -0.24261074964E+02 -0.28060648905E+02  0.41654818036E+03  0.41819658815E+03  0.00000000000E+00 0. -1.
         21    1    1    2  504  501  0.24261074964E+02  0.28060648905E+02 -0.28461604768E+02  0.46755349654E+02  0.00000000000E+00 0.  1.
</event>
<event>
 4    1  0.1679763E+006  0.3046622E+02  0.7546771E-02  0.1415587E+00
         21   -1    0    0  504  501  0.00000000000E+00  0.00000000000E+00  0.74118134537E+02  0.74118134537E+02  0.00000000000E+00 0.  1.
         21   -1    0    0  501  502 -0.00000000000E+00 -0.00000000000E+00 -0.37497266635E+02  0.37497266635E+02  0.00000000000E+00 0. -1.
         21    1    1    2  503  502  0.20447271039E+02 -0.22585383493E+02 -0.27234453666E+02  0.40864482217E+02  0.00000000000E+00 0. -1.
         21    1    1    2  504  503 -0.20447271039E+02  0.22585383493E+02  0.63855321568E+02  0.70750918955E+02  0.00000000000E+00 0.  1.
</event>
<event>
 4    1  0.1679763E+006  0.2092092E+02  0.7546771E-02  0.1520397E+00
         21   -1    0    0  504  501  0.00000000000E+00  0.00000000000E+00  0.23937262375E+02  0.23937262375E+02  0.00000000000E+00 0.  1.
         21   -1    0    0  503  502 -0.00000000000E+00 -0.00000000000E+00 -0.98909204908E+02  0.98909204908E+02  0.00000000000E+00 0.  1.
         21    1    1    2  503  501  0.84002932871E+01 -0.19160376505E+02  0.17969950801E+02  0.27579051596E+02  0.00000000000E+00 0.  1.
         21    1    1    2  504  502 -0.84002932871E+01  0.19160376505E+02 -0.92941893335E+02  0.95267415687E+02  0.00000000000E+00 0.  1.
</event>
<event>
 4    1  0.1679763E+006  0.6812104E+02  0.7546771E-02  0.1234485E+00
         21   -1    0    0  503  501  0.00000000000E+00  0.00000000000E+00  0.96000821598E+02  0.96000821598E+02  0.00000000000E+00 0.  1.
         21   -1    0    0  504  502 -0.00000000000E+00 -0.00000000000E+00 -0.57276432972E+02  0.57276432972E+02  0.00000000000E+00 0. -1.
         21    1    1    2  503  502  0.44053526672E+02 -0.51959236364E+02  0.49637848190E+02  0.84287552039E+02  0.00000000000E+00 0. -1.
         21    1    1    2  504  501 -0.44053526672E+02  0.51959236364E+02 -0.10913459564E+02  0.68989702532E+02  0.00000000000E+00 0.  1.
</event>
<event>
 4    1  0.1679763E+006  0.2199446E+02  0.7546771E-02  0.1505526E+00
         21   -1    0    0  504  501  0.00000000000E+00  0.00000000000E+00  0.94304335123E+02  0.94304335123E+02  0.00000000000E+00 0.  1.
         21   -1    0    0  501  502 -0.00000000000E+00 -0.00000000000E+00 -0.81931323057E+01  0.81931323057E+01  0.00000000000E+00 0.  1.
         21    1    1    2  503  502  0.74516935228E+01 -0.20693685322E+02  0.11718433628E+02  0.24921437264E+02  0.00000000000E+00 0.  1.
         21    1    1    2  504  503 -0.74516935228E+01  0.20693685322E+02  0.74392769189E+02  0.77576030165E+02  0.00000000000E+00 0.  1.
</event>
<event>
 4    1  0.1679763E+006  0.2044196E+02  0.7546771E-02  0.1527383E+00
         21   -1    0    0  503  501  0.00000000000E+00  0.00000000000E+00  0.49647540444E+01  0.49647540444E+01  0.00000000000E+00 0.  1.
         21   -1    0    0  504  502 -0.00000000000E+00 -0.00000000000E+00 -0.14300434299E+03  0.14300434299E+03  0.00000000000E+00 0. -1.
         21    1    1    2  503  502 -0.79795559766E+01  0.18820210095E+02 -0.11647557261E+03  0.11825579324E+03  0.00000000000E+00 0. -1.
         21    1    1    2  504  501  0.79795559766E+01 -0.18820210095E+02 -0.21564016344E+02  0.29713303796E+02  0.00000000000E+00 0.  1.
</event>
<event>
 4    1  0.1679763E+006  0.2104393E+02  0.7546771E-02  0.1518638E+00
         21   -1    0    0  503  501  0.00000000000E+00  0.00000000000E+00  0.65512441687E+03  0.65512441687E+03  0.00000000000E+00 0.  1.
         21   -1    0    0  504  502 -0.00000000000E+00 -0.00000000000E+00 -0.20676938942E+03  0.20676938942E+03  0.00000000000E+00 0. -1.
         21    1    1    2  503  502 -0.17767062811E+02  0.11277343028E+02 -0.20606438341E+03  0.20713613180E+03  0.00000000000E+00 0. -1.
         21    1    1    2  504  501  0.17767062811E+02 -0.11277343028E+02  0.65441941086E+03  0.65475767449E+03  0.00000000000E+00 0.  1.
</event>
<event>
 4    1  0.1679763E+006  0.2171045E+02  0.7546771E-02  0.1509358E+00
         21   -1    0    0  503  501  0.00000000000E+00  0.00000000000E+00  0.12840894119E+02  0.12840894119E+02  0.00000000000E+00 0.  1.
         21   -1    0    0  501  502 -0.00000000000E+00 -0.00000000000E+00 -0.46875239187E+03  0.46875239187E+03  0.00000000000E+00 0. -1.
         21    1    1    2  503  504  0.11372105160E+02 -0.18493755919E+02  0.32207270601E+01  0.21948049265E+02  0.00000000000E+00 0.  1.
         21    1    1    2  504  502 -0.11372105160E+02  0.18493755919E+02 -0.45913222481E+03  0.45964523673E+03  0.00000000000E+00 0. -1.
</event>
<event>
 4    1  0.1679763E+006  0.8779121E+02  0.7546771E-02  0.1186831E+00
         21   -1    0    0  503  501  0.00000000000E+00  0.00000000000E+00  0.87346118259E+02  0.87346118259E+02  0.00000000000E+00 0. -1.
         21   -1    0    0  504  502 -0.00000000000E+00 -0.00000000000E+00 -0.19021488569E+03  0.19021488569E+03  0.00000000000E+00 0. -1.
         21    1    1    2  503  502 -0.83785277048E+02  0.26216857892E+02 -0.15304892692E+03  0.17644055747E+03  0.00000000000E+00 0. -1.
         21    1    1    2  504  501  0.83785277048E+02 -0.26216857892E+02  0.50180159499E+02  0.10112044647E+03  0.00000000000E+00 0. -1.
</event>
<event>
 4    1  0.1679763E+006  0.3512159E+02  0.7546771E-02  0.1379710E+00
         21   -1    0    0  503  501  0.00000000000E+00  0.00000000000E+00  0.19229250539E+02  0.19229250539E+02  0.00000000000E+00 0. -1.
         21   -1    0    0  504  502 -0.00000000000E+00 -0.00000000000E+00 -0.11382077494E+03  0.11382077494E+03  0.00000000000E+00 0. -1.
         21    1    1    2  503  502  0.34318696608E+02  0.74667831282E+01 -0.91243004675E+02  0.97769175558E+02  0.00000000000E+00 0. -1.
         21    1    1    2  504  501 -0.34318696608E+02 -0.74667831282E+01 -0.33485197307E+01  0.35280849926E+02  0.00000000000E+00 0. -1.
</event>
<event>
 4    1  0.1679763E+006  0.2608880E+02  0.7546771E-02  0.1456982E+00
         21   -1    0    0  504  501  0.00000000000E+00  0.00000000000E+00  0.22697620559E+03  0.22697620559E+03  0.00000000000E+00 0.  1.
         21   -1    0    0  503  502 -0.00000000000E+00 -0.00000000000E+00 -0.82971528941E+01  0.82971528941E+01  0.00000000000E+00 0. -1.
         21    1    1    2  503  501 -0.25080758678E+02  0.71819952869E+01  0.15333823785E+02  0.30261388997E+02  0.00000000000E+00 0. -1.
         21    1    1    2  504  502  0.25080758678E+02 -0.71819952869E+01  0.20334522891E+03  0.20501196949E+03  0.00000000000E+00 0.  1.
</event>
<event>
 4    1  0.1679763E+006  0.2297637E+02  0.7546771E-02  0.1492795E+00
         21   -1    0    0  504  501  0.00000000000E+00  0.00000000000E+00  0.41082128771E+02  0.41082128771E+02  0.00000000000E+00 0. -1.
         21   -1    0    0  503  502 -0.00000000000E+00 -0.00000000000E+00 -0.16807365385E+03  0.16807365385E+03  0.00000000000E+00 0. -1.
         21    1    1    2  503  501  0.18151047211E+01 -0.22904559073E+02 -0.16399638135E+03  0.16559808733E+03  0.00000000000E+00 0. -1.
         21    1    1    2  504  502 -0.18151047211E+01  0.22904559073E+02  0.37004856271E+02  0.43557695291E+02  0.00000000000E+00 0. -1.
</event>
<event>
 4    1  0.1679763E+006  0.4885479E+02  0.7546771E-02  0.1303215E+00
         21   -1    0    0  503  501  0.00000000000E+00  0.00000000000E+00  0.61517962541E+02  0.61517962541E+02  0.00000000000E+00 0. -1.
         21   -1    0    0  504  502 -0.00000000000E+00 -0.00000000000E+00 -0.47320755217E+02  0.47320755217E+02  0.00000000000E+00 0. -1.
         21    1    1    2  503  502 -0.42682931033E+02 -0.23768842338E+02 -0.15996011918E+02  0.51406836753E+02  0.00000000000E+00 0. -1.
         21    1    1    2  504  501  0.42682931033E+02  0.23768842338E+02  0.30193219243E+02  0.57431881006E+02  0.00000000000E+00 0. -1.
</event>
<event>
 4    1  0.1679763E+006  0.2566272E+02  0.7546771E-02  0.1461524E+00
         21   -1    0    0  503  501  0.00000000000E+00  0.00000000000E+00  0.18659068956E+02  0.18659068956E+02  0.00000000000E+00 0.  1.
         21   -1    0    0  504  502 -0.00000000000E+00 -0.00000000000E+00 -0.67976755106E+02  0.67976755106E+02  0.00000000000E+00 0. -1.
         21    1    1    2  503  502  0.11118669057E+02  0.23128994585E+02 -0.54694614582E+02  0.60415859312E+02  0.00000000000E+00 0. -1.
         21    1    1    2  504  501 -0.11118669057E+02 -0.23128994585E+02  0.53769284328E+01  0.26219964750E+02  0.00000000000E+00 0.  1.
</event>
<event>
 4    1  0.1679763E+006  0.3408000E+02  0.7546771E-02  0.1387149E+00
         21   -1    0    0  503  501  0.00000000000E+00  0.00000000000E+00  0.10788085869E+02  0.10788085869E+02  0.00000000000E+00 0. -1.
         21   -1    0    0  501  502 -0.00000000000E+00 -0.00000000000E+00 -0.10858441973E+03  0.10858441973E+03  0.00000000000E+00 0. -1.
         21    1    1    2  503  504  0.18852620554E+02 -0.28390579544E+02 -0.43391310776E+02  0.55174742042E+02  0.00000000000E+00 0. -1.
         21    1    1    2  504  502 -0.18852620554E+02  0.28390579544E+02 -0.54405023082E+02  0.64197763553E+02  0.00000000000E+00 0. -1.
</event>
<event>
 4    1  0.1679763E+006  0.2012367E+02  0.7546771E-02  0.1532153E+00
         21   -1    0    0  503  501  0.00000000000E+00  0.00000000000E+00  0.74074639294E+02  0.74074639294E+02  0.00000000000E+00 0.  1.
         21   -1    0    0  501  502 -0.00000000000E+00 -0.00000000000E+00 -0.96523035826E+01  0.96523035826E+01  0.00000000000E+00 0.  1.
         21    1    1    2  503  504  0.40447479697E+01 -0.19712998222E+02  0.59777937285E+02  0.63074274242E+02  0.00000000000E+00 0.  1.
         21    1    1    2  504  502 -0.40447479697E+01  0.19712998222E+02  0.46443984265E+01  0.20652668635E+02  0.00000000000E+00 0.  1.
</event>
<event>
 4    1  0.1679763E+006  0.2956580E+02  0.7546771E-02  0.1423408E+00
         21   -1    0    0  503  501  0.00000000000E+00  0.00000000000E+00  0.80661098084E+02  0.80661098084E+02  0.00000000000E+00 0.  1.
         21   -1    0    0  504  502 -0.00000000000E+00 -0.00000000000E+00 -0.40058422020E+03  0.40058422020E+03  0.00000000000E+00 0.  1.
         21    1    1    2  503  502  0.29550053923E+02 -0.96474136755E+00  0.77383955735E+02  0.82839682628E+02  0.00000000000E+00 0.  1.
         21    1    1    2  504  501 -0.29550053923E+02  0.96474136755E+00 -0.39730707785E+03  0.39840563566E+03  0.00000000000E+00 0.  1.
</event>
<event>
 4    1  0.1679763E+006  0.2718402E+02  0.7546771E-02  0.1445768E+00
         21   -1    0    0  503  501  0.00000000000E+00  0.00000000000E+00  0.37867785479E+02  0.37867785479E+02  0.00000000000E+00 0. -1.
         21   -1    0    0  504  502 -0.00000000000E+00 -0.00000000000E+00 -0.20423569987E+02  0.20423569987E+02  0.00000000000E+00 0. -1.
         21    1    1    2  503  502  0.77242779664E+01  0.26063507941E+02  0.25730738813E+01  0.27305523718E+02  0.00000000000E+00 0. -1.
         21    1    1    2  504  501 -0.77242779664E+01 -0.26063507941E+02  0.14871141612E+02  0.30985831748E+02  0.00000000000E+00 0. -1.
</event>
<event>
 4    1  0.1679763E+006  0.2368408E+02  0.7546771E-02  0.1484082E+00
         21   -1    0    0  504  501  0.00000000000E+00  0.00000000000E+00  0.46687351219E+01  0.46687351219E+01  0.00000000000E+00 0. -1.
         21   -1    0    0  503  502 -0.00000000000E+00 -0.00000000000E+00 -0.24834540209E+03  0.24834540209E+03  0.00000000000E+00 0.  1.
         21    1    1    2  503  501 -0.40531955603E+01  0.23334675879E+02 -0.30945910005E+02  0.38969024091E+02  0.00000000000E+00 0. -1.
         21    1    1    2  504  502  0.40531955603E+01 -0.23334675879E+02 -0.21273075696E+03  0.21404511312E+03  0.00000000000E+00 0.  1.
</event>
<event>
 4    1  0.1679763E+006  0.3419352E+02  0.7546771E-02  0.1386323E+00
         21   -1    0    0  504  501  0.00000000000E+00  0.00000000000E+00  0.20208741521E+02  0.20208741521E+02  0.00000000000E+00 0.  1.
         21   -1    0    0  501  502 -0.00000000000E+00 -0.00000000000E+00 -0.40533035543E+03  0.40533035543E+03  0.00000000000E+00 0.  1.
         21    1    1    2  503  502  0.32055702855E+02 -0.11900774431E+02 -0.38956084024E+03  0.39105862063E+03  0.00000000000E+00 0.  1.
         21    1    1    2  504  503 -0.32055702855E+02  0.11900774431E+02  0.44392263262E+01  0.34480476330E+02  0.00000000000E+00 0.  1.
</event>
<event>
 4    1  0.1679763E+006  0.2762451E+02  0.7546771E-02  0.1441434E+00
         21   -1    0    0  504  501  0.00000000000E+00  0.00000000000E+00  0.30055942568E+02  0.30055942568E+02  0.00000000000E+00 0. -1.
         21   -1    0    0  503  502 -0.00000000000E+00 -0.00000000000E+00 -0.74639122921E+02  0.74639122921E+02  0.00000000000E+00 0.  1.
         21    1    1    2  503  501 -0.27099456265E+02  0.53603429096E+01  0.20230359431E+02  0.34240053281E+02  0.00000000000E+00 0. -1.
         21    1    1    2  504  502  0.27099456265E+02 -0.53603429096E+01 -0.64813539784E+02  0.70455012208E+02  0.00000000000E+00 0.  1.
</event>
<event>
 4    1  0.1679763E+006  0.2301915E+02  0.7546771E-02  0.1492258E+00
         21   -1    0    0  504  501  0.00000000000E+00  0.00000000000E+00  0.26081344036E+01  0.26081344036E+01  0.00000000000E+00 0. -1.
         21   -1    0    0  503  502 -0.00000000000E+00 -0.00000000000E+00 -0.25204599518E+03  0.25204599518E+03  0.00000000000E+00 0. -1.
         21    1    1    2  503  501 -0.22564920149E+02 -0.45503322560E+01 -0.68646204894E+02  0.72402918389E+02  0.00000000000E+00 0. -1.
         21    1    1    2  504  502  0.22564920149E+02  0.45503322560E+01 -0.18079165589E+03  0.18225121120E+03  0.00000000000E+00 0. -1.
</event>
<event>
 4    1  0.1679763E+006  0.2029939E+02  0.7546771E-02  0.1529507E+00
         21   -1    0    0  504  501  0.00000000000E+00  0.00000000000E+00  0.90757173872E+02  0.90757173872E+02  0.00000000000E+00 0. -1.
         21   -1    0    0  503  502 -0.00000000000E+00 -0.00000000000E+00 -0.55778139945E+01  0.55778139945E+01  0.00000000000E+00 0.  1.
         21    1    1    2  503  501 -0.20230367739E+02  0.16725216936E+01  0.63363592616E+02  0.66535779674E+02  0.00000000000E+00 0. -1.
         21    1    1    2  504  502  0.20230367739E+02 -0.16725216936E+01  0.21815767262E+02  0.29799208192E+02  0.00000000000E+00 0.  1.
</event>
<event>
 4    1  0.1679763E+006  0.2389313E+02  0.7546771E-02  0.1481578E+00
         21   -1    0    0  504  501  0.00000000000E+00  0.00000000000E+00  0.26112817499E+03  0.26112817499E+03  0.00000000000E+00 0. -1.
         21   -1    0    0  503  502 -0.00000000000E+00 -0.00000000000E+00 -0.52270976234E+02  0.52270976234E+02  0.00000000000E+00 0.  1.
         21    1    1    2  503  501  0.21227552284E+02 -0.10966899590E+02  0.25781622554E+03  0.25892100729E+03  0.00000000000E+00 0. -1.
         21    1    1    2  504  502 -0.21227552284E+02  0.10966899590E+02 -0.48959026788E+02  0.54478143935E+02  0.00000000000E+00 0.  1.
</event>
<event>
 4    1  0.1679763E+006  0.2009790E+02  0.7546771E-02  0.1532544E+00
         21   -1    0    0  502  501  0.00000000000E+00  0.00000000000E+00  0.16442362105E+02  0.16442362105E+02  0.00000000000E+00 0. -1.
         21   -1    0    0  504  502 -0.00000000000E+00 -0.00000000000E+00 -0.24573334836E+02  0.24573334836E+02  0.00000000000E+00 0.  1.
         21    1    1    2  503  501  0.32825190239E+01 -0.19828029307E+02 -0.44159415763E+01  0.20577322890E+02  0.00000000000E+00 0.  1.
         21    1    1    2  504  503 -0.32825190239E+01  0.19828029307E+02 -0.37150311550E+01  0.20438374050E+02  0.00000000000E+00 0. -1.
</event>
<event>
 4    1  0.1679763E+006  0.2072596E+02  0.7546771E-02  0.1523214E+00
         21   -1    0    0  503  501  0.00000000000E+00  0.00000000000E+00  0.98083278271E+01  0.98083278271E+01  0.00000000000E+00 0.  1.
         21   -1    0    0  504  502 -0.00000000000E+00 -0.00000000000E+00 -0.80473919747E+02  0.80473919747E+02  0.00000000000E+00 0. -1.
         21    1    1    2  503  502  0.19982108489E+02 -0.55027981516E+01 -0.48575524784E+01  0.21287584720E+02  0.00000000000E+00 0.  1.
         21    1    1    2  504  501 -0.19982108489E+02  0.55027981516E+01 -0.65808039441E+02  0.68994662853E+02  0.00000000000E+00 0. -1.
</event>
<event>
 4    1  0.1679763E+006  0.4323006E+02  0.7546771E-02  0.1330531E+00
         21   -1    0    0  503  501  0.00000000000E+00  0.00000000000E+00  0.11917521452E+03  0.11917521452E+03  0.00000000000E+00 0. -1.
         21   -1    0    0  504  502 -0.00000000000E+00 -0.00000000000E+00 -0.64217311653E+02  0.64217311653E+02  0.00000000000E+00 0.  1.
         21    1    1    2  503  502  0.49444480700E+01 -0.42946368485E+02 -0.52239164364E+02  0.67806846455E+02  0.00000000000E+00 0.  1.
         21    1    1    2  504  501 -0.49444480700E+01  0.42946368485E+02  0.10719706723E+03  0.11558567972E+03  0.00000000000E+00 0. -1.
</event>
<event>
 4    1  0.1679763E+006  0.4078078E+02  0.7546771E-02  0.1343970E+00
         21   -1    0    0  504  501  0.00000000000E+00  0.00000000000E+00  0.72237592278E+02  0.72237592278E+02  0.00000000000E+00 0.  1.
         21   -1    0    0  501  502 -0.00000000000E+00 -0.00000000000E+00 -0.44613286893E+02  0.44613286893E+02  0.00000000000E+00 0. -1.
         21    1    1    2  503  502 -0.31843938520E+02  0.25476181934E+02 -0.26832795847E+02  0.48816710248E+02  0.00000000000E+00 0. -1.
         21    1    1    2  504  503  0.31843938520E+02 -0.25476181934E+02  0.54457101232E+02  0.68034168923E+02  0.00000000000E+00 0.  1.
</event>
<event>
 4    1  0.1679763E+006  0.2655556E+02  0.7546771E-02  0.1452124E+00
         21   -1    0    0  504  501  0.00000000000E+00  0.00000000000E+00  0.72250545358E+01  0.72250545358E+01  0.00000000000E+00 0. -1.
         21   -1    0    0  503  502 -0.00000000000E+00 -0.00000000000E+00 -0.10878126429E+03  0.10878126429E+03  0.00000000000E+00 0. -1.
         21    1    1    2  503  501  0.19597425678E+02  0.17920349683E+02 -0.32185847073E+02  0.41726811258E+02  0.00000000000E+00 0. -1.
         21    1    1    2  504  502 -0.19597425678E+02 -0.17920349683E+02 -0.69370362677E+02  0.74279507564E+02  0.00000000000E+00 0. -1.
</event>
<event>
 4    1  0.1679763E+006  0.2310719E+02  0.7546771E-02  0.1491157E+00
         21   -1    0    0  502  501  0.00000000000E+00  0.00000000000E+00  0.26099236302E+02  0.26099236302E+02  0.00000000000E+00 0.  1.
         21   -1    0    0  504  502 -0.00000000000E+00 -0.00000000000E+00 -0.30745558644E+02  0.30745558644E+02  0.00000000000E+00 0. -1.
         21    1    1    2  503  501  0.97952506339E+01 -0.20928337176E+02  0.14117618005E+02  0.27078577697E+02  0.00000000000E+00 0.  1.
         21    1    1    2  504  503 -0.97952506339E+01  0.20928337176E+02 -0.18763940347E+02  0.29766217248E+02  0.00000000000E+00 0. -1.
</event>
<event>
 4    1  0.1679763E+006  0.3574127E+02  0.7546771E-02  0.1375425E+00
         21   -1    0    0  503  501  0.00000000000E+00  0.00000000000E+00  0.68502816522E+02  0.68502816522E+02  0.00000000000E+00 0. -1.
         21   -1    0    0  501  502 -0.00000000000E+00 -0.00000000000E+00 -0.35182816199E+02  0.35182816199E+02  0.00000000000E+00 0. -1.
         21    1    1    2  503  504  0.25751107215E+01 -0.35648382313E+02  0.52200488252E+02  0.63263965498E+02  0.00000000000E+00 0. -1.
         21    1    1    2  504  502 -0.25751107215E+01  0.35648382313E+02 -0.18880487929E+02  0.40421667224E+02  0.00000000000E+00 0. -1.
</event>
<event>
 4    1  0.1679763E+006  0.3408374E+02  0.7546771E-02  0.1387122E+00
         21   -1    0    0  504  501  0.00000000000E+00  0.00000000000E+00  0.54120855164E+01  0.54120855164E+01  0.00000000000E+00 0. -1.
         21   -1    0    0  503  502 -0.00000000000E+00 -0.00000000000E+00 -0.26272647901E+03  0.26272647901E+03  0.00000000000E+00 0. -1.
         21    1    1    2  503  501 -0.25868288453E+02  0.22193085541E+02 -0.71305536566E+02  0.79032783946E+02  0.00000000000E+00 0. -1.
         21    1    1    2  504  502  0.25868288453E+02 -0.22193085541E+02 -0.18600885693E+03  0.18910578058E+03  0.00000000000E+00 0. -1.
</event>
<event>
 4    1  0.1679763E+006  0.2088115E+02  0.7546771E-02  0.1520969E+00
         21   -1    0    0  503  501  0.00000000000E+00  0.00000000000E+00  0.66075342837E+03  0.66075342837E+03  0.00000000000E+00 0.  1.
         21   -1    0    0  504  502 -0.00000000000E+00 -0.00000000000E+00 -0.70471877294E+01  0.70471877294E+01  0.00000000000E+00 0.  1.
         21    1    1    2  503  502 -0.19285683005E+02 -0.80052968471E+01  0.89699070366E+01  0.22726231074E+02  0.00000000000E+00 0.  1.
         21    1    1    2  504  501  0.19285683005E+02  0.80052968471E+01  0.64473633361E+03  0.64507438503E+03  0.00000000000E+00 0.  1.
</event>
<event>
 4    1  0.1679763E+006  0.2594056E+02  0.7546771E-02  0.1458551E+00
         21   -1    0    0  504  501  0.00000000000E+00  0.00000000000E+00  0.70131208398E+02  0.70131208398E+02  0.00000000000E+00 0.  1.
         21   -1    0    0  501  502 -0.00000000000E+00 -0.00000000000E+00 -0.54388431693E+02  0.54388431693E+02  0.00000000000E+00 0. -1.
         21    1    1    2  503  502  0.17934456470E+02  0.18742142268E+02 -0.48630310552E+02  0.55116419786E+02  0.00000000000E+00 0. -1.
         21    1    1    2  504  503 -0.17934456470E+02 -0.18742142268E+02  0.64373087257E+02  0.69403220305E+02  0.00000000000E+00 0.  1.
</event>
<event>
 4    1  0.1679763E+006  0.2062481E+02  0.7546771E-02  0.1524690E+00
         21   -1    0    0  502  501  0.00000000000E+00  0.00000000000E+00  0.31527828607E+02  0.31527828607E+02  0.00000000000E+00 0. -1.
         21   -1    0    0  504  502 -0.00000000000E+00 -0.00000000000E+00 -0.62146077387E+02  0.62146077387E+02  0.00000000000E+00 0.  1.
         21    1    1    2  503  501 -0.19022820490E+02  0.79696411827E+01  0.26132814035E+02  0.33291242833E+02  0.00000000000E+00 0. -1.
         21    1    1    2  504  503  0.19022820490E+02 -0.79696411827E+01 -0.56751062814E+02  0.60382663161E+02  0.00000000000E+00 0.  1.
</event>
<event>
 4    1  0.1679763E+006  0.2988966E+02  0.7546771E-02  0.1420558E+00
         21   -1    0    0  504  501  0.00000000000E+00  0.00000000000E+00  0.23598399016E+02  0.23598399016E+02  0.00000000000E+00 0. -1.
         21   -1    0    0  503  502 -0.00000000000E+00 -0.00000000000E+00 -0.76440644117E+02  0.76440644117E+02  0.00000000000E+00 0.  1.
         21    1    1    2  503  501  0.21760551078E+02 -0.20490737093E+02  0.91151993801E+01  0.31248659964E+02  0.00000000000E+00 0. -1.
         21    1    1    2  504  502 -0.21760551078E+02  0.20490737093E+02 -0.61957444481E+02  0.68790383168E+02  0.00000000000E+00 0.  1.
</event>
<event>
 4    1  0.1679763E+006  0.2454635E+02  0.7546771E-02  0.1473943E+00
         21   -1    0    0  504  501  0.00000000000E+00  0.00000000000E+00  0.17114393390E+01  0.17114393390E+01  0.00000000000E+00 0.  1.
         21   -1    0    0  503  502 -0.00000000000E+00 -0.00000000000E+00 -0.48543436868E+03  0.48543436868E+03  0.00000000000E+00 0.  1.
         21    1    1    2  503  501  0.99904102140E+01  0.22421301831E+02 -0.11418646702E+03  0.11679500127E+03  0.00000000000E+00 0.  1.
         21    1    1    2  504  502 -0.99904102140E+01 -0.22421301831E+02 -0.36953646232E+03  0.37035080675E+03  0.00000000000E+00 0.  1.
</event>
<event>
 4    1  0.1679763E+006  0.2672458E+02  0.7546771E-02  0.1450395E+00
         21   -1    0    0  504  501  0.00000000000E+00  0.00000000000E+00  0.82688433082E+02  0.82688433082E+02  0.00000000000E+00 0.  1.
         21   -1    0    0  503  502 -0.00000000000E+00 -0.00000000000E+00 -0.31832224883E+03  0.31832224883E+03  0.00000000000E+00 0.  1.
         21    1    1    2  503  501  0.27796478544E+01 -0.26579629198E+02 -0.31558330965E+03  0.31671284858E+03  0.00000000000E+00 0.  1.
         21    1    1    2  504  502 -0.27796478544E+01  0.26579629198E+02  0.79949493895E+02  0.84297833332E+02  0.00000000000E+00 0.  1.
</event>
<event>
 4    1  0.1679763E+006  0.2047966E+02  0.7546771E-02  0.1526825E+00
         21   -1    0    0  504  501  0.00000000000E+00  0.00000000000E+00  0.10764995680E+04  0.10764995680E+04  0.00000000000E+00 0. -1.
         21   -1    0    0  503  502 -0.00000000000E+00 -0.00000000000E+00 -0.23676675464E+01  0.23676675464E+01  0.00000000000E+00 0.  1.
         21    1    1    2  503  501 -0.18419026678E+02 -0.89529810667E+01  0.44009137127E+02  0.48540916395E+02  0.00000000000E+00 0.  1.
         21    1    1    2  504  502  0.18419026678E+02  0.89529810667E+01  0.10301227633E+04  0.10303263191E+04  0.00000000000E+00 0. -1.
</event>
<event>
 4    1  0.1679763E+006  0.2864664E+02  0.7546771E-02  0.1431733E+00
         21   -1    0    0  503  501  0.00000000000E+00  0.00000000000E+00  0.31102959098E+03  0.31102959098E+03  0.00000000000E+00 0.  1.
         21   -1    0    0  504  502 -0.00000000000E+00 -0.00000000000E+00 -0.62187726970E+01  0.62187726970E+01  0.00000000000E+00 0.  1.
         21    1    1    2  503  502 -0.22836219569E+02 -0.17295572659E+02  0.32046190056E+02  0.42983578899E+02  0.00000000000E+00 0.  1.
         21    1    1    2  504  501  0.22836219569E+02  0.17295572659E+02  0.27276462823E+03  0.27426478478E+03  0.00000000000E+00 0.  1.
</event>
<event>
 4    1  0.1679763E+006  0.2791622E+02  0.7546771E-02  0.1438615E+00
         21   -1    0    0  504  501  0.00000000000E+00  0.00000000000E+00  0.40691177497E+03  0.40691177497E+03  0.00000000000E+00 0. -1.
         21   -1    0    0  503  502 -0.00000000000E+00 -0.00000000000E+00 -0.19151996772E+01  0.19151996772E+01  0.00000000000E+00 0. -1.
         21    1    1    2  503  501  0.27546581252E+02  0.45278193511E+01  0.20282684333E+03  0.20473896469E+03  0.00000000000E+00 0. -1.
         21    1    1    2  504  502 -0.27546581252E+02 -0.45278193511E+01  0.20216973196E+03  0.20408800995E+03  0.00000000000E+00 0. -1.
</event>
<event>
 4    1  0.1679763E+006  0.3951868E+02  0.7546771E-02  0.1351330E+00
         21   -1    0    0  503  501  0.00000000000E+00  0.00000000000E+00  0.15979642556E+03  0.15979642556E+03  0.00000000000E+00 0. -1.
         21   -1    0    0  504  502 -0.00000000000E+00 -0.00000000000E+00 -0.11386414926E+02  0.11386414926E+02  0.00000000000E+00 0. -1.
         21    1    1    2  503  502 -0.39191449262E+02  0.50750866160E+01  0.41988408095E+02  0.57660667823E+02  0.00000000000E+00 0. -1.
         21    1    1    2  504  501  0.39191449262E+02 -0.50750866160E+01  0.10642160254E+03  0.11352217267E+03  0.00000000000E+00 0. -1.
</event>
<event>
 4    1  0.1679763E+006  0.2386347E+02  0.7546771E-02  0.1481931E+00
         21   -1    0    0  503  501  0.00000000000E+00  0.00000000000E+00  0.10879091517E+03  0.10879091517E+03  0.00000000000E+00 0. -1.
         21   -1    0    0  504  502 -0.00000000000E+00 -0.00000000000E+00 -0.52906120663E+01  0.52906120663E+01  0.00000000000E+00 0. -1.
         21    1    1    2  503  502 -0.85990827157E+01 -0.22260303546E+02  0.45875451682E+02  0.51710950528E+02  0.00000000000E+00 0. -1.
         21    1    1    2  504  501  0.85990827157E+01  0.22260303546E+02  0.57624851427E+02  0.62370576713E+02  0.00000000000E+00 0. -1.
</event>
<event>
 4    1  0.1679763E+006  0.3386827E+02  0.7546771E-02  0.1388699E+00
         21   -1    0    0  503  501  0.00000000000E+00  0.00000000000E+00  0.53351133691E+01  0.53351133691E+01  0.00000000000E+00 0.  1.
         21   -1    0    0  504  502 -0.00000000000E+00 -0.00000000000E+00 -0.22261528327E+03  0.22261528327E+03  0.00000000000E+00 0.  1.
         21    1    1    2  503  502  0.26439702290E+02  0.21166051907E+02 -0.87562483743E+02  0.93884227482E+02  0.00000000000E+00 0.  1.
         21    1    1    2  504  501 -0.26439702290E+02 -0.21166051907E+02 -0.12971768616E+03  0.13406616916E+03  0.00000000000E+00 0.  1.
</event>
<event>
 4    1  0.1679763E+006  0.2116188E+02  0.7546771E-02  0.1516966E+00
         21   -1    0    0  502  501  0.00000000000E+00  0.00000000000E+00  0.69752950808E+03  0.69752950808E+03  0.00000000000E+00 0. -1.
         21   -1    0    0  503  502 -0.00000000000E+00 -0.00000000000E+00 -0.18217640193E+02  0.18217640193E+02  0.00000000000E+00 0.  1.
         21    1    1    2  503  504 -0.13870208394E+02 -0.15982573086E+02 -0.11855086626E+02  0.24256306443E+02  0.00000000000E+00 0.  1.
         21    1    1    2  504  501  0.13870208394E+02  0.15982573086E+02  0.69116695452E+03  0.69149084183E+03  0.00000000000E+00 0. -1.
</event>
<event>
 4    1  0.1679763E+006  0.2151864E+02  0.7546771E-02  0.1511987E+00
         21   -1    0    0  504  501  0.00000000000E+00  0.00000000000E+00  0.17039303686E+02  0.17039303686E+02  0.00000000000E+00 0. -1.
         21   -1    0    0  501  502 -0.00000000000E+00 -0.00000000000E+00 -0.55977400884E+02  0.55977400884E+02  0.00000000000E+00 0.  1.
         21    1    1    2  503  502  0.12633297090E+02 -0.17419864070E+02 -0.45656686513E+02  0.50473605805E+02  0.00000000000E+00 0.  1.
         21    1    1    2  504  503 -0.12633297090E+02  0.17419864070E+02  0.67185893150E+01  0.22543098766E+02  0.00000000000E+00 0. -1.
</event>
<event>
 4    1  0.1679763E+006  0.2169138E+02  0.7546771E-02  0.1509618E+00
         21   -1    0    0  503  501  0.00000000000E+00  0.00000000000E+00  0.90314813786E+01  0.90314813786E+01  0.00000000000E+00 0. -1.
         21   -1    0    0  504  502 -0.00000000000E+00 -0.00000000000E+00 -0.76854507272E+02  0.76854507272E+02  0.00000000000E+00 0. -1.
         21    1    1    2  503  502 -0.71261418226E+00 -0.21679675925E+02 -0.95385618533E+01  0.23695998173E+02  0.00000000000E+00 0. -1.
         21    1    1    2  504  501  0.71261418226E+00  0.21679675925E+02 -0.58284464040E+02  0.62189990477E+02  0.00000000000E+00 0. -1.
</event>
<event>
 4    1  0.1679763E+006  0.3460669E+02  0.7546771E-02  0.1383350E+00
         21   -1    0    0  503  501  0.00000000000E+00  0.00000000000E+00  0.35100846839E+02  0.35100846839E+02  0.00000000000E+00 0.  1.
         21   -1    0    0  504  502 -0.00000000000E+00 -0.00000000000E+00 -0.97864795415E+02  0.97864795415E+02  0.00000000000E+00 0.  1.
         21    1    1    2  503  502  0.20323484751E+02  0.28010336051E+02  0.22274273655E+02  0.41155391202E+02  0.00000000000E+00 0.  1.
         21    1    1    2  504  501 -0.20323484751E+02 -0.28010336051E+02 -0.85038222230E+02  0.91810251052E+02  0.00000000000E+00 0.  1.
</event>
<event>
 4    1  0.1679763E+006  0.2401563E+02  0.7546771E-02  0.1480124E+00
         21   -1    0    0  503  501  0.00000000000E+00  0.00000000000E+00  0.30821337295E+01  0.30821337295E+01  0.00000000000E+00 0.  1.
         21   -1    0    0  501  502 -0.00000000000E+00 -0.00000000000E+00 -0.56926621794E+03  0.56926621794E+03  0.00000000000E+00 0. -1.
         21    1    1    2  503  504 -0.17381235718E+02  0.16572359969E+02 -0.48624066329E+02  0.54231451174E+02  0.00000000000E+00 0.  1.
         21    1    1    2  504  502  0.17381235718E+02 -0.16572359969E+02 -0.51756001788E+03  0.51811690050E+03  0.00000000000E+00 0. -1.
</event>
<event>
 4    1  0.1679763E+006  0.2728494E+02  0.7546771E-02  0.1444767E+00
         21   -1    0    0  502  501  0.00000000000E+00  0.00000000000E+00  0.76451110471E+03  0.76451110471E+03  0.00000000000E+00 0. -1.
         21   -1    0    0  504  502 -0.00000000000E+00 -0.00000000000E+00 -0.22450754203E+02  0.22450754203E+02  0.00000000000E+00 0. -1.
         21    1    1    2  503  501  0.22643212567E+01  0.27190823006E+02  0.75588305202E+03  0.75637534091E+03  0.00000000000E+00 0. -1.
         21    1    1    2  504  503 -0.22643212567E+01 -0.27190823006E+02 -0.13822701512E+02  0.30586518003E+02  0.00000000000E+00 0. -1.
</event>
<event>
 4    1  0.1679763E+006  0.2017817E+02  0.7546771E-02  0.1531329E+00
         21   -1    0    0  503  501  0.00000000000E+00  0.00000000000E+00  0.17068399661E+01  0.17068399661E+01  0.00000000000E+00 0. -1.
         21   -1    0    0  504  502 -0.00000000000E+00 -0.00000000000E+00 -0.24819906436E+03  0.24819906436E+03  0.00000000000E+00 0.  1.
         21    1    1    2  503  502 -0.19612703951E+02  0.47434771973E+01 -0.14788912135E+03  0.14925934124E+03  0.00000000000E+00 0.  1.
         21    1    1    2  504  501  0.19612703951E+02 -0.47434771973E+01 -0.98603103037E+02  0.10064656308E+03  0.00000000000E+00 0. -1.
</event>
<event>
 4    1  0.1679763E+006  0.2284003E+02  0.7546771E-02  0.1494517E+00
         21   -1    0    0  502  501  0.00000000000E+00  0.00000000000E+00  0.33798958580E+02  0.33798958580E+02  0.00000000000E+00 0. -1.
         21   -1    0    0  503  502 -0.00000000000E+00 -0.00000000000E+00 -0.25050504177E+02  0.25050504177E+02  0.00000000000E+00 0. -1.
         21    1    1    2  503  504 -0.31133752706E+01  0.22626836075E+02 -0.13856489297E+02  0.26714586128E+02  0.00000000000E+00 0. -1.
         21    1    1    2  504  501  0.31133752706E+01 -0.22626836075E+02  0.22604943700E+02  0.32134876630E+02  0.00000000000E+00 0. -1.
</event>
<event>
 4    1  0.1679763E+006  0.2529726E+02  0.7546771E-02  0.1465505E+00
         21   -1    0    0  503  501  0.00000000000E+00  0.00000000000E+00  0.51192612619E+02  0.51192612619E+02  0.00000000000E+00 0. -1.
         21   -1    0    0  504  502 -0.00000000000E+00 -0.00000000000E+00 -0.88530853187E+02  0.88530853187E+02  0.00000000000E+00 0.  1.
         21    1    1    2  503  502 -0.11475664676E+01 -0.25271213090E+02 -0.83410885491E+02  0.87162646462E+02  0.00000000000E+00 0.  1.
         21    1    1    2  504  501  0.11475664676E+01  0.25271213090E+02  0.46072644924E+02  0.52560819344E+02  0.00000000000E+00 0. -1.
</event>
<event>
 4    1  0.1679763E+006  0.2699801E+02  0.7546771E-02  0.1447628E+00
         21   -1    0    0  504  501  0.00000000000E+00  0.00000000000E+00  0.32834243490E+01  0.32834243490E+01  0.00000000000E+00 0. -1.
         21   -1    0    0  503  502 -0.00000000000E+00 -0.00000000000E+00 -0.22679101216E+03  0.22679101216E+03  0.00000000000E+00 0. -1.
         21    1    1    2  503  501 -0.10944874790E+02  0.24679992468E+02 -0.95018868567E+02  0.98779945820E+02  0.00000000000E+00 0. -1.
         21    1    1    2  504  502  0.10944874790E+02 -0.24679992468E+02 -0.12848871924E+03  0.13129449069E+03  0.00000000000E+00 0. -1.
</event>
<event>
 4    1  0.1679763E+006  0.2116772E+02  0.7546771E-02  0.1516884E+00
         21   -1    0    0  504  501  0.00000000000E+00  0.00000000000E+00  0.50946709063E+02  0.50946709063E+02  0.00000000000E+00 0. -1.
         21   -1    0    0  501  502 -0.00000000000E+00 -0.00000000000E+00 -0.19481804019E+03  0.19481804019E+03  0.00000000000E+00 0.  1.
         21    1    1    2  503  502 -0.13639765522E+02 -0.16187318392E+02 -0.19201228892E+03  0.19317554601E+03  0.00000000000E+00 0.  1.
         21    1    1    2  504  503  0.13639765522E+02  0.16187318392E+02  0.48140957795E+02  0.52589203242E+02  0.00000000000E+00 0. -1.
</event>
<event>
 4    1  0.1679763E+006  0.2629017E+02  0.7546771E-02  0.1454872E+00
         21   -1    0    0  502  501  0.00000000000E+00  0.00000000000E+00  0.16628782064E+02  0.16628782064E+02  0.00000000000E+00 0. -1.
         21   -1    0    0  503  502 -0.00000000000E+00 -0.00000000000E+00 -0.42466273502E+02  0.42466273502E+02  0.00000000000E+00 0. -1.
         21    1    1    2  503  504 -0.23701569546E+01 -0.26183117132E+02 -0.17223587715E+02  0.31429687249E+02  0.00000000000E+00 0. -1.
         21    1    1    2  504  501  0.23701569546E+01  0.26183117132E+02 -0.86139037227E+01  0.27665368317E+02  0.00000000000E+00 0. -1.
</event>
<event>
 4    1  0.1679763E+006  0.2978067E+02  0.7546771E-02  0.1421512E+00
         21   -1    0    0  503  501  0.00000000000E+00  0.00000000000E+00  0.75266999949E+02  0.75266999949E+02  0.00000000000E+00 0.  1.
         21   -1    0    0  504  502 -0.00000000000E+00 -0.00000000000E+00 -0.54998433697E+03  0.54998433697E+03  0.00000000000E+00 0.  1.
         21    1    1    2  503  502  0.63598894054E+01 -0.29093639708E+02  0.71899918765E+02  0.77823430810E+02  0.00000000000E+00 0.  1.
         21    1    1    2  504  501 -0.63598894054E+01  0.29093639708E+02 -0.54661725579E+03  0.54742790611E+03  0.00000000000E+00 0.  1.
</event>
<event>
 4    1  0.1679763E+006  0.2543040E+02  0.7546771E-02  0.1464046E+00
         21   -1    0    0  504  501  0.00000000000E+00  0.00000000000E+00  0.12438260370E+03  0.12438260370E+03  0.00000000000E+00 0.  1.
         21   -1    0    0  503  502 -0.00000000000E+00 -0.00000000000E+00 -0.11747713836E+02  0.11747713836E+02  0.00000000000E+00 0.  1.
         21    1    1    2  503  501 -0.19673642693E+02  0.16113752191E+02  0.10713520362E+03  0.11011202060E+03  0.00000000000E+00 0.  1.
         21    1    1    2  504  502  0.19673642693E+02 -0.16113752191E+02  0.54996862426E+01  0.26018296932E+02  0.00000000000E+00 0.  1.
</event>
<event>
 4    1  0.1679763E+006  0.2721473E+02  0.7546771E-02  0.1445463E+00
         21   -1    0    0  503  501  0.00000000000E+00  0.00000000000E+00  0.54822362604E+02  0.54822362604E+02  0.00000000000E+00 0. -1.
         21   -1    0    0  504  502 -0.00000000000E+00 -0.00000000000E+00 -0.19298230558E+02  0.19298230558E+02  0.00000000000E+00 0.  1.
         21    1    1    2  503  502  0.22259646202E+02  0.15657258577E+02  0.38058927545E+02  0.46788070713E+02  0.00000000000E+00 0. -1.
         21    1    1    2  504  501 -0.22259646202E+02 -0.15657258577E+02 -0.25347954985E+01  0.27332522449E+02  0.00000000000E+00 0.  1.
</event>
<event>
 4    1  0.1679763E+006  0.3443995E+02  0.7546771E-02  0.1384544E+00
         21   -1    0    0  504  501  0.00000000000E+00  0.00000000000E+00  0.24486388919E+02  0.24486388919E+02  0.00000000000E+00 0. -1.
         21   -1    0    0  503  502 -0.00000000000E+00 -0.00000000000E+00 -0.14596649034E+04  0.14596649034E+04  0.00000000000E+00 0.  1.
         21    1    1    2  503  501 -0.30416079609E+02  0.16154631605E+02  0.12069465805E+02  0.36493588833E+02  0.00000000000E+00 0. -1.
         21    1    1    2  504  502  0.30416079609E+02 -0.16154631605E+02 -0.14472479803E+04  0.14476577035E+04  0.00000000000E+00 0.  1.
</event>
<event>
 4    1  0.1679763E+006  0.2107402E+02  0.7546771E-02  0.1518211E+00
         21   -1    0    0  504  501  0.00000000000E+00  0.00000000000E+00  0.14449021641E+02  0.14449021641E+02  0.00000000000E+00 0. -1.
         21   -1    0    0  503  502 -0.00000000000E+00 -0.00000000000E+00 -0.36830887026E+02  0.36830887026E+02  0.00000000000E+00 0. -1.
         21    1    1    2  503  501  0.40937978859E+01  0.20672569800E+02 -0.76124470117E+00  0.21087764622E+02  0.00000000000E+00 0. -1.
         21    1    1    2  504  502 -0.40937978859E+01 -0.20672569800E+02 -0.21620620684E+02  0.30192144045E+02  0.00000000000E+00 0. -1.
</event>
<event>
 4    1  0.1679763E+006  0.2855233E+02  0.7546771E-02  0.1432608E+00
         21   -1    0    0  503  501  0.00000000000E+00  0.00000000000E+00  0.37284396053E+03  0.37284396053E+03  0.00000000000E+00 0.  1.
         21   -1    0    0  504  502 -0.00000000000E+00 -0.00000000000E+00 -0.34605428297E+01  0.34605428297E+01  0.00000000000E+00 0.  1.
         21    1    1    2  503  502 -0.16502380244E+02 -0.23300370233E+02  0.29885424584E+03  0.30021508301E+03  0.00000000000E+00 0.  1.
         21    1    1    2  504  501  0.16502380244E+02  0.23300370233E+02  0.70529171859E+02  0.76089420355E+02  0.00000000000E+00 0.  1.
</event>
<event>
 4    1  0.1679763E+006  0.2319956E+02  0.7546771E-02  0.1490007E+00
         21   -1    0    0  502  501  0.00000000000E+00  0.00000000000E+00  0.12008761296E+04  0.12008761296E+04  0.00000000000E+00 0.  1.
         21   -1    0    0  503  502 -0.00000000000E+00 -0.00000000000E+00 -0.14552939660E+01  0.14552939660E+01  0.00000000000E+00 0.  1.
         21    1    1    2  503  504 -0.13802276500E+02 -0.18647169499E+02  0.99611225096E+02  0.10227715254E+03  0.00000000000E+00 0.  1.
         21    1    1    2  504  501  0.13802276500E+02  0.18647169499E+02  0.10998096105E+04  0.11000542710E+04  0.00000000000E+00 0.  1.
</event>
<event>
 4    1  0.1679763E+006  0.3186521E+02  0.7546771E-02  0.1404052E+00
         21   -1    0    0  503  501  0.00000000000E+00  0.00000000000E+00  0.91184376437E+03  0.91184376437E+03  0.00000000000E+00 0.  1.
         21   -1    0    0  501  502 -0.00000000000E+00 -0.00000000000E+00 -0.25487388198E+02  0.25487388198E+02  0.00000000000E+00 0. -1.
         21    1    1    2  503  504 -0.29884457847E+02  0.11059426042E+02  0.90149128865E+03  0.90205428619E+03  0.00000000000E+00 0.  1.
         21    1    1    2  504  502  0.29884457847E+02 -0.11059426042E+02 -0.15134912482E+02  0.35276866372E+02  0.00000000000E+00 0. -1.
</event>
<event>
 4    1  0.1679763E+006  0.2691429E+02  0.7546771E-02  0.1448471E+00
         21   -1    0    0  503  501  0.00000000000E+00  0.00000000000E+00  0.44824919521E+03  0.44824919521E+03  0.00000000000E+00 0.  1.
         21   -1    0    0  504  502 -0.00000000000E+00 -0.00000000000E+00 -0.10538522093E+03  0.10538522093E+03  0.00000000000E+00 0.  1.
         21    1    1    2  503  502  0.16374351063E+02  0.21360236463E+02  0.44611858343E+03  0.44692971434E+03  0.00000000000E+00 0.  1.
         21    1    1    2  504  501 -0.16374351063E+02 -0.21360236463E+02 -0.10325460916E+03  0.10670470180E+03  0.00000000000E+00 0.  1.
</event>
<event>
 4    1  0.1679763E+006  0.2496678E+02  0.7546771E-02  0.1469175E+00
         21   -1    0    0  502  501  0.00000000000E+00  0.00000000000E+00  0.16373723689E+04  0.16373723689E+04  0.00000000000E+00 0.  1.
         21   -1    0    0  504  502 -0.00000000000E+00 -0.00000000000E+00 -0.31123598364E+01  0.31123598364E+01  0.00000000000E+00 0. -1.
         21    1    1    2  503  501 -0.18503458447E+02  0.16761920212E+02  0.15855718006E+04  0.15857683547E+04  0.00000000000E+00 0.  1.
         21    1    1    2  504  503  0.18503458447E+02 -0.16761920212E+02  0.48688208512E+02  0.54716374074E+02  0.00000000000E+00 0. -1.
</event>
<event>
 4    1  0.1679763E+006  0.4543938E+02  0.7546771E-02  0.1319257E+00
         21   -1    0    0  503  501  0.00000000000E+00  0.00000000000E+00  0.41931273411E+03  0.41931273411E+03  0.00000000000E+00 0. -1.
         21   -1    0    0  504  502 -0.00000000000E+00 -0.00000000000E+00 -0.27254944358E+03  0.27254944358E+03  0.00000000000E+00 0. -1.
         21    1    1    2  503  502 -0.33600499742E+02  0.30589922945E+02  0.41617355581E+03  0.41864682672E+03  0.00000000000E+00 0. -1.
         21    1    1    2  504  501  0.33600499742E+02 -0.30589922945E+02 -0.26941026528E+03  0.27321535097E+03  0.00000000000E+00 0. -1.
</event>
<event>
 4    1  0.1679763E+006  0.2727778E+02  0.7546771E-02  0.1444838E+00
         21   -1    0    0  503  501  0.00000000000E+00  0.00000000000E+00  0.19150350300E+02  0.19150350300E+02  0.00000000000E+00 0.  1.
         21   -1    0    0  504  502 -0.00000000000E+00 -0.00000000000E+00 -0.43945595235E+02  0.43945595235E+02  0.00000000000E+00 0.  1.
         21    1    1    2  503  502  0.24798340785E+02  0.11363079219E+02 -0.23135523975E+02  0.35767719310E+02  0.00000000000E+00 0.  1.
         21    1    1    2  504  501 -0.24798340785E+02 -0.11363079219E+02 -0.16597209597E+01  0.27328226226E+02  0.00000000000E+00 0.  1.
</event>
<event>
 4    1  0.1679763E+006  0.3789798E+02  0.7546771E-02  0.1361264E+00
         21   -1    0    0  503  501  0.00000000000E+00  0.00000000000E+00  0.10666626818E+03  0.10666626818E+03  0.00000000000E+00 0.  1.
         21   -1    0    0  504  502 -0.00000000000E+00 -0.00000000000E+00 -0.21622412162E+03  0.21622412162E+03  0.00000000000E+00 0.  1.
         21    1    1    2  503  502  0.29752935106E+02  0.23473806200E+02  0.10155862242E+03  0.10839931049E+03  0.00000000000E+00 0.  1.
         21    1    1    2  504  501 -0.29752935106E+02 -0.23473806200E+02 -0.21111647586E+03  0.21449107932E+03  0.00000000000E+00 0.  1.
</event>
<event>
 4    1  0.1679763E+006  0.3929452E+02  0.7546771E-02  0.1352670E+00
         21   -1    0    0  504  501  0.00000000000E+00  0.00000000000E+00  0.23080449167E+03  0.23080449167E+03  0.00000000000E+00 0.  1.
         21   -1    0    0  503  502 -0.00000000000E+00 -0.00000000000E+00 -0.35891572233E+03  0.35891572233E+03  0.00000000000E+00 0. -1.
         21    1    1    2  503  501  0.33866179634E+02 -0.19928401472E+02 -0.35615481850E+03  0.35831594166E+03  0.00000000000E+00 0. -1.
         21    1    1    2  504  502 -0.33866179634E+02  0.19928401472E+02  0.22804358783E+03  0.23140427234E+03  0.00000000000E+00 0.  1.
</event>
<event>
 4    1  0.1679763E+006  0.2326296E+02  0.7546771E-02  0.1489222E+00
         21   -1    0    0  504  501  0.00000000000E+00  0.00000000000E+00  0.58477998148E+01  0.58477998148E+01  0.00000000000E+00 0.  1.
         21   -1    0    0  503  502 -0.00000000000E+00 -0.00000000000E+00 -0.33887315271E+03  0.33887315271E+03  0.00000000000E+00 0.  1.
         21    1    1    2  503  501 -0.20378917828E+01 -0.23173521484E+02 -0.19559467711E+02  0.30393056411E+02  0.00000000000E+00 0.  1.
         21    1    1    2  504  502  0.20378917828E+01  0.23173521484E+02 -0.31346588518E+03  0.31432789611E+03  0.00000000000E+00 0.  1.
</event>
<event>
 4    1  0.1679763E+006  0.2326719E+02  0.7546771E-02  0.1489170E+00
         21   -1    0    0  503  501  0.00000000000E+00  0.00000000000E+00  0.14476464827E+01  0.14476464827E+01  0.00000000000E+00 0.  1.
         21   -1    0    0  504  502 -0.00000000000E+00 -0.00000000000E+00 -0.57619382218E+03  0.57619382218E+03  0.00000000000E+00 0.  1.
         21    1    1    2  503  502  0.22458277933E+02  0.60817714151E+01 -0.11626492350E+03  0.11857020970E+03  0.00000000000E+00 0.  1.
         21    1    1    2  504  501 -0.22458277933E+02 -0.60817714151E+01 -0.45848125220E+03  0.45907125896E+03  0.00000000000E+00 0.  1.
</event>
<event>
 4    1  0.1679763E+006  0.4237456E+02  0.7546771E-02  0.1335106E+00
         21   -1    0    0  504  501  0.00000000000E+00  0.00000000000E+00  0.73430742015E+02  0.73430742015E+02  0.00000000000E+00 0.  1.
         21   -1    0    0  503  502 -0.00000000000E+00 -0.00000000000E+00 -0.27753947165E+03  0.27753947165E+03  0.00000000000E+00 0.  1.
         21    1    1    2  503  501  0.31264079711E+02 -0.28603511601E+02 -0.26963056268E+03  0.27294000053E+03  0.00000000000E+00 0.  1.
         21    1    1    2  504  502 -0.31264079711E+02  0.28603511601E+02  0.65521833048E+02  0.78030213136E+02  0.00000000000E+00 0.  1.
</event>
<event>
 4    1  0.1679763E+006  0.2737405E+02  0.7546771E-02  0.1443886E+00
         21   -1    0    0  502  501  0.00000000000E+00  0.00000000000E+00  0.30007544238E+03  0.30007544238E+03  0.00000000000E+00 0. -1.
         21   -1    0    0  504  502 -0.00000000000E+00 -0.00000000000E+00 -0.24973634662E+01  0.24973634662E+01  0.00000000000E+00 0. -1.
         21    1    1    2  503  501 -0.56104141498E+01 -0.26792941647E+02  0.15013115042E+03  0.15260635896E+03  0.00000000000E+00 0. -1.
         21    1    1    2  504  503  0.56104141498E+01  0.26792941647E+02  0.14744692850E+03  0.14996644689E+03  0.00000000000E+00 0. -1.
</event>
<event>
 4    1  0.1679763E+006  0.2494623E+02  0.7546771E-02  0.1469406E+00
         21   -1    0    0  503  501  0.00000000000E+00  0.00000000000E+00  0.12317432677E+02  0.12317432677E+02  0.00000000000E+00 0. -1.
         21   -1    0    0  504  502 -0.00000000000E+00 -0.00000000000E+00 -0.50523068050E+02  0.50523068050E+02  0.00000000000E+00 0. -1.
         21    1    1    2  503  502  0.24539059882E+02  0.44887432267E+01 -0.19084406479E+02  0.31409056756E+02  0.00000000000E+00 0. -1.
         21    1    1    2  504  501 -0.24539059882E+02 -0.44887432267E+01 -0.19121228894E+02  0.31431443971E+02  0.00000000000E+00 0. -1.
</event>
<event>
 4    1  0.1679763E+006  0.2373703E+02  0.7546771E-02  0.1483445E+00
         21   -1    0    0  504  501  0.00000000000E+00  0.00000000000E+00  0.58285779738E+01  0.58285779738E+01  0.00000000000E+00 0. -1.
         21   -1    0    0  503  502 -0.00000000000E+00 -0.00000000000E+00 -0.10158136557E+03  0.10158136557E+03  0.00000000000E+00 0. -1.
         21    1    1    2  503  501 -0.11479164878E+02  0.20776794252E+02 -0.59685730164E+02  0.64232645834E+02  0.00000000000E+00 0. -1.
         21    1    1    2  504  502  0.11479164878E+02 -0.20776794252E+02 -0.36067057435E+02  0.43177297712E+02  0.00000000000E+00 0. -1.
</event>
<event>
 4    1  0.1679763E+006  0.2152068E+02  0.7546771E-02  0.1511959E+00
         21   -1    0    0  503  501  0.00000000000E+00  0.00000000000E+00  0.62330688027E+02  0.62330688027E+02  0.00000000000E+00 0. -1.
         21   -1    0    0  504  502 -0.00000000000E+00 -0.00000000000E+00 -0.74834205439E+01  0.74834205439E+01  0.00000000000E+00 0. -1.
         21    1    1    2  503  502  0.16304954014E+02 -0.14045929057E+02  0.24484387204E+02  0.32597927315E+02  0.00000000000E+00 0. -1.
         21    1    1    2  504  501 -0.16304954014E+02  0.14045929057E+02  0.30362880279E+02  0.37216181257E+02  0.00000000000E+00 0. -1.
</event>
<event>
 4    1  0.1679763E+006  0.2067406E+02  0.7546771E-02  0.1523970E+00
         21   -1    0    0  504  501  0.00000000000E+00  0.00000000000E+00  0.70979302890E+02  0.70979302890E+02  0.00000000000E+00 0.  1.
         21   -1    0    0  503  502 -0.00000000000E+00 -0.00000000000E+00 -0.66685899767E+01  0.66685899767E+01  0.00000000000E+00 0.  1.
         21    1    1    2  503  501 -0.20636406938E+02 -0.12472552259E+01  0.20063477972E+02  0.28809027842E+02  0.00000000000E+00 0.  1.
         21    1    1    2  504  502  0.20636406938E+02  0.12472552259E+01  0.44247234942E+02  0.48838865025E+02  0.00000000000E+00 0.  1.
</event>
<event>
 4    1  0.1679763E+006  0.3139925E+02  0.7546771E-02  0.1407814E+00
         21   -1    0    0  503  501  0.00000000000E+00  0.00000000000E+00  0.31534521876E+02  0.31534521876E+02  0.00000000000E+00 0.  1.
         21   -1    0    0  504  502 -0.00000000000E+00 -0.00000000000E+00 -0.92000160145E+02  0.92000160145E+02  0.00000000000E+00 0. -1.
         21    1    1    2  503  502 -0.16124938087E+02  0.26942523749E+02  0.19953604488E+02  0.37202950775E+02  0.00000000000E+00 0.  1.
         21    1    1    2  504  501  0.16124938087E+02 -0.26942523749E+02 -0.80419242757E+02  0.86331731246E+02  0.00000000000E+00 0. -1.
</event>
<event>
 4    1  0.1679763E+006  0.2090331E+02  0.7546771E-02  0.1520650E+00
         21   -1    0    0  503  501  0.00000000000E+00  0.00000000000E+00  0.29065877517E+03  0.29065877517E+03  0.00000000000E+00 0. -1.
         21   -1    0    0  501  502 -0.00000000000E+00 -0.00000000000E+00 -0.49281145892E+01  0.49281145892E+01  0.00000000000E+00 0. -1.
         21    1    1    2  503  504  0.20580299367E+02 -0.36605654657E+01  0.26607167140E+03  0.26689151875E+03  0.00000000000E+00 0. -1.
         21    1    1    2  504  502 -0.20580299367E+02  0.36605654657E+01  0.19658989186E+02  0.28695371010E+02  0.00000000000E+00 0. -1.
</event>
<event>
 4    1  0.1679763E+006  0.2296325E+02  0.7546771E-02  0.1492960E+00
         21   -1    0    0  503  501  0.00000000000E+00  0.00000000000E+00  0.18597923626E+03  0.18597923626E+03  0.00000000000E+00 0. -1.
         21   -1    0    0  504  502 -0.00000000000E+00 -0.00000000000E+00 -0.28422898076E+01  0.28422898076E+01  0.00000000000E+00 0. -1.
         21    1    1    2  503  502 -0.20103832400E+02  0.11097146047E+02  0.86893442991E+02  0.89876477247E+02  0.00000000000E+00 0. -1.
         21    1    1    2  504  501  0.20103832400E+02 -0.11097146047E+02  0.96243503460E+02  0.98945048819E+02  0.00000000000E+00 0. -1.
</event>
<event>
 4    1  0.1679763E+006  0.2125769E+02  0.7546771E-02  0.1515617E+00
         21   -1    0    0  503  501  0.00000000000E+00  0.00000000000E+00  0.32010678653E+02  0.32010678653E+02  0.00000000000E+00 0.  1.
         21   -1    0    0  504  502 -0.00000000000E+00 -0.00000000000E+00 -0.67711548744E+02  0.67711548744E+02  0.00000000000E+00 0. -1.
         21    1    1    2  503  502  0.15979638779E+02  0.14019298297E+02  0.26509567735E+02  0.33980093611E+02  0.00000000000E+00 0.  1.
         21    1    1    2  504  501 -0.15979638779E+02 -0.14019298297E+02 -0.62210437827E+02  0.65742133787E+02  0.00000000000E+00 0. -1.
</event>
<event>
 4    1  0.1679763E+006  0.2600686E+02  0.7546771E-02  0.1457848E+00
         21   -1    0    0  503  501  0.00000000000E+00  0.00000000000E+00  0.24887020204E+03  0.24887020204E+03  0.00000000000E+00 0. -1.
         21   -1    0    0  501  502 -0.00000000000E+00 -0.00000000000E+00 -0.35466706101E+02  0.35466706101E+02  0.00000000000E+00 0. -1.
         21    1    1    2  503  504  0.11891851782E+02 -0.23128780755E+02  0.24331468216E+03  0.24470061543E+03  0.00000000000E+00 0. -1.
         21    1    1    2  504  502 -0.11891851782E+02  0.23128780755E+02 -0.29911186225E+02  0.39636292705E+02  0.00000000000E+00 0. -1.
</event>
<event>
 4    1  0.1679763E+006  0.2030374E+02  0.7546771E-02  0.1529442E+00
         21   -1    0    0  504  501  0.00000000000E+00  0.00000000000E+00  0.52251911739E+02  0.52251911739E+02  0.00000000000E+00 0.  1.
         21   -1    0    0  503  502 -0.00000000000E+00 -0.00000000000E+00 -0.17466023013E+03  0.17466023013E+03  0.00000000000E+00 0.  1.
         21    1    1    2  503  501 -0.15578675316E+02  0.13021018957E+02 -0.17206818003E+03  0.17326194227E+03  0.00000000000E+00 0.  1.
         21    1    1    2  504  502  0.15578675316E+02 -0.13021018957E+02  0.49659861640E+02  0.53650199602E+02  0.00000000000E+00 0.  1.
</event>
<event>
 4    1  0.1679763E+006  0.2855781E+02  0.7546771E-02  0.1432557E+00
         21   -1    0    0  503  501  0.00000000000E+00  0.00000000000E+00  0.47478675351E+02  0.47478675351E+02  0.00000000000E+00 0. -1.
         21   -1    0    0  504  502 -0.00000000000E+00 -0.00000000000E+00 -0.26591182383E+03  0.26591182383E+03  0.00000000000E+00 0. -1.
         21    1    1    2  503  502  0.82290116186E+00 -0.28545949018E+02  0.42333157019E+02  0.51065101144E+02  0.00000000000E+00 0. -1.
         21    1    1    2  504  501 -0.82290116186E+00  0.28545949018E+02 -0.26076630550E+03  0.26232539803E+03  0.00000000000E+00 0. -1.
</event>
<event>
 4    1  0.1679763E+006  0.2829240E+02  0.7546771E-02  0.1435040E+00
         21   -1    0    0  504  501  0.00000000000E+00  0.00000000000E+00  0.30514527344E+02  0.30514527344E+02  0.00000000000E+00 0.  1.
         21   -1    0    0  503  502 -0.00000000000E+00 -0.00000000000E+00 -0.12939728765E+03  0.12939728765E+03  0.00000000000E+00 0. -1.
         21    1    1    2  503  501 -0.16015780404E+02 -0.23322840947E+02  0.21951443108E+02  0.35809579533E+02  0.00000000000E+00 0.  1.
         21    1    1    2  504  502  0.16015780404E+02  0.23322840947E+02 -0.12083420342E+03  0.12410223547E+03  0.00000000000E+00 0. -1.
</event>
<event>
 4    1  0.1679763E+006  0.2710637E+02  0.7546771E-02  0.1446543E+00
         21   -1    0    0  504  501  0.00000000000E+00  0.00000000000E+00  0.25493969627E+03  0.25493969627E+03  0.00000000000E+00 0. -1.
         21   -1    0    0  503  502 -0.00000000000E+00 -0.00000000000E+00 -0.28720493470E+02  0.28720493470E+02  0.00000000000E+00 0.  1.
         21    1    1    2  503  501 -0.20915192214E+02 -0.17242674698E+02 -0.21416146737E+02  0.34545715178E+02  0.00000000000E+00 0.  1.
         21    1    1    2  504  502  0.20915192214E+02  0.17242674698E+02  0.24763534954E+03  0.24911447456E+03  0.00000000000E+00 0. -1.
</event>
<event>
 4    1  0.1679763E+006  0.3916291E+02  0.7546771E-02  0.1353462E+00
         21   -1    0    0  503  501  0.00000000000E+00  0.00000000000E+00  0.83084932127E+02  0.83084932127E+02  0.00000000000E+00 0.  1.
         21   -1    0    0  504  502 -0.00000000000E+00 -0.00000000000E+00 -0.23148923009E+03  0.23148923009E+03  0.00000000000E+00 0.  1.
         21    1    1    2  503  502  0.13507763442E+02 -0.36759673287E+02 -0.22508762442E+03  0.22846919250E+03  0.00000000000E+00 0.  1.
         21    1    1    2  504  501 -0.13507763442E+02  0.36759673287E+02  0.76683326459E+02  0.86104969718E+02  0.00000000000E+00 0.  1.
</event>
<event>
 4    1  0.1679763E+006  0.2020556E+02  0.7546771E-02  0.1530916E+00
         21   -1    0    0  503  501  0.00000000000E+00  0.00000000000E+00  0.73320252603E+02  0.73320252603E+02  0.00000000000E+00 0. -1.
         21   -1    0    0  504  502 -0.00000000000E+00 -0.00000000000E+00 -0.37303806280E+03  0.37303806280E+03  0.00000000000E+00 0.  1.
         21    1    1    2  503  502  0.13884143271E+02  0.14679754279E+02  0.71648322638E+02  0.74442909380E+02  0.00000000000E+00 0. -1.
         21    1    1    2  504  501 -0.13884143271E+02 -0.14679754279E+02 -0.37136613284E+03  0.37191540603E+03  0.00000000000E+00 0.  1.
</event>
<event>
 4    1  0.1679763E+006  0.2384077E+02  0.7546771E-02  0.1482202E+00
         21   -1    0    0  503  501  0.00000000000E+00  0.00000000000E+00  0.47794367934E+02  0.47794367934E+02  0.00000000000E+00 0.  1.
         21   -1    0    0  504  502 -0.00000000000E+00 -0.00000000000E+00 -0.32017328169E+02  0.32017328169E+02  0.00000000000E+00 0.  1.
         21    1    1    2  503  502  0.53897220220E+01 -0.23223546720E+02 -0.23749760244E+02  0.33651646875E+02  0.00000000000E+00 0.  1.
         21    1    1    2  504  501 -0.53897220220E+01  0.23223546720E+02  0.39526800009E+02  0.46160049228E+02  0.00000000000E+00 0.  1.
</event>
<event>
 4    1  0.1679763E+006  0.3044567E+02  0.7546771E-02  0.1415762E+00
         21   -1    0    0  503  501  0.00000000000E+00  0.00000000000E+00  0.72034517103E+01  0.72034517103E+01  0.00000000000E+00 0.  1.
         21   -1    0    0  501  502 -0.00000000000E+00 -0.00000000000E+00 -0.56792769172E+03  0.56792769172E+03  0.00000000000E+00 0.  1.
         21    1    1    2  503  504  0.28598021827E+02 -0.10444705197E+02 -0.27464227388E+02  0.41002713387E+02  0.00000000000E+00 0.  1.
         21    1    1    2  504  502 -0.28598021827E+02  0.10444705197E+02 -0.53326001262E+03  0.53412843004E+03  0.00000000000E+00 0.  1.
</event>
<event>
 4    1  0.1679763E+006  0.2261070E+02  0.7546771E-02  0.1497445E+00
         21   -1    0    0  503  501  0.00000000000E+00  0.00000000000E+00  0.59781543072E+01  0.59781543072E+01  0.00000000000E+00 0.  1.
         21   -1    0    0  504  502 -0.00000000000E+00 -0.00000000000E+00 -0.19038602760E+03  0.19038602760E+03  0.00000000000E+00 0.  1.
         21    1    1    2  503  502  0.21267690542E+02 -0.76765253530E+01 -0.16507161604E+03  0.16661297106E+03  0.00000000000E+00 0.  1.
         21    1    1    2  504  501 -0.21267690542E+02  0.76765253530E+01 -0.19336257253E+02  0.29751210850E+02  0.00000000000E+00 0.  1.
</event>
<event>
 4    1  0.1679763E+006  0.2791389E+02  0.7546771E-02  0.1438638E+00
         21   -1    0    0  502  501  0.00000000000E+00  0.00000000000E+00  0.12372450289E+02  0.12372450289E+02  0.00000000000E+00 0.  1.
         21   -1    0    0  503  502 -0.00000000000E+00 -0.00000000000E+00 -0.48960081374E+03  0.48960081374E+03  0.00000000000E+00 0.  1.
         21    1    1    2  503  504  0.16733418717E+02 -0.22342291648E+02 -0.47290315334E+03  0.47372626878E+03  0.00000000000E+00 0.  1.
         21    1    1    2  504  501 -0.16733418717E+02  0.22342291648E+02 -0.43252101154E+01  0.28246995249E+02  0.00000000000E+00 0.  1.
</event>
<event>
 4    1  0.1679763E+006  0.2518094E+02  0.7546771E-02  0.1466789E+00
         21   -1    0    0  503  501  0.00000000000E+00  0.00000000000E+00  0.12095552123E+03  0.12095552123E+03  0.00000000000E+00 0.  1.
         21   -1    0    0  504  502 -0.00000000000E+00 -0.00000000000E+00 -0.59958251273E+02  0.59958251273E+02  0.00000000000E+00 0.  1.
         21    1    1    2  503  502  0.15878492731E+02  0.19543626682E+02 -0.55913414312E+02  0.61322017052E+02  0.00000000000E+00 0.  1.
         21    1    1    2  504  501 -0.15878492731E+02 -0.19543626682E+02  0.11691068427E+03  0.11959175545E+03  0.00000000000E+00 0.  1.
</event>
<event>
 4    1  0.1679763E+006  0.2832696E+02  0.7546771E-02  0.1434715E+00
         21   -1    0    0  504  501  0.00000000000E+00  0.00000000000E+00  0.42396799716E+02  0.42396799716E+02  0.00000000000E+00 0. -1.
         21   -1    0    0  503  502 -0.00000000000E+00 -0.00000000000E+00 -0.38446638813E+02  0.38446638813E+02  0.00000000000E+00 0.  1.
         21    1    1    2  503  501 -0.84320531084E+01  0.27042873966E+02 -0.26827323907E+02  0.39014380169E+02  0.00000000000E+00 0.  1.
         21    1    1    2  504  502  0.84320531084E+01 -0.27042873966E+02  0.30777484811E+02  0.41829058359E+02  0.00000000000E+00 0. -1.
</event>
<event>
 4    1  0.1679763E+006  0.2082678E+02  0.7546771E-02  0.1521752E+00
         21   -1    0    0  503  501  0.00000000000E+00  0.00000000000E+00  0.37615645795E+01  0.37615645795E+01  0.00000000000E+00 0. -1.
         21   -1    0    0  504  502 -0.00000000000E+00 -0.00000000000E+00 -0.12047304887E+03  0.12047304887E+03  0.00000000000E+00 0. -1.
         21    1    1    2  503  502 -0.89993914322E+01 -0.18782058724E+02 -0.71212242560E+02  0.74195271187E+02  0.00000000000E+00 0. -1.
         21    1    1    2  504  501  0.89993914322E+01  0.18782058724E+02 -0.45499241730E+02  0.50039342262E+02  0.00000000000E+00 0. -1.
</event>
<event>
 4    1  0.1679763E+006  0.2360635E+02  0.7546771E-02  0.1485021E+00
         21   -1    0    0  504  501  0.00000000000E+00  0.00000000000E+00  0.22089196299E+03  0.22089196299E+03  0.00000000000E+00 0. -1.
         21   -1    0    0  503  502 -0.00000000000E+00 -0.00000000000E+00 -0.61632128539E+02  0.61632128539E+02  0.00000000000E+00 0.  1.
         21    1    1    2  503  501 -0.20836319351E+02  0.11095378100E+02 -0.58710802617E+02  0.63278890344E+02  0.00000000000E+00 0.  1.
         21    1    1    2  504  502  0.20836319351E+02 -0.11095378100E+02  0.21797063707E+03  0.21924520118E+03  0.00000000000E+00 0. -1.
</event>
<event>
 4    1  0.1679763E+006  0.2207416E+02  0.7546771E-02  0.1504463E+00
         21   -1    0    0  504  501  0.00000000000E+00  0.00000000000E+00  0.49180198954E+02  0.49180198954E+02  0.00000000000E+00 0.  1.
         21   -1    0    0  501  502 -0.00000000000E+00 -0.00000000000E+00 -0.11197616647E+02  0.11197616647E+02  0.00000000000E+00 0.  1.
         21    1    1    2  503  502 -0.20566202231E+02 -0.80187203639E+01  0.87455057923E+01  0.23743471146E+02  0.00000000000E+00 0.  1.
         21    1    1    2  504  503  0.20566202231E+02  0.80187203639E+01  0.29237076515E+02  0.36634344455E+02  0.00000000000E+00 0.  1.
</event>
<event>
 4    1  0.1679763E+006  0.2098823E+02  0.7546771E-02  0.1519433E+00
         21   -1    0    0  504  501  0.00000000000E+00  0.00000000000E+00  0.44401029541E+01  0.44401029541E+01  0.00000000000E+00 0. -1.
         21   -1    0    0  503  502 -0.00000000000E+00 -0.00000000000E+00 -0.21885280721E+03  0.21885280721E+03  0.00000000000E+00 0. -1.
         21    1    1    2  503  501 -0.16335657484E+02 -0.13177704101E+02 -0.18975518890E+03  0.19091238122E+03  0.00000000000E+00 0. -1.
         21    1    1    2  504  502  0.16335657484E+02  0.13177704101E+02 -0.24657515357E+02  0.32380528940E+02  0.00000000000E+00 0. -1.
</event>
<event>
 4    1  0.1679763E+006  0.2881535E+02  0.7546771E-02  0.1430178E+00
         21   -1    0    0  503  501  0.00000000000E+00  0.00000000000E+00  0.48000659937E+03  0.48000659937E+03  0.00000000000E+00 0. -1.
         21   -1    0    0  501  502 -0.00000000000E+00 -0.00000000000E+00 -0.38507727590E+01  0.38507727590E+01  0.00000000000E+00 0.  1.
         21    1    1    2  503  504  0.89354806659E+01 -0.27394917915E+02  0.41762528936E+03  0.41861821109E+03  0.00000000000E+00 0. -1.
         21    1    1    2  504  502 -0.89354806659E+01  0.27394917915E+02  0.58530537250E+02  0.65239161039E+02  0.00000000000E+00 0.  1.
</event>
<event>
 4    1  0.1679763E+006  0.2591580E+02  0.7546771E-02  0.1458814E+00
         21   -1    0    0  504  501  0.00000000000E+00  0.00000000000E+00  0.45206037275E+03  0.45206037275E+03  0.00000000000E+00 0.  1.
         21   -1    0    0  503  502 -0.00000000000E+00 -0.00000000000E+00 -0.18388993711E+01  0.18388993711E+01  0.00000000000E+00 0.  1.
         21    1    1    2  503  501  0.23797967916E+02 -0.10260879441E+02  0.12564886602E+03  0.12829367270E+03  0.00000000000E+00 0.  1.
         21    1    1    2  504  502 -0.23797967916E+02  0.10260879441E+02  0.32457260736E+03  0.32560559942E+03  0.00000000000E+00 0.  1.
</event>
<event>
 4    1  0.1679763E+006  0.2545391E+02  0.7546771E-02  0.1463789E+00
         21   -1    0    0  504  501  0.00000000000E+00  0.00000000000E+00  0.17030978584E+02  0.17030978584E+02  0.00000000000E+00 0. -1.
         21   -1    0    0  503  502 -0.00000000000E+00 -0.00000000000E+00 -0.50390054287E+02  0.50390054287E+02  0.00000000000E+00 0. -1.
         21    1    1    2  503  501 -0.24681543040E+02 -0.62227945524E+01 -0.33366708405E+02  0.41967117708E+02  0.00000000000E+00 0. -1.
         21    1    1    2  504  502  0.24681543040E+02  0.62227945524E+01  0.76327025840E-02  0.25453915163E+02  0.00000000000E+00 0. -1.
</event>
<event>
 4    1  0.1679763E+006  0.2543670E+02  0.7546771E-02  0.1463977E+00
         21   -1    0    0  503  501  0.00000000000E+00  0.00000000000E+00  0.87899645671E+03  0.87899645671E+03  0.00000000000E+00 0. -1.
         21   -1    0    0  504  502 -0.00000000000E+00 -0.00000000000E+00 -0.17230895352E+01  0.17230895352E+01  0.00000000000E+00 0. -1.
         21    1    1    2  503  502 -0.94590018234E+01 -0.23612561920E+02  0.77191792162E+03  0.77233691063E+03  0.00000000000E+00 0. -1.
         21    1    1    2  504  501  0.94590018234E+01  0.23612561920E+02  0.10535544556E+03  0.10838263562E+03  0.00000000000E+00 0. -1.
</event>
<event>
 4    1  0.1679763E+006  0.3129215E+02  0.7546771E-02  0.1408690E+00
         21   -1    0    0  504  501  0.00000000000E+00  0.00000000000E+00  0.10042469178E+03  0.10042469178E+03  0.00000000000E+00 0. -1.
         21   -1    0    0  503  502 -0.00000000000E+00 -0.00000000000E+00 -0.29274406833E+02  0.29274406833E+02  0.00000000000E+00 0.  1.
         21    1    1    2  503  501  0.10256317830E+02  0.29563604917E+02 -0.17384544052E+02  0.35796943487E+02  0.00000000000E+00 0.  1.
         21    1    1    2  504  502 -0.10256317830E+02 -0.29563604917E+02  0.88534828995E+02  0.93902155121E+02  0.00000000000E+00 0. -1.
</event>
<event>
 4    1  0.1679763E+006  0.2351624E+02  0.7546771E-02  0.1486115E+00
         21   -1    0    0  503  501  0.00000000000E+00  0.00000000000E+00  0.15233822704E+03  0.15233822704E+03  0.00000000000E+00 0. -1.
         21   -1    0    0  504  502 -0.00000000000E+00 -0.00000000000E+00 -0.75477843183E+01  0.75477843183E+01  0.00000000000E+00 0. -1.
         21    1    1    2  503  502  0.19552813364E+02 -0.13065259563E+02  0.14800640320E+02  0.27786192107E+02  0.00000000000E+00 0. -1.
         21    1    1    2  504  501 -0.19552813364E+02  0.13065259563E+02  0.12998980241E+03  0.13209981926E+03  0.00000000000E+00 0. -1.
</event>
<event>
 4    1  0.1679763E+006  0.2062635E+02  0.7546771E-02  0.1524667E+00
         21   -1    0    0  504  501  0.00000000000E+00  0.00000000000E+00  0.56375051523E+01  0.56375051523E+01  0.00000000000E+00 0. -1.
         21   -1    0    0  503  502 -0.00000000000E+00 -0.00000000000E+00 -0.76103280224E+02  0.76103280224E+02  0.00000000000E+00 0. -1.
         21    1    1    2  503  501 -0.17620021073E+02  0.10722926400E+02 -0.38969597991E+02  0.44091675640E+02  0.00000000000E+00 0. -1.
         21    1    1    2  504  502  0.17620021073E+02 -0.10722926400E+02 -0.31496177081E+02  0.37649109736E+02  0.00000000000E+00 0. -1.
</event>
<event>
 4    1  0.1679763E+006  0.2098616E+02  0.7546771E-02  0.1519462E+00
         21   -1    0    0  503  501  0.00000000000E+00  0.00000000000E+00  0.27495284275E+02  0.27495284275E+02  0.00000000000E+00 0. -1.
         21   -1    0    0  504  502 -0.00000000000E+00 -0.00000000000E+00 -0.20529891627E+02  0.20529891627E+02  0.00000000000E+00 0. -1.
         21    1    1    2  503  502  0.13136017371E+02 -0.16366546134E+02  0.14739786837E+02  0.25645274433E+02  0.00000000000E+00 0. -1.
         21    1    1    2  504  501 -0.13136017371E+02  0.16366546134E+02 -0.77743941892E+01  0.22379901469E+02  0.00000000000E+00 0. -1.
</event>
<event>
 4    1  0.1679763E+006  0.2545697E+02  0.7546771E-02  0.1463756E+00
         21   -1    0    0  504  501  0.00000000000E+00  0.00000000000E+00  0.25033070215E+02  0.25033070215E+02  0.00000000000E+00 0.  1.
         21   -1    0    0  501  502 -0.00000000000E+00 -0.00000000000E+00 -0.80145564560E+02  0.80145564560E+02  0.00000000000E+00 0. -1.
         21    1    1    2  503  502 -0.55990970814E+01 -0.24833593908E+02 -0.70826332444E+02  0.75262385306E+02  0.00000000000E+00 0. -1.
         21    1    1    2  504  503  0.55990970814E+01  0.24833593908E+02  0.15713838099E+02  0.29916249469E+02  0.00000000000E+00 0.  1.
</event>
<event>
 4    1  0.1679763E+006  0.2026920E+02  0.7546771E-02  0.1529960E+00
         21   -1    0    0  503  501  0.00000000000E+00  0.00000000000E+00  0.23095855225E+03  0.23095855225E+03  0.00000000000E+00 0. -1.
         21   -1    0    0  504  502 -0.00000000000E+00 -0.00000000000E+00 -0.30120525788E+01  0.30120525788E+01  0.00000000000E+00 0. -1.
         21    1    1    2  503  502 -0.19214709061E+02  0.64525369028E+01  0.18882767887E+03  0.18991243399E+03  0.00000000000E+00 0. -1.
         21    1    1    2  504  501  0.19214709061E+02 -0.64525369028E+01  0.39118820807E+02  0.44058170844E+02  0.00000000000E+00 0. -1.
</event>
<event>
 4    1  0.1679763E+006  0.3372484E+02  0.7546771E-02  0.1389756E+00
         21   -1    0    0  504  501  0.00000000000E+00  0.00000000000E+00  0.14537447858E+03  0.14537447858E+03  0.00000000000E+00 0.  1.
         21   -1    0    0  501  502 -0.00000000000E+00 -0.00000000000E+00 -0.13233911270E+03  0.13233911270E+03  0.00000000000E+00 0.  1.
         21    1    1    2  503  502 -0.29875984747E+02 -0.15645787204E+02 -0.12817208359E+03  0.13253470539E+03  0.00000000000E+00 0.  1.
         21    1    1    2  504  503  0.29875984747E+02  0.15645787204E+02  0.14120744947E+03  0.14517888589E+03  0.00000000000E+00 0.  1.
</event>
<event>
 4    1  0.1679763E+006  0.2038633E+02  0.7546771E-02  0.1528210E+00
         21   -1    0    0  502  501  0.00000000000E+00  0.00000000000E+00  0.76908571810E+01  0.76908571810E+01  0.00000000000E+00 0.  1.
         21   -1    0    0  503  502 -0.00000000000E+00 -0.00000000000E+00 -0.17175751165E+03  0.17175751165E+03  0.00000000000E+00 0. -1.
         21    1    1    2  503  504  0.17325307491E+02 -0.10744127812E+02 -0.15631384304E+03  0.15763762269E+03  0.00000000000E+00 0. -1.
         21    1    1    2  504  501 -0.17325307491E+02  0.10744127812E+02 -0.77528114298E+01  0.21810746140E+02  0.00000000000E+00 0.  1.
</event>
<event>
 4    1  0.1679763E+006  0.2420211E+02  0.7546771E-02  0.1477931E+00
         21   -1    0    0  503  501  0.00000000000E+00  0.00000000000E+00  0.26724058227E+02  0.26724058227E+02  0.00000000000E+00 0. -1.
         21   -1    0    0  504  502 -0.00000000000E+00 -0.00000000000E+00 -0.24659331954E+02  0.24659331954E+02  0.00000000000E+00 0. -1.
         21    1    1    2  503  502  0.21652075181E+02  0.10813413863E+02  0.95982032554E+01  0.26035894161E+02  0.00000000000E+00 0. -1.
         21    1    1    2  504  501 -0.21652075181E+02 -0.10813413863E+02 -0.75334769827E+01  0.25347496020E+02  0.00000000000E+00 0. -1.
</event>
<event>
 4    1  0.1679763E+006  0.3653160E+02  0.7546771E-02  0.1370104E+00
         21   -1    0    0  503  501  0.00000000000E+00  0.00000000000E+00  0.10140718746E+04  0.10140718746E+04  0.00000000000E+00 0. -1.
         21   -1    0    0  504  502 -0.00000000000E+00 -0.00000000000E+00 -0.48723853159E+01  0.48723853159E+01  0.00000000000E+00 0.  1.
         21    1    1    2  503  502 -0.25827167516E+02 -0.25836311575E+02  0.69336820742E+02  0.78371884552E+02  0.00000000000E+00 0.  1.
         21    1    1    2  504  501  0.25827167516E+02  0.25836311575E+02  0.93986266853E+03  0.94057237536E+03  0.00000000000E+00 0. -1.
</event>
<event>
 4    1  0.1679763E+006  0.3490648E+02  0.7546771E-02  0.1381222E+00
         21   -1    0    0  503  501  0.00000000000E+00  0.00000000000E+00  0.23830553070E+03  0.23830553070E+03  0.00000000000E+00 0.  1.
         21   -1    0    0  504  502 -0.00000000000E+00 -0.00000000000E+00 -0.59836839929E+01  0.59836839929E+01  0.00000000000E+00 0. -1.
         21    1    1    2  503  502  0.10117187713E+02  0.33408159580E+02  0.69568691116E+02  0.77834859782E+02  0.00000000000E+00 0. -1.
         21    1    1    2  504  501 -0.10117187713E+02 -0.33408159580E+02  0.16275315559E+03  0.16645435491E+03  0.00000000000E+00 0.  1.
</event>
<event>
 4    1  0.1679763E+006  0.2168904E+02  0.7546771E-02  0.1509650E+00
         21   -1    0    0  503  501  0.00000000000E+00  0.00000000000E+00  0.31583697064E+01  0.31583697064E+01  0.00000000000E+00 0. -1.
         21   -1    0    0  504  502 -0.00000000000E+00 -0.00000000000E+00 -0.46767104733E+03  0.46767104733E+03  0.00000000000E+00 0. -1.
         21    1    1    2  503  502 -0.17724324326E+02  0.12500515295E+02 -0.37911043093E+02  0.43676787243E+02  0.00000000000E+00 0. -1.
         21    1    1    2  504  501  0.17724324326E+02 -0.12500515295E+02 -0.42660163453E+03  0.42715262979E+03  0.00000000000E+00 0. -1.
</event>
<event>
 4    1  0.1679763E+006  0.2478163E+02  0.7546771E-02  0.1471261E+00
         21   -1    0    0  503  501  0.00000000000E+00  0.00000000000E+00  0.77964306178E+02  0.77964306178E+02  0.00000000000E+00 0.  1.
         21   -1    0    0  501  502 -0.00000000000E+00 -0.00000000000E+00 -0.13108480946E+02  0.13108480946E+02  0.00000000000E+00 0. -1.
         21    1    1    2  503  504 -0.58834959326E+01  0.24073092181E+02  0.61194768804E+02  0.66022185820E+02  0.00000000000E+00 0.  1.
         21    1    1    2  504  502  0.58834959326E+01 -0.24073092181E+02  0.36610564285E+01  0.25050601304E+02  0.00000000000E+00 0. -1.
</event>
<event>
 4    1  0.1679763E+006  0.2624979E+02  0.7546771E-02  0.1455293E+00
         21   -1    0    0  503  501  0.00000000000E+00  0.00000000000E+00  0.71171089428E+02  0.71171089428E+02  0.00000000000E+00 0.  1.
         21   -1    0    0  501  502 -0.00000000000E+00 -0.00000000000E+00 -0.11923905761E+02  0.11923905761E+02  0.00000000000E+00 0.  1.
         21    1    1    2  503  504  0.26249411366E+02  0.14180720842E+00  0.47640519079E+02  0.54393664745E+02  0.00000000000E+00 0.  1.
         21    1    1    2  504  502 -0.26249411366E+02 -0.14180720842E+00  0.11606664588E+02  0.28701330443E+02  0.00000000000E+00 0.  1.
</event>
<event>
 4    1  0.1679763E+006  0.2587726E+02  0.7546771E-02  0.1459224E+00
         21   -1    0    0  503  501  0.00000000000E+00  0.00000000000E+00  0.96249854619E+01  0.96249854619E+01  0.00000000000E+00 0.  1.
         21   -1    0    0  504  502 -0.00000000000E+00 -0.00000000000E+00 -0.69630700731E+02  0.69630700731E+02  0.00000000000E+00 0.  1.
         21    1    1    2  503  502  0.16025485279E+02 -0.20317879172E+02 -0.31150490151E+02  0.40496733561E+02  0.00000000000E+00 0.  1.
         21    1    1    2  504  501 -0.16025485279E+02  0.20317879172E+02 -0.28855225118E+02  0.38758952632E+02  0.00000000000E+00 0.  1.
</event>
<event>
 4    1  0.1679763E+006  0.2866397E+02  0.7546771E-02  0.1431573E+00
         21   -1    0    0  502  501  0.00000000000E+00  0.00000000000E+00  0.33623615580E+02  0.33623615580E+02  0.00000000000E+00 0. -1.
         21   -1    0    0  503  502 -0.00000000000E+00 -0.00000000000E+00 -0.39888297723E+02  0.39888297723E+02  0.00000000000E+00 0. -1.
         21    1    1    2  503  504 -0.11543360225E+01 -0.28640719932E+02 -0.26009543183E+02  0.38705550848E+02  0.00000000000E+00 0. -1.
         21    1    1    2  504  501  0.11543360225E+01  0.28640719932E+02  0.19744861040E+02  0.34806362455E+02  0.00000000000E+00 0. -1.
</event>
<event>
 4    1  0.1679763E+006  0.2422634E+02  0.7546771E-02  0.1477648E+00
         21   -1    0    0  504  501  0.00000000000E+00  0.00000000000E+00  0.36579870840E+02  0.36579870840E+02  0.00000000000E+00 0.  1.
         21   -1    0    0  503  502 -0.00000000000E+00 -0.00000000000E+00 -0.16063293901E+02  0.16063293901E+02  0.00000000000E+00 0.  1.
         21    1    1    2  503  501  0.27446014414E+01  0.24070369163E+02  0.11152200431E+02  0.26669965938E+02  0.00000000000E+00 0.  1.
         21    1    1    2  504  502 -0.27446014414E+01 -0.24070369163E+02  0.93643765081E+01  0.25973198803E+02  0.00000000000E+00 0.  1.
</event>
<event>
 4    1  0.1679763E+006  0.3579726E+02  0.7546771E-02  0.1375043E+00
         21   -1    0    0  503  501  0.00000000000E+00  0.00000000000E+00  0.45463046631E+01  0.45463046631E+01  0.00000000000E+00 0. -1.
         21   -1    0    0  504  502 -0.00000000000E+00 -0.00000000000E+00 -0.55677017515E+03  0.55677017515E+03  0.00000000000E+00 0. -1.
         21    1    1    2  503  502  0.82849627730E+01 -0.34825321194E+02 -0.47332304216E+03  0.47467477903E+03  0.00000000000E+00 0. -1.
         21    1    1    2  504  501 -0.82849627730E+01  0.34825321194E+02 -0.78900828322E+02  0.86641700782E+02  0.00000000000E+00 0. -1.
</event>
<event>
 4    1  0.1679763E+006  0.2026637E+02  0.7546771E-02  0.1530002E+00
         21   -1    0    0  504  501  0.00000000000E+00  0.00000000000E+00  0.93246111089E+03  0.93246111089E+03  0.00000000000E+00 0. -1.
         21   -1    0    0  503  502 -0.00000000000E+00 -0.00000000000E+00 -0.56188899184E+00  0.56188899184E+00  0.00000000000E+00 0.  1.
         21    1    1    2  503  501  0.83134626690E+01 -0.18482749518E+02  0.68280573172E+03  0.68310642873E+03  0.00000000000E+00 0. -1.
         21    1    1    2  504  502 -0.83134626690E+01  0.18482749518E+02  0.24909349018E+03  0.24991657116E+03  0.00000000000E+00 0.  1.
</event>
<event>
 4    1  0.1679763E+006  0.4099178E+02  0.7546771E-02  0.1342770E+00
         21   -1    0    0  502  501  0.00000000000E+00  0.00000000000E+00  0.14229991869E+03  0.14229991869E+03  0.00000000000E+00 0. -1.
         21   -1    0    0  503  502 -0.00000000000E+00 -0.00000000000E+00 -0.38581384569E+02  0.38581384569E+02  0.00000000000E+00 0.  1.
         21    1    1    2  503  504  0.29229945496E+02  0.28739109658E+02 -0.23480390300E+02  0.47240394434E+02  0.00000000000E+00 0.  1.
         21    1    1    2  504  501 -0.29229945496E+02 -0.28739109658E+02  0.12719892443E+03  0.13364090883E+03  0.00000000000E+00 0. -1.
</event>
<event>
 4    1  0.1679763E+006  0.2201980E+02  0.7546771E-02  0.1505187E+00
         21   -1    0    0  504  501  0.00000000000E+00  0.00000000000E+00  0.60806256212E+01  0.60806256212E+01  0.00000000000E+00 0.  1.
         21   -1    0    0  503  502 -0.00000000000E+00 -0.00000000000E+00 -0.80790664718E+02  0.80790664718E+02  0.00000000000E+00 0.  1.
         21    1    1    2  503  501  0.21562719386E+02  0.44632591859E+01 -0.42307400379E+02  0.47694734266E+02  0.00000000000E+00 0.  1.
         21    1    1    2  504  502 -0.21562719386E+02 -0.44632591859E+01 -0.32402638718E+02  0.39176556074E+02  0.00000000000E+00 0.  1.
</event>
<event>
 4    1  0.1679763E+006  0.2864680E+02  0.7546771E-02  0.1431732E+00
         21   -1    0    0  504  501  0.00000000000E+00  0.00000000000E+00  0.22173528007E+01  0.22173528007E+01  0.00000000000E+00 0. -1.
         21   -1    0    0  501  502 -0.00000000000E+00 -0.00000000000E+00 -0.44109703746E+03  0.44109703746E+03  0.00000000000E+00 0.  1.
         21    1    1    2  503  502 -0.16520473194E+02 -0.23403267202E+02 -0.30836803326E+03  0.30969579088E+03  0.00000000000E+00 0.  1.
         21    1    1    2  504  503  0.16520473194E+02  0.23403267202E+02 -0.13051165140E+03  0.13361859938E+03  0.00000000000E+00 0. -1.
</event>
<event>
 4    1  0.1679763E+006  0.3095523E+02  0.7546771E-02  0.1411473E+00
         21   -1    0    0  504  501  0.00000000000E+00  0.00000000000E+00  0.14836650015E+01  0.14836650015E+01  0.00000000000E+00 0. -1.
         21   -1    0    0  503  502 -0.00000000000E+00 -0.00000000000E+00 -0.10316297939E+04  0.10316297939E+04  0.00000000000E+00 0.  1.
         21    1    1    2  503  501 -0.91756454952E+00 -0.30941628093E+02 -0.83095541155E+03  0.83153179269E+03  0.00000000000E+00 0.  1.
         21    1    1    2  504  502  0.91756454952E+00  0.30941628093E+02 -0.19919071733E+03  0.20158166619E+03  0.00000000000E+00 0. -1.
</event>
<event>
 4    1  0.1679763E+006  0.2373872E+02  0.7546771E-02  0.1483425E+00
         21   -1    0    0  502  501  0.00000000000E+00  0.00000000000E+00  0.30482009029E+01  0.30482009029E+01  0.00000000000E+00 0.  1.
         21   -1    0    0  504  502 -0.00000000000E+00 -0.00000000000E+00 -0.20826224792E+03  0.20826224792E+03  0.00000000000E+00 0. -1.
         21    1    1    2  503  501 -0.16748281965E+02 -0.16823251241E+02 -0.67198817424E+02  0.71268561051E+02  0.00000000000E+00 0.  1.
         21    1    1    2  504  503  0.16748281965E+02  0.16823251241E+02 -0.13801522959E+03  0.14004188777E+03  0.00000000000E+00 0. -1.
</event>
<event>
 4    1  0.1679763E+006  0.2765110E+02  0.7546771E-02  0.1441175E+00
         21   -1    0    0  504  501  0.00000000000E+00  0.00000000000E+00  0.19049749858E+03  0.19049749858E+03  0.00000000000E+00 0.  1.
         21   -1    0    0  503  502 -0.00000000000E+00 -0.00000000000E+00 -0.16725154948E+02  0.16725154948E+02  0.00000000000E+00 0.  1.
         21    1    1    2  503  501  0.26386828573E+02 -0.82655202519E+01 -0.34415900921E+01  0.27864459255E+02  0.00000000000E+00 0.  1.
         21    1    1    2  504  502 -0.26386828573E+02  0.82655202519E+01  0.17721393373E+03  0.17935819428E+03  0.00000000000E+00 0.  1.
</event>
<event>
 4    1  0.1679763E+006  0.2054704E+02  0.7546771E-02  0.1525831E+00
         21   -1    0    0  504  501  0.00000000000E+00  0.00000000000E+00  0.39937186355E+02  0.39937186355E+02  0.00000000000E+00 0. -1.
         21   -1    0    0  503  502 -0.00000000000E+00 -0.00000000000E+00 -0.20617959737E+03  0.20617959737E+03  0.00000000000E+00 0. -1.
         21    1    1    2  503  501  0.19437546956E+02 -0.66605293607E+01  0.36740989192E+02  0.42096094473E+02  0.00000000000E+00 0. -1.
         21    1    1    2  504  502 -0.19437546956E+02  0.66605293607E+01 -0.20298340021E+03  0.20402068925E+03  0.00000000000E+00 0. -1.
</event>
<event>
 4    1  0.1679763E+006  0.2023073E+02  0.7546771E-02  0.1530537E+00
         21   -1    0    0  503  501  0.00000000000E+00  0.00000000000E+00  0.18488938025E+02  0.18488938025E+02  0.00000000000E+00 0.  1.
         21   -1    0    0  504  502 -0.00000000000E+00 -0.00000000000E+00 -0.28794290511E+02  0.28794290511E+02  0.00000000000E+00 0. -1.
         21    1    1    2  503  502  0.18864636351E+02  0.73080666672E+01 -0.16520714595E+02  0.26119271694E+02  0.00000000000E+00 0. -1.
         21    1    1    2  504  501 -0.18864636351E+02 -0.73080666672E+01  0.62153621094E+01  0.21163956842E+02  0.00000000000E+00 0.  1.
</event>
<event>
 4    1  0.1679763E+006  0.2810017E+02  0.7546771E-02  0.1436859E+00
         21   -1    0    0  503  501  0.00000000000E+00  0.00000000000E+00  0.16593289088E+03  0.16593289088E+03  0.00000000000E+00 0. -1.
         21   -1    0    0  504  502 -0.00000000000E+00 -0.00000000000E+00 -0.69435320913E+01  0.69435320913E+01  0.00000000000E+00 0. -1.
         21    1    1    2  503  502 -0.21627972341E+02  0.17940183768E+02  0.31007395601E+02  0.41845883468E+02  0.00000000000E+00 0. -1.
         21    1    1    2  504  501  0.21627972341E+02 -0.17940183768E+02  0.12798196319E+03  0.13103053950E+03  0.00000000000E+00 0. -1.
</event>
<event>
 4    1  0.1679763E+006  0.3397668E+02  0.7546771E-02  0.1387904E+00
         21   -1    0    0  504  501  0.00000000000E+00  0.00000000000E+00  0.27420106171E+01  0.27420106171E+01  0.00000000000E+00 0.  1.
         21   -1    0    0  503  502 -0.00000000000E+00 -0.00000000000E+00 -0.52804695720E+03  0.52804695720E+03  0.00000000000E+00 0. -1.
         21    1    1    2  503  501 -0.33878668501E+02  0.25789362314E+01 -0.38213973490E+03  0.38364722348E+03  0.00000000000E+00 0. -1.
         21    1    1    2  504  502  0.33878668501E+02 -0.25789362314E+01 -0.14316521168E+03  0.14714174434E+03  0.00000000000E+00 0.  1.
</event>
<event>
 4    1  0.1679763E+006  0.2635637E+02  0.7546771E-02  0.1454183E+00
         21   -1    0    0  504  501  0.00000000000E+00  0.00000000000E+00  0.90782705223E+03  0.90782705223E+03  0.00000000000E+00 0.  1.
         21   -1    0    0  501  502 -0.00000000000E+00 -0.00000000000E+00 -0.14338354418E+01  0.14338354418E+01  0.00000000000E+00 0.  1.
         21    1    1    2  503  502  0.10257290474E+02  0.24278511103E+02  0.14273525632E+03  0.14514823976E+03  0.00000000000E+00 0.  1.
         21    1    1    2  504  503 -0.10257290474E+02 -0.24278511103E+02  0.76365796047E+03  0.76411264791E+03  0.00000000000E+00 0.  1.
</event>
<event>
 4    1  0.1679763E+006  0.2199367E+02  0.7546771E-02  0.1505537E+00
         21   -1    0    0  503  501  0.00000000000E+00  0.00000000000E+00  0.24673814399E+02  0.24673814399E+02  0.00000000000E+00 0.  1.
         21   -1    0    0  501  502 -0.00000000000E+00 -0.00000000000E+00 -0.20105547591E+02  0.20105547591E+02  0.00000000000E+00 0.  1.
         21    1    1    2  503  504 -0.17748564790E+02  0.12988837397E+02  0.58181227838E+01  0.22750208829E+02  0.00000000000E+00 0.  1.
         21    1    1    2  504  502  0.17748564790E+02 -0.12988837397E+02 -0.12498559757E+01  0.22029153161E+02  0.00000000000E+00 0.  1.
</event>
<event>
 4    1  0.1679763E+006  0.2247562E+02  0.7546771E-02  0.1499190E+00
         21   -1    0    0  503  501  0.00000000000E+00  0.00000000000E+00  0.70925694963E+00  0.70925694963E+00  0.00000000000E+00 0. -1.
         21   -1    0    0  504  502 -0.00000000000E+00 -0.00000000000E+00 -0.90484001776E+03  0.90484001776E+03  0.00000000000E+00 0. -1.
         21    1    1    2  503  502  0.18771219260E+02  0.12361023980E+02 -0.66096440281E+03  0.66134642614E+03  0.00000000000E+00 0. -1.
         21    1    1    2  504  501 -0.18771219260E+02 -0.12361023980E+02 -0.24316635801E+03  0.24420284858E+03  0.00000000000E+00 0. -1.
</event>
<event>
 4    1  0.1679763E+006  0.2640499E+02  0.7546771E-02  0.1453678E+00
         21   -1    0    0  504  501  0.00000000000E+00  0.00000000000E+00  0.15544900236E+02  0.15544900236E+02  0.00000000000E+00 0.  1.
         21   -1    0    0  503  502 -0.00000000000E+00 -0.00000000000E+00 -0.14082301515E+03  0.14082301515E+03  0.00000000000E+00 0.  1.
         21    1    1    2  503  501  0.22774789379E+02  0.13361601440E+02  0.19041223495E+01  0.26473554847E+02  0.00000000000E+00 0.  1.
         21    1    1    2  504  502 -0.22774789379E+02 -0.13361601440E+02 -0.12718223726E+03  0.12989436054E+03  0.00000000000E+00 0.  1.
</event>
<event>
 4    1  0.1679763E+006  0.6643493E+02  0.7546771E-02  0.1239408E+00
         21   -1    0    0  503  501  0.00000000000E+00  0.00000000000E+00  0.47562138331E+01  0.47562138331E+01  0.00000000000E+00 0. -1.
         21   -1    0    0  504  502 -0.00000000000E+00 -0.00000000000E+00 -0.92983101488E+03  0.92983101488E+03  0.00000000000E+00 0. -1.
         21    1    1    2  503  502 -0.54304767794E+02 -0.38269981607E+02 -0.48347186381E+03  0.48801500222E+03  0.00000000000E+00 0. -1.
         21    1    1    2  504  501  0.54304767794E+02  0.38269981607E+02 -0.44160293723E+03  0.44657222648E+03  0.00000000000E+00 0. -1.
</event>
<event>
 4    1  0.1679763E+006  0.2516842E+02  0.7546771E-02  0.1466928E+00
         21   -1    0    0  502  501  0.00000000000E+00  0.00000000000E+00  0.49419662309E+02  0.49419662309E+02  0.00000000000E+00 0.  1.
         21   -1    0    0  504  502 -0.00000000000E+00 -0.00000000000E+00 -0.21961720587E+03  0.21961720587E+03  0.00000000000E+00 0. -1.
         21    1    1    2  503  501  0.12649061273E+02 -0.21758923770E+02  0.45435125435E+02  0.51940351732E+02  0.00000000000E+00 0.  1.
         21    1    1    2  504  503 -0.12649061273E+02  0.21758923770E+02 -0.21563266900E+03  0.21709651645E+03  0.00000000000E+00 0. -1.
</event>
<event>
 4    1  0.1679763E+006  0.2127162E+02  0.7546771E-02  0.1515422E+00
         21   -1    0    0  502  501  0.00000000000E+00  0.00000000000E+00  0.35113445699E+01  0.35113445699E+01  0.00000000000E+00 0. -1.
         21   -1    0    0  504  502 -0.00000000000E+00 -0.00000000000E+00 -0.14685695520E+03  0.14685695520E+03  0.00000000000E+00 0. -1.
         21    1    1    2  503  501  0.11010981007E+02 -0.18200006771E+02 -0.45355350601E+02  0.50095805985E+02  0.00000000000E+00 0. -1.
         21    1    1    2  504  503 -0.11010981007E+02  0.18200006771E+02 -0.97990260024E+02  0.10027249378E+03  0.00000000000E+00 0. -1.
</event>
<event>
 4    1  0.1679763E+006  0.3180930E+02  0.7546771E-02  0.1404499E+00
         21   -1    0    0  503  501  0.00000000000E+00  0.00000000000E+00  0.21682095790E+02  0.21682095790E+02  0.00000000000E+00 0.  1.
         21   -1    0    0  504  502 -0.00000000000E+00 -0.00000000000E+00 -0.49853750988E+02  0.49853750988E+02  0.00000000000E+00 0.  1.
         21    1    1    2  503  502  0.84066568661E+01 -0.30678322941E+02 -0.23129416776E+02  0.39329394840E+02  0.00000000000E+00 0.  1.
         21    1    1    2  504  501 -0.84066568661E+01  0.30678322941E+02 -0.50422384217E+01  0.32206451938E+02  0.00000000000E+00 0.  1.
</event>
<event>
 4    1  0.1679763E+006  0.2275697E+02  0.7546771E-02  0.1495573E+00
         21   -1    0    0  504  501  0.00000000000E+00  0.00000000000E+00  0.14040773989E+04  0.14040773989E+04  0.00000000000E+00 0.  1.
         21   -1    0    0  501  502 -0.00000000000E+00 -0.00000000000E+00 -0.13758287340E+02  0.13758287340E+02  0.00000000000E+00 0.  1.
         21    1    1    2  503  502 -0.19513998573E+02  0.11708277207E+02 -0.41911953837E+01  0.23139706442E+02  0.00000000000E+00 0.  1.
         21    1    1    2  504  503  0.19513998573E+02 -0.11708277207E+02  0.13945103069E+04  0.13946959798E+04  0.00000000000E+00 0.  1.
</event>
<event>
 4    1  0.1679763E+006  0.2237718E+02  0.7546771E-02  0.1500471E+00
         21   -1    0    0  503  501  0.00000000000E+00  0.00000000000E+00  0.90555828224E+03  0.90555828224E+03  0.00000000000E+00 0. -1.
         21   -1    0    0  504  502 -0.00000000000E+00 -0.00000000000E+00 -0.99532513262E+00  0.99532513262E+00  0.00000000000E+00 0. -1.
         21    1    1    2  503  502 -0.16010612047E+02 -0.15633252698E+02  0.15009778115E+03  0.15175665453E+03  0.00000000000E+00 0. -1.
         21    1    1    2  504  501  0.16010612047E+02  0.15633252698E+02  0.75446517595E+03  0.75479695284E+03  0.00000000000E+00 0. -1.
</event>
<event>
 4    1  0.1679763E+006  0.3263904E+02  0.7546771E-02  0.1397967E+00
         21   -1    0    0  504  501  0.00000000000E+00  0.00000000000E+00  0.47115379124E+02  0.47115379124E+02  0.00000000000E+00 0.  1.
         21   -1    0    0  503  502 -0.00000000000E+00 -0.00000000000E+00 -0.23195216011E+02  0.23195216011E+02  0.00000000000E+00 0.  1.
         21    1    1    2  503  501 -0.26390941766E+02 -0.19204814299E+02  0.63788605538E+01  0.33256526600E+02  0.00000000000E+00 0.  1.
         21    1    1    2  504  502  0.26390941766E+02  0.19204814299E+02  0.17541302559E+02  0.37054068535E+02  0.00000000000E+00 0.  1.
</event>
<event>
 4    1  0.1679763E+006  0.3511348E+02  0.7546771E-02  0.1379767E+00
         21   -1    0    0  504  501  0.00000000000E+00  0.00000000000E+00  0.32915572003E+03  0.32915572003E+03  0.00000000000E+00 0. -1.
         21   -1    0    0  501  502 -0.00000000000E+00 -0.00000000000E+00 -0.20217065518E+02  0.20217065518E+02  0.00000000000E+00 0. -1.
         21    1    1    2  503  502  0.35104118078E+02  0.81060522705E+00 -0.32058448729E+01  0.35259518264E+02  0.00000000000E+00 0. -1.
         21    1    1    2  504  503 -0.35104118078E+02 -0.81060522705E+00  0.31214449939E+03  0.31411326728E+03  0.00000000000E+00 0. -1.
</event>
<event>
 4    1  0.1679763E+006  0.2122428E+02  0.7546771E-02  0.1516087E+00
         21   -1    0    0  503  501  0.00000000000E+00  0.00000000000E+00  0.15367383592E+03  0.15367383592E+03  0.00000000000E+00 0. -1.
         21   -1    0    0  501  502 -0.00000000000E+00 -0.00000000000E+00 -0.49706279952E+01  0.49706279952E+01  0.00000000000E+00 0.  1.
         21    1    1    2  503  504 -0.15169001312E+02  0.14844908805E+02  0.12515921965E+03  0.12694605225E+03  0.00000000000E+00 0. -1.
         21    1    1    2  504  502  0.15169001312E+02 -0.14844908805E+02  0.23543988273E+02  0.31698411664E+02  0.00000000000E+00 0.  1.
</event>
<event>
 4    1  0.1679763E+006  0.2880470E+02  0.7546771E-02  0.1430276E+00
         21   -1    0    0  504  501  0.00000000000E+00  0.00000000000E+00  0.37293688564E+02  0.37293688564E+02  0.00000000000E+00 0.  1.
         21   -1    0    0  501  502 -0.00000000000E+00 -0.00000000000E+00 -0.27375964135E+02  0.27375964135E+02  0.00000000000E+00 0.  1.
         21    1    1    2  503  502  0.22576886486E+02  0.17888403026E+02 -0.90356389211E+01  0.30188632578E+02  0.00000000000E+00 0.  1.
         21    1    1    2  504  503 -0.22576886486E+02 -0.17888403026E+02  0.18953363350E+02  0.34481020120E+02  0.00000000000E+00 0.  1.
</event>
<event>
 4    1  0.1679763E+006  0.4341685E+02  0.7546771E-02  0.1329548E+00
         21   -1    0    0  504  501  0.00000000000E+00  0.00000000000E+00  0.81694481539E+01  0.81694481539E+01  0.00000000000E+00 0.  1.
         21   -1    0    0  501  502 -0.00000000000E+00 -0.00000000000E+00 -0.25209856235E+03  0.25209856235E+03  0.00000000000E+00 0.  1.
         21    1    1    2  503  502  0.38359941945E+02 -0.20335628081E+02 -0.15984247378E+03  0.16563405248E+03  0.00000000000E+00 0.  1.
         21    1    1    2  504  503 -0.38359941945E+02  0.20335628081E+02 -0.84086640412E+02  0.94633958024E+02  0.00000000000E+00 0.  1.
</event>
<event>
 4    1  0.1679763E+006  0.2665019E+02  0.7546771E-02  0.1451154E+00
         21   -1    0    0  502  501  0.00000000000E+00  0.00000000000E+00  0.73198689416E+02  0.73198689416E+02  0.00000000000E+00 0. -1.
         21   -1    0    0  503  502 -0.00000000000E+00 -0.00000000000E+00 -0.52396358801E+02  0.52396358801E+02  0.00000000000E+00 0. -1.
         21    1    1    2  503  504 -0.24350881197E+02 -0.10829002458E+02 -0.46284482496E+02  0.53408669982E+02  0.00000000000E+00 0. -1.
         21    1    1    2  504  501  0.24350881197E+02  0.10829002458E+02  0.67086813111E+02  0.72186378235E+02  0.00000000000E+00 0. -1.
</event>
<event>
 4    1  0.1679763E+006  0.2322932E+02  0.7546771E-02  0.1489638E+00
         21   -1    0    0  502  501  0.00000000000E+00  0.00000000000E+00  0.10351361141E+03  0.10351361141E+03  0.00000000000E+00 0.  1.
         21   -1    0    0  504  502 -0.00000000000E+00 -0.00000000000E+00 -0.58349173787E+01  0.58349173787E+01  0.00000000000E+00 0.  1.
         21    1    1    2  503  501 -0.22306438760E+02 -0.64826021619E+01  0.66691184244E+02  0.70620927471E+02  0.00000000000E+00 0.  1.
         21    1    1    2  504  503  0.22306438760E+02  0.64826021619E+01  0.30987509782E+02  0.38727601313E+02  0.00000000000E+00 0.  1.
</event>
<event>
 4    1  0.1679763E+006  0.5403939E+02  0.7546771E-02  0.1281549E+00
         21   -1    0    0  502  501  0.00000000000E+00  0.00000000000E+00  0.47641463033E+02  0.47641463033E+02  0.00000000000E+00 0. -1.
         21   -1    0    0  504  502 -0.00000000000E+00 -0.00000000000E+00 -0.11538251258E+03  0.11538251258E+03  0.00000000000E+00 0.  1.
         21    1    1    2  503  501  0.51854751739E+02  0.15209871995E+02  0.21937149580E+02  0.58322328620E+02  0.00000000000E+00 0. -1.
         21    1    1    2  504  503 -0.51854751739E+02 -0.15209871995E+02 -0.89678199123E+02  0.10470164699E+03  0.00000000000E+00 0.  1.
</event>
<event>
 4    1  0.1679763E+006  0.2054531E+02  0.7546771E-02  0.1525857E+00
         21   -1    0    0  503  501  0.00000000000E+00  0.00000000000E+00  0.16997597954E+01  0.16997597954E+01  0.00000000000E+00 0.  1.
         21   -1    0    0  504  502 -0.00000000000E+00 -0.00000000000E+00 -0.38485781290E+03  0.38485781290E+03  0.00000000000E+00 0.  1.
         21    1    1    2  503  502 -0.18813291085E+02 -0.82564920616E+01 -0.30669534692E+03  0.30738273440E+03  0.00000000000E+00 0.  1.
         21    1    1    2  504  501  0.18813291085E+02  0.82564920616E+01 -0.76462706184E+02  0.79174838299E+02  0.00000000000E+00 0.  1.
</event>
<event>
 4    1  0.1679763E+006  0.2538282E+02  0.7546771E-02  0.1464566E+00
         21   -1    0    0  502  501  0.00000000000E+00  0.00000000000E+00  0.28580892443E+02  0.28580892443E+02  0.00000000000E+00 0. -1.
         21   -1    0    0  504  502 -0.00000000000E+00 -0.00000000000E+00 -0.37435623829E+02  0.37435623829E+02  0.00000000000E+00 0. -1.
         21    1    1    2  503  501 -0.25315194803E+02 -0.18516555969E+01  0.16392190416E+02  0.30215751240E+02  0.00000000000E+00 0. -1.
         21    1    1    2  504  503  0.25315194803E+02  0.18516555969E+01 -0.25246921802E+02  0.35800765032E+02  0.00000000000E+00 0. -1.
</event>
<event>
 4    1  0.1679763E+006  0.2554688E+02  0.7546771E-02  0.1462777E+00
         21   -1    0    0  504  501  0.00000000000E+00  0.00000000000E+00  0.67513472215E+02  0.67513472215E+02  0.00000000000E+00 0.  1.
         21   -1    0    0  503  502 -0.00000000000E+00 -0.00000000000E+00 -0.15083097970E+02  0.15083097970E+02  0.00000000000E+00 0.  1.
         21    1    1    2  503  501  0.21205968695E+02 -0.14246054150E+02  0.14674394029E+01  0.25588992663E+02  0.00000000000E+00 0.  1.
         21    1    1    2  504  502 -0.21205968695E+02  0.14246054150E+02  0.50962934842E+02  0.57007577521E+02  0.00000000000E+00 0.  1.
</event>
<event>
 4    1  0.1679763E+006  0.3169403E+02  0.7546771E-02  0.1405425E+00
         21   -1    0    0  503  501  0.00000000000E+00  0.00000000000E+00  0.11483385417E+03  0.11483385417E+03  0.00000000000E+00 0. -1.
         21   -1    0    0  504  502 -0.00000000000E+00 -0.00000000000E+00 -0.11592473387E+02  0.11592473387E+02  0.00000000000E+00 0. -1.
         21    1    1    2  503  502 -0.20192606059E+02 -0.24428886098E+02  0.20305374382E+02  0.37640670082E+02  0.00000000000E+00 0. -1.
         21    1    1    2  504  501  0.20192606059E+02  0.24428886098E+02  0.82936006396E+02  0.88785657470E+02  0.00000000000E+00 0. -1.
</event>
<event>
 4    1  0.1679763E+006  0.2460324E+02  0.7546771E-02  0.1473291E+00
         21   -1    0    0  502  501  0.00000000000E+00  0.00000000000E+00  0.10016958321E+04  0.10016958321E+04  0.00000000000E+00 0. -1.
         21   -1    0    0  503  502 -0.00000000000E+00 -0.00000000000E+00 -0.60636273719E+02  0.60636273719E+02  0.00000000000E+00 0. -1.
         21    1    1    2  503  504  0.33947929579E+01  0.24367907681E+02 -0.57982873626E+02  0.62986769864E+02  0.00000000000E+00 0. -1.
         21    1    1    2  504  501 -0.33947929579E+01 -0.24367907681E+02  0.99904243197E+03  0.99934533592E+03  0.00000000000E+00 0. -1.
</event>
<event>
 4    1  0.1679763E+006  0.2004840E+02  0.7546771E-02  0.1533297E+00
         21   -1    0    0  502  501  0.00000000000E+00  0.00000000000E+00  0.15839478521E+02  0.15839478521E+02  0.00000000000E+00 0. -1.
         21   -1    0    0  503  502 -0.00000000000E+00 -0.00000000000E+00 -0.65429989631E+02  0.65429989631E+02  0.00000000000E+00 0. -1.
         21    1    1    2  503  504 -0.57539680531E+01 -0.19204951459E+02 -0.56588390825E+02  0.60034858916E+02  0.00000000000E+00 0. -1.
         21    1    1    2  504  501  0.57539680531E+01  0.19204951459E+02  0.69978797153E+01  0.21234609236E+02  0.00000000000E+00 0. -1.
</event>
<event>
 4    1  0.1679763E+006  0.2430918E+02  0.7546771E-02  0.1476682E+00
         21   -1    0    0  502  501  0.00000000000E+00  0.00000000000E+00  0.68041921346E+02  0.68041921346E+02  0.00000000000E+00 0. -1.
         21   -1    0    0  504  502 -0.00000000000E+00 -0.00000000000E+00 -0.17994242390E+02  0.17994242390E+02  0.00000000000E+00 0. -1.
         21    1    1    2  503  501 -0.24168460855E+02 -0.26118469505E+01  0.55965535575E+02  0.61017025631E+02  0.00000000000E+00 0. -1.
         21    1    1    2  504  503  0.24168460855E+02  0.26118469505E+01 -0.59178566187E+01  0.25019138106E+02  0.00000000000E+00 0. -1.
</event>
<event>
 4    1  0.1679763E+006  0.2912242E+02  0.7546771E-02  0.1427379E+00
         21   -1    0    0  502  501  0.00000000000E+00  0.00000000000E+00  0.15630286977E+03  0.15630286977E+03  0.00000000000E+00 0. -1.
         21   -1    0    0  503  502 -0.00000000000E+00 -0.00000000000E+00 -0.72330934271E+02  0.72330934271E+02  0.00000000000E+00 0. -1.
         21    1    1    2  503  504  0.17590076192E+02  0.23210010225E+02 -0.67959454491E+02  0.73936478208E+02  0.00000000000E+00 0. -1.
         21    1    1    2  504  501 -0.17590076192E+02 -0.23210010225E+02  0.15193138999E+03  0.15469732583E+03  0.00000000000E+00 0. -1.
</event>
<event>
 4    1  0.1679763E+006  0.2465333E+02  0.7546771E-02  0.1472719E+00
         21   -1    0    0  502  501  0.00000000000E+00  0.00000000000E+00  0.49591743171E+02  0.49591743171E+02  0.00000000000E+00 0. -1.
         21   -1    0    0  503  502 -0.00000000000E+00 -0.00000000000E+00 -0.70075484735E+03  0.70075484735E+03  0.00000000000E+00 0. -1.
         21    1    1    2  503  504 -0.22175140691E+02  0.10772649078E+02 -0.69745959110E+03  0.69789516981E+03  0.00000000000E+00 0. -1.
         21    1    1    2  504  501  0.22175140691E+02 -0.10772649078E+02  0.46296486921E+02  0.52451420706E+02  0.00000000000E+00 0. -1.
</event>
<event>
 4    1  0.1679763E+006  0.2188438E+02  0.7546771E-02  0.1507003E+00
         21   -1    0    0  504  501  0.00000000000E+00  0.00000000000E+00  0.28905546765E+01  0.28905546765E+01  0.00000000000E+00 0. -1.
         21   -1    0    0  503  502 -0.00000000000E+00 -0.00000000000E+00 -0.44547448866E+03  0.44547448866E+03  0.00000000000E+00 0. -1.
         21    1    1    2  503  501 -0.19954074837E+02  0.89867047330E+01 -0.43625754821E+02  0.48807094241E+02  0.00000000000E+00 0. -1.
         21    1    1    2  504  502  0.19954074837E+02 -0.89867047330E+01 -0.39895817917E+03  0.39955794910E+03  0.00000000000E+00 0. -1.
</event>
<event>
 4    1  0.1679763E+006  0.2403016E+02  0.7546771E-02  0.1479952E+00
         21   -1    0    0  504  501  0.00000000000E+00  0.00000000000E+00  0.26412483418E+02  0.26412483418E+02  0.00000000000E+00 0.  1.
         21   -1    0    0  503  502 -0.00000000000E+00 -0.00000000000E+00 -0.68169538395E+02  0.68169538395E+02  0.00000000000E+00 0.  1.
         21    1    1    2  503  501 -0.10215451547E+01 -0.24008439637E+02 -0.59855301656E+02  0.64498882662E+02  0.00000000000E+00 0.  1.
         21    1    1    2  504  502  0.10215451547E+01  0.24008439637E+02  0.18098246679E+02  0.30083139151E+02  0.00000000000E+00 0.  1.
</event>
<event>
 4    1  0.1679763E+006  0.2138704E+02  0.7546771E-02  0.1513810E+00
         21   -1    0    0  503  501  0.00000000000E+00  0.00000000000E+00  0.80609177309E+02  0.80609177309E+02  0.00000000000E+00 0.  1.
         21   -1    0    0  501  502 -0.00000000000E+00 -0.00000000000E+00 -0.12725793222E+03  0.12725793222E+03  0.00000000000E+00 0. -1.
         21    1    1    2  503  504 -0.89468590570E+01  0.19425735488E+02  0.78265585036E+02  0.81135117472E+02  0.00000000000E+00 0.  1.
         21    1    1    2  504  502  0.89468590570E+01 -0.19425735488E+02 -0.12491433995E+03  0.12673199206E+03  0.00000000000E+00 0. -1.
</event>
<event>
 4    1  0.1679763E+006  0.2450036E+02  0.7546771E-02  0.1474471E+00
         21   -1    0    0  503  501  0.00000000000E+00  0.00000000000E+00  0.13665215206E+03  0.13665215206E+03  0.00000000000E+00 0.  1.
         21   -1    0    0  504  502 -0.00000000000E+00 -0.00000000000E+00 -0.82068230231E+01  0.82068230231E+01  0.00000000000E+00 0.  1.
         21    1    1    2  503  502 -0.14451033444E+01 -0.24457702026E+02  0.11359993267E+03  0.11621192802E+03  0.00000000000E+00 0.  1.
         21    1    1    2  504  501  0.14451033444E+01  0.24457702026E+02  0.14845396369E+02  0.28647047063E+02  0.00000000000E+00 0.  1.
</event>
<event>
 4    1  0.1679763E+006  0.3536260E+02  0.7546771E-02  0.1378032E+00
         21   -1    0    0  504  501  0.00000000000E+00  0.00000000000E+00  0.76413231852E+03  0.76413231852E+03  0.00000000000E+00 0.  1.
         21   -1    0    0  503  502 -0.00000000000E+00 -0.00000000000E+00 -0.50591967334E+01  0.50591967334E+01  0.00000000000E+00 0. -1.
         21    1    1    2  503  501  0.17706302291E+01 -0.35318243418E+02  0.63201732873E+02  0.72422182290E+02  0.00000000000E+00 0. -1.
         21    1    1    2  504  502 -0.17706302291E+01  0.35318243418E+02  0.69587138891E+03  0.69676933296E+03  0.00000000000E+00 0.  1.
</event>
<event>
 4    1  0.1679763E+006  0.4581726E+02  0.7546771E-02  0.1317403E+00
         21   -1    0    0  504  501  0.00000000000E+00  0.00000000000E+00  0.21879768958E+02  0.21879768958E+02  0.00000000000E+00 0. -1.
         21   -1    0    0  503  502 -0.00000000000E+00 -0.00000000000E+00 -0.13144803161E+03  0.13144803161E+03  0.00000000000E+00 0. -1.
         21    1    1    2  503  501 -0.45134490333E+01  0.45594413103E+02 -0.94627470482E+02  0.10513600667E+03  0.00000000000E+00 0. -1.
         21    1    1    2  504  502  0.45134490333E+01 -0.45594413103E+02 -0.14940792168E+02  0.48191793897E+02  0.00000000000E+00 0. -1.
</event>
<event>
 4    1  0.1679763E+006  0.5222514E+02  0.7546771E-02  0.1288803E+00
         21   -1    0    0  503  501  0.00000000000E+00  0.00000000000E+00  0.96269183439E+02  0.96269183439E+02  0.00000000000E+00 0.  1.
         21   -1    0    0  504  502 -0.00000000000E+00 -0.00000000000E+00 -0.21731780910E+03  0.21731780910E+03  0.00000000000E+00 0.  1.
         21    1    1    2  503  502 -0.47398442030E+02 -0.21928365871E+02 -0.20674047348E+03  0.21323482106E+03  0.00000000000E+00 0.  1.
         21    1    1    2  504  501  0.47398442030E+02  0.21928365871E+02  0.85691847824E+02  0.10035217148E+03  0.00000000000E+00 0.  1.
</event>
<event>
 4    1  0.1679763E+006  0.3505031E+02  0.7546771E-02  0.1380210E+00
         21   -1    0    0  503  501  0.00000000000E+00  0.00000000000E+00  0.52769289527E+02  0.52769289527E+02  0.00000000000E+00 0. -1.
         21   -1    0    0  501  502 -0.00000000000E+00 -0.00000000000E+00 -0.59592961718E+03  0.59592961718E+03  0.00000000000E+00 0.  1.
         21    1    1    2  503  504  0.30989193516E+01 -0.34913044390E+02  0.46370530783E+02  0.58127016910E+02  0.00000000000E+00 0. -1.
         21    1    1    2  504  502 -0.30989193516E+01  0.34913044390E+02 -0.58953085844E+03  0.59057188980E+03  0.00000000000E+00 0.  1.
</event>
<event>
 4    1  0.1679763E+006  0.2074439E+02  0.7546771E-02  0.1522946E+00
         21   -1    0    0  503  501  0.00000000000E+00  0.00000000000E+00  0.45541717589E+02  0.45541717589E+02  0.00000000000E+00 0.  1.
         21   -1    0    0  504  502 -0.00000000000E+00 -0.00000000000E+00 -0.96337645900E+01  0.96337645900E+01  0.00000000000E+00 0.  1.
         21    1    1    2  503  502 -0.20460799297E+02  0.34184046702E+01  0.21773153562E+02  0.30073244161E+02  0.00000000000E+00 0.  1.
         21    1    1    2  504  501  0.20460799297E+02 -0.34184046702E+01  0.14134799437E+02  0.25102238017E+02  0.00000000000E+00 0.  1.
</event>
<event>
 4    1  0.1679763E+006  0.3034458E+02  0.7546771E-02  0.1416625E+00
         21   -1    0    0  503  501  0.00000000000E+00  0.00000000000E+00  0.41731982101E+01  0.41731982101E+01  0.00000000000E+00 0. -1.
         21   -1    0    0  504  502 -0.00000000000E+00 -0.00000000000E+00 -0.48416517782E+03  0.48416517782E+03  0.00000000000E+00 0.  1.
         21    1    1    2  503  502 -0.30190880100E+02 -0.30503309714E+01 -0.42013232742E+03  0.42122673977E+03  0.00000000000E+00 0.  1.
         21    1    1    2  504  501  0.30190880100E+02  0.30503309714E+01 -0.59859652193E+02  0.67111636256E+02  0.00000000000E+00 0. -1.
</event>
<event>
 4    1  0.1679763E+006  0.2328158E+02  0.7546771E-02  0.1488992E+00
         21   -1    0    0  503  501  0.00000000000E+00  0.00000000000E+00  0.34257831057E+02  0.34257831057E+02  0.00000000000E+00 0.  1.
         21   -1    0    0  504  502 -0.00000000000E+00 -0.00000000000E+00 -0.39163864897E+02  0.39163864897E+02  0.00000000000E+00 0.  1.
         21    1    1    2  503  502 -0.22324104146E+02  0.66080592037E+01  0.25888177672E+02  0.34817090854E+02  0.00000000000E+00 0.  1.
         21    1    1    2  504  501  0.22324104146E+02 -0.66080592037E+01 -0.30794211511E+02  0.38604605100E+02  0.00000000000E+00 0.  1.
</event>
<event>
 4    1  0.1679763E+006  0.2038194E+02  0.7546771E-02  0.1528275E+00
         21   -1    0    0  503  501  0.00000000000E+00  0.00000000000E+00  0.79408263377E+00  0.79408263377E+00  0.00000000000E+00 0.  1.
         21   -1    0    0  504  502 -0.00000000000E+00 -0.00000000000E+00 -0.53442165406E+03  0.53442165406E+03  0.00000000000E+00 0.  1.
         21    1    1    2  503  502 -0.20031897575E+02  0.37611891273E+01 -0.22794762135E+03  0.22885703298E+03  0.00000000000E+00 0.  1.
         21    1    1    2  504  501  0.20031897575E+02 -0.37611891273E+01 -0.30567995007E+03  0.30635870371E+03  0.00000000000E+00 0.  1.
</event>
<event>
 4    1  0.1679763E+006  0.2976705E+02  0.7546771E-02  0.1421632E+00
         21   -1    0    0  502  501  0.00000000000E+00  0.00000000000E+00  0.48959786002E+03  0.48959786002E+03  0.00000000000E+00 0.  1.
         21   -1    0    0  504  502 -0.00000000000E+00 -0.00000000000E+00 -0.91027489016E+01  0.91027489016E+01  0.00000000000E+00 0. -1.
         21    1    1    2  503  501  0.15950263326E+02 -0.25132975808E+02  0.46343770046E+03  0.46439269975E+03  0.00000000000E+00 0.  1.
         21    1    1    2  504  503 -0.15950263326E+02  0.25132975808E+02  0.17057410652E+02  0.34307909165E+02  0.00000000000E+00 0. -1.
</event>
<event>
 4    1  0.1679763E+006  0.2355202E+02  0.7546771E-02  0.1485680E+00
         21   -1    0    0  504  501  0.00000000000E+00  0.00000000000E+00  0.28245580687E+03  0.28245580687E+03  0.00000000000E+00 0.  1.
         21   -1    0    0  503  502 -0.00000000000E+00 -0.00000000000E+00 -0.36098019861E+02  0.36098019861E+02  0.00000000000E+00 0.  1.
         21    1    1    2  503  501  0.63625308227E+01  0.22676324447E+02  0.27806265565E+03  0.27905830566E+03  0.00000000000E+00 0.  1.
         21    1    1    2  504  502 -0.63625308227E+01 -0.22676324447E+02 -0.31704868644E+02  0.39495521070E+02  0.00000000000E+00 0.  1.
</event>
<event>
 4    1  0.1679763E+006  0.3139865E+02  0.7546771E-02  0.1407819E+00
         21   -1    0    0  504  501  0.00000000000E+00  0.00000000000E+00  0.64666697779E+02  0.64666697779E+02  0.00000000000E+00 0. -1.
         21   -1    0    0  503  502 -0.00000000000E+00 -0.00000000000E+00 -0.15254775241E+02  0.15254775241E+02  0.00000000000E+00 0. -1.
         21    1    1    2  503  501  0.24978562281E+02 -0.19024901302E+02  0.25691890363E+02  0.40570292993E+02  0.00000000000E+00 0. -1.
         21    1    1    2  504  502 -0.24978562281E+02  0.19024901302E+02  0.23720032174E+02  0.39351180027E+02  0.00000000000E+00 0. -1.
</event>
<event>
 4    1  0.1679763E+006  0.2120915E+02  0.7546771E-02  0.1516300E+00
         21   -1    0    0  504  501  0.00000000000E+00  0.00000000000E+00  0.29281671101E+01  0.29281671101E+01  0.00000000000E+00 0.  1.
         21   -1    0    0  503  502 -0.00000000000E+00 -0.00000000000E+00 -0.17220108515E+03  0.17220108515E+03  0.00000000000E+00 0.  1.
         21    1    1    2  503  501  0.57369272499E+01  0.20418517796E+02 -0.55873495307E+02  0.59763497899E+02  0.00000000000E+00 0.  1.
         21    1    1    2  504  502 -0.57369272499E+01 -0.20418517796E+02 -0.11339942273E+03  0.11536575436E+03  0.00000000000E+00 0.  1.
</event>
<event>
 4    1  0.1679763E+006  0.2069933E+02  0.7546771E-02  0.1523601E+00
         21   -1    0    0  504  501  0.00000000000E+00  0.00000000000E+00  0.54243582714E+02  0.54243582714E+02  0.00000000000E+00 0. -1.
         21   -1    0    0  503  502 -0.00000000000E+00 -0.00000000000E+00 -0.30902769637E+02  0.30902769637E+02  0.00000000000E+00 0. -1.
         21    1    1    2  503  501  0.13628772162E+02 -0.15579440408E+02  0.48401866342E+02  0.52642217464E+02  0.00000000000E+00 0. -1.
         21    1    1    2  504  502 -0.13628772162E+02  0.15579440408E+02 -0.25061053265E+02  0.32504134888E+02  0.00000000000E+00 0. -1.
</event>
<event>
 4    1  0.1679763E+006  0.6855060E+02  0.7546771E-02  0.1233256E+00
         21   -1    0    0  503  501  0.00000000000E+00  0.00000000000E+00  0.67187080815E+03  0.67187080815E+03  0.00000000000E+00 0.  1.
         21   -1    0    0  501  502 -0.00000000000E+00 -0.00000000000E+00 -0.16053698699E+02  0.16053698699E+02  0.00000000000E+00 0. -1.
         21    1    1    2  503  504  0.21130422912E+02  0.65212652673E+02  0.58629862101E+03  0.59029251887E+03  0.00000000000E+00 0.  1.
         21    1    1    2  504  502 -0.21130422912E+02 -0.65212652673E+02  0.69518488447E+02  0.97631987981E+02  0.00000000000E+00 0. -1.
</event>
<event>
 4    1  0.1679763E+006  0.3364776E+02  0.7546771E-02  0.1390327E+00
         21   -1    0    0  503  501  0.00000000000E+00  0.00000000000E+00  0.15453813993E+01  0.15453813993E+01  0.00000000000E+00 0.  1.
         21   -1    0    0  504  502 -0.00000000000E+00 -0.00000000000E+00 -0.11712218042E+04  0.11712218042E+04  0.00000000000E+00 0.  1.
         21    1    1    2  503  502  0.24972613992E+02 -0.22550835366E+02 -0.22599951755E+03  0.22849059841E+03  0.00000000000E+00 0.  1.
         21    1    1    2  504  501 -0.24972613992E+02  0.22550835366E+02 -0.94367690521E+03  0.94427658715E+03  0.00000000000E+00 0.  1.
</event>
<event>
 4    1  0.1679763E+006  0.3508436E+02  0.7546771E-02  0.1379971E+00
         21   -1    0    0  503  501  0.00000000000E+00  0.00000000000E+00  0.14917036651E+02  0.14917036651E+02  0.00000000000E+00 0. -1.
         21   -1    0    0  504  502 -0.00000000000E+00 -0.00000000000E+00 -0.24145421651E+03  0.24145421651E+03  0.00000000000E+00 0. -1.
         21    1    1    2  503  502 -0.18416356783E+02 -0.29862182390E+02 -0.21726885792E+03  0.22008332230E+03  0.00000000000E+00 0. -1.
         21    1    1    2  504  501  0.18416356783E+02  0.29862182390E+02 -0.92683219384E+01  0.36287930856E+02  0.00000000000E+00 0. -1.
</event>
<event>
 4    1  0.1679763E+006  0.2083803E+02  0.7546771E-02  0.1521590E+00
         21   -1    0    0  503  501  0.00000000000E+00  0.00000000000E+00  0.21396472329E+03  0.21396472329E+03  0.00000000000E+00 0.  1.
         21   -1    0    0  501  502 -0.00000000000E+00 -0.00000000000E+00 -0.39623825646E+02  0.39623825646E+02  0.00000000000E+00 0.  1.
         21    1    1    2  503  504  0.76943927237E+01 -0.19365426039E+02  0.21067503260E+03  0.21170307689E+03  0.00000000000E+00 0.  1.
         21    1    1    2  504  502 -0.76943927237E+01  0.19365426039E+02 -0.36334134957E+02  0.41885472042E+02  0.00000000000E+00 0.  1.
</event>
<event>
 4    1  0.1679763E+006  0.2352890E+02  0.7546771E-02  0.1485961E+00
         21   -1    0    0  504  501  0.00000000000E+00  0.00000000000E+00  0.12183345308E+03  0.12183345308E+03  0.00000000000E+00 0.  1.
         21   -1    0    0  503  502 -0.00000000000E+00 -0.00000000000E+00 -0.11318180970E+02  0.11318180970E+02  0.00000000000E+00 0. -1.
         21    1    1    2  503  501 -0.46581211132E+01  0.23063191687E+02  0.37517109029E+01  0.23826125111E+02  0.00000000000E+00 0. -1.
         21    1    1    2  504  502  0.46581211132E+01 -0.23063191687E+02  0.10676356120E+03  0.10932550893E+03  0.00000000000E+00 0.  1.
</event>
<event>
 4    1  0.1679763E+006  0.2136629E+02  0.7546771E-02  0.1514099E+00
         21   -1    0    0  502  501  0.00000000000E+00  0.00000000000E+00  0.13314786984E+03  0.13314786984E+03  0.00000000000E+00 0.  1.
         21   -1    0    0  503  502 -0.00000000000E+00 -0.00000000000E+00 -0.27674248596E+02  0.27674248596E+02  0.00000000000E+00 0.  1.
         21    1    1    2  503  504  0.16977607110E+02 -0.12972246832E+02 -0.22528396261E+02  0.31049105770E+02  0.00000000000E+00 0.  1.
         21    1    1    2  504  501 -0.16977607110E+02  0.12972246832E+02  0.12800201751E+03  0.12977301267E+03  0.00000000000E+00 0.  1.
</event>
<event>
 4    1  0.1679763E+006  0.2309110E+02  0.7546771E-02  0.1491357E+00
         21   -1    0    0  503  501  0.00000000000E+00  0.00000000000E+00  0.62710214062E+01  0.62710214062E+01  0.00000000000E+00 0.  1.
         21   -1    0    0  504  502 -0.00000000000E+00 -0.00000000000E+00 -0.98988295425E+02  0.98988295425E+02  0.00000000000E+00 0.  1.
         21    1    1    2  503  502  0.21240479752E+02 -0.90576500686E+01 -0.66124654520E+02  0.70040480725E+02  0.00000000000E+00 0.  1.
         21    1    1    2  504  501 -0.21240479752E+02  0.90576500686E+01 -0.26592619498E+02  0.35218836106E+02  0.00000000000E+00 0.  1.
</event>
<event>
 4    1  0.1679763E+006  0.3145158E+02  0.7546771E-02  0.1407388E+00
         21   -1    0    0  504  501  0.00000000000E+00  0.00000000000E+00  0.15951116702E+02  0.15951116702E+02  0.00000000000E+00 0.  1.
         21   -1    0    0  503  502 -0.00000000000E+00 -0.00000000000E+00 -0.10464782889E+03  0.10464782889E+03  0.00000000000E+00 0.  1.
         21    1    1    2  503  501 -0.29801191568E+02  0.10054382298E+02 -0.58605925045E+01  0.31992939326E+02  0.00000000000E+00 0.  1.
         21    1    1    2  504  502  0.29801191568E+02 -0.10054382298E+02 -0.82836119685E+02  0.88606006268E+02  0.00000000000E+00 0.  1.
</event>
<event>
 4    1  0.1679763E+006  0.3077453E+02  0.7546771E-02  0.1412983E+00
         21   -1    0    0  504  501  0.00000000000E+00  0.00000000000E+00  0.12717440798E+03  0.12717440798E+03  0.00000000000E+00 0.  1.
         21   -1    0    0  501  502 -0.00000000000E+00 -0.00000000000E+00 -0.10774015114E+03  0.10774015114E+03  0.00000000000E+00 0. -1.
         21    1    1    2  503  502 -0.26599613318E+02  0.15476830894E+02 -0.10360813038E+03  0.10808198927E+03  0.00000000000E+00 0. -1.
         21    1    1    2  504  503  0.26599613318E+02 -0.15476830894E+02  0.12304238722E+03  0.12683256986E+03  0.00000000000E+00 0.  1.
</event>
<event>
 4    1  0.1679763E+006  0.2229867E+02  0.7546771E-02  0.1501498E+00
         21   -1    0    0  504  501  0.00000000000E+00  0.00000000000E+00  0.14218177753E+02  0.14218177753E+02  0.00000000000E+00 0.  1.
         21   -1    0    0  503  502 -0.00000000000E+00 -0.00000000000E+00 -0.44958660182E+02  0.44958660182E+02  0.00000000000E+00 0.  1.
         21    1    1    2  503  501 -0.18728039322E+02  0.12103350268E+02 -0.29315827871E+02  0.36832707046E+02  0.00000000000E+00 0.  1.
         21    1    1    2  504  502  0.18728039322E+02 -0.12103350268E+02 -0.14246545577E+01  0.22344130889E+02  0.00000000000E+00 0.  1.
</event>
<event>
 4    1  0.1679763E+006  0.4148630E+02  0.7546771E-02  0.1339990E+00
         21   -1    0    0  503  501  0.00000000000E+00  0.00000000000E+00  0.67903992161E+01  0.67903992161E+01  0.00000000000E+00 0.  1.
         21   -1    0    0  504  502 -0.00000000000E+00 -0.00000000000E+00 -0.47907760076E+03  0.47907760076E+03  0.00000000000E+00 0.  1.
         21    1    1    2  503  502  0.19355511495E+02  0.36694376631E+02 -0.40285651064E+03  0.40498701370E+03  0.00000000000E+00 0.  1.
         21    1    1    2  504  501 -0.19355511495E+02 -0.36694376631E+02 -0.69430690910E+02  0.80880986281E+02  0.00000000000E+00 0.  1.
</event>
<event>
 4    1  0.1679763E+006  0.3560317E+02  0.7546771E-02  0.1376372E+00
         21   -1    0    0  502  501  0.00000000000E+00  0.00000000000E+00  0.27433486676E+03  0.27433486676E+03  0.00000000000E+00 0.  1.
         21   -1    0    0  504  502 -0.00000000000E+00 -0.00000000000E+00 -0.27480319761E+02  0.27480319761E+02  0.00000000000E+00 0.  1.
         21    1    1    2  503  501 -0.13377261458E+02 -0.32994464320E+02  0.26106448228E+03  0.26348102343E+03  0.00000000000E+00 0.  1.
         21    1    1    2  504  503  0.13377261458E+02  0.32994464320E+02 -0.14209935275E+02  0.38334163098E+02  0.00000000000E+00 0.  1.
</event>
<event>
 4    1  0.1679763E+006  0.2695700E+02  0.7546771E-02  0.1448041E+00
         21   -1    0    0  503  501  0.00000000000E+00  0.00000000000E+00  0.10563803236E+02  0.10563803236E+02  0.00000000000E+00 0. -1.
         21   -1    0    0  504  502 -0.00000000000E+00 -0.00000000000E+00 -0.39032376351E+03  0.39032376351E+03  0.00000000000E+00 0. -1.
         21    1    1    2  503  502  0.24504158081E+02 -0.11235036977E+02 -0.79544471454E+01  0.28106103403E+02  0.00000000000E+00 0. -1.
         21    1    1    2  504  501 -0.24504158081E+02  0.11235036977E+02 -0.37180551313E+03  0.37278146334E+03  0.00000000000E+00 0. -1.
</event>
<event>
 4    1  0.1679763E+006  0.2636454E+02  0.7546771E-02  0.1454098E+00
         21   -1    0    0  502  501  0.00000000000E+00  0.00000000000E+00  0.77003004602E+02  0.77003004602E+02  0.00000000000E+00 0. -1.
         21   -1    0    0  504  502 -0.00000000000E+00 -0.00000000000E+00 -0.10473289440E+02  0.10473289440E+02  0.00000000000E+00 0. -1.
         21    1    1    2  503  501  0.24791235234E+02 -0.89712521961E+01  0.49519610874E+02  0.56100628976E+02  0.00000000000E+00 0. -1.
         21    1    1    2  504  503 -0.24791235234E+02  0.89712521961E+01  0.17010104289E+02  0.31375665066E+02  0.00000000000E+00 0. -1.
</event>
<event>
 4    1  0.1679763E+006  0.2705148E+02  0.7546771E-02  0.1447092E+00
         21   -1    0    0  504  501  0.00000000000E+00  0.00000000000E+00  0.13896525282E+02  0.13896525282E+02  0.00000000000E+00 0.  1.
         21   -1    0    0  503  502 -0.00000000000E+00 -0.00000000000E+00 -0.53899583104E+02  0.53899583104E+02  0.00000000000E+00 0.  1.
         21    1    1    2  503  501 -0.10661348890E+02  0.24861987650E+02 -0.14859628889E+02  0.30864078810E+02  0.00000000000E+00 0.  1.
         21    1    1    2  504  502  0.10661348890E+02 -0.24861987650E+02 -0.25143428933E+02  0.36932029575E+02  0.00000000000E+00 0.  1.
</event>
<event>
 4    1  0.1679763E+006  0.2173768E+02  0.7546771E-02  0.1508988E+00
         21   -1    0    0  504  501  0.00000000000E+00  0.00000000000E+00  0.10692986673E+01  0.10692986673E+01  0.00000000000E+00 0.  1.
         21   -1    0    0  501  502 -0.00000000000E+00 -0.00000000000E+00 -0.61769445472E+03  0.61769445472E+03  0.00000000000E+00 0. -1.
         21    1    1    2  503  502 -0.12382685651E+02  0.17866049021E+02 -0.47335915654E+03  0.47385801428E+03  0.00000000000E+00 0.  1.
         21    1    1    2  504  503  0.12382685651E+02 -0.17866049021E+02 -0.14326599951E+03  0.14490573911E+03  0.00000000000E+00 0. -1.
</event>
<event>
 4    1  0.1679763E+006  0.6127008E+02  0.7546771E-02  0.1255577E+00
         21   -1    0    0  504  501  0.00000000000E+00  0.00000000000E+00  0.20561365865E+03  0.20561365865E+03  0.00000000000E+00 0. -1.
         21   -1    0    0  503  502 -0.00000000000E+00 -0.00000000000E+00 -0.35042010875E+02  0.35042010875E+02  0.00000000000E+00 0. -1.
         21    1    1    2  503  501  0.59526086622E+02  0.14514414909E+02  0.20090423473E+01  0.61303013628E+02  0.00000000000E+00 0. -1.
         21    1    1    2  504  502 -0.59526086622E+02 -0.14514414909E+02  0.16856260542E+03  0.17935265589E+03  0.00000000000E+00 0. -1.
</event>
<event>
 4    1  0.1679763E+006  0.5013271E+02  0.7546771E-02  0.1297598E+00
         21   -1    0    0  503  501  0.00000000000E+00  0.00000000000E+00  0.13704260895E+03  0.13704260895E+03  0.00000000000E+00 0. -1.
         21   -1    0    0  504  502 -0.00000000000E+00 -0.00000000000E+00 -0.11169125118E+03  0.11169125118E+03  0.00000000000E+00 0. -1.
         21    1    1    2  503  502  0.50091322403E+02  0.20365530499E+01  0.12637468077E+03  0.13595531644E+03  0.00000000000E+00 0. -1.
         21    1    1    2  504  501 -0.50091322403E+02 -0.20365530499E+01 -0.10102332300E+03  0.11277854370E+03  0.00000000000E+00 0. -1.
</event>
<event>
 4    1  0.1679763E+006  0.2706503E+02  0.7546771E-02  0.1446956E+00
         21   -1    0    0  503  501  0.00000000000E+00  0.00000000000E+00  0.25468376207E+03  0.25468376207E+03  0.00000000000E+00 0.  1.
         21   -1    0    0  504  502 -0.00000000000E+00 -0.00000000000E+00 -0.10106751839E+03  0.10106751839E+03  0.00000000000E+00 0. -1.
         21    1    1    2  503  502  0.17029028040E+02  0.21036345229E+02 -0.98518260333E+02  0.10216830837E+03  0.00000000000E+00 0. -1.
         21    1    1    2  504  501 -0.17029028040E+02 -0.21036345229E+02  0.25213450401E+03  0.25358297208E+03  0.00000000000E+00 0.  1.
</event>
<event>
 4    1  0.1679763E+006  0.2126683E+02  0.7546771E-02  0.1515489E+00
         21   -1    0    0  502  501  0.00000000000E+00  0.00000000000E+00  0.15844923978E+03  0.15844923978E+03  0.00000000000E+00 0. -1.
         21   -1    0    0  504  502 -0.00000000000E+00 -0.00000000000E+00 -0.30153206530E+01  0.30153206530E+01  0.00000000000E+00 0. -1.
         21    1    1    2  503  501  0.19619062998E+02 -0.82079389250E+01  0.59066776974E+02  0.62778675013E+02  0.00000000000E+00 0. -1.
         21    1    1    2  504  503 -0.19619062998E+02  0.82079389250E+01  0.96367142157E+02  0.98685885424E+02  0.00000000000E+00 0. -1.
</event>
<event>
 4    1  0.1679763E+006  0.2289110E+02  0.7546771E-02  0.1493870E+00
         21   -1    0    0  503  501  0.00000000000E+00  0.00000000000E+00  0.27536919743E+02  0.27536919743E+02  0.00000000000E+00 0.  1.
         21   -1    0    0  504  502 -0.00000000000E+00 -0.00000000000E+00 -0.42125401221E+02  0.42125401221E+02  0.00000000000E+00 0.  1.
         21    1    1    2  503  502  0.20585949620E+02 -0.10011061482E+02  0.18496699759E+02  0.29430096427E+02  0.00000000000E+00 0.  1.
         21    1    1    2  504  501 -0.20585949620E+02  0.10011061482E+02 -0.33085181236E+02  0.40232224537E+02  0.00000000000E+00 0.  1.
</event>
<event>
 4    1  0.1679763E+006  0.2241422E+02  0.7546771E-02  0.1499988E+00
         21   -1    0    0  504  501  0.00000000000E+00  0.00000000000E+00  0.10797757994E+03  0.10797757994E+03  0.00000000000E+00 0. -1.
         21   -1    0    0  503  502 -0.00000000000E+00 -0.00000000000E+00 -0.31709687535E+02  0.31709687535E+02  0.00000000000E+00 0.  1.
         21    1    1    2  503  501 -0.11246499450E+02 -0.19388492007E+02  0.10265030018E+03  0.10506893689E+03  0.00000000000E+00 0. -1.
         21    1    1    2  504  502  0.11246499450E+02  0.19388492007E+02 -0.26382407777E+02  0.34618330582E+02  0.00000000000E+00 0.  1.
</event>
<event>
 4    1  0.1679763E+006  0.2550617E+02  0.7546771E-02  0.1463220E+00
         21   -1    0    0  504  501  0.00000000000E+00  0.00000000000E+00  0.32723954205E+02  0.32723954205E+02  0.00000000000E+00 0.  1.
         21   -1    0    0  503  502 -0.00000000000E+00 -0.00000000000E+00 -0.31905892788E+02  0.31905892788E+02  0.00000000000E+00 0.  1.
         21    1    1    2  503  501  0.11800017796E+02  0.22612479444E+02 -0.19429955821E+02  0.32063808722E+02  0.00000000000E+00 0.  1.
         21    1    1    2  504  502 -0.11800017796E+02 -0.22612479444E+02  0.20248017238E+02  0.32566038270E+02  0.00000000000E+00 0.  1.
</event>
<event>
 4    1  0.1679763E+006  0.2253638E+02  0.7546771E-02  0.1498403E+00
         21   -1    0    0  502  501  0.00000000000E+00  0.00000000000E+00  0.12051563816E+03  0.12051563816E+03  0.00000000000E+00 0. -1.
         21   -1    0    0  504  502 -0.00000000000E+00 -0.00000000000E+00 -0.42419357904E+01  0.42419357904E+01  0.00000000000E+00 0. -1.
         21    1    1    2  503  501  0.82417169213E+01  0.20975281317E+02  0.63172302505E+02  0.67071813214E+02  0.00000000000E+00 0. -1.
         21    1    1    2  504  503 -0.82417169213E+01 -0.20975281317E+02  0.53101399868E+02  0.57685760739E+02  0.00000000000E+00 0. -1.
</event>
<event>
 4    1  0.1679763E+006  0.2120243E+02  0.7546771E-02  0.1516394E+00
         21   -1    0    0  503  501  0.00000000000E+00  0.00000000000E+00  0.81683122938E+01  0.81683122938E+01  0.00000000000E+00 0. -1.
         21   -1    0    0  504  502 -0.00000000000E+00 -0.00000000000E+00 -0.62786095785E+02  0.62786095785E+02  0.00000000000E+00 0. -1.
         21    1    1    2  503  502  0.19931490686E+02 -0.72303962379E+01 -0.14843681797E+02  0.25881998377E+02  0.00000000000E+00 0. -1.
         21    1    1    2  504  501 -0.19931490686E+02  0.72303962379E+01 -0.39774101694E+02  0.45072409701E+02  0.00000000000E+00 0. -1.
</event>
<event>
 4    1  0.1679763E+006  0.2101159E+02  0.7546771E-02  0.1519099E+00
         21   -1    0    0  504  501  0.00000000000E+00  0.00000000000E+00  0.32991821038E+02  0.32991821038E+02  0.00000000000E+00 0.  1.
         21   -1    0    0  503  502 -0.00000000000E+00 -0.00000000000E+00 -0.14137114751E+03  0.14137114751E+03  0.00000000000E+00 0.  1.
         21    1    1    2  503  501  0.20997926882E+02 -0.75770923737E+00  0.28763113571E+02  0.35620271741E+02  0.00000000000E+00 0.  1.
         21    1    1    2  504  502 -0.20997926882E+02  0.75770923737E+00 -0.13714244005E+03  0.13874269681E+03  0.00000000000E+00 0.  1.
</event>
<event>
 4    1  0.1679763E+006  0.2003624E+02  0.7546771E-02  0.1533482E+00
         21   -1    0    0  503  501  0.00000000000E+00  0.00000000000E+00  0.29170600493E+02  0.29170600493E+02  0.00000000000E+00 0.  1.
         21   -1    0    0  504  502 -0.00000000000E+00 -0.00000000000E+00 -0.22853783803E+02  0.22853783803E+02  0.00000000000E+00 0.  1.
         21    1    1    2  503  502  0.17153863630E+02 -0.10353537849E+02  0.19565000000E+02  0.28004285537E+02  0.00000000000E+00 0.  1.
         21    1    1    2  504  501 -0.17153863630E+02  0.10353537849E+02 -0.13248183310E+02  0.24020098760E+02  0.00000000000E+00 0.  1.
</event>
<event>
 4    1  0.1679763E+006  0.2632210E+02  0.7546771E-02  0.1454539E+00
         21   -1    0    0  503  501  0.00000000000E+00  0.00000000000E+00  0.18780329600E+03  0.18780329600E+03  0.00000000000E+00 0. -1.
         21   -1    0    0  501  502 -0.00000000000E+00 -0.00000000000E+00 -0.11822642775E+02  0.11822642775E+02  0.00000000000E+00 0.  1.
         21    1    1    2  503  504 -0.24138536027E+02 -0.10496868321E+02  0.17077798240E+03  0.17279459610E+03  0.00000000000E+00 0. -1.
         21    1    1    2  504  502  0.24138536027E+02  0.10496868321E+02  0.52026708166E+01  0.26831342674E+02  0.00000000000E+00 0.  1.
</event>
<event>
 4    1  0.1679763E+006  0.2134838E+02  0.7546771E-02  0.1514349E+00
         21   -1    0    0  503  501  0.00000000000E+00  0.00000000000E+00  0.99876022927E+02  0.99876022927E+02  0.00000000000E+00 0. -1.
         21   -1    0    0  504  502 -0.00000000000E+00 -0.00000000000E+00 -0.79842593450E+01  0.79842593450E+01  0.00000000000E+00 0. -1.
         21    1    1    2  503  502 -0.11987137131E+02 -0.17665269955E+02  0.81247548440E+02  0.84005460220E+02  0.00000000000E+00 0. -1.
         21    1    1    2  504  501  0.11987137131E+02  0.17665269955E+02  0.10644215142E+02  0.23854822052E+02  0.00000000000E+00 0. -1.
</event>
<event>
 4    1  0.1679763E+006  0.2756349E+02  0.7546771E-02  0.1442028E+00
         21   -1    0    0  503  501  0.00000000000E+00  0.00000000000E+00  0.21883282722E+03  0.21883282722E+03  0.00000000000E+00 0.  1.
         21   -1    0    0  501  502 -0.00000000000E+00 -0.00000000000E+00 -0.37131308150E+02  0.37131308150E+02  0.00000000000E+00 0. -1.
         21    1    1    2  503  504  0.84543596408E+01 -0.26234900307E+02  0.21270280112E+03  0.21448129940E+03  0.00000000000E+00 0.  1.
         21    1    1    2  504  502 -0.84543596408E+01  0.26234900307E+02 -0.31001282048E+02  0.41482835965E+02  0.00000000000E+00 0. -1.
</event>
<event>
 4    1  0.1679763E+006  0.3222346E+02  0.7546771E-02  0.1401210E+00
         21   -1    0    0  503  501  0.00000000000E+00  0.00000000000E+00  0.93338749492E+02  0.93338749492E+02  0.00000000000E+00 0. -1.
         21   -1    0    0  504  502 -0.00000000000E+00 -0.00000000000E+00 -0.33439463765E+02  0.33439463765E+02  0.00000000000E+00 0.  1.
         21    1    1    2  503  502 -0.12214464421E+02  0.29818753750E+02  0.81732096357E+02  0.87854918993E+02  0.00000000000E+00 0. -1.
         21    1    1    2  504  501  0.12214464421E+02 -0.29818753750E+02 -0.21832810631E+02  0.38923294264E+02  0.00000000000E+00 0.  1.
</event>
<event>
 4    1  0.1679763E+006  0.5511603E+02  0.7546771E-02  0.1277395E+00
         21   -1    0    0  503  501  0.00000000000E+00  0.00000000000E+00  0.39635286167E+02  0.39635286167E+02  0.00000000000E+00 0.  1.
         21   -1    0    0  504  502 -0.00000000000E+00 -0.00000000000E+00 -0.10752923030E+03  0.10752923030E+03  0.00000000000E+00 0.  1.
         21    1    1    2  503  502  0.54142267837E+02  0.10314618664E+02  0.54888273482E+01  0.55388660847E+02  0.00000000000E+00 0.  1.
         21    1    1    2  504  501 -0.54142267837E+02 -0.10314618664E+02 -0.73382771481E+02  0.91775855621E+02  0.00000000000E+00 0.  1.
</event>
<event>
 4    1  0.1679763E+006  0.2236158E+02  0.7546771E-02  0.1500674E+00
         21   -1    0    0  504  501  0.00000000000E+00  0.00000000000E+00  0.90468793790E+02  0.90468793790E+02  0.00000000000E+00 0. -1.
         21   -1    0    0  503  502 -0.00000000000E+00 -0.00000000000E+00 -0.76442097002E+01  0.76442097002E+01  0.00000000000E+00 0. -1.
         21    1    1    2  503  501  0.15722439469E+02 -0.15901108726E+02  0.67228371669E+02  0.70849801121E+02  0.00000000000E+00 0. -1.
         21    1    1    2  504  502 -0.15722439469E+02  0.15901108726E+02  0.15596212421E+02  0.27263202370E+02  0.00000000000E+00 0. -1.
</event>
<event>
 4    1  0.1679763E+006  0.2007056E+02  0.7546771E-02  0.1532960E+00
         21   -1    0    0  503  501  0.00000000000E+00  0.00000000000E+00  0.67062391385E+03  0.67062391385E+03  0.00000000000E+00 0. -1.
         21   -1    0    0  504  502 -0.00000000000E+00 -0.00000000000E+00 -0.34344300955E+01  0.34344300955E+01  0.00000000000E+00 0. -1.
         21    1    1    2  503  502  0.54459833639E+01  0.19317569550E+02  0.27453890248E+02  0.34007989030E+02  0.00000000000E+00 0. -1.
         21    1    1    2  504  501 -0.54459833639E+01 -0.19317569550E+02  0.63973559350E+03  0.64005035491E+03  0.00000000000E+00 0. -1.
</event>
<event>
 4    1  0.1679763E+006  0.5650952E+02  0.7546771E-02  0.1272177E+00
         21   -1    0    0  503  501  0.00000000000E+00  0.00000000000E+00  0.35766030058E+03  0.35766030058E+03  0.00000000000E+00 0.  1.
         21   -1    0    0  504  502 -0.00000000000E+00 -0.00000000000E+00 -0.93512961473E+01  0.93512961473E+01  0.00000000000E+00 0.  1.
         21    1    1    2  503  502  0.20927240339E+01  0.56470752568E+02  0.21317954956E+03  0.22054216318E+03  0.00000000000E+00 0.  1.
         21    1    1    2  504  501 -0.20927240339E+01 -0.56470752568E+02  0.13512945487E+03  0.14646943354E+03  0.00000000000E+00 0.  1.
</event>
<event>
 4    1  0.1679763E+006  0.2419890E+02  0.7546771E-02  0.1477968E+00
         21   -1    0    0  504  501  0.00000000000E+00  0.00000000000E+00  0.26278418169E+01  0.26278418169E+01  0.00000000000E+00 0.  1.
         21   -1    0    0  503  502 -0.00000000000E+00 -0.00000000000E+00 -0.36139161080E+03  0.36139161080E+03  0.00000000000E+00 0.  1.
         21    1    1    2  503  501 -0.19836609438E+02 -0.13859858469E+02 -0.29207885957E+03  0.29307959151E+03  0.00000000000E+00 0.  1.
         21    1    1    2  504  502  0.19836609438E+02  0.13859858469E+02 -0.66684909417E+02  0.70939861113E+02  0.00000000000E+00 0.  1.
</event>
<event>
 4    1  0.1679763E+006  0.2037282E+02  0.7546771E-02  0.1528411E+00
         21   -1    0    0  503  501  0.00000000000E+00  0.00000000000E+00  0.31322593523E+03  0.31322593523E+03  0.00000000000E+00 0.  1.
         21   -1    0    0  504  502 -0.00000000000E+00 -0.00000000000E+00 -0.74871234112E+01  0.74871234112E+01  0.00000000000E+00 0.  1.
         21    1    1    2  503  502  0.17190081275E+02  0.10934026249E+02  0.73934368952E+01  0.21672903206E+02  0.00000000000E+00 0.  1.
         21    1    1    2  504  501 -0.17190081275E+02 -0.10934026249E+02  0.29834537492E+03  0.29904015543E+03  0.00000000000E+00 0.  1.
</event>
<event>
 4    1  0.1679763E+006  0.5828162E+02  0.7546771E-02  0.1265786E+00
         21   -1    0    0  504  501  0.00000000000E+00  0.00000000000E+00  0.76144016858E+02  0.76144016858E+02  0.00000000000E+00 0.  1.
         21   -1    0    0  501  502 -0.00000000000E+00 -0.00000000000E+00 -0.56433474357E+02  0.56433474357E+02  0.00000000000E+00 0. -1.
         21    1    1    2  503  502  0.52632508940E+02  0.25031309982E+02 -0.20487337376E+02  0.61777653480E+02  0.00000000000E+00 0. -1.
         21    1    1    2  504  503 -0.52632508940E+02 -0.25031309982E+02  0.40197879877E+02  0.70799837735E+02  0.00000000000E+00 0.  1.
</event>
<event>
 4    1  0.1679763E+006  0.2436342E+02  0.7546771E-02  0.1476052E+00
         21   -1    0    0  503  501  0.00000000000E+00  0.00000000000E+00  0.26140617488E+02  0.26140617488E+02  0.00000000000E+00 0.  1.
         21   -1    0    0  504  502 -0.00000000000E+00 -0.00000000000E+00 -0.56905384215E+02  0.56905384215E+02  0.00000000000E+00 0.  1.
         21    1    1    2  503  502 -0.88793346467E+01 -0.22687742722E+02  0.16807139679E+02  0.29598246533E+02  0.00000000000E+00 0.  1.
         21    1    1    2  504  501  0.88793346467E+01  0.22687742722E+02 -0.47571906406E+02  0.53447755170E+02  0.00000000000E+00 0.  1.
</event>
<event>
 4    1  0.1679763E+006  0.2184542E+02  0.7546771E-02  0.1507528E+00
         21   -1    0    0  503  501  0.00000000000E+00  0.00000000000E+00  0.12266750280E+02  0.12266750280E+02  0.00000000000E+00 0. -1.
         21   -1    0    0  504  502 -0.00000000000E+00 -0.00000000000E+00 -0.26576506242E+03  0.26576506242E+03  0.00000000000E+00 0.  1.
         21    1    1    2  503  502 -0.17799151881E+01 -0.21772787685E+02 -0.25518782251E+03  0.25612115714E+03  0.00000000000E+00 0.  1.
         21    1    1    2  504  501  0.17799151881E+01  0.21772787685E+02  0.16895103647E+01  0.21910655556E+02  0.00000000000E+00 0. -1.
</event>
<event>
 4    1  0.1679763E+006  0.2281682E+02  0.7546771E-02  0.1494811E+00
         21   -1    0    0  502  501  0.00000000000E+00  0.00000000000E+00  0.12845243112E+02  0.12845243112E+02  0.00000000000E+00 0. -1.
         21   -1    0    0  503  502 -0.00000000000E+00 -0.00000000000E+00 -0.41667422977E+02  0.41667422977E+02  0.00000000000E+00 0. -1.
         21    1    1    2  503  504 -0.20626049261E+02 -0.97556817427E+01 -0.18915995001E+02  0.29638186538E+02  0.00000000000E+00 0. -1.
         21    1    1    2  504  501  0.20626049261E+02  0.97556817427E+01 -0.99061848651E+01  0.24874479551E+02  0.00000000000E+00 0. -1.
</event>
<event>
 4    1  0.1679763E+006  0.2049673E+02  0.7546771E-02  0.1526573E+00
         21   -1    0    0  504  501  0.00000000000E+00  0.00000000000E+00  0.58572904695E+02  0.58572904695E+02  0.00000000000E+00 0. -1.
         21   -1    0    0  503  502 -0.00000000000E+00 -0.00000000000E+00 -0.47420940207E+02  0.47420940207E+02  0.00000000000E+00 0.  1.
         21    1    1    2  503  501  0.94431455838E+01  0.18191836684E+02 -0.43248757322E+02  0.47859909427E+02  0.00000000000E+00 0.  1.
         21    1    1    2  504  502 -0.94431455838E+01 -0.18191836684E+02  0.54400721809E+02  0.58133935475E+02  0.00000000000E+00 0. -1.
</event>
<event>
 4    1  0.1679763E+006  0.2347023E+02  0.7546771E-02  0.1486676E+00
         21   -1    0    0  502  501  0.00000000000E+00  0.00000000000E+00  0.53388639056E+00  0.53388639056E+00  0.00000000000E+00 0. -1.
         21   -1    0    0  503  502 -0.00000000000E+00 -0.00000000000E+00 -0.10359986288E+04  0.10359986288E+04  0.00000000000E+00 0. -1.
         21    1    1    2  503  504 -0.79009897924E+01  0.22100366452E+02 -0.48464974245E+03  0.48521770856E+03  0.00000000000E+00 0. -1.
         21    1    1    2  504  501  0.79009897924E+01 -0.22100366452E+02 -0.55081499995E+03  0.55131480663E+03  0.00000000000E+00 0. -1.
</event>
<event>
 4    1  0.1679763E+006  0.2559429E+02  0.7546771E-02  0.1462264E+00
         21   -1    0    0  504  501  0.00000000000E+00  0.00000000000E+00  0.10815044996E+03  0.10815044996E+03  0.00000000000E+00 0.  1.
         21   -1    0    0  501  502 -0.00000000000E+00 -0.00000000000E+00 -0.49961724314E+03  0.49961724314E+03  0.00000000000E+00 0.  1.
         21    1    1    2  503  502  0.21885214143E+02 -0.13270454372E+02 -0.49776959081E+03  0.49842715926E+03  0.00000000000E+00 0.  1.
         21    1    1    2  504  503 -0.21885214143E+02  0.13270454372E+02  0.10630279763E+03  0.10934053384E+03  0.00000000000E+00 0.  1.
</event>
<event>
 4    1  0.1679763E+006  0.2541043E+02  0.7546771E-02  0.1464264E+00
         21   -1    0    0  504  501  0.00000000000E+00  0.00000000000E+00  0.27898788366E+02  0.27898788366E+02  0.00000000000E+00 0.  1.
         21   -1    0    0  503  502 -0.00000000000E+00 -0.00000000000E+00 -0.45046539761E+02  0.45046539761E+02  0.00000000000E+00 0.  1.
         21    1    1    2  503  501  0.22925309301E+02 -0.10959932391E+02  0.16858321172E+02  0.30494145623E+02  0.00000000000E+00 0.  1.
         21    1    1    2  504  502 -0.22925309301E+02  0.10959932391E+02 -0.34006072566E+02  0.42451182503E+02  0.00000000000E+00 0.  1.
</event>
<event>
 4    1  0.1679763E+006  0.2001499E+02  0.7546771E-02  0.1533807E+00
         21   -1    0    0  503  501  0.00000000000E+00  0.00000000000E+00  0.13849164198E+03  0.13849164198E+03  0.00000000000E+00 0. -1.
         21   -1    0    0  501  502 -0.00000000000E+00 -0.00000000000E+00 -0.31975258595E+01  0.31975258595E+01  0.00000000000E+00 0. -1.
         21    1    1    2  503  504 -0.16879895457E+02  0.10754957486E+02  0.45769361453E+02  0.49954323427E+02  0.00000000000E+00 0. -1.
         21    1    1    2  504  502  0.16879895457E+02 -0.10754957486E+02  0.89524754669E+02  0.91734844415E+02  0.00000000000E+00 0. -1.
</event>
<event>
 4    1  0.1679763E+006  0.2070596E+02  0.7546771E-02  0.1523505E+00
         21   -1    0    0  504  501  0.00000000000E+00  0.00000000000E+00  0.11157786240E+03  0.11157786240E+03  0.00000000000E+00 0.  1.
         21   -1    0    0  503  502 -0.00000000000E+00 -0.00000000000E+00 -0.19255609594E+02  0.19255609594E+02  0.00000000000E+00 0. -1.
         21    1    1    2  503  501 -0.20132318433E+02  0.48400944709E+01  0.10468802576E+03  0.10671606954E+03  0.00000000000E+00 0.  1.
         21    1    1    2  504  502  0.20132318433E+02 -0.48400944709E+01 -0.12365772961E+02  0.24117402450E+02  0.00000000000E+00 0. -1.
</event>
<event>
 4    1  0.1679763E+006  0.2649947E+02  0.7546771E-02  0.1452702E+00
         21   -1    0    0  504  501  0.00000000000E+00  0.00000000000E+00  0.75582953347E+03  0.75582953347E+03  0.00000000000E+00 0.  1.
         21   -1    0    0  503  502 -0.00000000000E+00 -0.00000000000E+00 -0.57380775671E+02  0.57380775671E+02  0.00000000000E+00 0.  1.
         21    1    1    2  503  501  0.11673239300E+02 -0.23789854785E+02  0.75252434986E+03  0.75299078271E+03  0.00000000000E+00 0.  1.
         21    1    1    2  504  502 -0.11673239300E+02  0.23789854785E+02 -0.54075592065E+02  0.60219526431E+02  0.00000000000E+00 0.  1.
</event>
<event>
 4    1  0.1679763E+006  0.2083166E+02  0.7546771E-02  0.1521682E+00
         21   -1    0    0  503  501  0.00000000000E+00  0.00000000000E+00  0.19022699794E+01  0.19022699794E+01  0.00000000000E+00 0.  1.
         21   -1    0    0  501  502 -0.00000000000E+00 -0.00000000000E+00 -0.28320501295E+03  0.28320501295E+03  0.00000000000E+00 0. -1.
         21    1    1    2  503  504 -0.16957509407E+01 -0.20762526158E+02 -0.77784880877E+02  0.80526056384E+02  0.00000000000E+00 0.  1.
         21    1    1    2  504  502  0.16957509407E+01  0.20762526158E+02 -0.20351786209E+03  0.20458122654E+03  0.00000000000E+00 0. -1.
</event>
<event>
 4    1  0.1679763E+006  0.2117667E+02  0.7546771E-02  0.1516757E+00
         21   -1    0    0  502  501  0.00000000000E+00  0.00000000000E+00  0.38553403789E+02  0.38553403789E+02  0.00000000000E+00 0. -1.
         21   -1    0    0  504  502 -0.00000000000E+00 -0.00000000000E+00 -0.26340223350E+02  0.26340223350E+02  0.00000000000E+00 0. -1.
         21    1    1    2  503  501  0.20744561551E+02 -0.42561304250E+01  0.30352757147E+02  0.37010016841E+02  0.00000000000E+00 0. -1.
         21    1    1    2  504  503 -0.20744561551E+02  0.42561304250E+01 -0.18139576708E+02  0.27883610299E+02  0.00000000000E+00 0. -1.
</event>
<event>
 4    1  0.1679763E+006  0.2091196E+02  0.7546771E-02  0.1520526E+00
         21   -1    0    0  504  501  0.00000000000E+00  0.00000000000E+00  0.14578558553E+02  0.14578558553E+02  0.00000000000E+00 0.  1.
         21   -1    0    0  503  502 -0.00000000000E+00 -0.00000000000E+00 -0.30726164415E+02  0.30726164415E+02  0.00000000000E+00 0.  1.
         21    1    1    2  503  501  0.59918343314E+01 -0.20035166159E+02 -0.45837298231E+01  0.21408422192E+02  0.00000000000E+00 0.  1.
         21    1    1    2  504  502 -0.59918343314E+01  0.20035166159E+02 -0.11563876039E+02  0.23896300775E+02  0.00000000000E+00 0.  1.
</event>
<event>
 4    1  0.1679763E+006  0.2152175E+02  0.7546771E-02  0.1511944E+00
         21   -1    0    0  503  501  0.00000000000E+00  0.00000000000E+00  0.25409744382E+03  0.25409744382E+03  0.00000000000E+00 0.  1.
         21   -1    0    0  501  502 -0.00000000000E+00 -0.00000000000E+00 -0.18481681037E+01  0.18481681037E+01  0.00000000000E+00 0.  1.
         21    1    1    2  503  504 -0.16775029063E+02  0.13482735327E+02  0.14109801753E+03  0.14272994186E+03  0.00000000000E+00 0.  1.
         21    1    1    2  504  502  0.16775029063E+02 -0.13482735327E+02  0.11115125819E+03  0.11321567007E+03  0.00000000000E+00 0.  1.
</event>
<event>
 4    1  0.1679763E+006  0.2073902E+02  0.7546771E-02  0.1523024E+00
         21   -1    0    0  504  501  0.00000000000E+00  0.00000000000E+00  0.96616115363E+01  0.96616115363E+01  0.00000000000E+00 0.  1.
         21   -1    0    0  503  502 -0.00000000000E+00 -0.00000000000E+00 -0.49786936225E+02  0.49786936225E+02  0.00000000000E+00 0.  1.
         21    1    1    2  503  501  0.20317867964E+02  0.41582846782E+01 -0.29733217736E+02  0.36251501031E+02  0.00000000000E+00 0.  1.
         21    1    1    2  504  502 -0.20317867964E+02 -0.41582846782E+01 -0.10392106952E+02  0.23197046730E+02  0.00000000000E+00 0.  1.
</event>
<event>
 4    1  0.1679763E+006  0.3899884E+02  0.7546771E-02  0.1354455E+00
         21   -1    0    0  504  501  0.00000000000E+00  0.00000000000E+00  0.21589210683E+02  0.21589210683E+02  0.00000000000E+00 0. -1.
         21   -1    0    0  503  502 -0.00000000000E+00 -0.00000000000E+00 -0.98271545049E+02  0.98271545049E+02  0.00000000000E+00 0. -1.
         21    1    1    2  503  501  0.30378426578E+02  0.24455286784E+02 -0.70230235863E+02  0.80331786252E+02  0.00000000000E+00 0. -1.
         21    1    1    2  504  502 -0.30378426578E+02 -0.24455286784E+02 -0.64520985026E+01  0.39528969480E+02  0.00000000000E+00 0. -1.
</event>
<event>
 4    1  0.1679763E+006  0.2298022E+02  0.7546771E-02  0.1492747E+00
         21   -1    0    0  502  501  0.00000000000E+00  0.00000000000E+00  0.90124956933E+02  0.90124956933E+02  0.00000000000E+00 0.  1.
         21   -1    0    0  503  502 -0.00000000000E+00 -0.00000000000E+00 -0.12478569773E+02  0.12478569773E+02  0.00000000000E+00 0. -1.
         21    1    1    2  503  504  0.18177433513E+02  0.14059559943E+02  0.14597214751E+01  0.23026530387E+02  0.00000000000E+00 0. -1.
         21    1    1    2  504  501 -0.18177433513E+02 -0.14059559943E+02  0.76186665685E+02  0.79576996318E+02  0.00000000000E+00 0.  1.
</event>
<event>
 4    1  0.1679763E+006  0.2404140E+02  0.7546771E-02  0.1479819E+00
         21   -1    0    0  503  501  0.00000000000E+00  0.00000000000E+00  0.20559321690E+02  0.20559321690E+02  0.00000000000E+00 0. -1.
         21   -1    0    0  504  502 -0.00000000000E+00 -0.00000000000E+00 -0.22670851112E+03  0.22670851112E+03  0.00000000000E+00 0.  1.
         21    1    1    2  503  502  0.16116260195E+02  0.17839709373E+02 -0.21878919773E+03  0.22010611558E+03  0.00000000000E+00 0.  1.
         21    1    1    2  504  501 -0.16116260195E+02 -0.17839709373E+02  0.12640008297E+02  0.27161717231E+02  0.00000000000E+00 0. -1.
</event>
<event>
 4    1  0.1679763E+006  0.2002483E+02  0.7546771E-02  0.1533656E+00
         21   -1    0    0  503  501  0.00000000000E+00  0.00000000000E+00  0.10644634285E+04  0.10644634285E+04  0.00000000000E+00 0.  1.
         21   -1    0    0  504  502 -0.00000000000E+00 -0.00000000000E+00 -0.55700473818E+00  0.55700473818E+00  0.00000000000E+00 0.  1.
         21    1    1    2  503  502  0.16985098847E+02 -0.10606618517E+02  0.83491657644E+03  0.83515668204E+03  0.00000000000E+00 0.  1.
         21    1    1    2  504  501 -0.16985098847E+02  0.10606618517E+02  0.22898984735E+03  0.22986375123E+03  0.00000000000E+00 0.  1.
</event>
<event>
 4    1  0.1679763E+006  0.4808893E+02  0.7546771E-02  0.1306678E+00
         21   -1    0    0  504  501  0.00000000000E+00  0.00000000000E+00  0.34223482671E+02  0.34223482671E+02  0.00000000000E+00 0.  1.
         21   -1    0    0  501  502 -0.00000000000E+00 -0.00000000000E+00 -0.15514862301E+03  0.15514862301E+03  0.00000000000E+00 0.  1.
         21    1    1    2  503  502  0.11573438632E+02  0.46675478545E+02 -0.13160135875E+03  0.14011232067E+03  0.00000000000E+00 0.  1.
         21    1    1    2  504  503 -0.11573438632E+02 -0.46675478545E+02  0.10676218415E+02  0.49259785006E+02  0.00000000000E+00 0.  1.
</event>
<event>
 4    1  0.1679763E+006  0.2508313E+02  0.7546771E-02  0.1467876E+00
         21   -1    0    0  503  501  0.00000000000E+00  0.00000000000E+00  0.23160389039E+02  0.23160389039E+02  0.00000000000E+00 0.  1.
         21   -1    0    0  504  502 -0.00000000000E+00 -0.00000000000E+00 -0.10234195694E+03  0.10234195694E+03  0.00000000000E+00 0. -1.
         21    1    1    2  503  502  0.24164172961E+02 -0.67272634868E+01 -0.93372659572E+02  0.96683074447E+02  0.00000000000E+00 0. -1.
         21    1    1    2  504  501 -0.24164172961E+02  0.67272634868E+01  0.14191091671E+02  0.28819271533E+02  0.00000000000E+00 0.  1.
</event>
<event>
 4    1  0.1679763E+006  0.2021576E+02  0.7546771E-02  0.1530763E+00
         21   -1    0    0  504  501  0.00000000000E+00  0.00000000000E+00  0.17316317378E+03  0.17316317378E+03  0.00000000000E+00 0.  1.
         21   -1    0    0  503  502 -0.00000000000E+00 -0.00000000000E+00 -0.20142831623E+02  0.20142831623E+02  0.00000000000E+00 0. -1.
         21    1    1    2  503  501 -0.63922992952E+01 -0.19178515179E+02  0.16732456993E+03  0.16854135587E+03  0.00000000000E+00 0.  1.
         21    1    1    2  504  502  0.63922992952E+01  0.19178515179E+02 -0.14304227770E+02  0.24764649540E+02  0.00000000000E+00 0. -1.
</event>
<event>
 4    1  0.1679763E+006  0.2829236E+02  0.7546771E-02  0.1435041E+00
         21   -1    0    0  504  501  0.00000000000E+00  0.00000000000E+00  0.10090894450E+03  0.10090894450E+03  0.00000000000E+00 0.  1.
         21   -1    0    0  503  502 -0.00000000000E+00 -0.00000000000E+00 -0.79495469925E+01  0.79495469925E+01  0.00000000000E+00 0.  1.
         21    1    1    2  503  501 -0.25151485036E+02  0.12956105673E+02  0.49001894262E+02  0.56583067388E+02  0.00000000000E+00 0.  1.
         21    1    1    2  504  502  0.25151485036E+02 -0.12956105673E+02  0.43957503243E+02  0.52275424102E+02  0.00000000000E+00 0.  1.
</event>
<event>
 4    1  0.1679763E+006  0.2061713E+02  0.7546771E-02  0.1524802E+00
         21   -1    0    0  503  501  0.00000000000E+00  0.00000000000E+00  0.59288642020E+01  0.59288642020E+01  0.00000000000E+00 0.  1.
         21   -1    0    0  504  502 -0.00000000000E+00 -0.00000000000E+00 -0.77016248882E+02  0.77016248882E+02  0.00000000000E+00 0.  1.
         21    1    1    2  503  502 -0.13644396904E+02  0.15456272391E+02 -0.24641749161E+02  0.32129141364E+02  0.00000000000E+00 0.  1.
         21    1    1    2  504  501  0.13644396904E+02 -0.15456272391E+02 -0.46445635519E+02  0.50815971720E+02  0.00000000000E+00 0.  1.
</event>
<event>
 4    1  0.1679763E+006  0.2256183E+02  0.7546771E-02  0.1498075E+00
         21   -1    0    0  504  501  0.00000000000E+00  0.00000000000E+00  0.22699030444E+02  0.22699030444E+02  0.00000000000E+00 0.  1.
         21   -1    0    0  503  502 -0.00000000000E+00 -0.00000000000E+00 -0.15023394464E+03  0.15023394464E+03  0.00000000000E+00 0. -1.
         21    1    1    2  503  501 -0.36875245483E+00  0.22558820269E+02  0.15984915797E+02  0.27650567505E+02  0.00000000000E+00 0.  1.
         21    1    1    2  504  502  0.36875245483E+00 -0.22558820269E+02 -0.14351982999E+03  0.14528240758E+03  0.00000000000E+00 0. -1.
</event>
<event>
 4    1  0.1679763E+006  0.2006574E+02  0.7546771E-02  0.1533033E+00
         21   -1    0    0  504  501  0.00000000000E+00  0.00000000000E+00  0.22878315318E+03  0.22878315318E+03  0.00000000000E+00 0.  1.
         21   -1    0    0  503  502 -0.00000000000E+00 -0.00000000000E+00 -0.17030531971E+02  0.17030531971E+02  0.00000000000E+00 0. -1.
         21    1    1    2  503  501 -0.18659341892E+02 -0.73798946780E+01  0.22225958156E+03  0.22316351736E+03  0.00000000000E+00 0.  1.
         21    1    1    2  504  502  0.18659341892E+02  0.73798946780E+01 -0.10506960349E+02  0.22650167793E+02  0.00000000000E+00 0. -1.
</event>
<event>
 4    1  0.1679763E+006  0.2798332E+02  0.7546771E-02  0.1437973E+00
         21   -1    0    0  504  501  0.00000000000E+00  0.00000000000E+00  0.16301548237E+02  0.16301548237E+02  0.00000000000E+00 0.  1.
         21   -1    0    0  503  502 -0.00000000000E+00 -0.00000000000E+00 -0.48820111043E+02  0.48820111043E+02  0.00000000000E+00 0. -1.
         21    1    1    2  503  501  0.23753283467E+02 -0.14793506975E+02 -0.12133584603E+02  0.30500659000E+02  0.00000000000E+00 0.  1.
         21    1    1    2  504  502 -0.23753283467E+02  0.14793506975E+02 -0.20384978202E+02  0.34621000280E+02  0.00000000000E+00 0. -1.
</event>
<event>
 4    1  0.1679763E+006  0.2005932E+02  0.7546771E-02  0.1533131E+00
         21   -1    0    0  502  501  0.00000000000E+00  0.00000000000E+00  0.13719329419E+02  0.13719329419E+02  0.00000000000E+00 0.  1.
         21   -1    0    0  503  502 -0.00000000000E+00 -0.00000000000E+00 -0.47156718747E+02  0.47156718747E+02  0.00000000000E+00 0. -1.
         21    1    1    2  503  504 -0.19982068734E+02  0.17587716631E+01 -0.35433730264E+02  0.40717632410E+02  0.00000000000E+00 0. -1.
         21    1    1    2  504  501  0.19982068734E+02 -0.17587716631E+01  0.19963409355E+01  0.20158415756E+02  0.00000000000E+00 0.  1.
</event>
<event>
 4    1  0.1679763E+006  0.2236377E+02  0.7546771E-02  0.1500646E+00
         21   -1    0    0  503  501  0.00000000000E+00  0.00000000000E+00  0.28197187780E+03  0.28197187780E+03  0.00000000000E+00 0.  1.
         21   -1    0    0  504  502 -0.00000000000E+00 -0.00000000000E+00 -0.28467608108E+01  0.28467608108E+01  0.00000000000E+00 0.  1.
         21    1    1    2  503  502 -0.11332613830E+02 -0.19279783268E+02  0.22699482656E+03  0.22809381725E+03  0.00000000000E+00 0.  1.
         21    1    1    2  504  501  0.11332613830E+02  0.19279783268E+02  0.52130290428E+02  0.56724821367E+02  0.00000000000E+00 0.  1.
</event>
<event>
 4    1  0.1679763E+006  0.2027091E+02  0.7546771E-02  0.1529934E+00
         21   -1    0    0  503  501  0.00000000000E+00  0.00000000000E+00  0.28246472192E+03  0.28246472192E+03  0.00000000000E+00 0.  1.
         21   -1    0    0  504  502 -0.00000000000E+00 -0.00000000000E+00 -0.53801791398E+01  0.53801791398E+01  0.00000000000E+00 0. -1.
         21    1    1    2  503  502 -0.19852387646E+02  0.40978782606E+01  0.15607466882E+02  0.25583254757E+02  0.00000000000E+00 0. -1.
         21    1    1    2  504  501  0.19852387646E+02 -0.40978782606E+01  0.26147707590E+03  0.26226164630E+03  0.00000000000E+00 0.  1.
</event>
<event>
 4    1  0.1679763E+006  0.4977545E+02  0.7546771E-02  0.1299149E+00
         21   -1    0    0  504  501  0.00000000000E+00  0.00000000000E+00  0.19684862481E+02  0.19684862481E+02  0.00000000000E+00 0.  1.
         21   -1    0    0  503  502 -0.00000000000E+00 -0.00000000000E+00 -0.13266391176E+03  0.13266391176E+03  0.00000000000E+00 0.  1.
         21    1    1    2  503  501 -0.13652775089E+02  0.47866448964E+02 -0.39242380968E+02  0.63384222548E+02  0.00000000000E+00 0.  1.
         21    1    1    2  504  502  0.13652775089E+02 -0.47866448964E+02 -0.73736668307E+02  0.88964551688E+02  0.00000000000E+00 0.  1.
</event>
<event>
 4    1  0.1679763E+006  0.2505503E+02  0.7546771E-02  0.1468189E+00
         21   -1    0    0  503  501  0.00000000000E+00  0.00000000000E+00  0.95237252210E+03  0.95237252210E+03  0.00000000000E+00 0. -1.
         21   -1    0    0  504  502 -0.00000000000E+00 -0.00000000000E+00 -0.13210319105E+01  0.13210319105E+01  0.00000000000E+00 0. -1.
         21    1    1    2  503  502  0.11746472680E+02 -0.22130860443E+02  0.81305626931E+03  0.81344222393E+03  0.00000000000E+00 0. -1.
         21    1    1    2  504  501 -0.11746472680E+02  0.22130860443E+02  0.13799522088E+03  0.14025133008E+03  0.00000000000E+00 0. -1.
</event>
<event>
 4    1  0.1679763E+006  0.2104764E+02  0.7546771E-02  0.1518586E+00
         21   -1    0    0  503  501  0.00000000000E+00  0.00000000000E+00  0.27044780455E+03  0.27044780455E+03  0.00000000000E+00 0. -1.
         21   -1    0    0  504  502 -0.00000000000E+00 -0.00000000000E+00 -0.25742193246E+01  0.25742193246E+01  0.00000000000E+00 0. -1.
         21    1    1    2  503  502  0.19105952276E+02  0.88298191041E+01  0.51612981351E+02  0.55739599584E+02  0.00000000000E+00 0. -1.
         21    1    1    2  504  501 -0.19105952276E+02 -0.88298191041E+01  0.21626060387E+03  0.21728242429E+03  0.00000000000E+00 0. -1.
</event>
<event>
 4    1  0.1679763E+006  0.2182786E+02  0.7546771E-02  0.1507766E+00
         21   -1    0    0  504  501  0.00000000000E+00  0.00000000000E+00  0.53876101106E+02  0.53876101106E+02  0.00000000000E+00 0.  1.
         21   -1    0    0  503  502 -0.00000000000E+00 -0.00000000000E+00 -0.75119570751E+02  0.75119570751E+02  0.00000000000E+00 0. -1.
         21    1    1    2  503  501  0.26260968644E+00 -0.21826284911E+02  0.49960714300E+02  0.54520901040E+02  0.00000000000E+00 0.  1.
         21    1    1    2  504  502 -0.26260968644E+00  0.21826284911E+02 -0.71204183946E+02  0.74474770817E+02  0.00000000000E+00 0. -1.
</event>
<event>
 4    1  0.1679763E+006  0.2853155E+02  0.7546771E-02  0.1432802E+00
         21   -1    0    0  503  501  0.00000000000E+00  0.00000000000E+00  0.35949754053E+01  0.35949754053E+01  0.00000000000E+00 0. -1.
         21   -1    0    0  504  502 -0.00000000000E+00 -0.00000000000E+00 -0.27376199379E+03  0.27376199379E+03  0.00000000000E+00 0.  1.
         21    1    1    2  503  502 -0.22422419949E+02 -0.17643247210E+02 -0.77426729886E+02  0.82516347407E+02  0.00000000000E+00 0. -1.
         21    1    1    2  504  501  0.22422419949E+02  0.17643247210E+02 -0.19274028849E+03  0.19484062178E+03  0.00000000000E+00 0.  1.
</event>
<event>
 4    1  0.1679763E+006  0.2705810E+02  0.7546771E-02  0.1447025E+00
         21   -1    0    0  503  501  0.00000000000E+00  0.00000000000E+00  0.40378893209E+02  0.40378893209E+02  0.00000000000E+00 0.  1.
         21   -1    0    0  504  502 -0.00000000000E+00 -0.00000000000E+00 -0.37629988399E+02  0.37629988399E+02  0.00000000000E+00 0.  1.
         21    1    1    2  503  502 -0.26243042275E+02  0.65911727028E+01 -0.26702144910E+02  0.38015067648E+02  0.00000000000E+00 0.  1.
         21    1    1    2  504  501  0.26243042275E+02 -0.65911727028E+01  0.29451049721E+02  0.39993813960E+02  0.00000000000E+00 0.  1.
</event>
<event>
 4    1  0.1679763E+006  0.2356968E+02  0.7546771E-02  0.1485466E+00
         21   -1    0    0  502  501  0.00000000000E+00  0.00000000000E+00  0.97372839351E+01  0.97372839351E+01  0.00000000000E+00 0.  1.
         21   -1    0    0  504  502 -0.00000000000E+00 -0.00000000000E+00 -0.74348301560E+03  0.74348301560E+03  0.00000000000E+00 0.  1.
         21    1    1    2  503  501  0.10306428636E+02  0.21196875944E+02 -0.50008561462E+01  0.24094368289E+02  0.00000000000E+00 0.  1.
         21    1    1    2  504  503 -0.10306428636E+02 -0.21196875944E+02 -0.72874487551E+03  0.72912593124E+03  0.00000000000E+00 0.  1.
</event>
<event>
 4    1  0.1679763E+006  0.2141401E+02  0.7546771E-02  0.1513435E+00
         21   -1    0    0  503  501  0.00000000000E+00  0.00000000000E+00  0.32229359861E+01  0.32229359861E+01  0.00000000000E+00 0.  1.
         21   -1    0    0  504  502 -0.00000000000E+00 -0.00000000000E+00 -0.11567883142E+04  0.11567883142E+04  0.00000000000E+00 0. -1.
         21    1    1    2  503  502  0.21012038871E+02  0.41296522782E+01 -0.11199492593E+04  0.11201539641E+04  0.00000000000E+00 0. -1.
         21    1    1    2  504  501 -0.21012038871E+02 -0.41296522782E+01 -0.33616118866E+02  0.39857286072E+02  0.00000000000E+00 0.  1.
</event>
<event>
 4    1  0.1679763E+006  0.2649827E+02  0.7546771E-02  0.1452714E+00
         21   -1    0    0  504  501  0.00000000000E+00  0.00000000000E+00  0.66353381138E+02  0.66353381138E+02  0.00000000000E+00 0.  1.
         21   -1    0    0  501  502 -0.00000000000E+00 -0.00000000000E+00 -0.10643031317E+02  0.10643031317E+02  0.00000000000E+00 0. -1.
         21    1    1    2  503  502 -0.26223180822E+02 -0.38083003051E+01  0.24942347672E+02  0.36390645378E+02  0.00000000000E+00 0. -1.
         21    1    1    2  504  503  0.26223180822E+02  0.38083003051E+01  0.30768002148E+02  0.40605767076E+02  0.00000000000E+00 0.  1.
</event>
<event>
 4    1  0.1679763E+006  0.2341743E+02  0.7546771E-02  0.1487322E+00
         21   -1    0    0  504  501  0.00000000000E+00  0.00000000000E+00  0.11780649686E+02  0.11780649686E+02  0.00000000000E+00 0. -1.
         21   -1    0    0  503  502 -0.00000000000E+00 -0.00000000000E+00 -0.13799141590E+04  0.13799141590E+04  0.00000000000E+00 0. -1.
         21    1    1    2  503  501  0.18657906623E+02 -0.14151275003E+02 -0.13680769056E+04  0.13682773095E+04  0.00000000000E+00 0. -1.
         21    1    1    2  504  502 -0.18657906623E+02  0.14151275003E+02 -0.56603708958E-01  0.23417499178E+02  0.00000000000E+00 0. -1.
</event>
<event>
 4    1  0.1679763E+006  0.3645536E+02  0.7546771E-02  0.1370610E+00
         21   -1    0    0  504  501  0.00000000000E+00  0.00000000000E+00  0.65878562497E+03  0.65878562497E+03  0.00000000000E+00 0. -1.
         21   -1    0    0  503  502 -0.00000000000E+00 -0.00000000000E+00 -0.20541180185E+01  0.20541180185E+01  0.00000000000E+00 0. -1.
         21    1    1    2  503  501 -0.13043769529E+02  0.34041933534E+02  0.28415168849E+03  0.28648067166E+03  0.00000000000E+00 0. -1.
         21    1    1    2  504  502  0.13043769529E+02 -0.34041933534E+02  0.37257981847E+03  0.37435907134E+03  0.00000000000E+00 0. -1.
</event>
<event>
 4    1  0.1679763E+006  0.2084425E+02  0.7546771E-02  0.1521500E+00
         21   -1    0    0  503  501  0.00000000000E+00  0.00000000000E+00  0.61862854951E+02  0.61862854951E+02  0.00000000000E+00 0.  1.
         21   -1    0    0  504  502 -0.00000000000E+00 -0.00000000000E+00 -0.16528535418E+03  0.16528535418E+03  0.00000000000E+00 0. -1.
         21    1    1    2  503  502  0.80069550910E+01  0.19245038363E+02 -0.16284615966E+03  0.16417476830E+03  0.00000000000E+00 0. -1.
         21    1    1    2  504  501 -0.80069550910E+01 -0.19245038363E+02  0.59423660428E+02  0.62973440831E+02  0.00000000000E+00 0.  1.
</event>
<event>
 4    1  0.1679763E+006  0.2079585E+02  0.7546771E-02  0.1522200E+00
         21   -1    0    0  502  501  0.00000000000E+00  0.00000000000E+00  0.82071116005E+01  0.82071116005E+01  0.00000000000E+00 0. -1.
         21   -1    0    0  504  502 -0.00000000000E+00 -0.00000000000E+00 -0.12407581020E+03  0.12407581020E+03  0.00000000000E+00 0.  1.
         21    1    1    2  503  501 -0.11125364193E+02 -0.17569685173E+02 -0.77667578962E+01  0.22198875957E+02  0.00000000000E+00 0. -1.
         21    1    1    2  504  503  0.11125364193E+02  0.17569685173E+02 -0.10810194071E+03  0.11008404585E+03  0.00000000000E+00 0.  1.
</event>
<event>
 4    1  0.1679763E+006  0.2660654E+02  0.7546771E-02  0.1451601E+00
         21   -1    0    0  503  501  0.00000000000E+00  0.00000000000E+00  0.29931887447E+03  0.29931887447E+03  0.00000000000E+00 0. -1.
         21   -1    0    0  504  502 -0.00000000000E+00 -0.00000000000E+00 -0.29131626945E+01  0.29131626945E+01  0.00000000000E+00 0. -1.
         21    1    1    2  503  502  0.26603727710E+02  0.38684608570E+00  0.21375062809E+03  0.21540018335E+03  0.00000000000E+00 0. -1.
         21    1    1    2  504  501 -0.26603727710E+02 -0.38684608570E+00  0.82655083688E+02  0.86831853818E+02  0.00000000000E+00 0. -1.
</event>
<event>
 4    1  0.1679763E+006  0.2108888E+02  0.7546771E-02  0.1518000E+00
         21   -1    0    0  502  501  0.00000000000E+00  0.00000000000E+00  0.12971246546E+04  0.12971246546E+04  0.00000000000E+00 0. -1.
         21   -1    0    0  503  502 -0.00000000000E+00 -0.00000000000E+00 -0.15844548012E+01  0.15844548012E+01  0.00000000000E+00 0. -1.
         21    1    1    2  503  504  0.13661181425E+02 -0.16065894233E+02  0.72951600556E+02  0.75938638776E+02  0.00000000000E+00 0. -1.
         21    1    1    2  504  501 -0.13661181425E+02  0.16065894233E+02  0.12225885993E+04  0.12227704707E+04  0.00000000000E+00 0. -1.
</event>
<event>
 4    1  0.1679763E+006  0.2198097E+02  0.7546771E-02  0.1505706E+00
         21   -1    0    0  503  501  0.00000000000E+00  0.00000000000E+00  0.92738263302E+02  0.92738263302E+02  0.00000000000E+00 0. -1.
         21   -1    0    0  504  502 -0.00000000000E+00 -0.00000000000E+00 -0.19360161097E+02  0.19360161097E+02  0.00000000000E+00 0. -1.
         21    1    1    2  503  502 -0.51343208705E+00  0.21974972357E+02 -0.11228682901E+02  0.24682916001E+02  0.00000000000E+00 0. -1.
         21    1    1    2  504  501  0.51343208705E+00 -0.21974972357E+02  0.84606785106E+02  0.87415508399E+02  0.00000000000E+00 0. -1.
</event>
<event>
 4    1  0.1679763E+006  0.3433341E+02  0.7546771E-02  0.1385311E+00
         21   -1    0    0  503  501  0.00000000000E+00  0.00000000000E+00  0.10285184650E+03  0.10285184650E+03  0.00000000000E+00 0.  1.
         21   -1    0    0  504  502 -0.00000000000E+00 -0.00000000000E+00 -0.28927792794E+02  0.28927792794E+02  0.00000000000E+00 0. -1.
         21    1    1    2  503  502  0.31653503095E+01 -0.34187189067E+02  0.88161731571E+02  0.94611174037E+02  0.00000000000E+00 0.  1.
         21    1    1    2  504  501 -0.31653503095E+01  0.34187189067E+02 -0.14237677863E+02  0.37168465261E+02  0.00000000000E+00 0. -1.
</event>
<event>
 4    1  0.1679763E+006  0.3187334E+02  0.7546771E-02  0.1403987E+00
         21   -1    0    0  504  501  0.00000000000E+00  0.00000000000E+00  0.49292013793E+03  0.49292013793E+03  0.00000000000E+00 0. -1.
         21   -1    0    0  503  502 -0.00000000000E+00 -0.00000000000E+00 -0.10323565551E+02  0.10323565551E+02  0.00000000000E+00 0. -1.
         21    1    1    2  503  501 -0.92500841981E+01 -0.30501567294E+02  0.46640626367E+03  0.46749407745E+03  0.00000000000E+00 0. -1.
         21    1    1    2  504  502  0.92500841981E+01  0.30501567294E+02  0.16190308712E+02  0.35749626030E+02  0.00000000000E+00 0. -1.
</event>
<event>
 4    1  0.1679763E+006  0.2789162E+02  0.7546771E-02  0.1438852E+00
         21   -1    0    0  504  501  0.00000000000E+00  0.00000000000E+00  0.12752148766E+02  0.12752148766E+02  0.00000000000E+00 0. -1.
         21   -1    0    0  503  502 -0.00000000000E+00 -0.00000000000E+00 -0.61005598442E+02  0.61005598442E+02  0.00000000000E+00 0.  1.
         21    1    1    2  503  501  0.82267836034E+01  0.26650749316E+02 -0.24259337881E+02  0.36965631091E+02  0.00000000000E+00 0. -1.
         21    1    1    2  504  502 -0.82267836034E+01 -0.26650749316E+02 -0.23994111795E+02  0.36792116117E+02  0.00000000000E+00 0.  1.
</event>
<event>
 4    1  0.1679763E+006  0.2586495E+02  0.7546771E-02  0.1459355E+00
         21   -1    0    0  504  501  0.00000000000E+00  0.00000000000E+00  0.39448314556E+03  0.39448314556E+03  0.00000000000E+00 0.  1.
         21   -1    0    0  503  502 -0.00000000000E+00 -0.00000000000E+00 -0.53306211980E+01  0.53306211980E+01  0.00000000000E+00 0. -1.
         21    1    1    2  503  501 -0.55548056288E+01 -0.25261431893E+02  0.29503421467E+02  0.39235795967E+02  0.00000000000E+00 0. -1.
         21    1    1    2  504  502  0.55548056288E+01  0.25261431893E+02  0.35964910289E+03  0.36057797079E+03  0.00000000000E+00 0.  1.
</event>
<event>
 4    1  0.1679763E+006  0.2964842E+02  0.7546771E-02  0.1422677E+00
         21   -1    0    0  502  501  0.00000000000E+00  0.00000000000E+00  0.14136167795E+02  0.14136167795E+02  0.00000000000E+00 0.  1.
         21   -1    0    0  504  502 -0.00000000000E+00 -0.00000000000E+00 -0.17326307774E+04  0.17326307774E+04  0.00000000000E+00 0.  1.
         21    1    1    2  503  501  0.29201522083E+02 -0.51283386399E+01 -0.16796074608E+01  0.29695956465E+02  0.00000000000E+00 0.  1.
         21    1    1    2  504  503 -0.29201522083E+02  0.51283386399E+01 -0.17168150021E+04  0.17170709887E+04  0.00000000000E+00 0.  1.
</event>
<event>
 4    1  0.1679763E+006  0.2959344E+02  0.7546771E-02  0.1423163E+00
         21   -1    0    0  504  501  0.00000000000E+00  0.00000000000E+00  0.13969120305E+03  0.13969120305E+03  0.00000000000E+00 0.  1.
         21   -1    0    0  503  502 -0.00000000000E+00 -0.00000000000E+00 -0.13569097332E+02  0.13569097332E+02  0.00000000000E+00 0.  1.
         21    1    1    2  503  501  0.27568542809E+02  0.10758589474E+02  0.11926649606E+03  0.12288315134E+03  0.00000000000E+00 0.  1.
         21    1    1    2  504  502 -0.27568542809E+02 -0.10758589474E+02  0.68556096538E+01  0.30377149040E+02  0.00000000000E+00 0.  1.
</event>
<event>
 4    1  0.1679763E+006  0.2959657E+02  0.7546771E-02  0.1423135E+00
         21   -1    0    0  504  501  0.00000000000E+00  0.00000000000E+00  0.10513943751E+03  0.10513943751E+03  0.00000000000E+00 0.  1.
         21   -1    0    0  503  502 -0.00000000000E+00 -0.00000000000E+00 -0.34366291778E+02  0.34366291778E+02  0.00000000000E+00 0. -1.
         21    1    1    2  503  501  0.11391377465E+02  0.27316541939E+02  0.96098461060E+02  0.10055282772E+03  0.00000000000E+00 0.  1.
         21    1    1    2  504  502 -0.11391377465E+02 -0.27316541939E+02 -0.25325315329E+02  0.38952901568E+02  0.00000000000E+00 0. -1.
</event>
<event>
 4    1  0.1679763E+006  0.2086204E+02  0.7546771E-02  0.1521244E+00
         21   -1    0    0  503  501  0.00000000000E+00  0.00000000000E+00  0.16774262617E+03  0.16774262617E+03  0.00000000000E+00 0. -1.
         21   -1    0    0  504  502 -0.00000000000E+00 -0.00000000000E+00 -0.10309760637E+02  0.10309760637E+02  0.00000000000E+00 0.  1.
         21    1    1    2  503  502  0.77731499184E+01 -0.19359820809E+02  0.15572979475E+03  0.15712095180E+03  0.00000000000E+00 0. -1.
         21    1    1    2  504  501 -0.77731499184E+01  0.19359820809E+02  0.17030707836E+01  0.20931435008E+02  0.00000000000E+00 0.  1.
</event>
<event>
 4    1  0.1679763E+006  0.2213152E+02  0.7546771E-02  0.1503701E+00
         21   -1    0    0  502  501  0.00000000000E+00  0.00000000000E+00  0.83118924751E+02  0.83118924751E+02  0.00000000000E+00 0.  1.
         21   -1    0    0  503  502 -0.00000000000E+00 -0.00000000000E+00 -0.18714944822E+02  0.18714944822E+02  0.00000000000E+00 0. -1.
         21    1    1    2  503  504  0.46839640731E+01 -0.21630182232E+02 -0.99432071864E+01  0.24262556996E+02  0.00000000000E+00 0. -1.
         21    1    1    2  504  501 -0.46839640731E+01  0.21630182232E+02  0.74347187116E+02  0.77571312577E+02  0.00000000000E+00 0.  1.
</event>
<event>
 4    1  0.1679763E+006  0.5463122E+02  0.7546771E-02  0.1279252E+00
         21   -1    0    0  504  501  0.00000000000E+00  0.00000000000E+00  0.22689363239E+02  0.22689363239E+02  0.00000000000E+00 0. -1.
         21   -1    0    0  503  502 -0.00000000000E+00 -0.00000000000E+00 -0.13773417719E+03  0.13773417719E+03  0.00000000000E+00 0. -1.
         21    1    1    2  503  501  0.52549884994E+02 -0.14935860267E+02 -0.40512916932E+02  0.68013724888E+02  0.00000000000E+00 0. -1.
         21    1    1    2  504  502 -0.52549884994E+02  0.14935860267E+02 -0.74531897014E+02  0.92409815536E+02  0.00000000000E+00 0. -1.
</event>
<event>
 4    1  0.1679763E+006  0.2113808E+02  0.7546771E-02  0.1517303E+00
         21   -1    0    0  502  501  0.00000000000E+00  0.00000000000E+00  0.10115595886E+03  0.10115595886E+03  0.00000000000E+00 0.  1.
         21   -1    0    0  503  502 -0.00000000000E+00 -0.00000000000E+00 -0.15224841211E+02  0.15224841211E+02  0.00000000000E+00 0.  1.
         21    1    1    2  503  504  0.17795775743E+02 -0.11407394775E+02 -0.60621917291E+01  0.21990190050E+02  0.00000000000E+00 0.  1.
         21    1    1    2  504  501 -0.17795775743E+02  0.11407394775E+02  0.91993309375E+02  0.94390610018E+02  0.00000000000E+00 0.  1.
</event>
<event>
 4    1  0.1679763E+006  0.3489664E+02  0.7546771E-02  0.1381291E+00
         21   -1    0    0  502  501  0.00000000000E+00  0.00000000000E+00  0.14042796319E+01  0.14042796319E+01  0.00000000000E+00 0. -1.
         21   -1    0    0  503  502 -0.00000000000E+00 -0.00000000000E+00 -0.10913133755E+04  0.10913133755E+04  0.00000000000E+00 0. -1.
         21    1    1    2  503  504  0.84785909865E+01  0.33850984456E+02 -0.79255298946E+03  0.79332087881E+03  0.00000000000E+00 0. -1.
         21    1    1    2  504  501 -0.84785909865E+01 -0.33850984456E+02 -0.29735610639E+03  0.29939677630E+03  0.00000000000E+00 0. -1.
</event>
<event>
 4    1  0.1679763E+006  0.2917510E+02  0.7546771E-02  0.1426903E+00
         21   -1    0    0  504  501  0.00000000000E+00  0.00000000000E+00  0.26302640998E+03  0.26302640998E+03  0.00000000000E+00 0.  1.
         21   -1    0    0  503  502 -0.00000000000E+00 -0.00000000000E+00 -0.34965604172E+01  0.34965604172E+01  0.00000000000E+00 0. -1.
         21    1    1    2  503  501 -0.27291659385E+01  0.29047173173E+02  0.16613408567E+03  0.16867637961E+03  0.00000000000E+00 0.  1.
         21    1    1    2  504  502  0.27291659385E+01 -0.29047173173E+02  0.93395763891E+02  0.97846590788E+02  0.00000000000E+00 0. -1.
</event>
<event>
 4    1  0.1679763E+006  0.2344007E+02  0.7546771E-02  0.1487045E+00
         21   -1    0    0  504  501  0.00000000000E+00  0.00000000000E+00  0.25095132986E+02  0.25095132986E+02  0.00000000000E+00 0.  1.
         21   -1    0    0  503  502 -0.00000000000E+00 -0.00000000000E+00 -0.47766286988E+02  0.47766286988E+02  0.00000000000E+00 0.  1.
         21    1    1    2  503  501 -0.14143389649E+02  0.18692278181E+02 -0.38147193660E+02  0.44773263434E+02  0.00000000000E+00 0.  1.
         21    1    1    2  504  502  0.14143389649E+02 -0.18692278181E+02  0.15476039658E+02  0.28088156540E+02  0.00000000000E+00 0.  1.
</event>
<event>
 4    1  0.1679763E+006  0.2067191E+02  0.7546771E-02  0.1524001E+00
         21   -1    0    0  503  501  0.00000000000E+00  0.00000000000E+00  0.86734496513E+01  0.86734496513E+01  0.00000000000E+00 0. -1.
         21   -1    0    0  504  502 -0.00000000000E+00 -0.00000000000E+00 -0.98381201758E+02  0.98381201758E+02  0.00000000000E+00 0.  1.
         21    1    1    2  503  502 -0.20613241590E+02  0.15563499268E+01 -0.70343269761E+01  0.21835972842E+02  0.00000000000E+00 0. -1.
         21    1    1    2  504  501  0.20613241590E+02 -0.15563499268E+01 -0.82673425131E+02  0.85218678568E+02  0.00000000000E+00 0.  1.
</event>
<event>
 4    1  0.1679763E+006  0.2131334E+02  0.7546771E-02  0.1514838E+00
         21   -1    0    0  504  501  0.00000000000E+00  0.00000000000E+00  0.65499737394E+01  0.65499737394E+01  0.00000000000E+00 0. -1.
         21   -1    0    0  503  502 -0.00000000000E+00 -0.00000000000E+00 -0.70231151905E+02  0.70231151905E+02  0.00000000000E+00 0. -1.
         21    1    1    2  503  501  0.15177312214E+02  0.14963545411E+02 -0.36134109553E+02  0.41951547891E+02  0.00000000000E+00 0. -1.
         21    1    1    2  504  502 -0.15177312214E+02 -0.14963545411E+02 -0.27547068613E+02  0.34829577753E+02  0.00000000000E+00 0. -1.
</event>
<event>
 4    1  0.1679763E+006  0.2369755E+02  0.7546771E-02  0.1483920E+00
         21   -1    0    0  504  501  0.00000000000E+00  0.00000000000E+00  0.20090008553E+02  0.20090008553E+02  0.00000000000E+00 0. -1.
         21   -1    0    0  501  502 -0.00000000000E+00 -0.00000000000E+00 -0.13488522408E+03  0.13488522408E+03  0.00000000000E+00 0. -1.
         21    1    1    2  503  502  0.22031621880E+02  0.87281981828E+01 -0.12639054506E+03  0.12859293794E+03  0.00000000000E+00 0. -1.
         21    1    1    2  504  503 -0.22031621880E+02 -0.87281981828E+01  0.11595329538E+02  0.26382294693E+02  0.00000000000E+00 0. -1.
</event>
<event>
 4    1  0.1679763E+006  0.2366608E+02  0.7546771E-02  0.1484299E+00
         21   -1    0    0  504  501  0.00000000000E+00  0.00000000000E+00  0.15493094663E+02  0.15493094663E+02  0.00000000000E+00 0.  1.
         21   -1    0    0  503  502 -0.00000000000E+00 -0.00000000000E+00 -0.80374062006E+02  0.80374062006E+02  0.00000000000E+00 0. -1.
         21    1    1    2  503  501  0.19324781756E+02 -0.13661482616E+02  0.31151723304E+01  0.23870224042E+02  0.00000000000E+00 0.  1.
         21    1    1    2  504  502 -0.19324781756E+02  0.13661482616E+02 -0.67996139673E+02  0.71996932626E+02  0.00000000000E+00 0. -1.
</event>
<event>
 4    1  0.1679763E+006  0.2010109E+02  0.7546771E-02  0.1532496E+00
         21   -1    0    0  503  501  0.00000000000E+00  0.00000000000E+00  0.25905844782E+01  0.25905844782E+01  0.00000000000E+00 0. -1.
         21   -1    0    0  504  502 -0.00000000000E+00 -0.00000000000E+00 -0.61434708942E+03  0.61434708942E+03  0.00000000000E+00 0. -1.
         21    1    1    2  503  502  0.11582025316E+02  0.16428951374E+02 -0.57232829339E+03  0.57268117585E+03  0.00000000000E+00 0. -1.
         21    1    1    2  504  501 -0.11582025316E+02 -0.16428951374E+02 -0.39428211552E+02  0.44256498052E+02  0.00000000000E+00 0. -1.
</event>
<event>
 4    1  0.1679763E+006  0.2549089E+02  0.7546771E-02  0.1463386E+00
         21   -1    0    0  504  501  0.00000000000E+00  0.00000000000E+00  0.10099054724E+03  0.10099054724E+03  0.00000000000E+00 0. -1.
         21   -1    0    0  503  502 -0.00000000000E+00 -0.00000000000E+00 -0.24144682225E+03  0.24144682225E+03  0.00000000000E+00 0.  1.
         21    1    1    2  503  501 -0.18341465147E+02  0.17702431515E+02  0.98693808765E+02  0.10193259201E+03  0.00000000000E+00 0. -1.
         21    1    1    2  504  502  0.18341465147E+02 -0.17702431515E+02 -0.23915008377E+03  0.24050477748E+03  0.00000000000E+00 0.  1.
</event>
<event>
 4    1  0.1679763E+006  0.2343705E+02  0.7546771E-02  0.1487082E+00
         21   -1    0    0  503  501  0.00000000000E+00  0.00000000000E+00  0.10581227345E+03  0.10581227345E+03  0.00000000000E+00 0.  1.
         21   -1    0    0  504  502 -0.00000000000E+00 -0.00000000000E+00 -0.83500861482E+01  0.83500861482E+01  0.00000000000E+00 0.  1.
         21    1    1    2  503  502  0.17043237220E+02  0.16087984090E+02  0.83839638532E+02  0.87053892252E+02  0.00000000000E+00 0.  1.
         21    1    1    2  504  501 -0.17043237220E+02 -0.16087984090E+02  0.13622548774E+02  0.27108467351E+02  0.00000000000E+00 0.  1.
</event>
<event>
 4    1  0.1679763E+006  0.2811446E+02  0.7546771E-02  0.1436723E+00
         21   -1    0    0  502  501  0.00000000000E+00  0.00000000000E+00  0.16097600676E+02  0.16097600676E+02  0.00000000000E+00 0. -1.
         21   -1    0    0  503  502 -0.00000000000E+00 -0.00000000000E+00 -0.12516647469E+03  0.12516647469E+03  0.00000000000E+00 0. -1.
         21    1    1    2  503  504  0.10999645355E+02  0.25873360929E+02 -0.10959604700E+03  0.11314467076E+03  0.00000000000E+00 0. -1.
         21    1    1    2  504  501 -0.10999645355E+02 -0.25873360929E+02  0.52717299085E+00  0.28119404600E+02  0.00000000000E+00 0. -1.
</event>
<event>
 4    1  0.1679763E+006  0.2353421E+02  0.7546771E-02  0.1485897E+00
         21   -1    0    0  504  501  0.00000000000E+00  0.00000000000E+00  0.25079337072E+02  0.25079337072E+02  0.00000000000E+00 0. -1.
         21   -1    0    0  503  502 -0.00000000000E+00 -0.00000000000E+00 -0.26930998125E+02  0.26930998125E+02  0.00000000000E+00 0. -1.
         21    1    1    2  503  501  0.15284548098E+02 -0.17895301352E+02 -0.11957902871E+02  0.26397929126E+02  0.00000000000E+00 0. -1.
         21    1    1    2  504  502 -0.15284548098E+02  0.17895301352E+02  0.10106241818E+02  0.25612406071E+02  0.00000000000E+00 0. -1.
</event>
<event>
 4    1  0.1679763E+006  0.7741537E+02  0.7546771E-02  0.1209978E+00
         21   -1    0    0  504  501  0.00000000000E+00  0.00000000000E+00  0.59533266816E+02  0.59533266816E+02  0.00000000000E+00 0. -1.
         21   -1    0    0  503  502 -0.00000000000E+00 -0.00000000000E+00 -0.13064231490E+03  0.13064231490E+03  0.00000000000E+00 0. -1.
         21    1    1    2  503  501  0.46216396766E+02  0.62106236164E+02 -0.81100706461E+02  0.11211808279E+03  0.00000000000E+00 0. -1.
         21    1    1    2  504  502 -0.46216396766E+02 -0.62106236164E+02  0.99916583807E+01  0.78057498920E+02  0.00000000000E+00 0. -1.
</event>
<event>
 4    1  0.1679763E+006  0.2385810E+02  0.7546771E-02  0.1481995E+00
         21   -1    0    0  502  501  0.00000000000E+00  0.00000000000E+00  0.16743365721E+02  0.16743365721E+02  0.00000000000E+00 0.  1.
         21   -1    0    0  504  502 -0.00000000000E+00 -0.00000000000E+00 -0.11437728064E+03  0.11437728064E+03  0.00000000000E+00 0.  1.
         21    1    1    2  503  501 -0.23504504135E+02  0.40923578835E+01  0.61432542827E+01  0.24636328477E+02  0.00000000000E+00 0.  1.
         21    1    1    2  504  503  0.23504504135E+02 -0.40923578835E+01 -0.10377716920E+03  0.10648431788E+03  0.00000000000E+00 0.  1.
</event>
<event>
 4    1  0.1679763E+006  0.5142212E+02  0.7546771E-02  0.1292122E+00
         21   -1    0    0  504  501  0.00000000000E+00  0.00000000000E+00  0.11139186518E+03  0.11139186518E+03  0.00000000000E+00 0. -1.
         21   -1    0    0  503  502 -0.00000000000E+00 -0.00000000000E+00 -0.15634490324E+03  0.15634490324E+03  0.00000000000E+00 0. -1.
         21    1    1    2  503  501  0.49558247963E+02  0.13719135997E+02  0.10081097081E+03  0.11316839872E+03  0.00000000000E+00 0. -1.
         21    1    1    2  504  502 -0.49558247963E+02 -0.13719135997E+02 -0.14576400886E+03  0.15456836971E+03  0.00000000000E+00 0. -1.
</event>
<event>
 4    1  0.1679763E+006  0.2098304E+02  0.7546771E-02  0.1519507E+00
         21   -1    0    0  502  501  0.00000000000E+00  0.00000000000E+00  0.81672248588E+00  0.81672248588E+00  0.00000000000E+00 0. -1.
         21   -1    0    0  503  502 -0.00000000000E+00 -0.00000000000E+00 -0.56941092068E+03  0.56941092068E+03  0.00000000000E+00 0. -1.
         21    1    1    2  503  504 -0.17533103653E+02 -0.11527289972E+02 -0.35008801490E+03  0.35071627609E+03  0.00000000000E+00 0. -1.
         21    1    1    2  504  501  0.17533103653E+02  0.11527289972E+02 -0.21850618329E+03  0.21951136708E+03  0.00000000000E+00 0. -1.
</event>
<event>
 4    1  0.1679763E+006  0.2224900E+02  0.7546771E-02  0.1502150E+00
         21   -1    0    0  504  501  0.00000000000E+00  0.00000000000E+00  0.55953145807E+01  0.55953145807E+01  0.00000000000E+00 0. -1.
         21   -1    0    0  503  502 -0.00000000000E+00 -0.00000000000E+00 -0.89609692132E+02  0.89609692132E+02  0.00000000000E+00 0. -1.
         21    1    1    2  503  501 -0.19922120621E+02  0.99059057002E+01 -0.47375445078E+02  0.52339761693E+02  0.00000000000E+00 0. -1.
         21    1    1    2  504  502  0.19922120621E+02 -0.99059057002E+01 -0.36638932473E+02  0.42865245019E+02  0.00000000000E+00 0. -1.
</event>
<event>
 4    1  0.1679763E+006  0.2263536E+02  0.7546771E-02  0.1497128E+00
         21   -1    0    0  503  501  0.00000000000E+00  0.00000000000E+00  0.61395885208E+02  0.61395885208E+02  0.00000000000E+00 0. -1.
         21   -1    0    0  504  502 -0.00000000000E+00 -0.00000000000E+00 -0.47942246047E+02  0.47942246047E+02  0.00000000000E+00 0.  1.
         21    1    1    2  503  502  0.83072911326E+01 -0.21055843944E+02 -0.42956885211E+02  0.48555675644E+02  0.00000000000E+00 0.  1.
         21    1    1    2  504  501 -0.83072911326E+01  0.21055843944E+02  0.56410524372E+02  0.60782455611E+02  0.00000000000E+00 0. -1.
</event>
<event>
 4    1  0.1679763E+006  0.2297056E+02  0.7546771E-02  0.1492868E+00
         21   -1    0    0  503  501  0.00000000000E+00  0.00000000000E+00  0.19373623956E+03  0.19373623956E+03  0.00000000000E+00 0.  1.
         21   -1    0    0  504  502 -0.00000000000E+00 -0.00000000000E+00 -0.53154400680E+02  0.53154400680E+02  0.00000000000E+00 0. -1.
         21    1    1    2  503  502  0.11744041696E+02  0.19741432871E+02  0.19053210382E+03  0.19191177471E+03  0.00000000000E+00 0.  1.
         21    1    1    2  504  501 -0.11744041696E+02 -0.19741432871E+02 -0.49950264939E+02  0.54978865528E+02  0.00000000000E+00 0. -1.
</event>
<event>
 4    1  0.1679763E+006  0.3244205E+02  0.7546771E-02  0.1399497E+00
         21   -1    0    0  504  501  0.00000000000E+00  0.00000000000E+00  0.37640457234E+01  0.37640457234E+01  0.00000000000E+00 0. -1.
         21   -1    0    0  503  502 -0.00000000000E+00 -0.00000000000E+00 -0.28456315903E+03  0.28456315903E+03  0.00000000000E+00 0. -1.
         21    1    1    2  503  501  0.30744644310E+02 -0.10356316822E+02 -0.15940838661E+03  0.16267612048E+03  0.00000000000E+00 0. -1.
         21    1    1    2  504  502 -0.30744644310E+02  0.10356316822E+02 -0.12139072669E+03  0.12565108427E+03  0.00000000000E+00 0. -1.
</event>
<event>
 4    1  0.1679763E+006  0.2154255E+02  0.7546771E-02  0.1511658E+00
         21   -1    0    0  503  501  0.00000000000E+00  0.00000000000E+00  0.73084112655E+01  0.73084112655E+01  0.00000000000E+00 0.  1.
         21   -1    0    0  504  502 -0.00000000000E+00 -0.00000000000E+00 -0.74334746867E+02  0.74334746867E+02  0.00000000000E+00 0.  1.
         21    1    1    2  503  502  0.19229197105E+01 -0.21456554894E+02 -0.49098310566E+02  0.53616466394E+02  0.00000000000E+00 0.  1.
         21    1    1    2  504  501 -0.19229197105E+01  0.21456554894E+02 -0.17928025036E+02  0.28026691739E+02  0.00000000000E+00 0.  1.
</event>
<event>
 4    1  0.1679763E+006  0.2066008E+02  0.7546771E-02  0.1524174E+00
         21   -1    0    0  504  501  0.00000000000E+00  0.00000000000E+00  0.78896045732E+02  0.78896045732E+02  0.00000000000E+00 0.  1.
         21   -1    0    0  503  502 -0.00000000000E+00 -0.00000000000E+00 -0.55253233573E+01  0.55253233573E+01  0.00000000000E+00 0.  1.
         21    1    1    2  503  501 -0.20233966057E+02 -0.41744077373E+01  0.30590993857E+02  0.36914061921E+02  0.00000000000E+00 0.  1.
         21    1    1    2  504  502  0.20233966057E+02  0.41744077373E+01  0.42779728518E+02  0.47507307168E+02  0.00000000000E+00 0.  1.
</event>
<event>
 4    1  0.1679763E+006  0.2190444E+02  0.7546771E-02  0.1506733E+00
         21   -1    0    0  503  501  0.00000000000E+00  0.00000000000E+00  0.51955634167E+00  0.51955634167E+00  0.00000000000E+00 0. -1.
         21   -1    0    0  504  502 -0.00000000000E+00 -0.00000000000E+00 -0.92975532866E+03  0.92975532866E+03  0.00000000000E+00 0. -1.
         21    1    1    2  503  502 -0.84315846109E+01  0.20216653504E+02 -0.50280306017E+03  0.50327996385E+03  0.00000000000E+00 0. -1.
         21    1    1    2  504  501  0.84315846109E+01 -0.20216653504E+02 -0.42643271215E+03  0.42699492115E+03  0.00000000000E+00 0. -1.
</event>
<event>
 4    1  0.1679763E+006  0.2992642E+02  0.7546771E-02  0.1420237E+00
         21   -1    0    0  503  501  0.00000000000E+00  0.00000000000E+00  0.64324674877E+03  0.64324674877E+03  0.00000000000E+00 0.  1.
         21   -1    0    0  504  502 -0.00000000000E+00 -0.00000000000E+00 -0.59804493296E+02  0.59804493296E+02  0.00000000000E+00 0.  1.
         21    1    1    2  503  502 -0.29638169211E+02  0.41435981030E+01  0.63913075147E+03  0.63983099953E+03  0.00000000000E+00 0.  1.
         21    1    1    2  504  501  0.29638169211E+02 -0.41435981030E+01 -0.55688496001E+02  0.63220242536E+02  0.00000000000E+00 0.  1.
</event>
<event>
 4    1  0.1679763E+006  0.2320055E+02  0.7546771E-02  0.1489995E+00
         21   -1    0    0  504  501  0.00000000000E+00  0.00000000000E+00  0.19741997631E+03  0.19741997631E+03  0.00000000000E+00 0.  1.
         21   -1    0    0  503  502 -0.00000000000E+00 -0.00000000000E+00 -0.30948730955E+01  0.30948730955E+01  0.00000000000E+00 0.  1.
         21    1    1    2  503  501 -0.15371604727E+02  0.17377552171E+02  0.13175163996E+03  0.13377877329E+03  0.00000000000E+00 0.  1.
         21    1    1    2  504  502  0.15371604727E+02 -0.17377552171E+02  0.62573463254E+02  0.66736076113E+02  0.00000000000E+00 0.  1.
</event>
<event>
 4    1  0.1679763E+006  0.3248683E+02  0.7546771E-02  0.1399148E+00
         21   -1    0    0  504  501  0.00000000000E+00  0.00000000000E+00  0.16717353502E+03  0.16717353502E+03  0.00000000000E+00 0. -1.
         21   -1    0    0  501  502 -0.00000000000E+00 -0.00000000000E+00 -0.15544270674E+02  0.15544270674E+02  0.00000000000E+00 0. -1.
         21    1    1    2  503  502 -0.14425488863E+02  0.29108408001E+02  0.54114066632E+01  0.32934441963E+02  0.00000000000E+00 0. -1.
         21    1    1    2  504  503  0.14425488863E+02 -0.29108408001E+02  0.14621785768E+03  0.14978336373E+03  0.00000000000E+00 0. -1.
</event>
<event>
 4    1  0.1679763E+006  0.2218908E+02  0.7546771E-02  0.1502940E+00
         21   -1    0    0  504  501  0.00000000000E+00  0.00000000000E+00  0.22397453145E+02  0.22397453145E+02  0.00000000000E+00 0. -1.
         21   -1    0    0  503  502 -0.00000000000E+00 -0.00000000000E+00 -0.41059464469E+02  0.41059464469E+02  0.00000000000E+00 0. -1.
         21    1    1    2  503  501 -0.21820233178E+02 -0.40289601763E+01 -0.30957962107E+02  0.38088718984E+02  0.00000000000E+00 0. -1.
         21    1    1    2  504  502  0.21820233178E+02  0.40289601763E+01  0.12295950782E+02  0.25368198629E+02  0.00000000000E+00 0. -1.
</event>
<event>
 4    1  0.1679763E+006  0.2240661E+02  0.7546771E-02  0.1500087E+00
         21   -1    0    0  502  501  0.00000000000E+00  0.00000000000E+00  0.10781164174E+04  0.10781164174E+04  0.00000000000E+00 0.  1.
         21   -1    0    0  504  502 -0.00000000000E+00 -0.00000000000E+00 -0.53856322296E+00  0.53856322296E+00  0.00000000000E+00 0.  1.
         21    1    1    2  503  501  0.21012643724E+02 -0.77797858180E+01  0.73719306720E+03  0.73753350744E+03  0.00000000000E+00 0.  1.
         21    1    1    2  504  503 -0.21012643724E+02  0.77797858180E+01  0.34038478702E+03  0.34112147323E+03  0.00000000000E+00 0.  1.
</event>
<event>
 4    1  0.1679763E+006  0.2589808E+02  0.7546771E-02  0.1459002E+00
         21   -1    0    0  504  501  0.00000000000E+00  0.00000000000E+00  0.14207127084E+02  0.14207127084E+02  0.00000000000E+00 0.  1.
         21   -1    0    0  503  502 -0.00000000000E+00 -0.00000000000E+00 -0.47461280607E+02  0.47461280607E+02  0.00000000000E+00 0.  1.
         21    1    1    2  503  501  0.18982306457E+02  0.17617676369E+02 -0.14380982435E+02  0.29623016977E+02  0.00000000000E+00 0.  1.
         21    1    1    2  504  502 -0.18982306457E+02 -0.17617676369E+02 -0.18873171088E+02  0.32045390713E+02  0.00000000000E+00 0.  1.
</event>
<event>
 4    1  0.1679763E+006  0.3328454E+02  0.7546771E-02  0.1393042E+00
         21   -1    0    0  503  501  0.00000000000E+00  0.00000000000E+00  0.76910472101E+01  0.76910472101E+01  0.00000000000E+00 0.  1.
         21   -1    0    0  504  502 -0.00000000000E+00 -0.00000000000E+00 -0.16599164210E+03  0.16599164210E+03  0.00000000000E+00 0.  1.
         21    1    1    2  503  502 -0.22912570205E+02  0.24142797567E+02 -0.11072670878E+03  0.11562121165E+03  0.00000000000E+00 0.  1.
         21    1    1    2  504  501  0.22912570205E+02 -0.24142797567E+02 -0.47573886115E+02  0.58061477659E+02  0.00000000000E+00 0.  1.
</event>
<event>
 4    1  0.1679763E+006  0.2506446E+02  0.7546771E-02  0.1468084E+00
         21   -1    0    0  503  501  0.00000000000E+00  0.00000000000E+00  0.32383386558E+03  0.32383386558E+03  0.00000000000E+00 0. -1.
         21   -1    0    0  504  502 -0.00000000000E+00 -0.00000000000E+00 -0.74634611945E+01  0.74634611945E+01  0.00000000000E+00 0. -1.
         21    1    1    2  503  502  0.13248110521E+02  0.21277097199E+02  0.30068843367E+03  0.30173127355E+03  0.00000000000E+00 0. -1.
         21    1    1    2  504  501 -0.13248110521E+02 -0.21277097199E+02  0.15681970717E+02  0.29566053222E+02  0.00000000000E+00 0. -1.
</event>
<event>
 4    1  0.1679763E+006  0.2511379E+02  0.7546771E-02  0.1467534E+00
         21   -1    0    0  504  501  0.00000000000E+00  0.00000000000E+00  0.34730101511E+02  0.34730101511E+02  0.00000000000E+00 0. -1.
         21   -1    0    0  503  502 -0.00000000000E+00 -0.00000000000E+00 -0.68619817250E+02  0.68619817250E+02  0.00000000000E+00 0.  1.
         21    1    1    2  503  501  0.21501561979E+02  0.12976344984E+02 -0.61257505539E+02  0.66205624244E+02  0.00000000000E+00 0.  1.
         21    1    1    2  504  502 -0.21501561979E+02 -0.12976344984E+02  0.27367789800E+02  0.37144294517E+02  0.00000000000E+00 0. -1.
</event>
<event>
 4    1  0.1679763E+006  0.2536881E+02  0.7546771E-02  0.1464719E+00
         21   -1    0    0  504  501  0.00000000000E+00  0.00000000000E+00  0.63335601980E+03  0.63335601980E+03  0.00000000000E+00 0.  1.
         21   -1    0    0  501  502 -0.00000000000E+00 -0.00000000000E+00 -0.14726346816E+01  0.14726346816E+01  0.00000000000E+00 0.  1.
         21    1    1    2  503  502 -0.12811858297E+02  0.21895957490E+02  0.13921662130E+03  0.14150916689E+03  0.00000000000E+00 0.  1.
         21    1    1    2  504  503  0.12811858297E+02 -0.21895957490E+02  0.49266676382E+03  0.49331948759E+03  0.00000000000E+00 0.  1.
</event>
<event>
 4    1  0.1679763E+006  0.2157573E+02  0.7546771E-02  0.1511201E+00
         21   -1    0    0  504  501  0.00000000000E+00  0.00000000000E+00  0.13174092956E+03  0.13174092956E+03  0.00000000000E+00 0.  1.
         21   -1    0    0  503  502 -0.00000000000E+00 -0.00000000000E+00 -0.39221930163E+01  0.39221930163E+01  0.00000000000E+00 0.  1.
         21    1    1    2  503  501 -0.47425756173E+00 -0.21570514170E+02  0.42556919660E+02  0.47713765443E+02  0.00000000000E+00 0.  1.
         21    1    1    2  504  502  0.47425756173E+00  0.21570514170E+02  0.85261816885E+02  0.87949357134E+02  0.00000000000E+00 0.  1.
</event>
<event>
 4    1  0.1679763E+006  0.2445999E+02  0.7546771E-02  0.1474936E+00
         21   -1    0    0  504  501  0.00000000000E+00  0.00000000000E+00  0.15406091744E+03  0.15406091744E+03  0.00000000000E+00 0.  1.
         21   -1    0    0  501  502 -0.00000000000E+00 -0.00000000000E+00 -0.65530972983E+01  0.65530972983E+01  0.00000000000E+00 0.  1.
         21    1    1    2  503  502  0.52878938512E+01 -0.23881563509E+02  0.22496639088E+02  0.33232358737E+02  0.00000000000E+00 0.  1.
         21    1    1    2  504  503 -0.52878938512E+01  0.23881563509E+02  0.12501118105E+03  0.12738165600E+03  0.00000000000E+00 0.  1.
</event>
<event>
 4    1  0.1679763E+006  0.2172799E+02  0.7546771E-02  0.1509120E+00
         21   -1    0    0  503  501  0.00000000000E+00  0.00000000000E+00  0.10540384494E+03  0.10540384494E+03  0.00000000000E+00 0. -1.
         21   -1    0    0  504  502 -0.00000000000E+00 -0.00000000000E+00 -0.44790190011E+01  0.44790190011E+01  0.00000000000E+00 0. -1.
         21    1    1    2  503  502  0.19055160145E+02  0.10440608653E+02  0.50512161628E+02  0.54987124943E+02  0.00000000000E+00 0. -1.
         21    1    1    2  504  501 -0.19055160145E+02 -0.10440608653E+02  0.50412664309E+02  0.54895738996E+02  0.00000000000E+00 0. -1.
</event>
<event>
 4    1  0.1679763E+006  0.2135378E+02  0.7546771E-02  0.1514273E+00
         21   -1    0    0  504  501  0.00000000000E+00  0.00000000000E+00  0.14915518156E+03  0.14915518156E+03  0.00000000000E+00 0.  1.
         21   -1    0    0  503  502 -0.00000000000E+00 -0.00000000000E+00 -0.13192372385E+03  0.13192372385E+03  0.00000000000E+00 0. -1.
         21    1    1    2  503  501 -0.20410896225E+02 -0.62752941691E+01  0.14751725365E+03  0.14905476888E+03  0.00000000000E+00 0.  1.
         21    1    1    2  504  502  0.20410896225E+02  0.62752941691E+01 -0.13028579594E+03  0.13202413652E+03  0.00000000000E+00 0. -1.
</event>
<event>
 4    1  0.1679763E+006  0.2819768E+02  0.7546771E-02  0.1435934E+00
         21   -1    0    0  502  501  0.00000000000E+00  0.00000000000E+00  0.10359785762E+02  0.10359785762E+02  0.00000000000E+00 0. -1.
         21   -1    0    0  503  502 -0.00000000000E+00 -0.00000000000E+00 -0.11257327926E+03  0.11257327926E+03  0.00000000000E+00 0. -1.
         21    1    1    2  503  504 -0.23538791342E+02 -0.15525287368E+02 -0.85780930591E+02  0.90296607349E+02  0.00000000000E+00 0. -1.
         21    1    1    2  504  501  0.23538791342E+02  0.15525287368E+02 -0.16432562906E+02  0.32636457672E+02  0.00000000000E+00 0. -1.
</event>
<event>
 4    1  0.1679763E+006  0.3220224E+02  0.7546771E-02  0.1401377E+00
         21   -1    0    0  503  501  0.00000000000E+00  0.00000000000E+00  0.17525857950E+02  0.17525857950E+02  0.00000000000E+00 0.  1.
         21   -1    0    0  504  502 -0.00000000000E+00 -0.00000000000E+00 -0.82712170361E+02  0.82712170361E+02  0.00000000000E+00 0.  1.
         21    1    1    2  503  502  0.20449806612E+02 -0.24875487959E+02 -0.59332568733E+02  0.67508060290E+02  0.00000000000E+00 0.  1.
         21    1    1    2  504  501 -0.20449806612E+02  0.24875487959E+02 -0.58537436775E+01  0.32729968021E+02  0.00000000000E+00 0.  1.
</event>
<event>
 4    1  0.1679763E+006  0.2842597E+02  0.7546771E-02  0.1433787E+00
         21   -1    0    0  504  501  0.00000000000E+00  0.00000000000E+00  0.13278774775E+02  0.13278774775E+02  0.00000000000E+00 0. -1.
         21   -1    0    0  503  502 -0.00000000000E+00 -0.00000000000E+00 -0.64730385336E+02  0.64730385336E+02  0.00000000000E+00 0. -1.
         21    1    1    2  503  501  0.22614308053E+02  0.17222913770E+02 -0.16177964190E+02  0.32707219581E+02  0.00000000000E+00 0. -1.
         21    1    1    2  504  502 -0.22614308053E+02 -0.17222913770E+02 -0.35273646371E+02  0.45301940530E+02  0.00000000000E+00 0. -1.
</event>
<event>
 4    1  0.1679763E+006  0.3976735E+02  0.7546771E-02  0.1349855E+00
         21   -1    0    0  503  501  0.00000000000E+00  0.00000000000E+00  0.11854061898E+04  0.11854061898E+04  0.00000000000E+00 0.  1.
         21   -1    0    0  504  502 -0.00000000000E+00 -0.00000000000E+00 -0.10255563738E+02  0.10255563738E+02  0.00000000000E+00 0. -1.
         21    1    1    2  503  502 -0.27804352278E+02  0.28431671909E+02  0.11451676582E+04  0.11458579350E+04  0.00000000000E+00 0.  1.
         21    1    1    2  504  501  0.27804352278E+02 -0.28431671909E+02  0.29982967884E+02  0.49803818491E+02  0.00000000000E+00 0. -1.
</event>
<event>
 4    1  0.1679763E+006  0.2719606E+02  0.7546771E-02  0.1445649E+00
         21   -1    0    0  502  501  0.00000000000E+00  0.00000000000E+00  0.14419600121E+04  0.14419600121E+04  0.00000000000E+00 0.  1.
         21   -1    0    0  503  502 -0.00000000000E+00 -0.00000000000E+00 -0.66259961536E+00  0.66259961536E+00  0.00000000000E+00 0.  1.
         21    1    1    2  503  504  0.24644954375E+02  0.11500090466E+02  0.37783146551E+03  0.37880897850E+03  0.00000000000E+00 0.  1.
         21    1    1    2  504  501 -0.24644954375E+02 -0.11500090466E+02  0.10634659470E+04  0.10638136332E+04  0.00000000000E+00 0.  1.
</event>
<event>
 4    1  0.1679763E+006  0.2548050E+02  0.7546771E-02  0.1463499E+00
         21   -1    0    0  502  501  0.00000000000E+00  0.00000000000E+00  0.33270960384E+02  0.33270960384E+02  0.00000000000E+00 0.  1.
         21   -1    0    0  503  502 -0.00000000000E+00 -0.00000000000E+00 -0.36670495096E+02  0.36670495096E+02  0.00000000000E+00 0. -1.
         21    1    1    2  503  504  0.25052153547E+02  0.46524970306E+01 -0.25619595543E+02  0.36133361341E+02  0.00000000000E+00 0. -1.
         21    1    1    2  504  501 -0.25052153547E+02 -0.46524970306E+01  0.22220060832E+02  0.33808094140E+02  0.00000000000E+00 0.  1.
</event>
<event>
 4    1  0.1679763E+006  0.2796403E+02  0.7546771E-02  0.1438157E+00
         21   -1    0    0  502  501  0.00000000000E+00  0.00000000000E+00  0.22212678325E+02  0.22212678325E+02  0.00000000000E+00 0.  1.
         21   -1    0    0  504  502 -0.00000000000E+00 -0.00000000000E+00 -0.53526420094E+02  0.53526420094E+02  0.00000000000E+00 0.  1.
         21    1    1    2  503  501  0.18246758067E+02  0.21190633969E+02  0.64991130224E+01  0.28709329809E+02  0.00000000000E+00 0.  1.
         21    1    1    2  504  503 -0.18246758067E+02 -0.21190633969E+02 -0.37812854791E+02  0.47029768609E+02  0.00000000000E+00 0.  1.
</event>
<event>
 4    1  0.1679763E+006  0.2514144E+02  0.7546771E-02  0.1467227E+00
         21   -1    0    0  504  501  0.00000000000E+00  0.00000000000E+00  0.41752199652E+02  0.41752199652E+02  0.00000000000E+00 0. -1.
         21   -1    0    0  501  502 -0.00000000000E+00 -0.00000000000E+00 -0.31986101752E+02  0.31986101752E+02  0.00000000000E+00 0. -1.
         21    1    1    2  503  502 -0.23492521845E+02  0.89550700236E+01 -0.21874321791E+02  0.33325332941E+02  0.00000000000E+00 0. -1.
         21    1    1    2  504  503  0.23492521845E+02 -0.89550700236E+01  0.31640419691E+02  0.40412968463E+02  0.00000000000E+00 0. -1.
</event>
<event>
 4    1  0.1679763E+006  0.2213332E+02  0.7546771E-02  0.1503678E+00
         21   -1    0    0  503  501  0.00000000000E+00  0.00000000000E+00  0.20808206887E+02  0.20808206887E+02  0.00000000000E+00 0.  1.
         21   -1    0    0  504  502 -0.00000000000E+00 -0.00000000000E+00 -0.73031905209E+02  0.73031905209E+02  0.00000000000E+00 0. -1.
         21    1    1    2  503  502  0.17475966774E+02 -0.13582134684E+02 -0.64735821311E+02  0.68414986356E+02  0.00000000000E+00 0. -1.
         21    1    1    2  504  501 -0.17475966774E+02  0.13582134684E+02  0.12512122989E+02  0.25425125741E+02  0.00000000000E+00 0.  1.
</event>
<event>
 4    1  0.1679763E+006  0.2019417E+02  0.7546771E-02  0.1531088E+00
         21   -1    0    0  503  501  0.00000000000E+00  0.00000000000E+00  0.40966335801E+01  0.40966335801E+01  0.00000000000E+00 0.  1.
         21   -1    0    0  504  502 -0.00000000000E+00 -0.00000000000E+00 -0.17621858612E+03  0.17621858612E+03  0.00000000000E+00 0.  1.
         21    1    1    2  503  502 -0.46914254780E+01  0.19641666723E+02 -0.14553069136E+03  0.14692510566E+03  0.00000000000E+00 0.  1.
         21    1    1    2  504  501  0.46914254780E+01 -0.19641666723E+02 -0.26591261183E+02  0.33390114046E+02  0.00000000000E+00 0.  1.
</event>
<event>
 4    1  0.1679763E+006  0.2369393E+02  0.7546771E-02  0.1483964E+00
         21   -1    0    0  503  501  0.00000000000E+00  0.00000000000E+00  0.15924101324E+02  0.15924101324E+02  0.00000000000E+00 0.  1.
         21   -1    0    0  501  502 -0.00000000000E+00 -0.00000000000E+00 -0.40444339754E+02  0.40444339754E+02  0.00000000000E+00 0.  1.
         21    1    1    2  503  504  0.15321570528E+02  0.18073512748E+02 -0.21643840122E+01  0.23792581715E+02  0.00000000000E+00 0.  1.
         21    1    1    2  504  502 -0.15321570528E+02 -0.18073512748E+02 -0.22355854418E+02  0.32575859363E+02  0.00000000000E+00 0.  1.
</event>
<event>
 4    1  0.1679763E+006  0.2977127E+02  0.7546771E-02  0.1421595E+00
         21   -1    0    0  504  501  0.00000000000E+00  0.00000000000E+00  0.33279407755E+02  0.33279407755E+02  0.00000000000E+00 0.  1.
         21   -1    0    0  501  502 -0.00000000000E+00 -0.00000000000E+00 -0.73291783502E+02  0.73291783502E+02  0.00000000000E+00 0.  1.
         21    1    1    2  503  502 -0.20599812794E+02  0.21493627676E+02 -0.62521873391E+02  0.69248198317E+02  0.00000000000E+00 0.  1.
         21    1    1    2  504  503  0.20599812794E+02 -0.21493627676E+02  0.22509497644E+02  0.37322992940E+02  0.00000000000E+00 0.  1.
</event>
<event>
 4    1  0.1679763E+006  0.2642686E+02  0.7546771E-02  0.1453452E+00
         21   -1    0    0  503  501  0.00000000000E+00  0.00000000000E+00  0.21779765150E+03  0.21779765150E+03  0.00000000000E+00 0.  1.
         21   -1    0    0  504  502 -0.00000000000E+00 -0.00000000000E+00 -0.56290449617E+01  0.56290449617E+01  0.00000000000E+00 0. -1.
         21    1    1    2  503  502  0.24924547440E+02 -0.87832679358E+01  0.17937000197E+03  0.18130630565E+03  0.00000000000E+00 0.  1.
         21    1    1    2  504  501 -0.24924547440E+02  0.87832679358E+01  0.32798604567E+02  0.42120390813E+02  0.00000000000E+00 0. -1.
</event>
<event>
 4    1  0.1679763E+006  0.2565702E+02  0.7546771E-02  0.1461586E+00
         21   -1    0    0  502  501  0.00000000000E+00  0.00000000000E+00  0.13231204615E+03  0.13231204615E+03  0.00000000000E+00 0.  1.
         21   -1    0    0  503  502 -0.00000000000E+00 -0.00000000000E+00 -0.19344677724E+02  0.19344677724E+02  0.00000000000E+00 0. -1.
         21    1    1    2  503  504  0.25412385789E+02  0.35345799928E+01 -0.88701379945E+01  0.27147043214E+02  0.00000000000E+00 0. -1.
         21    1    1    2  504  501 -0.25412385789E+02 -0.35345799928E+01  0.12183750642E+03  0.12450968066E+03  0.00000000000E+00 0.  1.
</event>
<event>
 4    1  0.1679763E+006  0.2763603E+02  0.7546771E-02  0.1441322E+00
         21   -1    0    0  504  501  0.00000000000E+00  0.00000000000E+00  0.65236162388E+03  0.65236162388E+03  0.00000000000E+00 0. -1.
         21   -1    0    0  503  502 -0.00000000000E+00 -0.00000000000E+00 -0.43632506932E+01  0.43632506932E+01  0.00000000000E+00 0.  1.
         21    1    1    2  503  501 -0.70027550806E+01 -0.26734091062E+02  0.43123521691E+02  0.51219023094E+02  0.00000000000E+00 0.  1.
         21    1    1    2  504  502  0.70027550806E+01  0.26734091062E+02  0.60487485149E+03  0.60550585147E+03  0.00000000000E+00 0. -1.
</event>
<event>
 4    1  0.1679763E+006  0.2268973E+02  0.7546771E-02  0.1496431E+00
         21   -1    0    0  504  501  0.00000000000E+00  0.00000000000E+00  0.32825277483E+02  0.32825277483E+02  0.00000000000E+00 0.  1.
         21   -1    0    0  503  502 -0.00000000000E+00 -0.00000000000E+00 -0.50964819153E+02  0.50964819153E+02  0.00000000000E+00 0. -1.
         21    1    1    2  503  501 -0.22630910876E+02  0.16326446178E+01 -0.43927434993E+02  0.49441310668E+02  0.00000000000E+00 0. -1.
         21    1    1    2  504  502  0.22630910876E+02 -0.16326446178E+01  0.25787893322E+02  0.34348785969E+02  0.00000000000E+00 0.  1.
</event>
<event>
 4    1  0.1679763E+006  0.4571977E+02  0.7546771E-02  0.1317879E+00
         21   -1    0    0  503  501  0.00000000000E+00  0.00000000000E+00  0.18445526448E+02  0.18445526448E+02  0.00000000000E+00 0.  1.
         21   -1    0    0  504  502 -0.00000000000E+00 -0.00000000000E+00 -0.90552273459E+03  0.90552273459E+03  0.00000000000E+00 0.  1.
         21    1    1    2  503  502  0.41958052003E+02 -0.18160924418E+02 -0.11428123290E+02  0.47126418340E+02  0.00000000000E+00 0.  1.
         21    1    1    2  504  501 -0.41958052003E+02  0.18160924418E+02 -0.87564908485E+03  0.87684184270E+03  0.00000000000E+00 0.  1.
</event>
<event>
 4    1  0.1679763E+006  0.3031439E+02  0.7546771E-02  0.1416884E+00
         21   -1    0    0  502  501  0.00000000000E+00  0.00000000000E+00  0.14080193449E+03  0.14080193449E+03  0.00000000000E+00 0.  1.
         21   -1    0    0  503  502 -0.00000000000E+00 -0.00000000000E+00 -0.51502376322E+02  0.51502376322E+02  0.00000000000E+00 0.  1.
         21    1    1    2  503  504  0.11725762594E+02  0.27954767209E+02 -0.45203631466E+02  0.54427298443E+02  0.00000000000E+00 0.  1.
         21    1    1    2  504  501 -0.11725762594E+02 -0.27954767209E+02  0.13450318963E+03  0.13787701236E+03  0.00000000000E+00 0.  1.
</event>
<event>
 4    1  0.1679763E+006  0.2380186E+02  0.7546771E-02  0.1482667E+00
         21   -1    0    0  503  501  0.00000000000E+00  0.00000000000E+00  0.30814211139E+03  0.30814211139E+03  0.00000000000E+00 0.  1.
         21   -1    0    0  504  502 -0.00000000000E+00 -0.00000000000E+00 -0.52123294881E+01  0.52123294881E+01  0.00000000000E+00 0.  1.
         21    1    1    2  503  502  0.23475512427E+02  0.39279562406E+01  0.25412943400E+02  0.34818762416E+02  0.00000000000E+00 0.  1.
         21    1    1    2  504  501 -0.23475512427E+02 -0.39279562406E+01  0.27751683851E+03  0.27853567847E+03  0.00000000000E+00 0.  1.
</event>
<event>
 4    1  0.1679763E+006  0.2233550E+02  0.7546771E-02  0.1501015E+00
         21   -1    0    0  502  501  0.00000000000E+00  0.00000000000E+00  0.60644497716E+02  0.60644497716E+02  0.00000000000E+00 0.  1.
         21   -1    0    0  504  502 -0.00000000000E+00 -0.00000000000E+00 -0.17286376749E+02  0.17286376749E+02  0.00000000000E+00 0.  1.
         21    1    1    2  503  501  0.14871472969E+02 -0.16664742392E+02  0.49888578934E+02  0.54660265781E+02  0.00000000000E+00 0.  1.
         21    1    1    2  504  503 -0.14871472969E+02  0.16664742392E+02 -0.65304579661E+01  0.23270608684E+02  0.00000000000E+00 0.  1.
</event>
<event>
 4    1  0.1679763E+006  0.2346037E+02  0.7546771E-02  0.1486797E+00
         21   -1    0    0  504  501  0.00000000000E+00  0.00000000000E+00  0.14579095073E+02  0.14579095073E+02  0.00000000000E+00 0.  1.
         21   -1    0    0  503  502 -0.00000000000E+00 -0.00000000000E+00 -0.57709756768E+02  0.57709756768E+02  0.00000000000E+00 0.  1.
         21    1    1    2  503  501 -0.20664501890E+02  0.11107088395E+02 -0.42820926418E+02  0.48826435364E+02  0.00000000000E+00 0.  1.
         21    1    1    2  504  502  0.20664501890E+02 -0.11107088395E+02 -0.30973527701E+00  0.23462416477E+02  0.00000000000E+00 0.  1.
</event>
<event>
 4    1  0.1679763E+006  0.2011239E+02  0.7546771E-02  0.1532324E+00
         21   -1    0    0  504  501  0.00000000000E+00  0.00000000000E+00  0.52184242841E+03  0.52184242841E+03  0.00000000000E+00 0. -1.
         21   -1    0    0  501  502 -0.00000000000E+00 -0.00000000000E+00 -0.16086796031E+01  0.16086796031E+01  0.00000000000E+00 0. -1.
         21    1    1    2  503  502  0.16289008759E+02 -0.11797313760E+02  0.71721282811E+02  0.74487924031E+02  0.00000000000E+00 0. -1.
         21    1    1    2  504  503 -0.16289008759E+02  0.11797313760E+02  0.44851246599E+03  0.44896318398E+03  0.00000000000E+00 0. -1.
</event>
<event>
 4    1  0.1679763E+006  0.2384963E+02  0.7546771E-02  0.1482096E+00
         21   -1    0    0  503  501  0.00000000000E+00  0.00000000000E+00  0.10097626005E+03  0.10097626005E+03  0.00000000000E+00 0.  1.
         21   -1    0    0  504  502 -0.00000000000E+00 -0.00000000000E+00 -0.20674809208E+02  0.20674809208E+02  0.00000000000E+00 0.  1.
         21    1    1    2  503  502 -0.78278306978E+01 -0.22528423880E+02  0.92032452532E+02  0.95072483585E+02  0.00000000000E+00 0.  1.
         21    1    1    2  504  501  0.78278306978E+01  0.22528423880E+02 -0.11731001687E+02  0.26578585675E+02  0.00000000000E+00 0.  1.
</event>
<event>
 4    1  0.1679763E+006  0.2141716E+02  0.7546771E-02  0.1513391E+00
         21   -1    0    0  504  501  0.00000000000E+00  0.00000000000E+00  0.66451822188E+02  0.66451822188E+02  0.00000000000E+00 0. -1.
         21   -1    0    0  503  502 -0.00000000000E+00 -0.00000000000E+00 -0.10794000893E+02  0.10794000893E+02  0.00000000000E+00 0. -1.
         21    1    1    2  503  501  0.15200875061E+02  0.15087357095E+02  0.46387952460E+01  0.21913771196E+02  0.00000000000E+00 0. -1.
         21    1    1    2  504  502 -0.15200875061E+02 -0.15087357095E+02  0.51019026049E+02  0.55332051884E+02  0.00000000000E+00 0. -1.
</event>
<event>
 4    1  0.1679763E+006  0.2856023E+02  0.7546771E-02  0.1432535E+00
         21   -1    0    0  502  501  0.00000000000E+00  0.00000000000E+00  0.35463274102E+03  0.35463274102E+03  0.00000000000E+00 0.  1.
         21   -1    0    0  504  502 -0.00000000000E+00 -0.00000000000E+00 -0.44446514690E+02  0.44446514690E+02  0.00000000000E+00 0.  1.
         21    1    1    2  503  501  0.34521822091E+01 -0.28350827455E+02  0.34940111038E+03  0.35056643153E+03  0.00000000000E+00 0.  1.
         21    1    1    2  504  503 -0.34521822091E+01  0.28350827455E+02 -0.39214884048E+02  0.48512824184E+02  0.00000000000E+00 0.  1.
</event>
<event>
 4    1  0.1679763E+006  0.2566481E+02  0.7546771E-02  0.1461502E+00
         21   -1    0    0  504  501  0.00000000000E+00  0.00000000000E+00  0.10124648140E+02  0.10124648140E+02  0.00000000000E+00 0. -1.
         21   -1    0    0  503  502 -0.00000000000E+00 -0.00000000000E+00 -0.65090303807E+02  0.65090303807E+02  0.00000000000E+00 0. -1.
         21    1    1    2  503  501  0.25555006694E+02  0.23715479499E+01 -0.28329236329E+02  0.38226015196E+02  0.00000000000E+00 0. -1.
         21    1    1    2  504  502 -0.25555006694E+02 -0.23715479499E+01 -0.26636419339E+02  0.36988936751E+02  0.00000000000E+00 0. -1.
</event>
<event>
 4    1  0.1679763E+006  0.2087405E+02  0.7546771E-02  0.1521071E+00
         21   -1    0    0  504  501  0.00000000000E+00  0.00000000000E+00  0.92728317510E+02  0.92728317510E+02  0.00000000000E+00 0.  1.
         21   -1    0    0  501  502 -0.00000000000E+00 -0.00000000000E+00 -0.49171137319E+02  0.49171137319E+02  0.00000000000E+00 0. -1.
         21    1    1    2  503  502  0.72857296597E+01  0.19561290611E+02 -0.45695935236E+02  0.50237878580E+02  0.00000000000E+00 0. -1.
         21    1    1    2  504  503 -0.72857296597E+01 -0.19561290611E+02  0.89253115427E+02  0.91661576249E+02  0.00000000000E+00 0.  1.
</event>
<event>
 4    1  0.1679763E+006  0.2391525E+02  0.7546771E-02  0.1481314E+00
         21   -1    0    0  504  501  0.00000000000E+00  0.00000000000E+00  0.51250478022E+03  0.51250478022E+03  0.00000000000E+00 0.  1.
         21   -1    0    0  501  502 -0.00000000000E+00 -0.00000000000E+00 -0.15542193646E+01  0.15542193646E+01  0.00000000000E+00 0.  1.
         21    1    1    2  503  502  0.18370763756E+02  0.15311897808E+02  0.11898924498E+03  0.12136877522E+03  0.00000000000E+00 0.  1.
         21    1    1    2  504  503 -0.18370763756E+02 -0.15311897808E+02  0.39196131588E+03  0.39269022437E+03  0.00000000000E+00 0.  1.
</event>
<event>
 4    1  0.1679763E+006  0.2570479E+02  0.7546771E-02  0.1461071E+00
         21   -1    0    0  503  501  0.00000000000E+00  0.00000000000E+00  0.92635122589E+01  0.92635122589E+01  0.00000000000E+00 0.  1.
         21   -1    0    0  501  502 -0.00000000000E+00 -0.00000000000E+00 -0.25767216372E+03  0.25767216372E+03  0.00000000000E+00 0.  1.
         21    1    1    2  503  504 -0.91911753780E+01 -0.24005380065E+02 -0.10702653901E+02  0.27843900183E+02  0.00000000000E+00 0.  1.
         21    1    1    2  504  502  0.91911753780E+01  0.24005380065E+02 -0.23770599756E+03  0.23909177580E+03  0.00000000000E+00 0.  1.
</event>
<event>
 4    1  0.1679763E+006  0.3723642E+02  0.7546771E-02  0.1365488E+00
         21   -1    0    0  504  501  0.00000000000E+00  0.00000000000E+00  0.13825802434E+02  0.13825802434E+02  0.00000000000E+00 0. -1.
         21   -1    0    0  503  502 -0.00000000000E+00 -0.00000000000E+00 -0.31211456297E+03  0.31211456297E+03  0.00000000000E+00 0. -1.
         21    1    1    2  503  501 -0.37204042244E+02 -0.15525962698E+01 -0.14885771195E+02  0.40101589725E+02  0.00000000000E+00 0. -1.
         21    1    1    2  504  502  0.37204042244E+02  0.15525962698E+01 -0.28340298934E+03  0.28583877568E+03  0.00000000000E+00 0. -1.
</event>
<event>
 4    1  0.1679763E+006  0.3095524E+02  0.7546771E-02  0.1411473E+00
         21   -1    0    0  504  501  0.00000000000E+00  0.00000000000E+00  0.13096341407E+02  0.13096341407E+02  0.00000000000E+00 0. -1.
         21   -1    0    0  503  502 -0.00000000000E+00 -0.00000000000E+00 -0.15114296483E+03  0.15114296483E+03  0.00000000000E+00 0. -1.
         21    1    1    2  503  501 -0.49119244361E-01 -0.30955204862E+02 -0.12800701070E+03  0.13169670424E+03  0.00000000000E+00 0. -1.
         21    1    1    2  504  502  0.49119244361E-01  0.30955204862E+02 -0.10039612723E+02  0.32542601992E+02  0.00000000000E+00 0. -1.
</event>
<event>
 4    1  0.1679763E+006  0.2598237E+02  0.7546771E-02  0.1458107E+00
         21   -1    0    0  502  501  0.00000000000E+00  0.00000000000E+00  0.26805529303E+03  0.26805529303E+03  0.00000000000E+00 0.  1.
         21   -1    0    0  503  502 -0.00000000000E+00 -0.00000000000E+00 -0.40560393625E+01  0.40560393625E+01  0.00000000000E+00 0.  1.
         21    1    1    2  503  504 -0.25970834656E+02  0.77427439725E+00  0.48230152962E+02  0.54783495766E+02  0.00000000000E+00 0.  1.
         21    1    1    2  504  501  0.25970834656E+02 -0.77427439725E+00  0.21576910070E+03  0.21732783662E+03  0.00000000000E+00 0.  1.
</event>
<event>
 4    1  0.1679763E+006  0.3310725E+02  0.7546771E-02  0.1394381E+00
         21   -1    0    0  503  501  0.00000000000E+00  0.00000000000E+00  0.14248382834E+03  0.14248382834E+03  0.00000000000E+00 0. -1.
         21   -1    0    0  504  502 -0.00000000000E+00 -0.00000000000E+00 -0.94987162274E+01  0.94987162274E+01  0.00000000000E+00 0. -1.
         21    1    1    2  503  502 -0.16040194586E+02 -0.28962082977E+02  0.99627640197E+02  0.10498455498E+03  0.00000000000E+00 0. -1.
         21    1    1    2  504  501  0.16040194586E+02  0.28962082977E+02  0.33357471911E+02  0.46997989585E+02  0.00000000000E+00 0. -1.
</event>
<event>
 4    1  0.1679763E+006  0.2222829E+02  0.7546771E-02  0.1502423E+00
         21   -1    0    0  503  501  0.00000000000E+00  0.00000000000E+00  0.14251340641E+03  0.14251340641E+03  0.00000000000E+00 0.  1.
         21   -1    0    0  501  502 -0.00000000000E+00 -0.00000000000E+00 -0.16008037070E+02  0.16008037070E+02  0.00000000000E+00 0.  1.
         21    1    1    2  503  504  0.10173787017E+02  0.19763372998E+02  0.13340715638E+03  0.13524631687E+03  0.00000000000E+00 0.  1.
         21    1    1    2  504  502 -0.10173787017E+02 -0.19763372998E+02 -0.69017870348E+01  0.23275126612E+02  0.00000000000E+00 0.  1.
</event>
<event>
 4    1  0.1679763E+006  0.2309659E+02  0.7546771E-02  0.1491289E+00
         21   -1    0    0  503  501  0.00000000000E+00  0.00000000000E+00  0.70405843444E+02  0.70405843444E+02  0.00000000000E+00 0. -1.
         21   -1    0    0  501  502 -0.00000000000E+00 -0.00000000000E+00 -0.30254493866E+02  0.30254493866E+02  0.00000000000E+00 0.  1.
         21    1    1    2  503  504  0.12120517302E+02 -0.19660757753E+02  0.63650203798E+02  0.67711156974E+02  0.00000000000E+00 0. -1.
         21    1    1    2  504  502 -0.12120517302E+02  0.19660757753E+02 -0.23498854221E+02  0.32949180336E+02  0.00000000000E+00 0.  1.
</event>
<event>
 4    1  0.1679763E+006  0.2506967E+02  0.7546771E-02  0.1468025E+00
         21   -1    0    0  504  501  0.00000000000E+00  0.00000000000E+00  0.18929991616E+02  0.18929991616E+02  0.00000000000E+00 0. -1.
         21   -1    0    0  503  502 -0.00000000000E+00 -0.00000000000E+00 -0.37013281608E+02  0.37013281608E+02  0.00000000000E+00 0. -1.
         21    1    1    2  503  501 -0.11958840832E+02 -0.22033486026E+02 -0.64247861198E-01  0.25069752857E+02  0.00000000000E+00 0. -1.
         21    1    1    2  504  502  0.11958840832E+02  0.22033486026E+02 -0.18019042131E+02  0.30873520367E+02  0.00000000000E+00 0. -1.
</event>
<event>
 4    1  0.1679763E+006  0.2036175E+02  0.7546771E-02  0.1528576E+00
         21   -1    0    0  504  501  0.00000000000E+00  0.00000000000E+00  0.28199929652E+02  0.28199929652E+02  0.00000000000E+00 0. -1.
         21   -1    0    0  501  502 -0.00000000000E+00 -0.00000000000E+00 -0.69876349554E+02  0.69876349554E+02  0.00000000000E+00 0.  1.
         21    1    1    2  503  502 -0.13242511709E+02 -0.15467282068E+02 -0.64413141706E+02  0.67554820372E+02  0.00000000000E+00 0.  1.
         21    1    1    2  504  503  0.13242511709E+02  0.15467282068E+02  0.22736721805E+02  0.30521458834E+02  0.00000000000E+00 0. -1.
</event>
<event>
 4    1  0.1679763E+006  0.2773129E+02  0.7546771E-02  0.1440397E+00
         21   -1    0    0  502  501  0.00000000000E+00  0.00000000000E+00  0.69319301639E+02  0.69319301639E+02  0.00000000000E+00 0. -1.
         21   -1    0    0  503  502 -0.00000000000E+00 -0.00000000000E+00 -0.13751844010E+03  0.13751844010E+03  0.00000000000E+00 0.  1.
         21    1    1    2  503  504  0.64381971503E+01  0.26973583592E+02 -0.13325920782E+03  0.13611407371E+03  0.00000000000E+00 0.  1.
         21    1    1    2  504  501 -0.64381971503E+01 -0.26973583592E+02  0.65060069357E+02  0.70723668026E+02  0.00000000000E+00 0. -1.
</event>
<event>
 4    1  0.1679763E+006  0.2200029E+02  0.7546771E-02  0.1505448E+00
         21   -1    0    0  502  501  0.00000000000E+00  0.00000000000E+00  0.95442852251E+01  0.95442852251E+01  0.00000000000E+00 0. -1.
         21   -1    0    0  503  502 -0.00000000000E+00 -0.00000000000E+00 -0.56794415403E+02  0.56794415403E+02  0.00000000000E+00 0.  1.
         21    1    1    2  503  504  0.96337420086E+01 -0.19778870875E+02 -0.34479600566E+02  0.40900557128E+02  0.00000000000E+00 0.  1.
         21    1    1    2  504  501 -0.96337420086E+01  0.19778870875E+02 -0.12770529611E+02  0.25438143500E+02  0.00000000000E+00 0. -1.
</event>
<event>
 4    1  0.1679763E+006  0.2485068E+02  0.7546771E-02  0.1470481E+00
         21   -1    0    0  504  501  0.00000000000E+00  0.00000000000E+00  0.17224996915E+02  0.17224996915E+02  0.00000000000E+00 0. -1.
         21   -1    0    0  501  502 -0.00000000000E+00 -0.00000000000E+00 -0.43320427231E+02  0.43320427231E+02  0.00000000000E+00 0. -1.
         21    1    1    2  503  502  0.19388167928E+02 -0.15545264204E+02 -0.25616980976E+02  0.35690138821E+02  0.00000000000E+00 0. -1.
         21    1    1    2  504  503 -0.19388167928E+02  0.15545264204E+02 -0.47844934056E+00  0.24855285324E+02  0.00000000000E+00 0. -1.
</event>
<event>
 4    1  0.1679763E+006  0.2627628E+02  0.7546771E-02  0.1455017E+00
         21   -1    0    0  504  501  0.00000000000E+00  0.00000000000E+00  0.83743771293E+02  0.83743771293E+02  0.00000000000E+00 0.  1.
         21   -1    0    0  501  502 -0.00000000000E+00 -0.00000000000E+00 -0.14224229022E+02  0.14224229022E+02  0.00000000000E+00 0.  1.
         21    1    1    2  503  502 -0.15558869002E+02  0.21174623183E+02  0.30003175627E+01  0.26447022083E+02  0.00000000000E+00 0.  1.
         21    1    1    2  504  503  0.15558869002E+02 -0.21174623183E+02  0.66519224709E+02  0.71520978233E+02  0.00000000000E+00 0.  1.
</event>
<event>
 4    1  0.1679763E+006  0.2240962E+02  0.7546771E-02  0.1500048E+00
         21   -1    0    0  502  501  0.00000000000E+00  0.00000000000E+00  0.63426048881E+02  0.63426048881E+02  0.00000000000E+00 0.  1.
         21   -1    0    0  504  502 -0.00000000000E+00 -0.00000000000E+00 -0.20896139649E+03  0.20896139649E+03  0.00000000000E+00 0. -1.
         21    1    1    2  503  501 -0.21739268515E+02 -0.54401568623E+01  0.60820878917E+02  0.64817979099E+02  0.00000000000E+00 0.  1.
         21    1    1    2  504  503  0.21739268515E+02  0.54401568623E+01 -0.20635622652E+03  0.20756946627E+03  0.00000000000E+00 0. -1.
</event>
<event>
 4    1  0.1679763E+006  0.5211285E+02  0.7546771E-02  0.1289263E+00
         21   -1    0    0  503  501  0.00000000000E+00  0.00000000000E+00  0.12530265541E+03  0.12530265541E+03  0.00000000000E+00 0. -1.
         21   -1    0    0  504  502 -0.00000000000E+00 -0.00000000000E+00 -0.15478631245E+03  0.15478631245E+03  0.00000000000E+00 0. -1.
         21    1    1    2  503  502 -0.12297325854E+02 -0.50641139330E+02  0.11512840838E+03  0.12637365086E+03  0.00000000000E+00 0. -1.
         21    1    1    2  504  501  0.12297325854E+02  0.50641139330E+02 -0.14461206541E+03  0.15371531700E+03  0.00000000000E+00 0. -1.
</event>
<event>
 4    1  0.1679763E+006  0.2272884E+02  0.7546771E-02  0.1495932E+00
         21   -1    0    0  504  501  0.00000000000E+00  0.00000000000E+00  0.11104348561E+01  0.11104348561E+01  0.00000000000E+00 0.  1.
         21   -1    0    0  503  502 -0.00000000000E+00 -0.00000000000E+00 -0.46807046718E+03  0.46807046718E+03  0.00000000000E+00 0.  1.
         21    1    1    2  503  501 -0.11780182730E+02  0.19437778560E+02 -0.25177688739E+03  0.25280071393E+03  0.00000000000E+00 0.  1.
         21    1    1    2  504  502  0.11780182730E+02 -0.19437778560E+02 -0.21518314493E+03  0.21638018810E+03  0.00000000000E+00 0.  1.
</event>
<event>
 4    1  0.1679763E+006  0.2096511E+02  0.7546771E-02  0.1519763E+00
         21   -1    0    0  503  501  0.00000000000E+00  0.00000000000E+00  0.16011292087E+03  0.16011292087E+03  0.00000000000E+00 0. -1.
         21   -1    0    0  501  502 -0.00000000000E+00 -0.00000000000E+00 -0.12482636467E+02  0.12482636467E+02  0.00000000000E+00 0. -1.
         21    1    1    2  503  504 -0.11298174711E+02 -0.17660328832E+02  0.15003525957E+03  0.15149295390E+03  0.00000000000E+00 0. -1.
         21    1    1    2  504  502  0.11298174711E+02  0.17660328832E+02 -0.24049751698E+01  0.21102603437E+02  0.00000000000E+00 0. -1.
</event>
<event>
 4    1  0.1679763E+006  0.2258603E+02  0.7546771E-02  0.1497763E+00
         21   -1    0    0  502  501  0.00000000000E+00  0.00000000000E+00  0.85049127876E+02  0.85049127876E+02  0.00000000000E+00 0. -1.
         21   -1    0    0  503  502 -0.00000000000E+00 -0.00000000000E+00 -0.30845141812E+02  0.30845141812E+02  0.00000000000E+00 0. -1.
         21    1    1    2  503  504  0.40595283487E+01 -0.22218212601E+02 -0.24906752989E+02  0.33622538364E+02  0.00000000000E+00 0. -1.
         21    1    1    2  504  501 -0.40595283487E+01  0.22218212601E+02  0.79110739052E+02  0.82271731324E+02  0.00000000000E+00 0. -1.
</event>
<event>
 4    1  0.1679763E+006  0.5662362E+02  0.7546771E-02  0.1271757E+00
         21   -1    0    0  504  501  0.00000000000E+00  0.00000000000E+00  0.15460940703E+03  0.15460940703E+03  0.00000000000E+00 0.  1.
         21   -1    0    0  503  502 -0.00000000000E+00 -0.00000000000E+00 -0.51949385556E+02  0.51949385556E+02  0.00000000000E+00 0.  1.
         21    1    1    2  503  501 -0.47831698071E+02 -0.30304513323E+02  0.13138390864E+03  0.14306630042E+03  0.00000000000E+00 0.  1.
         21    1    1    2  504  502  0.47831698071E+02  0.30304513323E+02 -0.28723887158E+02  0.63492492167E+02  0.00000000000E+00 0.  1.
</event>
<event>
 4    1  0.1679763E+006  0.4286970E+02  0.7546771E-02  0.1332443E+00
         21   -1    0    0  503  501  0.00000000000E+00  0.00000000000E+00  0.24002452631E+03  0.24002452631E+03  0.00000000000E+00 0.  1.
         21   -1    0    0  504  502 -0.00000000000E+00 -0.00000000000E+00 -0.52820228809E+02  0.52820228809E+02  0.00000000000E+00 0. -1.
         21    1    1    2  503  502  0.41383533672E+02 -0.11189910196E+02  0.22899662471E+03  0.23297481640E+03  0.00000000000E+00 0.  1.
         21    1    1    2  504  501 -0.41383533672E+02  0.11189910196E+02 -0.41792327204E+02  0.59869938722E+02  0.00000000000E+00 0. -1.
</event>
<event>
 4    1  0.1679763E+006  0.2087354E+02  0.7546771E-02  0.1521078E+00
         21   -1    0    0  503  501  0.00000000000E+00  0.00000000000E+00  0.56525738402E+01  0.56525738402E+01  0.00000000000E+00 0.  1.
         21   -1    0    0  501  502 -0.00000000000E+00 -0.00000000000E+00 -0.95331592437E+02  0.95331592437E+02  0.00000000000E+00 0. -1.
         21    1    1    2  503  504  0.40237882537E+01 -0.20482035680E+02 -0.22746937913E+02  0.30872768615E+02  0.00000000000E+00 0. -1.
         21    1    1    2  504  502 -0.40237882537E+01  0.20482035680E+02 -0.66932080684E+02  0.70111397662E+02  0.00000000000E+00 0.  1.
</event>
<event>
 4    1  0.1679763E+006  0.2112102E+02  0.7546771E-02  0.1517544E+00
         21   -1    0    0  504  501  0.00000000000E+00  0.00000000000E+00  0.57823813070E+02  0.57823813070E+02  0.00000000000E+00 0.  1.
         21   -1    0    0  503  502 -0.00000000000E+00 -0.00000000000E+00 -0.13376264303E+03  0.13376264303E+03  0.00000000000E+00 0. -1.
         21    1    1    2  503  501  0.18606254635E+02 -0.99952406944E+01 -0.13095917880E+03  0.13265143821E+03  0.00000000000E+00 0. -1.
         21    1    1    2  504  502 -0.18606254635E+02  0.99952406944E+01  0.55020348835E+02  0.58935017892E+02  0.00000000000E+00 0.  1.
</event>
<event>
 4    1  0.1679763E+006  0.2714505E+02  0.7546771E-02  0.1446157E+00
         21   -1    0    0  504  501  0.00000000000E+00  0.00000000000E+00  0.73234790749E+02  0.73234790749E+02  0.00000000000E+00 0.  1.
         21   -1    0    0  503  502 -0.00000000000E+00 -0.00000000000E+00 -0.13793765709E+02  0.13793765709E+02  0.00000000000E+00 0.  1.
         21    1    1    2  503  501 -0.20962060259E+02  0.17246612202E+02  0.52355238661E+02  0.58973931681E+02  0.00000000000E+00 0.  1.
         21    1    1    2  504  502  0.20962060259E+02 -0.17246612202E+02  0.70857863795E+01  0.28054624777E+02  0.00000000000E+00 0.  1.
</event>
<event>
 4    1  0.1679763E+006  0.2236985E+02  0.7546771E-02  0.1500566E+00
         21   -1    0    0  503  501  0.00000000000E+00  0.00000000000E+00  0.14962984858E+02  0.14962984858E+02  0.00000000000E+00 0.  1.
         21   -1    0    0  504  502 -0.00000000000E+00 -0.00000000000E+00 -0.33611468036E+02  0.33611468036E+02  0.00000000000E+00 0.  1.
         21    1    1    2  503  502  0.16837809781E+02 -0.14727468389E+02 -0.76058224022E+01  0.23627498763E+02  0.00000000000E+00 0.  1.
         21    1    1    2  504  501 -0.16837809781E+02  0.14727468389E+02 -0.11042660776E+02  0.24946954131E+02  0.00000000000E+00 0.  1.
</event>
<event>
 4    1  0.1679763E+006  0.2033777E+02  0.7546771E-02  0.1528933E+00
         21   -1    0    0  504  501  0.00000000000E+00  0.00000000000E+00  0.14135509103E+02  0.14135509103E+02  0.00000000000E+00 0. -1.
         21   -1    0    0  503  502 -0.00000000000E+00 -0.00000000000E+00 -0.30907206763E+02  0.30907206763E+02  0.00000000000E+00 0. -1.
         21    1    1    2  503  501  0.10805926750E+02  0.17229531321E+02 -0.13582863735E+02  0.24456471326E+02  0.00000000000E+00 0. -1.
         21    1    1    2  504  502 -0.10805926750E+02 -0.17229531321E+02 -0.31888339245E+01  0.20586244540E+02  0.00000000000E+00 0. -1.
</event>
<event>
 4    1  0.1679763E+006  0.2116093E+02  0.7546771E-02  0.1516980E+00
         21   -1    0    0  503  501  0.00000000000E+00  0.00000000000E+00  0.10346351969E+02  0.10346351969E+02  0.00000000000E+00 0.  1.
         21   -1    0    0  504  502 -0.00000000000E+00 -0.00000000000E+00 -0.43818310328E+02  0.43818310328E+02  0.00000000000E+00 0.  1.
         21    1    1    2  503  502 -0.64189280876E+01 -0.20163882701E+02 -0.13732798159E+02  0.25226465243E+02  0.00000000000E+00 0.  1.
         21    1    1    2  504  501  0.64189280876E+01  0.20163882701E+02 -0.19739160200E+02  0.28938197055E+02  0.00000000000E+00 0.  1.
</event>
<event>
 4    1  0.1679763E+006  0.2883648E+02  0.7546771E-02  0.1429984E+00
         21   -1    0    0  504  501  0.00000000000E+00  0.00000000000E+00  0.80568907808E+01  0.80568907808E+01  0.00000000000E+00 0.  1.
         21   -1    0    0  503  502 -0.00000000000E+00 -0.00000000000E+00 -0.11424995408E+03  0.11424995408E+03  0.00000000000E+00 0.  1.
         21    1    1    2  503  501  0.27259270951E+02  0.94061133883E+01 -0.34085834185E+02  0.44647361780E+02  0.00000000000E+00 0.  1.
         21    1    1    2  504  502 -0.27259270951E+02 -0.94061133883E+01 -0.72107229117E+02  0.77659483083E+02  0.00000000000E+00 0.  1.
</event>
<event>
 4    1  0.1679763E+006  0.2071950E+02  0.7546771E-02  0.1523308E+00
         21   -1    0    0  503  501  0.00000000000E+00  0.00000000000E+00  0.12986374205E+01  0.12986374205E+01  0.00000000000E+00 0. -1.
         21   -1    0    0  504  502 -0.00000000000E+00 -0.00000000000E+00 -0.10330810554E+04  0.10330810554E+04  0.00000000000E+00 0. -1.
         21    1    1    2  503  502  0.69450728805E+01  0.19520847315E+02 -0.89402321431E+02  0.91771850773E+02  0.00000000000E+00 0. -1.
         21    1    1    2  504  501 -0.69450728805E+01 -0.19520847315E+02 -0.94238009653E+03  0.94260784202E+03  0.00000000000E+00 0. -1.
</event>
<event>
 4    1  0.1679763E+006  0.2343346E+02  0.7546771E-02  0.1487126E+00
         21   -1    0    0  503  501  0.00000000000E+00  0.00000000000E+00  0.17364131443E+03  0.17364131443E+03  0.00000000000E+00 0. -1.
         21   -1    0    0  504  502 -0.00000000000E+00 -0.00000000000E+00 -0.13568878054E+02  0.13568878054E+02  0.00000000000E+00 0.  1.
         21    1    1    2  503  502 -0.22835081079E+02  0.52617805658E+01 -0.19383115110E+01  0.23513492172E+02  0.00000000000E+00 0.  1.
         21    1    1    2  504  501  0.22835081079E+02 -0.52617805658E+01  0.16201074789E+03  0.16369670032E+03  0.00000000000E+00 0. -1.
</event>
<event>
 4    1  0.1679763E+006  0.2037449E+02  0.7546771E-02  0.1528386E+00
         21   -1    0    0  504  501  0.00000000000E+00  0.00000000000E+00  0.67292873083E+01  0.67292873083E+01  0.00000000000E+00 0. -1.
         21   -1    0    0  503  502 -0.00000000000E+00 -0.00000000000E+00 -0.20531850437E+03  0.20531850437E+03  0.00000000000E+00 0.  1.
         21    1    1    2  503  501 -0.97753540348E+01 -0.17876310736E+02 -0.10617359657E+02  0.22974950667E+02  0.00000000000E+00 0. -1.
         21    1    1    2  504  502  0.97753540348E+01  0.17876310736E+02 -0.18797185741E+03  0.18907284102E+03  0.00000000000E+00 0.  1.
</event>
<event>
 4    1  0.1679763E+006  0.2644621E+02  0.7546771E-02  0.1453252E+00
         21   -1    0    0  503  501  0.00000000000E+00  0.00000000000E+00  0.26057745606E+02  0.26057745606E+02  0.00000000000E+00 0. -1.
         21   -1    0    0  501  502 -0.00000000000E+00 -0.00000000000E+00 -0.53745273696E+02  0.53745273696E+02  0.00000000000E+00 0. -1.
         21    1    1    2  503  504  0.12228560118E+02 -0.23449183835E+02  0.14387750286E+02  0.30106631551E+02  0.00000000000E+00 0. -1.
         21    1    1    2  504  502 -0.12228560118E+02  0.23449183835E+02 -0.42075278376E+02  0.49696387751E+02  0.00000000000E+00 0. -1.
</event>
<event>
 4    1  0.1679763E+006  0.3672738E+02  0.7546771E-02  0.1368810E+00
         21   -1    0    0  503  501  0.00000000000E+00  0.00000000000E+00  0.70224826236E+01  0.70224826236E+01  0.00000000000E+00 0. -1.
         21   -1    0    0  504  502 -0.00000000000E+00 -0.00000000000E+00 -0.19222137854E+03  0.19222137854E+03  0.00000000000E+00 0. -1.
         21    1    1    2  503  502 -0.28721887331E+02  0.22890029442E+02 -0.95271379354E+02  0.10210551397E+03  0.00000000000E+00 0. -1.
         21    1    1    2  504  501  0.28721887331E+02 -0.22890029442E+02 -0.89927516558E+02  0.97138347186E+02  0.00000000000E+00 0. -1.
</event>
<event>
 4    1  0.1679763E+006  0.2137272E+02  0.7546771E-02  0.1514009E+00
         21   -1    0    0  503  501  0.00000000000E+00  0.00000000000E+00  0.15193635380E+01  0.15193635380E+01  0.00000000000E+00 0.  1.
         21   -1    0    0  504  502 -0.00000000000E+00 -0.00000000000E+00 -0.31434817973E+03  0.31434817973E+03  0.00000000000E+00 0.  1.
         21    1    1    2  503  502  0.79425108113E+01  0.19842122302E+02 -0.12344311840E+03  0.12527967423E+03  0.00000000000E+00 0.  1.
         21    1    1    2  504  501 -0.79425108113E+01 -0.19842122302E+02 -0.18938569779E+03  0.19058786904E+03  0.00000000000E+00 0.  1.
</event>
<event>
 4    1  0.1679763E+006  0.3267331E+02  0.7546771E-02  0.1397702E+00
         21   -1    0    0  502  501  0.00000000000E+00  0.00000000000E+00  0.80415130871E+01  0.80415130871E+01  0.00000000000E+00 0. -1.
         21   -1    0    0  504  502 -0.00000000000E+00 -0.00000000000E+00 -0.21709702016E+03  0.21709702016E+03  0.00000000000E+00 0. -1.
         21    1    1    2  503  501  0.28594891406E+02  0.15807509316E+02 -0.34363356821E+02  0.47417143074E+02  0.00000000000E+00 0. -1.
         21    1    1    2  504  503 -0.28594891406E+02 -0.15807509316E+02 -0.17469215025E+03  0.17772139017E+03  0.00000000000E+00 0. -1.
</event>
<event>
 4    1  0.1679763E+006  0.2446970E+02  0.7546771E-02  0.1474824E+00
         21   -1    0    0  504  501  0.00000000000E+00  0.00000000000E+00  0.14903415011E+02  0.14903415011E+02  0.00000000000E+00 0. -1.
         21   -1    0    0  503  502 -0.00000000000E+00 -0.00000000000E+00 -0.42215470691E+02  0.42215470691E+02  0.00000000000E+00 0. -1.
         21    1    1    2  503  501 -0.17455723110E+02  0.17148297381E+02 -0.19932625195E+02  0.31560670454E+02  0.00000000000E+00 0. -1.
         21    1    1    2  504  502  0.17455723110E+02 -0.17148297381E+02 -0.73794304846E+01  0.25558215247E+02  0.00000000000E+00 0. -1.
</event>
<event>
 4    1  0.1679763E+006  0.2330949E+02  0.7546771E-02  0.1488648E+00
         21   -1    0    0  503  501  0.00000000000E+00  0.00000000000E+00  0.82193934977E+02  0.82193934977E+02  0.00000000000E+00 0. -1.
         21   -1    0    0  504  502 -0.00000000000E+00 -0.00000000000E+00 -0.50148312469E+02  0.50148312469E+02  0.00000000000E+00 0.  1.
         21    1    1    2  503  502 -0.21394549280E+02 -0.92523355781E+01 -0.45633038967E+02  0.51241650031E+02  0.00000000000E+00 0.  1.
         21    1    1    2  504  501  0.21394549280E+02  0.92523355781E+01  0.77678661475E+02  0.81100597416E+02  0.00000000000E+00 0. -1.
</event>
<event>
 4    1  0.1679763E+006  0.2132929E+02  0.7546771E-02  0.1514615E+00
         21   -1    0    0  503  501  0.00000000000E+00  0.00000000000E+00  0.88356126219E+00  0.88356126219E+00  0.00000000000E+00 0. -1.
         21   -1    0    0  501  502 -0.00000000000E+00 -0.00000000000E+00 -0.11268654582E+04  0.11268654582E+04  0.00000000000E+00 0. -1.
         21    1    1    2  503  504 -0.86702590130E+01 -0.19487560439E+02 -0.14745097107E+03  0.14898566130E+03  0.00000000000E+00 0. -1.
         21    1    1    2  504  502  0.86702590130E+01  0.19487560439E+02 -0.97853092584E+03  0.97876335814E+03  0.00000000000E+00 0. -1.
</event>
<event>
 4    1  0.1679763E+006  0.2421852E+02  0.7546771E-02  0.1477739E+00
         21   -1    0    0  502  501  0.00000000000E+00  0.00000000000E+00  0.35268429711E+02  0.35268429711E+02  0.00000000000E+00 0. -1.
         21   -1    0    0  503  502 -0.00000000000E+00 -0.00000000000E+00 -0.49916956268E+02  0.49916956268E+02  0.00000000000E+00 0. -1.
         21    1    1    2  503  504  0.24109948100E+02 -0.22906305209E+01 -0.42105411440E+02  0.48573678656E+02  0.00000000000E+00 0. -1.
         21    1    1    2  504  501 -0.24109948100E+02  0.22906305209E+01  0.27456884883E+02  0.36611707323E+02  0.00000000000E+00 0. -1.
</event>
<event>
 4    1  0.1679763E+006  0.2903242E+02  0.7546771E-02  0.1428195E+00
         21   -1    0    0  503  501  0.00000000000E+00  0.00000000000E+00  0.67498704927E+02  0.67498704927E+02  0.00000000000E+00 0. -1.
         21   -1    0    0  501  502 -0.00000000000E+00 -0.00000000000E+00 -0.19073520819E+03  0.19073520819E+03  0.00000000000E+00 0.  1.
         21    1    1    2  503  504  0.28185709765E+02  0.69604189233E+01  0.63200540591E+02  0.69549910119E+02  0.00000000000E+00 0. -1.
         21    1    1    2  504  502 -0.28185709765E+02 -0.69604189233E+01 -0.18643704385E+03  0.18868400300E+03  0.00000000000E+00 0.  1.
</event>
<event>
 4    1  0.1679763E+006  0.2726007E+02  0.7546771E-02  0.1445013E+00
         21   -1    0    0  502  501  0.00000000000E+00  0.00000000000E+00  0.82598354224E+02  0.82598354224E+02  0.00000000000E+00 0.  1.
         21   -1    0    0  503  502 -0.00000000000E+00 -0.00000000000E+00 -0.32079581986E+02  0.32079581986E+02  0.00000000000E+00 0. -1.
         21    1    1    2  503  504 -0.26892664293E+02 -0.44605161827E+01 -0.23379167756E+02  0.35912352782E+02  0.00000000000E+00 0. -1.
         21    1    1    2  504  501  0.26892664293E+02  0.44605161827E+01  0.73897939993E+02  0.78765583428E+02  0.00000000000E+00 0.  1.
</event>
<event>
 4    1  0.1679763E+006  0.2398551E+02  0.7546771E-02  0.1480480E+00
         21   -1    0    0  504  501  0.00000000000E+00  0.00000000000E+00  0.16611106011E+04  0.16611106011E+04  0.00000000000E+00 0. -1.
         21   -1    0    0  503  502 -0.00000000000E+00 -0.00000000000E+00 -0.87803168849E+00  0.87803168849E+00  0.00000000000E+00 0. -1.
         21    1    1    2  503  501  0.13981208271E+02 -0.19489243326E+02  0.14767732210E+04  0.14769679926E+04  0.00000000000E+00 0. -1.
         21    1    1    2  504  502 -0.13981208271E+02  0.19489243326E+02  0.18345934839E+03  0.18502064021E+03  0.00000000000E+00 0. -1.
</event>
<event>
 4    1  0.1679763E+006  0.2928316E+02  0.7546771E-02  0.1425930E+00
         21   -1    0    0  504  501  0.00000000000E+00  0.00000000000E+00  0.12749792832E+02  0.12749792832E+02  0.00000000000E+00 0. -1.
         21   -1    0    0  503  502 -0.00000000000E+00 -0.00000000000E+00 -0.29964578272E+03  0.29964578272E+03  0.00000000000E+00 0.  1.
         21    1    1    2  503  501 -0.88962167153E+00  0.29269646948E+02 -0.28100383880E+03  0.28252550519E+03  0.00000000000E+00 0.  1.
         21    1    1    2  504  502  0.88962167153E+00 -0.29269646948E+02 -0.58921510845E+01  0.29870070365E+02  0.00000000000E+00 0. -1.
</event>
<event>
 4    1  0.1679763E+006  0.2258268E+02  0.7546771E-02  0.1497806E+00
         21   -1    0    0  504  501  0.00000000000E+00  0.00000000000E+00  0.12852536340E+02  0.12852536340E+02  0.00000000000E+00 0. -1.
         21   -1    0    0  503  502 -0.00000000000E+00 -0.00000000000E+00 -0.40155988865E+02  0.40155988865E+02  0.00000000000E+00 0. -1.
         21    1    1    2  503  501 -0.15485116164E+02  0.16437412771E+02 -0.16540004334E+02  0.27991947138E+02  0.00000000000E+00 0. -1.
         21    1    1    2  504  502  0.15485116164E+02 -0.16437412771E+02 -0.10763448191E+02  0.25016578067E+02  0.00000000000E+00 0. -1.
</event>
<event>
 4    1  0.1679763E+006  0.2141166E+02  0.7546771E-02  0.1513468E+00
         21   -1    0    0  504  501  0.00000000000E+00  0.00000000000E+00  0.81547234555E+01  0.81547234555E+01  0.00000000000E+00 0.  1.
         21   -1    0    0  501  502 -0.00000000000E+00 -0.00000000000E+00 -0.57016106033E+02  0.57016106033E+02  0.00000000000E+00 0.  1.
         21    1    1    2  503  502  0.16159257831E+02 -0.14047683818E+02 -0.28280984677E+02  0.35472145814E+02  0.00000000000E+00 0.  1.
         21    1    1    2  504  503 -0.16159257831E+02  0.14047683818E+02 -0.20580397900E+02  0.29698683675E+02  0.00000000000E+00 0.  1.
</event>
<event>
 4    1  0.1679763E+006  0.2383062E+02  0.7546771E-02  0.1482323E+00
         21   -1    0    0  504  501  0.00000000000E+00  0.00000000000E+00  0.15988458553E+02  0.15988458553E+02  0.00000000000E+00 0. -1.
         21   -1    0    0  503  502 -0.00000000000E+00 -0.00000000000E+00 -0.65590682212E+02  0.65590682212E+02  0.00000000000E+00 0. -1.
         21    1    1    2  503  501  0.13658052877E+02 -0.19528342759E+02 -0.52419916421E+02  0.57582516590E+02  0.00000000000E+00 0. -1.
         21    1    1    2  504  502 -0.13658052877E+02  0.19528342759E+02  0.28176927621E+01  0.23996624175E+02  0.00000000000E+00 0. -1.
</event>
<event>
 4    1  0.1679763E+006  0.3060120E+02  0.7546771E-02  0.1414443E+00
         21   -1    0    0  503  501  0.00000000000E+00  0.00000000000E+00  0.20702348929E+03  0.20702348929E+03  0.00000000000E+00 0.  1.
         21   -1    0    0  504  502 -0.00000000000E+00 -0.00000000000E+00 -0.51511478282E+01  0.51511478282E+01  0.00000000000E+00 0.  1.
         21    1    1    2  503  502  0.22393875873E+02  0.20855402630E+02  0.13797282409E+03  0.14132562995E+03  0.00000000000E+00 0.  1.
         21    1    1    2  504  501 -0.22393875873E+02 -0.20855402630E+02  0.63899517380E+02  0.70849007169E+02  0.00000000000E+00 0.  1.
</event>
<event>
 4    1  0.1679763E+006  0.2266398E+02  0.7546771E-02  0.1496761E+00
         21   -1    0    0  503  501  0.00000000000E+00  0.00000000000E+00  0.30421597675E+03  0.30421597675E+03  0.00000000000E+00 0. -1.
         21   -1    0    0  504  502 -0.00000000000E+00 -0.00000000000E+00 -0.63453992890E+01  0.63453992890E+01  0.00000000000E+00 0. -1.
         21    1    1    2  503  502  0.58627140164E+01  0.21892565360E+02  0.15908728805E+02  0.27690133367E+02  0.00000000000E+00 0. -1.
         21    1    1    2  504  501 -0.58627140164E+01 -0.21892565360E+02  0.28196184866E+03  0.28287124267E+03  0.00000000000E+00 0. -1.
</event>
<event>
 4    1  0.1679763E+006  0.2212546E+02  0.7546771E-02  0.1503782E+00
         21   -1    0    0  503  501  0.00000000000E+00  0.00000000000E+00  0.72928272792E+02  0.72928272792E+02  0.00000000000E+00 0. -1.
         21   -1    0    0  501  502 -0.00000000000E+00 -0.00000000000E+00 -0.61857980980E+02  0.61857980980E+02  0.00000000000E+00 0. -1.
         21    1    1    2  503  504  0.21238666602E+02  0.62012110673E+01  0.69166685917E+02  0.72619325379E+02  0.00000000000E+00 0. -1.
         21    1    1    2  504  502 -0.21238666602E+02 -0.62012110673E+01 -0.58096394105E+02  0.62166928392E+02  0.00000000000E+00 0. -1.
</event>
<event>
 4    1  0.1679763E+006  0.2680717E+02  0.7546771E-02  0.1449555E+00
         21   -1    0    0  502  501  0.00000000000E+00  0.00000000000E+00  0.21176069305E+03  0.21176069305E+03  0.00000000000E+00 0. -1.
         21   -1    0    0  504  502 -0.00000000000E+00 -0.00000000000E+00 -0.14217703556E+02  0.14217703556E+02  0.00000000000E+00 0. -1.
         21    1    1    2  503  501 -0.22895548546E+02  0.13943397111E+02  0.19735830069E+03  0.19917058849E+03  0.00000000000E+00 0. -1.
         21    1    1    2  504  503  0.22895548546E+02 -0.13943397111E+02  0.18468880216E+00  0.26807808120E+02  0.00000000000E+00 0. -1.
</event>
<event>
 4    1  0.1679763E+006  0.5496311E+02  0.7546771E-02  0.1277978E+00
         21   -1    0    0  503  501  0.00000000000E+00  0.00000000000E+00  0.17475564045E+03  0.17475564045E+03  0.00000000000E+00 0.  1.
         21   -1    0    0  504  502 -0.00000000000E+00 -0.00000000000E+00 -0.17306112438E+02  0.17306112438E+02  0.00000000000E+00 0. -1.
         21    1    1    2  503  502  0.91172283931E+01 -0.54201658872E+02  0.75506299529E+02  0.93392424461E+02  0.00000000000E+00 0.  1.
         21    1    1    2  504  501 -0.91172283931E+01  0.54201658872E+02  0.81943228482E+02  0.98669328426E+02  0.00000000000E+00 0. -1.
</event>
<event>
 4    1  0.1679763E+006  0.4223739E+02  0.7546771E-02  0.1335851E+00
         21   -1    0    0  504  501  0.00000000000E+00  0.00000000000E+00  0.26472042436E+03  0.26472042436E+03  0.00000000000E+00 0. -1.
         21   -1    0    0  503  502 -0.00000000000E+00 -0.00000000000E+00 -0.20834103288E+02  0.20834103288E+02  0.00000000000E+00 0.  1.
         21    1    1    2  503  501 -0.14842845468E+02  0.39543479070E+02  0.45066573946E+01  0.42477132194E+02  0.00000000000E+00 0.  1.
         21    1    1    2  504  502  0.14842845468E+02 -0.39543479070E+02  0.23937966368E+03  0.24307739546E+03  0.00000000000E+00 0. -1.
</event>
<event>
 4    1  0.1679763E+006  0.2824686E+02  0.7546771E-02  0.1435470E+00
         21   -1    0    0  502  501  0.00000000000E+00  0.00000000000E+00  0.99512039909E+02  0.99512039909E+02  0.00000000000E+00 0.  1.
         21   -1    0    0  503  502 -0.00000000000E+00 -0.00000000000E+00 -0.87736369604E+01  0.87736369604E+01  0.00000000000E+00 0.  1.
         21    1    1    2  503  504  0.12586191516E+02 -0.25287800911E+02  0.29479532701E+02  0.40828028854E+02  0.00000000000E+00 0.  1.
         21    1    1    2  504  501 -0.12586191516E+02  0.25287800911E+02  0.61258870248E+02  0.67457648016E+02  0.00000000000E+00 0.  1.
</event>
<event>
 4    1  0.1679763E+006  0.2212008E+02  0.7546771E-02  0.1503853E+00
         21   -1    0    0  504  501  0.00000000000E+00  0.00000000000E+00  0.16463711058E+03  0.16463711058E+03  0.00000000000E+00 0.  1.
         21   -1    0    0  501  502 -0.00000000000E+00 -0.00000000000E+00 -0.77267028726E+01  0.77267028726E+01  0.00000000000E+00 0.  1.
         21    1    1    2  503  502  0.14361590032E+02  0.16823867466E+02  0.10849753184E+02  0.24637672961E+02  0.00000000000E+00 0.  1.
         21    1    1    2  504  503 -0.14361590032E+02 -0.16823867466E+02  0.14606065452E+03  0.14772614049E+03  0.00000000000E+00 0.  1.
</event>
<event>
 4    1  0.1679763E+006  0.2706696E+02  0.7546771E-02  0.1446937E+00
         21   -1    0    0  503  501  0.00000000000E+00  0.00000000000E+00  0.57284546203E+01  0.57284546203E+01  0.00000000000E+00 0. -1.
         21   -1    0    0  504  502 -0.00000000000E+00 -0.00000000000E+00 -0.16231694781E+03  0.16231694781E+03  0.00000000000E+00 0. -1.
         21    1    1    2  503  502  0.21078177252E+01  0.26984762258E+02 -0.11698925150E+03  0.12007957885E+03  0.00000000000E+00 0. -1.
         21    1    1    2  504  501 -0.21078177252E+01 -0.26984762258E+02 -0.39599241695E+02  0.47965823588E+02  0.00000000000E+00 0. -1.
</event>
<event>
 4    1  0.1679763E+006  0.2048313E+02  0.7546771E-02  0.1526774E+00
         21   -1    0    0  502  501  0.00000000000E+00  0.00000000000E+00  0.22762702223E+03  0.22762702223E+03  0.00000000000E+00 0. -1.
         21   -1    0    0  503  502 -0.00000000000E+00 -0.00000000000E+00 -0.58443706616E+01  0.58443706616E+01  0.00000000000E+00 0.  1.
         21    1    1    2  503  504  0.20481997339E+02 -0.21542160220E+00  0.14301990701E+02  0.24982104784E+02  0.00000000000E+00 0.  1.
         21    1    1    2  504  501 -0.20481997339E+02  0.21542160220E+00  0.20748066087E+03  0.20848928811E+03  0.00000000000E+00 0. -1.
</event>
<event>
 4    1  0.1679763E+006  0.3276294E+02  0.7546771E-02  0.1397011E+00
         21   -1    0    0  502  501  0.00000000000E+00  0.00000000000E+00  0.15897890160E+03  0.15897890160E+03  0.00000000000E+00 0. -1.
         21   -1    0    0  503  502 -0.00000000000E+00 -0.00000000000E+00 -0.82870661505E+01  0.82870661505E+01  0.00000000000E+00 0. -1.
         21    1    1    2  503  504 -0.23634241337E+01  0.32677582511E+02  0.39349903608E+02  0.51203760471E+02  0.00000000000E+00 0. -1.
         21    1    1    2  504  501  0.23634241337E+01 -0.32677582511E+02  0.11134193184E+03  0.11606220728E+03  0.00000000000E+00 0. -1.
</event>
<event>
 4    1  0.1679763E+006  0.2528730E+02  0.7546771E-02  0.1465615E+00
         21   -1    0    0  504  501  0.00000000000E+00  0.00000000000E+00  0.53221343376E+02  0.53221343376E+02  0.00000000000E+00 0.  1.
         21   -1    0    0  503  502 -0.00000000000E+00 -0.00000000000E+00 -0.12838887551E+02  0.12838887551E+02  0.00000000000E+00 0.  1.
         21    1    1    2  503  501  0.14638771715E+02  0.20619261179E+02  0.28559087659E+02  0.38145367436E+02  0.00000000000E+00 0.  1.
         21    1    1    2  504  502 -0.14638771715E+02 -0.20619261179E+02  0.11823368167E+02  0.27914863491E+02  0.00000000000E+00 0.  1.
</event>
<event>
 4    1  0.1679763E+006  0.7775019E+02  0.7546771E-02  0.1209169E+00
         21   -1    0    0  504  501  0.00000000000E+00  0.00000000000E+00  0.52464890227E+02  0.52464890227E+02  0.00000000000E+00 0. -1.
         21   -1    0    0  503  502 -0.00000000000E+00 -0.00000000000E+00 -0.12928152102E+03  0.12928152102E+03  0.00000000000E+00 0.  1.
         21    1    1    2  503  501  0.16866362550E+02 -0.75898730913E+02 -0.84402853287E+01  0.78206968720E+02  0.00000000000E+00 0. -1.
         21    1    1    2  504  502 -0.16866362550E+02  0.75898730913E+02 -0.68376345467E+02  0.10353944253E+03  0.00000000000E+00 0.  1.
</event>
<event>
 4    1  0.1679763E+006  0.2518486E+02  0.7546771E-02  0.1466746E+00
         21   -1    0    0  503  501  0.00000000000E+00  0.00000000000E+00  0.64622547458E+01  0.64622547458E+01  0.00000000000E+00 0.  1.
         21   -1    0    0  504  502 -0.00000000000E+00 -0.00000000000E+00 -0.31913954902E+03  0.31913954902E+03  0.00000000000E+00 0. -1.
         21    1    1    2  503  502 -0.19463371188E+02  0.15982932892E+02 -0.29181121046E+03  0.29289598753E+03  0.00000000000E+00 0. -1.
         21    1    1    2  504  501  0.19463371188E+02 -0.15982932892E+02 -0.20866083815E+02  0.32705816235E+02  0.00000000000E+00 0.  1.
</event>
<event>
 4    1  0.1679763E+006  0.2632505E+02  0.7546771E-02  0.1454508E+00
         21   -1    0    0  504  501  0.00000000000E+00  0.00000000000E+00  0.20886132491E+03  0.20886132491E+03  0.00000000000E+00 0. -1.
         21   -1    0    0  501  502 -0.00000000000E+00 -0.00000000000E+00 -0.10560223126E+02  0.10560223126E+02  0.00000000000E+00 0. -1.
         21    1    1    2  503  502 -0.12118336947E+00 -0.26324775421E+02  0.82957808932E+01  0.27601240317E+02  0.00000000000E+00 0. -1.
         21    1    1    2  504  503  0.12118336947E+00  0.26324775421E+02  0.19000532089E+03  0.19182030772E+03  0.00000000000E+00 0. -1.
</event>
<event>
 4    1  0.1679763E+006  0.2434933E+02  0.7546771E-02  0.1476216E+00
         21   -1    0    0  503  501  0.00000000000E+00  0.00000000000E+00  0.11475275397E+03  0.11475275397E+03  0.00000000000E+00 0. -1.
         21   -1    0    0  504  502 -0.00000000000E+00 -0.00000000000E+00 -0.20814190355E+02  0.20814190355E+02  0.00000000000E+00 0.  1.
         21    1    1    2  503  502 -0.23762459379E+02  0.53137186349E+01  0.10574077924E+03  0.10850807563E+03  0.00000000000E+00 0. -1.
         21    1    1    2  504  501  0.23762459379E+02 -0.53137186349E+01 -0.11802215627E+02  0.27058868698E+02  0.00000000000E+00 0.  1.
</event>
<event>
 4    1  0.1679763E+006  0.3895990E+02  0.7546771E-02  0.1354691E+00
         21   -1    0    0  504  501  0.00000000000E+00  0.00000000000E+00  0.16467192761E+03  0.16467192761E+03  0.00000000000E+00 0. -1.
         21   -1    0    0  503  502 -0.00000000000E+00 -0.00000000000E+00 -0.24378152343E+03  0.24378152343E+03  0.00000000000E+00 0. -1.
         21    1    1    2  503  501 -0.81730973877E+01  0.38092967661E+02 -0.23988333729E+03  0.24302651957E+03  0.00000000000E+00 0. -1.
         21    1    1    2  504  502  0.81730973877E+01 -0.38092967661E+02  0.16077374147E+03  0.16542693146E+03  0.00000000000E+00 0. -1.
</event>
<event>
 4    1  0.1679763E+006  0.2093914E+02  0.7546771E-02  0.1520136E+00
         21   -1    0    0  502  501  0.00000000000E+00  0.00000000000E+00  0.15147910742E+01  0.15147910742E+01  0.00000000000E+00 0. -1.
         21   -1    0    0  504  502 -0.00000000000E+00 -0.00000000000E+00 -0.90671959524E+03  0.90671959524E+03  0.00000000000E+00 0.  1.
         21    1    1    2  503  501  0.82740956443E+01 -0.19235043594E+02 -0.77913430057E+02  0.80678064826E+02  0.00000000000E+00 0. -1.
         21    1    1    2  504  503 -0.82740956443E+01  0.19235043594E+02 -0.82729137411E+03  0.82755632148E+03  0.00000000000E+00 0.  1.
</event>
<event>
 4    1  0.1679763E+006  0.2018022E+02  0.7546771E-02  0.1531298E+00
         21   -1    0    0  504  501  0.00000000000E+00  0.00000000000E+00  0.92550581970E+01  0.92550581970E+01  0.00000000000E+00 0.  1.
         21   -1    0    0  503  502 -0.00000000000E+00 -0.00000000000E+00 -0.62409638932E+03  0.62409638932E+03  0.00000000000E+00 0. -1.
         21    1    1    2  503  501 -0.20067438670E+02  0.21305639048E+01 -0.61272871603E+03  0.61306094383E+03  0.00000000000E+00 0. -1.
         21    1    1    2  504  502  0.20067438670E+02 -0.21305639048E+01 -0.21126150887E+01  0.20290503686E+02  0.00000000000E+00 0.  1.
</event>
<event>
 4    1  0.1679763E+006  0.5009912E+02  0.7546771E-02  0.1297743E+00
         21   -1    0    0  504  501  0.00000000000E+00  0.00000000000E+00  0.62562865802E+02  0.62562865802E+02  0.00000000000E+00 0. -1.
         21   -1    0    0  503  502 -0.00000000000E+00 -0.00000000000E+00 -0.99582738597E+02  0.99582738597E+02  0.00000000000E+00 0.  1.
         21    1    1    2  503  501 -0.17679350643E+02  0.46876030158E+02 -0.81158551225E+02  0.95376265807E+02  0.00000000000E+00 0.  1.
         21    1    1    2  504  502  0.17679350643E+02 -0.46876030158E+02  0.44138678429E+02  0.66769338592E+02  0.00000000000E+00 0. -1.
</event>
<event>
 4    1  0.1679763E+006  0.2178890E+02  0.7546771E-02  0.1508293E+00
         21   -1    0    0  504  501  0.00000000000E+00  0.00000000000E+00  0.43654192641E+02  0.43654192641E+02  0.00000000000E+00 0.  1.
         21   -1    0    0  503  502 -0.00000000000E+00 -0.00000000000E+00 -0.21660734703E+02  0.21660734703E+02  0.00000000000E+00 0. -1.
         21    1    1    2  503  501  0.42964537346E+01 -0.21361097739E+02 -0.12047545603E+02  0.24897778342E+02  0.00000000000E+00 0. -1.
         21    1    1    2  504  502 -0.42964537346E+01  0.21361097739E+02  0.34041003542E+02  0.40417149002E+02  0.00000000000E+00 0.  1.
</event>
<event>
 4    1  0.1679763E+006  0.2302875E+02  0.7546771E-02  0.1492137E+00
         21   -1    0    0  504  501  0.00000000000E+00  0.00000000000E+00  0.20821459457E+01  0.20821459457E+01  0.00000000000E+00 0. -1.
         21   -1    0    0  501  502 -0.00000000000E+00 -0.00000000000E+00 -0.67589684550E+03  0.67589684550E+03  0.00000000000E+00 0. -1.
         21    1    1    2  503  502  0.20836429690E+02 -0.98064498439E+01 -0.60450877103E+03  0.60494725184E+03  0.00000000000E+00 0. -1.
         21    1    1    2  504  503 -0.20836429690E+02  0.98064498439E+01 -0.69305928529E+02  0.73031739607E+02  0.00000000000E+00 0. -1.
</event>
<event>
 4    1  0.1679763E+006  0.2040902E+02  0.7546771E-02  0.1527872E+00
         21   -1    0    0  504  501  0.00000000000E+00  0.00000000000E+00  0.40992255836E+02  0.40992255836E+02  0.00000000000E+00 0.  1.
         21   -1    0    0  503  502 -0.00000000000E+00 -0.00000000000E+00 -0.10248916664E+02  0.10248916664E+02  0.00000000000E+00 0.  1.
         21    1    1    2  503  501 -0.15695030903E+02  0.13045846690E+02  0.13000645474E+02  0.24198034913E+02  0.00000000000E+00 0.  1.
         21    1    1    2  504  502  0.15695030903E+02 -0.13045846690E+02  0.17742693698E+02  0.27043137587E+02  0.00000000000E+00 0.  1.
</event>
<event>
 4    1  0.1679763E+006  0.2107662E+02  0.7546771E-02  0.1518174E+00
         21   -1    0    0  503  501  0.00000000000E+00  0.00000000000E+00  0.84443144524E+01  0.84443144524E+01  0.00000000000E+00 0.  1.
         21   -1    0    0  504  502 -0.00000000000E+00 -0.00000000000E+00 -0.10757604013E+03  0.10757604013E+03  0.00000000000E+00 0. -1.
         21    1    1    2  503  502  0.54185722075E+01 -0.20368186984E+02 -0.91033409213E+02  0.93441455247E+02  0.00000000000E+00 0. -1.
         21    1    1    2  504  501 -0.54185722075E+01  0.20368186984E+02 -0.80983164692E+01  0.22578899340E+02  0.00000000000E+00 0.  1.
</event>
<event>
 4    1  0.1679763E+006  0.2463386E+02  0.7546771E-02  0.1472941E+00
         21   -1    0    0  504  501  0.00000000000E+00  0.00000000000E+00  0.12987409723E+02  0.12987409723E+02  0.00000000000E+00 0. -1.
         21   -1    0    0  503  502 -0.00000000000E+00 -0.00000000000E+00 -0.50593017987E+02  0.50593017987E+02  0.00000000000E+00 0. -1.
         21    1    1    2  503  501 -0.10788571901E+02 -0.22145737704E+02 -0.27593727297E+02  0.36989738689E+02  0.00000000000E+00 0. -1.
         21    1    1    2  504  502  0.10788571901E+02  0.22145737704E+02 -0.10011880967E+02  0.26590689021E+02  0.00000000000E+00 0. -1.
</event>
<event>
 4    1  0.1679763E+006  0.2412486E+02  0.7546771E-02  0.1478836E+00
         21   -1    0    0  503  501  0.00000000000E+00  0.00000000000E+00  0.12895870701E+03  0.12895870701E+03  0.00000000000E+00 0.  1.
         21   -1    0    0  501  502 -0.00000000000E+00 -0.00000000000E+00 -0.81838109781E+01  0.81838109781E+01  0.00000000000E+00 0.  1.
         21    1    1    2  503  504  0.43290241357E+00 -0.24120975430E+02  0.10631115989E+03  0.10901408889E+03  0.00000000000E+00 0.  1.
         21    1    1    2  504  502 -0.43290241357E+00  0.24120975430E+02  0.14463736143E+02  0.28128429096E+02  0.00000000000E+00 0.  1.
</event>
<event>
 4    1  0.1679763E+006  0.2238890E+02  0.7546771E-02  0.1500318E+00
         21   -1    0    0  503  501  0.00000000000E+00  0.00000000000E+00  0.21054716986E+03  0.21054716986E+03  0.00000000000E+00 0. -1.
         21   -1    0    0  501  502 -0.00000000000E+00 -0.00000000000E+00 -0.11240143651E+02  0.11240143651E+02  0.00000000000E+00 0.  1.
         21    1    1    2  503  504 -0.96302464167E+00  0.22368178120E+02  0.19810504245E+03  0.19936617229E+03  0.00000000000E+00 0. -1.
         21    1    1    2  504  502  0.96302464167E+00 -0.22368178120E+02  0.12019837615E+01  0.22421141225E+02  0.00000000000E+00 0.  1.
</event>
<event>
 4    1  0.1679763E+006  0.2245915E+02  0.7546771E-02  0.1499404E+00
         21   -1    0    0  504  501  0.00000000000E+00  0.00000000000E+00  0.84299707850E+02  0.84299707850E+02  0.00000000000E+00 0. -1.
         21   -1    0    0  503  502 -0.00000000000E+00 -0.00000000000E+00 -0.30048739808E+02  0.30048739808E+02  0.00000000000E+00 0. -1.
         21    1    1    2  503  501 -0.22305319161E+02 -0.26241628300E+01  0.78291497405E+02  0.81449199255E+02  0.00000000000E+00 0. -1.
         21    1    1    2  504  502  0.22305319161E+02  0.26241628300E+01 -0.24040529363E+02  0.32899248403E+02  0.00000000000E+00 0. -1.
</event>
<event>
 4    1  0.1679763E+006  0.2856271E+02  0.7546771E-02  0.1432512E+00
         21   -1    0    0  504  501  0.00000000000E+00  0.00000000000E+00  0.34284998897E+03  0.34284998897E+03  0.00000000000E+00 0. -1.
         21   -1    0    0  503  502 -0.00000000000E+00 -0.00000000000E+00 -0.42433030316E+01  0.42433030316E+01  0.00000000000E+00 0.  1.
         21    1    1    2  503  501 -0.17346921451E+02  0.22691685552E+02  0.54287273185E+02  0.61342777137E+02  0.00000000000E+00 0.  1.
         21    1    1    2  504  502  0.17346921451E+02 -0.22691685552E+02  0.28431941275E+03  0.28575051486E+03  0.00000000000E+00 0. -1.
</event>
<event>
 4    1  0.1679763E+006  0.2499304E+02  0.7546771E-02  0.1468881E+00
         21   -1    0    0  503  501  0.00000000000E+00  0.00000000000E+00  0.10876038095E+02  0.10876038095E+02  0.00000000000E+00 0. -1.
         21   -1    0    0  504  502 -0.00000000000E+00 -0.00000000000E+00 -0.59359802533E+02  0.59359802533E+02  0.00000000000E+00 0. -1.
         21    1    1    2  503  502  0.24985042561E+02  0.63228771166E+00 -0.30567625824E+02  0.39484577851E+02  0.00000000000E+00 0. -1.
         21    1    1    2  504  501 -0.24985042561E+02 -0.63228771166E+00 -0.17916138614E+02  0.30751262777E+02  0.00000000000E+00 0. -1.
</event>
<event>
 4    1  0.1679763E+006  0.2024713E+02  0.7546771E-02  0.1530291E+00
         21   -1    0    0  503  501  0.00000000000E+00  0.00000000000E+00  0.97598155953E+01  0.97598155953E+01  0.00000000000E+00 0.  1.
         21   -1    0    0  504  502 -0.00000000000E+00 -0.00000000000E+00 -0.46864451395E+02  0.46864451395E+02  0.00000000000E+00 0.  1.
         21    1    1    2  503  502  0.28109172972E+01  0.20051062678E+02 -0.27670571534E+02  0.34287124399E+02  0.00000000000E+00 0.  1.
         21    1    1    2  504  501 -0.28109172972E+01 -0.20051062678E+02 -0.94340642659E+01  0.22337142591E+02  0.00000000000E+00 0.  1.
</event>
<event>
 4    1  0.1679763E+006  0.2966177E+02  0.7546771E-02  0.1422559E+00
         21   -1    0    0  504  501  0.00000000000E+00  0.00000000000E+00  0.44700308722E+03  0.44700308722E+03  0.00000000000E+00 0.  1.
         21   -1    0    0  503  502 -0.00000000000E+00 -0.00000000000E+00 -0.30915162447E+01  0.30915162447E+01  0.00000000000E+00 0. -1.
         21    1    1    2  503  501  0.49653810423E+01 -0.29243217964E+02  0.35760784114E+03  0.35883588011E+03  0.00000000000E+00 0.  1.
         21    1    1    2  504  502 -0.49653810423E+01  0.29243217964E+02  0.86303729833E+02  0.91258723357E+02  0.00000000000E+00 0. -1.
</event>
<event>
 4    1  0.1679763E+006  0.4304887E+02  0.7546771E-02  0.1331490E+00
         21   -1    0    0  502  501  0.00000000000E+00  0.00000000000E+00  0.63728473629E+02  0.63728473629E+02  0.00000000000E+00 0. -1.
         21   -1    0    0  504  502 -0.00000000000E+00 -0.00000000000E+00 -0.35340905546E+02  0.35340905546E+02  0.00000000000E+00 0.  1.
         21    1    1    2  503  501  0.18988913733E+02 -0.38634526618E+02  0.35043457847E+02  0.55509003140E+02  0.00000000000E+00 0. -1.
         21    1    1    2  504  503 -0.18988913733E+02  0.38634526618E+02 -0.66558897635E+01  0.43560376035E+02  0.00000000000E+00 0.  1.
</event>
<event>
 4    1  0.1679763E+006  0.4045028E+02  0.7546771E-02  0.1345867E+00
         21   -1    0    0  503  501  0.00000000000E+00  0.00000000000E+00  0.55200605905E+02  0.55200605905E+02  0.00000000000E+00 0. -1.
         21   -1    0    0  501  502 -0.00000000000E+00 -0.00000000000E+00 -0.11877217980E+03  0.11877217980E+03  0.00000000000E+00 0.  1.
         21    1    1    2  503  504  0.35902698153E+02  0.18633877272E+02  0.43568459054E+02  0.59451120605E+02  0.00000000000E+00 0. -1.
         21    1    1    2  504  502 -0.35902698153E+02 -0.18633877272E+02 -0.10714003295E+03  0.11452166510E+03  0.00000000000E+00 0.  1.
</event>
<event>
 4    1  0.1679763E+006  0.2215331E+02  0.7546771E-02  0.1503413E+00
         21   -1    0    0  503  501  0.00000000000E+00  0.00000000000E+00  0.15088745088E+02  0.15088745088E+02  0.00000000000E+00 0. -1.
         21   -1    0    0  501  502 -0.00000000000E+00 -0.00000000000E+00 -0.48107515315E+02  0.48107515315E+02  0.00000000000E+00 0. -1.
         21    1    1    2  503  504 -0.22137878049E+02  0.82664376409E+00  0.14738047172E+01  0.22202276567E+02  0.00000000000E+00 0. -1.
         21    1    1    2  504  502  0.22137878049E+02 -0.82664376409E+00 -0.34492574944E+02  0.40993983836E+02  0.00000000000E+00 0. -1.
</event>
<event>
 4    1  0.1679763E+006  0.2067329E+02  0.7546771E-02  0.1523981E+00
         21   -1    0    0  502  501  0.00000000000E+00  0.00000000000E+00  0.54645468844E+02  0.54645468844E+02  0.00000000000E+00 0.  1.
         21   -1    0    0  504  502 -0.00000000000E+00 -0.00000000000E+00 -0.10629117848E+02  0.10629117848E+02  0.00000000000E+00 0.  1.
         21    1    1    2  503  501  0.17291785001E+02  0.11330457588E+02  0.38783429511E+02  0.43949283297E+02  0.00000000000E+00 0.  1.
         21    1    1    2  504  503 -0.17291785001E+02 -0.11330457588E+02  0.52329214846E+01  0.21325303396E+02  0.00000000000E+00 0.  1.
</event>
<event>
 4    1  0.1679763E+006  0.4097936E+02  0.7546771E-02  0.1342840E+00
         21   -1    0    0  504  501  0.00000000000E+00  0.00000000000E+00  0.39580813807E+02  0.39580813807E+02  0.00000000000E+00 0.  1.
         21   -1    0    0  503  502 -0.00000000000E+00 -0.00000000000E+00 -0.63896300648E+02  0.63896300648E+02  0.00000000000E+00 0.  1.
         21    1    1    2  503  501 -0.31879205144E+02  0.25749263760E+02 -0.42148129269E+02  0.58785824019E+02  0.00000000000E+00 0.  1.
         21    1    1    2  504  502  0.31879205144E+02 -0.25749263760E+02  0.17832642428E+02  0.44691290435E+02  0.00000000000E+00 0.  1.
</event>
<event>
 4    1  0.1679763E+006  0.2623630E+02  0.7546771E-02  0.1455434E+00
         21   -1    0    0  503  501  0.00000000000E+00  0.00000000000E+00  0.59850959033E+03  0.59850959033E+03  0.00000000000E+00 0.  1.
         21   -1    0    0  501  502 -0.00000000000E+00 -0.00000000000E+00 -0.18135787382E+02  0.18135787382E+02  0.00000000000E+00 0.  1.
         21    1    1    2  503  504  0.61564194628E+01  0.25503762828E+02  0.58857321087E+03  0.58915767666E+03  0.00000000000E+00 0.  1.
         21    1    1    2  504  502 -0.61564194628E+01 -0.25503762828E+02 -0.81994079163E+01  0.27487701053E+02  0.00000000000E+00 0.  1.
</event>
<event>
 4    1  0.1679763E+006  0.2527155E+02  0.7546771E-02  0.1465788E+00
         21   -1    0    0  503  501  0.00000000000E+00  0.00000000000E+00  0.18071576323E+03  0.18071576323E+03  0.00000000000E+00 0.  1.
         21   -1    0    0  504  502 -0.00000000000E+00 -0.00000000000E+00 -0.37342919519E+01  0.37342919519E+01  0.00000000000E+00 0.  1.
         21    1    1    2  503  502  0.17990330364E+01  0.25207430035E+02  0.67132412133E+02  0.71731525898E+02  0.00000000000E+00 0.  1.
         21    1    1    2  504  501 -0.17990330364E+01 -0.25207430035E+02  0.10984905914E+03  0.11271852928E+03  0.00000000000E+00 0.  1.
</event>
<event>
 4    1  0.1679763E+006  0.2448710E+02  0.7546771E-02  0.1474624E+00
         21   -1    0    0  503  501  0.00000000000E+00  0.00000000000E+00  0.31720807627E+02  0.31720807627E+02  0.00000000000E+00 0. -1.
         21   -1    0    0  504  502 -0.00000000000E+00 -0.00000000000E+00 -0.20261258989E+02  0.20261258989E+02  0.00000000000E+00 0.  1.
         21    1    1    2  503  502 -0.19804180908E+02  0.14401824951E+02 -0.99972964210E+00  0.24507500948E+02  0.00000000000E+00 0. -1.
         21    1    1    2  504  501  0.19804180908E+02 -0.14401824951E+02  0.12459278281E+02  0.27474565668E+02  0.00000000000E+00 0.  1.
</event>
<event>
 4    1  0.1679763E+006  0.2249476E+02  0.7546771E-02  0.1498942E+00
         21   -1    0    0  504  501  0.00000000000E+00  0.00000000000E+00  0.18478412996E+03  0.18478412996E+03  0.00000000000E+00 0.  1.
         21   -1    0    0  503  502 -0.00000000000E+00 -0.00000000000E+00 -0.63535403150E+02  0.63535403150E+02  0.00000000000E+00 0. -1.
         21    1    1    2  503  501 -0.22387181293E+02  0.21973853155E+01  0.18207898604E+03  0.18346327029E+03  0.00000000000E+00 0.  1.
         21    1    1    2  504  502  0.22387181293E+02 -0.21973853155E+01 -0.60830259231E+02  0.64856262817E+02  0.00000000000E+00 0. -1.
</event>
<event>
 4    1  0.1679763E+006  0.2607495E+02  0.7546771E-02  0.1457128E+00
         21   -1    0    0  502  501  0.00000000000E+00  0.00000000000E+00  0.26820226848E+02  0.26820226848E+02  0.00000000000E+00 0.  1.
         21   -1    0    0  503  502 -0.00000000000E+00 -0.00000000000E+00 -0.80141648401E+02  0.80141648401E+02  0.00000000000E+00 0. -1.
         21    1    1    2  503  504  0.12032501323E+02  0.23132699105E+02 -0.70881406098E+02  0.75525337380E+02  0.00000000000E+00 0. -1.
         21    1    1    2  504  501 -0.12032501323E+02 -0.23132699105E+02  0.17559984545E+02  0.31436537869E+02  0.00000000000E+00 0.  1.
</event>
<event>
 4    1  0.1679763E+006  0.3091248E+02  0.7546771E-02  0.1411829E+00
         21   -1    0    0  503  501  0.00000000000E+00  0.00000000000E+00  0.17130738713E+03  0.17130738713E+03  0.00000000000E+00 0. -1.
         21   -1    0    0  501  502 -0.00000000000E+00 -0.00000000000E+00 -0.97265758507E+02  0.97265758507E+02  0.00000000000E+00 0.  1.
         21    1    1    2  503  504 -0.30034009861E+02 -0.73170598275E+01  0.16739988613E+03  0.17023014712E+03  0.00000000000E+00 0. -1.
         21    1    1    2  504  502  0.30034009861E+02  0.73170598275E+01 -0.93358257505E+02  0.98342998517E+02  0.00000000000E+00 0.  1.
</event>
<event>
 4    1  0.1679763E+006  0.2076150E+02  0.7546771E-02  0.1522697E+00
         21   -1    0    0  504  501  0.00000000000E+00  0.00000000000E+00  0.50473203786E+03  0.50473203786E+03  0.00000000000E+00 0. -1.
         21   -1    0    0  503  502 -0.00000000000E+00 -0.00000000000E+00 -0.12284479970E+01  0.12284479970E+01  0.00000000000E+00 0. -1.
         21    1    1    2  503  501 -0.72733508344E+01 -0.19445774575E+02  0.11208101526E+03  0.11398769128E+03  0.00000000000E+00 0. -1.
         21    1    1    2  504  502  0.72733508344E+01  0.19445774575E+02  0.39142257460E+03  0.39197279458E+03  0.00000000000E+00 0. -1.
</event>
<event>
 4    1  0.1679763E+006  0.3363116E+02  0.7546771E-02  0.1390451E+00
         21   -1    0    0  503  501  0.00000000000E+00  0.00000000000E+00  0.38512116970E+03  0.38512116970E+03  0.00000000000E+00 0. -1.
         21   -1    0    0  504  502 -0.00000000000E+00 -0.00000000000E+00 -0.43426241721E+01  0.43426241721E+01  0.00000000000E+00 0. -1.
         21    1    1    2  503  502 -0.33442296270E+02 -0.35591648575E+01  0.30118271305E+03  0.30305458497E+03  0.00000000000E+00 0. -1.
         21    1    1    2  504  501  0.33442296270E+02  0.35591648575E+01  0.79595832475E+02  0.86409208894E+02  0.00000000000E+00 0. -1.
</event>
<event>
 4    1  0.1679763E+006  0.2075601E+02  0.7546771E-02  0.1522777E+00
         21   -1    0    0  504  501  0.00000000000E+00  0.00000000000E+00  0.10588862264E+03  0.10588862264E+03  0.00000000000E+00 0.  1.
         21   -1    0    0  501  502 -0.00000000000E+00 -0.00000000000E+00 -0.19409738459E+02  0.19409738459E+02  0.00000000000E+00 0.  1.
         21    1    1    2  503  502 -0.78662609566E+01  0.19207647737E+02 -0.12457998351E+02  0.24207716042E+02  0.00000000000E+00 0.  1.
         21    1    1    2  504  503  0.78662609566E+01 -0.19207647737E+02  0.98936882528E+02  0.10109064505E+03  0.00000000000E+00 0.  1.
</event>
<event>
 4    1  0.1679763E+006  0.2573016E+02  0.7546771E-02  0.1460798E+00
         21   -1    0    0  503  501  0.00000000000E+00  0.00000000000E+00  0.17284317369E+03  0.17284317369E+03  0.00000000000E+00 0. -1.
         21   -1    0    0  504  502 -0.00000000000E+00 -0.00000000000E+00 -0.12558318847E+02  0.12558318847E+02  0.00000000000E+00 0.  1.
         21    1    1    2  503  502 -0.91202947481E+01 -0.24059541356E+02  0.15742388441E+03  0.15951276027E+03  0.00000000000E+00 0. -1.
         21    1    1    2  504  501  0.91202947481E+01  0.24059541356E+02  0.28609704326E+01  0.25888732266E+02  0.00000000000E+00 0.  1.
</event>
<event>
 4    1  0.1679763E+006  0.2301239E+02  0.7546771E-02  0.1492343E+00
         21   -1    0    0  503  501  0.00000000000E+00  0.00000000000E+00  0.11484855136E+03  0.11484855136E+03  0.00000000000E+00 0.  1.
         21   -1    0    0  501  502 -0.00000000000E+00 -0.00000000000E+00 -0.11940072999E+02  0.11940072999E+02  0.00000000000E+00 0.  1.
         21    1    1    2  503  504  0.21898658648E+02  0.70723889317E+01  0.10112153149E+03  0.10370696248E+03  0.00000000000E+00 0.  1.
         21    1    1    2  504  502 -0.21898658648E+02 -0.70723889317E+01  0.17869468666E+01  0.23081661875E+02  0.00000000000E+00 0.  1.
</event>
<event>
 4    1  0.1679763E+006  0.2816507E+02  0.7546771E-02  0.1436243E+00
         21   -1    0    0  503  501  0.00000000000E+00  0.00000000000E+00  0.12709997630E+03  0.12709997630E+03  0.00000000000E+00 0.  1.
         21   -1    0    0  504  502 -0.00000000000E+00 -0.00000000000E+00 -0.10252546424E+02  0.10252546424E+02  0.00000000000E+00 0. -1.
         21    1    1    2  503  502  0.18122029045E+02  0.21560690476E+02  0.10138027488E+03  0.10521991943E+03  0.00000000000E+00 0.  1.
         21    1    1    2  504  501 -0.18122029045E+02 -0.21560690476E+02  0.15467154994E+02  0.32132603289E+02  0.00000000000E+00 0. -1.
</event>
<event>
 4    1  0.1679763E+006  0.3418110E+02  0.7546771E-02  0.1386413E+00
         21   -1    0    0  503  501  0.00000000000E+00  0.00000000000E+00  0.19437410225E+01  0.19437410225E+01  0.00000000000E+00 0.  1.
         21   -1    0    0  504  502 -0.00000000000E+00 -0.00000000000E+00 -0.65431563286E+03  0.65431563286E+03  0.00000000000E+00 0.  1.
         21    1    1    2  503  502  0.14316554317E+02 -0.31038424554E+02 -0.41977937938E+03  0.42116870121E+03  0.00000000000E+00 0.  1.
         21    1    1    2  504  501 -0.14316554317E+02  0.31038424554E+02 -0.23259251246E+03  0.23509067267E+03  0.00000000000E+00 0.  1.
</event>
<event>
 4    1  0.1679763E+006  0.2476705E+02  0.7546771E-02  0.1471426E+00
         21   -1    0    0  504  501  0.00000000000E+00  0.00000000000E+00  0.11808865056E+03  0.11808865056E+03  0.00000000000E+00 0. -1.
         21   -1    0    0  501  502 -0.00000000000E+00 -0.00000000000E+00 -0.19488281651E+02  0.19488281651E+02  0.00000000000E+00 0. -1.
         21    1    1    2  503  502  0.23429553123E+02  0.80288792906E+01 -0.96117141592E+01  0.26566744461E+02  0.00000000000E+00 0. -1.
         21    1    1    2  504  503 -0.23429553123E+02 -0.80288792906E+01  0.10821208307E+03  0.11101018775E+03  0.00000000000E+00 0. -1.
</event>
<event>
 4    1  0.1679763E+006  0.2471381E+02  0.7546771E-02  0.1472031E+00
         21   -1    0    0  503  501  0.00000000000E+00  0.00000000000E+00  0.63094369128E+02  0.63094369128E+02  0.00000000000E+00 0.  1.
         21   -1    0    0  504  502 -0.00000000000E+00 -0.00000000000E+00 -0.94577212796E+02  0.94577212796E+02  0.00000000000E+00 0. -1.
         21    1    1    2  503  502  0.22592800351E+02  0.10016869176E+02  0.58950928869E+02  0.63921704532E+02  0.00000000000E+00 0.  1.
         21    1    1    2  504  501 -0.22592800351E+02 -0.10016869176E+02 -0.90433772537E+02  0.93749877392E+02  0.00000000000E+00 0. -1.
</event>
<event>
 4    1  0.1679763E+006  0.2326001E+02  0.7546771E-02  0.1489259E+00
         21   -1    0    0  503  501  0.00000000000E+00  0.00000000000E+00  0.72444936772E+02  0.72444936772E+02  0.00000000000E+00 0. -1.
         21   -1    0    0  504  502 -0.00000000000E+00 -0.00000000000E+00 -0.26113248941E+02  0.26113248941E+02  0.00000000000E+00 0.  1.
         21    1    1    2  503  502  0.11326062721E+02 -0.20316214902E+02 -0.18474548778E+02  0.29704161951E+02  0.00000000000E+00 0.  1.
         21    1    1    2  504  501 -0.11326062721E+02  0.20316214902E+02  0.64806236609E+02  0.68854023761E+02  0.00000000000E+00 0. -1.
</event>
<event>
 4    1  0.1679763E+006  0.2906746E+02  0.7546771E-02  0.1427877E+00
         21   -1    0    0  502  501  0.00000000000E+00  0.00000000000E+00  0.51945183907E+02  0.51945183907E+02  0.00000000000E+00 0. -1.
         21   -1    0    0  504  502 -0.00000000000E+00 -0.00000000000E+00 -0.52663196870E+02  0.52663196870E+02  0.00000000000E+00 0.  1.
         21    1    1    2  503  501 -0.19107195076E+02  0.21905072858E+02  0.43123994840E+02  0.52005730949E+02  0.00000000000E+00 0. -1.
         21    1    1    2  504  503  0.19107195076E+02 -0.21905072858E+02 -0.43842007804E+02  0.52602649827E+02  0.00000000000E+00 0.  1.
</event>
<event>
 4    1  0.1679763E+006  0.5114091E+02  0.7546771E-02  0.1293300E+00
         21   -1    0    0  504  501  0.00000000000E+00  0.00000000000E+00  0.52942295693E+02  0.52942295693E+02  0.00000000000E+00 0. -1.
         21   -1    0    0  503  502 -0.00000000000E+00 -0.00000000000E+00 -0.35583925856E+03  0.35583925856E+03  0.00000000000E+00 0.  1.
         21    1    1    2  503  501  0.82244473327E+01 -0.50475255583E+02 -0.34112168659E+03  0.34493390384E+03  0.00000000000E+00 0.  1.
         21    1    1    2  504  502 -0.82244473327E+01  0.50475255583E+02  0.38224723717E+02  0.63847650413E+02  0.00000000000E+00 0. -1.
</event>
<event>
 4    1  0.1679763E+006  0.2810652E+02  0.7546771E-02  0.1436799E+00
         21   -1    0    0  503  501  0.00000000000E+00  0.00000000000E+00  0.10611361162E+04  0.10611361162E+04  0.00000000000E+00 0.  1.
         21   -1    0    0  504  502 -0.00000000000E+00 -0.00000000000E+00 -0.12785208550E+01  0.12785208550E+01  0.00000000000E+00 0. -1.
         21    1    1    2  503  502  0.99218156772E+01 -0.26297032299E+02  0.18660462048E+03  0.18870946113E+03  0.00000000000E+00 0. -1.
         21    1    1    2  504  501 -0.99218156772E+01  0.26297032299E+02  0.87325297486E+03  0.87370517593E+03  0.00000000000E+00 0.  1.
</event>
<event>
 4    1  0.1679763E+006  0.2219828E+02  0.7546771E-02  0.1502818E+00
         21   -1    0    0  502  501  0.00000000000E+00  0.00000000000E+00  0.30305942401E+03  0.30305942401E+03  0.00000000000E+00 0.  1.
         21   -1    0    0  503  502 -0.00000000000E+00 -0.00000000000E+00 -0.69132900981E+01  0.69132900981E+01  0.00000000000E+00 0.  1.
         21    1    1    2  503  504  0.11884148211E+02 -0.18749147361E+02  0.12532544264E+02  0.25491727506E+02  0.00000000000E+00 0.  1.
         21    1    1    2  504  501 -0.11884148211E+02  0.18749147361E+02  0.28361358965E+03  0.28448098660E+03  0.00000000000E+00 0.  1.
</event>
<event>
 4    1  0.1679763E+006  0.1431422E+03  0.7546771E-02  0.1104861E+00
         21   -1    0    0  503  501  0.00000000000E+00  0.00000000000E+00  0.21597609053E+03  0.21597609053E+03  0.00000000000E+00 0. -1.
         21   -1    0    0  504  502 -0.00000000000E+00 -0.00000000000E+00 -0.11846509472E+03  0.11846509472E+03  0.00000000000E+00 0. -1.
         21    1    1    2  503  502 -0.33709779567E+02 -0.13911624176E+03  0.12338392686E+03  0.18897955278E+03  0.00000000000E+00 0. -1.
         21    1    1    2  504  501  0.33709779567E+02  0.13911624176E+03 -0.25872931050E+02  0.14546163247E+03  0.00000000000E+00 0. -1.
</event>
<event>
 4    1  0.1679763E+006  0.3107205E+02  0.7546771E-02  0.1410503E+00
         21   -1    0    0  504  501  0.00000000000E+00  0.00000000000E+00  0.73755631755E+02  0.73755631755E+02  0.00000000000E+00 0.  1.
         21   -1    0    0  503  502 -0.00000000000E+00 -0.00000000000E+00 -0.16288720562E+02  0.16288720562E+02  0.00000000000E+00 0.  1.
         21    1    1    2  503  501  0.25465072768E+01 -0.30967525759E+02  0.48684282557E+02  0.57754928093E+02  0.00000000000E+00 0.  1.
         21    1    1    2  504  502 -0.25465072768E+01  0.30967525759E+02  0.87826286356E+01  0.32289424224E+02  0.00000000000E+00 0.  1.
</event>
<event>
 4    1  0.1679763E+006  0.2996845E+02  0.7546771E-02  0.1419871E+00
         21   -1    0    0  504  501  0.00000000000E+00  0.00000000000E+00  0.33494033586E+03  0.33494033586E+03  0.00000000000E+00 0. -1.
         21   -1    0    0  503  502 -0.00000000000E+00 -0.00000000000E+00 -0.48074822254E+01  0.48074822254E+01  0.00000000000E+00 0.  1.
         21    1    1    2  503  501  0.26451297921E+02  0.14086771289E+02  0.27803511556E+03  0.27964555024E+03  0.00000000000E+00 0. -1.
         21    1    1    2  504  502 -0.26451297921E+02 -0.14086771289E+02  0.52097738071E+02  0.60102267837E+02  0.00000000000E+00 0.  1.
</event>
<event>
 4    1  0.1679763E+006  0.2233810E+02  0.7546771E-02  0.1500981E+00
         21   -1    0    0  504  501  0.00000000000E+00  0.00000000000E+00  0.31240466364E+01  0.31240466364E+01  0.00000000000E+00 0. -1.
         21   -1    0    0  501  502 -0.00000000000E+00 -0.00000000000E+00 -0.72957022416E+03  0.72957022416E+03  0.00000000000E+00 0.  1.
         21    1    1    2  503  502  0.51178468510E+01  0.21743923005E+02 -0.68699370973E+03  0.68735678345E+03  0.00000000000E+00 0.  1.
         21    1    1    2  504  503 -0.51178468510E+01 -0.21743923005E+02 -0.39452467797E+02  0.45337487351E+02  0.00000000000E+00 0. -1.
</event>
<event>
 4    1  0.1679763E+006  0.2137967E+02  0.7546771E-02  0.1513913E+00
         21   -1    0    0  504  501  0.00000000000E+00  0.00000000000E+00  0.60630085100E+03  0.60630085100E+03  0.00000000000E+00 0.  1.
         21   -1    0    0  503  502 -0.00000000000E+00 -0.00000000000E+00 -0.77794383528E+00  0.77794383528E+00  0.00000000000E+00 0.  1.
         21    1    1    2  503  501 -0.33591583281E+01 -0.21114131379E+02  0.24939864345E+03  0.25031335131E+03  0.00000000000E+00 0.  1.
         21    1    1    2  504  502  0.33591583281E+01  0.21114131379E+02  0.35612426371E+03  0.35676544352E+03  0.00000000000E+00 0.  1.
</event>
<event>
 4    1  0.1679763E+006  0.2023637E+02  0.7546771E-02  0.1530452E+00
         21   -1    0    0  503  501  0.00000000000E+00  0.00000000000E+00  0.41354001469E+03  0.41354001469E+03  0.00000000000E+00 0.  1.
         21   -1    0    0  504  502 -0.00000000000E+00 -0.00000000000E+00 -0.11611030097E+01  0.11611030097E+01  0.00000000000E+00 0.  1.
         21    1    1    2  503  502  0.17483168442E+02 -0.10190666029E+02  0.12665187418E+03  0.12825836459E+03  0.00000000000E+00 0.  1.
         21    1    1    2  504  501 -0.17483168442E+02  0.10190666029E+02  0.28572703750E+03  0.28644275311E+03  0.00000000000E+00 0.  1.
</event>
<event>
 4    1  0.1679763E+006  0.2285232E+02  0.7546771E-02  0.1494361E+00
         21   -1    0    0  504  501  0.00000000000E+00  0.00000000000E+00  0.53836828132E+01  0.53836828132E+01  0.00000000000E+00 0. -1.
         21   -1    0    0  503  502 -0.00000000000E+00 -0.00000000000E+00 -0.17866302492E+03  0.17866302492E+03  0.00000000000E+00 0. -1.
         21    1    1    2  503  501 -0.22842647556E+02  0.66486297544E+00 -0.14885362995E+03  0.15059758212E+03  0.00000000000E+00 0. -1.
         21    1    1    2  504  502  0.22842647556E+02 -0.66486297544E+00 -0.24425712156E+02  0.33449125616E+02  0.00000000000E+00 0. -1.
</event>
<event>
 4    1  0.1679763E+006  0.2008365E+02  0.7546771E-02  0.1532761E+00
         21   -1    0    0  502  501  0.00000000000E+00  0.00000000000E+00  0.38395506590E+02  0.38395506590E+02  0.00000000000E+00 0. -1.
         21   -1    0    0  504  502 -0.00000000000E+00 -0.00000000000E+00 -0.42447026431E+03  0.42447026431E+03  0.00000000000E+00 0.  1.
         21    1    1    2  503  501 -0.13302322669E+02 -0.15046639192E+02  0.35513697423E+02  0.40799213768E+02  0.00000000000E+00 0. -1.
         21    1    1    2  504  503  0.13302322669E+02  0.15046639192E+02 -0.42158845514E+03  0.42206655713E+03  0.00000000000E+00 0.  1.
</event>
<event>
 4    1  0.1679763E+006  0.2130253E+02  0.7546771E-02  0.1514989E+00
         21   -1    0    0  502  501  0.00000000000E+00  0.00000000000E+00  0.47272483258E+03  0.47272483258E+03  0.00000000000E+00 0.  1.
         21   -1    0    0  503  502 -0.00000000000E+00 -0.00000000000E+00 -0.56203664117E+01  0.56203664117E+01  0.00000000000E+00 0.  1.
         21    1    1    2  503  504  0.14780854525E+02 -0.15340275019E+02  0.15760731709E+02  0.26499025683E+02  0.00000000000E+00 0.  1.
         21    1    1    2  504  501 -0.14780854525E+02  0.15340275019E+02  0.45134373446E+03  0.45184617331E+03  0.00000000000E+00 0.  1.
</event>
<event>
 4    1  0.1679763E+006  0.2336096E+02  0.7546771E-02  0.1488015E+00
         21   -1    0    0  504  501  0.00000000000E+00  0.00000000000E+00  0.53658613250E+03  0.53658613250E+03  0.00000000000E+00 0.  1.
         21   -1    0    0  503  502 -0.00000000000E+00 -0.00000000000E+00 -0.30384750579E+02  0.30384750579E+02  0.00000000000E+00 0.  1.
         21    1    1    2  503  501 -0.20179534356E+02  0.11769497614E+02 -0.25599905303E+02  0.34656742957E+02  0.00000000000E+00 0.  1.
         21    1    1    2  504  502  0.20179534356E+02 -0.11769497614E+02  0.53180128722E+03  0.53231414012E+03  0.00000000000E+00 0.  1.
</event>
<event>
 4    1  0.1679763E+006  0.2478029E+02  0.7546771E-02  0.1471276E+00
         21   -1    0    0  503  501  0.00000000000E+00  0.00000000000E+00  0.46166832474E+03  0.46166832474E+03  0.00000000000E+00 0.  1.
         21   -1    0    0  504  502 -0.00000000000E+00 -0.00000000000E+00 -0.14930521350E+01  0.14930521350E+01  0.00000000000E+00 0. -1.
         21    1    1    2  503  502 -0.10769434532E+02  0.22317754141E+02  0.15358064181E+03  0.15556695153E+03  0.00000000000E+00 0. -1.
         21    1    1    2  504  501  0.10769434532E+02 -0.22317754141E+02  0.30659463079E+03  0.30759442534E+03  0.00000000000E+00 0.  1.
</event>
<event>
 4    1  0.1679763E+006  0.2565129E+02  0.7546771E-02  0.1461648E+00
         21   -1    0    0  504  501  0.00000000000E+00  0.00000000000E+00  0.11332958554E+02  0.11332958554E+02  0.00000000000E+00 0.  1.
         21   -1    0    0  503  502 -0.00000000000E+00 -0.00000000000E+00 -0.21885037243E+03  0.21885037243E+03  0.00000000000E+00 0.  1.
         21    1    1    2  503  501 -0.13838935104E+02 -0.21597970839E+02 -0.20240950895E+03  0.20402842395E+03  0.00000000000E+00 0.  1.
         21    1    1    2  504  502  0.13838935104E+02  0.21597970839E+02 -0.51079049348E+01  0.26154907035E+02  0.00000000000E+00 0.  1.
</event>
<event>
 4    1  0.1679763E+006  0.2200040E+02  0.7546771E-02  0.1505447E+00
         21   -1    0    0  503  501  0.00000000000E+00  0.00000000000E+00  0.56392308987E+02  0.56392308987E+02  0.00000000000E+00 0.  1.
         21   -1    0    0  504  502 -0.00000000000E+00 -0.00000000000E+00 -0.95883730348E+01  0.95883730348E+01  0.00000000000E+00 0.  1.
         21    1    1    2  503  502  0.14871116476E+02 -0.16213190512E+02  0.34084360288E+02  0.40567983289E+02  0.00000000000E+00 0.  1.
         21    1    1    2  504  501 -0.14871116476E+02  0.16213190512E+02  0.12719575663E+02  0.25412698733E+02  0.00000000000E+00 0.  1.
</event>
<event>
 4    1  0.1679763E+006  0.2617821E+02  0.7546771E-02  0.1456042E+00
         21   -1    0    0  502  501  0.00000000000E+00  0.00000000000E+00  0.13334488411E+02  0.13334488411E+02  0.00000000000E+00 0. -1.
         21   -1    0    0  504  502 -0.00000000000E+00 -0.00000000000E+00 -0.28854565456E+03  0.28854565456E+03  0.00000000000E+00 0. -1.
         21    1    1    2  503  501  0.71194157450E+01  0.25191515425E+02 -0.76612848548E+00  0.26189415473E+02  0.00000000000E+00 0. -1.
         21    1    1    2  504  503 -0.71194157450E+01 -0.25191515425E+02 -0.27444503766E+03  0.27569072750E+03  0.00000000000E+00 0. -1.
</event>
<event>
 4    1  0.1679763E+006  0.5566004E+02  0.7546771E-02  0.1275337E+00
         21   -1    0    0  504  501  0.00000000000E+00  0.00000000000E+00  0.15111875693E+03  0.15111875693E+03  0.00000000000E+00 0.  1.
         21   -1    0    0  503  502 -0.00000000000E+00 -0.00000000000E+00 -0.52408023138E+02  0.52408023138E+02  0.00000000000E+00 0.  1.
         21    1    1    2  503  501  0.55660024071E+02 -0.40724195921E-01  0.12875854378E+03  0.14027402659E+03  0.00000000000E+00 0.  1.
         21    1    1    2  504  502 -0.55660024071E+02  0.40724195921E-01 -0.30047809988E+02  0.63252753483E+02  0.00000000000E+00 0.  1.
</event>
<event>
 4    1  0.1679763E+006  0.2435962E+02  0.7546771E-02  0.1476096E+00
         21   -1    0    0  503  501  0.00000000000E+00  0.00000000000E+00  0.42229747237E+02  0.42229747237E+02  0.00000000000E+00 0. -1.
         21   -1    0    0  504  502 -0.00000000000E+00 -0.00000000000E+00 -0.31940609963E+02  0.31940609963E+02  0.00000000000E+00 0. -1.
         21    1    1    2  503  502  0.90777170640E+01  0.22604998988E+02  0.32898419129E+02  0.40935277054E+02  0.00000000000E+00 0. -1.
         21    1    1    2  504  501 -0.90777170640E+01 -0.22604998988E+02 -0.22609281854E+02  0.33235080146E+02  0.00000000000E+00 0. -1.
</event>
<event>
 4    1  0.1679763E+006  0.2715924E+02  0.7546771E-02  0.1446015E+00
         21   -1    0    0  504  501  0.00000000000E+00  0.00000000000E+00  0.19784991474E+03  0.19784991474E+03  0.00000000000E+00 0.  1.
         21   -1    0    0  503  502 -0.00000000000E+00 -0.00000000000E+00 -0.42090933129E+02  0.42090933129E+02  0.00000000000E+00 0. -1.
         21    1    1    2  503  501  0.15640380375E+02 -0.22203669777E+02 -0.36654574378E+02  0.45619976684E+02  0.00000000000E+00 0. -1.
         21    1    1    2  504  502 -0.15640380375E+02  0.22203669777E+02  0.19241355599E+03  0.19432087119E+03  0.00000000000E+00 0.  1.
</event>
<event>
 4    1  0.1679763E+006  0.2916402E+02  0.7546771E-02  0.1427003E+00
         21   -1    0    0  503  501  0.00000000000E+00  0.00000000000E+00  0.42648420105E+02  0.42648420105E+02  0.00000000000E+00 0. -1.
         21   -1    0    0  504  502 -0.00000000000E+00 -0.00000000000E+00 -0.55741146787E+02  0.55741146787E+02  0.00000000000E+00 0.  1.
         21    1    1    2  503  502  0.61122671366E+01  0.28516318209E+02 -0.45970390152E+02  0.54440949519E+02  0.00000000000E+00 0.  1.
         21    1    1    2  504  501 -0.61122671366E+01 -0.28516318209E+02  0.32877663470E+02  0.43948617373E+02  0.00000000000E+00 0. -1.
</event>
<event>
 4    1  0.1679763E+006  0.3313510E+02  0.7546771E-02  0.1394170E+00
         21   -1    0    0  504  501  0.00000000000E+00  0.00000000000E+00  0.10269070577E+02  0.10269070577E+02  0.00000000000E+00 0.  1.
         21   -1    0    0  503  502 -0.00000000000E+00 -0.00000000000E+00 -0.11756476861E+03  0.11756476861E+03  0.00000000000E+00 0.  1.
         21    1    1    2  503  501 -0.12009001217E+02 -0.30882337128E+02 -0.72883780394E+02  0.80062352584E+02  0.00000000000E+00 0.  1.
         21    1    1    2  504  502  0.12009001217E+02  0.30882337128E+02 -0.34411917639E+02  0.47771486604E+02  0.00000000000E+00 0.  1.
</event>
<event>
 4    1  0.1679763E+006  0.2086429E+02  0.7546771E-02  0.1521211E+00
         21   -1    0    0  504  501  0.00000000000E+00  0.00000000000E+00  0.37289212140E+03  0.37289212140E+03  0.00000000000E+00 0. -1.
         21   -1    0    0  503  502 -0.00000000000E+00 -0.00000000000E+00 -0.15010210881E+01  0.15010210881E+01  0.00000000000E+00 0. -1.
         21    1    1    2  503  501  0.18473425339E+02 -0.96979882900E+01  0.97443666839E+02  0.99652328761E+02  0.00000000000E+00 0. -1.
         21    1    1    2  504  502 -0.18473425339E+02  0.96979882900E+01  0.27394743347E+03  0.27474081373E+03  0.00000000000E+00 0. -1.
</event>
